<?xml version="1.0"?>
<VTKFile type="UnstructuredGrid"  version="0.1"  >
<UnstructuredGrid>
<Piece  NumberOfPoints="1933" NumberOfCells="3640">
<Points>
<DataArray  type="Float64"  NumberOfComponents="3"  format="ascii">0.4754562753222381 0.0003461782748132647 0  5.475456289064553 0.0003259280740485636 0  5.475486689090254 7.500325977733666 0  0.475486658254916 7.500346197911765 0  10.47545630442455 0.0003056288401053532 0  10.47548674739295 7.500305689732738 0  15.47545634752702 0.0002852505727757011 0  15.47548684857232 7.500285315220566 0  20.47545644852336 0.0002647864166480717 0  20.47548700808357 7.500264851931221 0  25.47545663655291 0.0002442436630558373 0  25.47548724161847 7.500244309176932 0  30.47545693836468 0.0002236386330344939 0  30.47548756475213 7.50022370419835 0  35.47545737840743 0.0002029937506115658 0  35.47548799268496 7.500203059842158 0  40.47545797946923 0.0001823359797625361 0  40.47548854016376 7.500182403270863 0  45.47545876347913 0.0001616961613959701 0  45.47548922153314 7.500161765429 0  50.47545975231652 0.0001411089829132399 0  50.47549005085007 7.50014118107549 0  55.47546096857376 0.0001206134342170838 0  55.47549104200319 7.500120689270492 0  60.475462436261 0.0001002536859344326 0  60.47549220878839 7.50010033426833 0  65.47546418145694 8.008038691911627e-05 0  65.47549356489306 7.50008016682039 0  70.47546623290512 6.015243124912284e-05 0  70.47549512373743 7.500060245939514 0  75.47546862255086 4.053929974082084e-05 0  75.47549689810315 7.500040641227321 0  80.47547138598705 2.13241472839013e-05 0  80.47549889945172 7.50002143592515 0  85.47547456274327 2.607896916479628e-06 0  85.47550113678918 7.500002730926235 0  90.47547819627884 -1.548526895013569e-05 0  90.47550361486654 7.499984650090679 0  95.47548233341828 -3.28004352783903e-05 0  95.47550633141036 7.49996734734741 0  100.4754870227242 -4.91416159547972e-05 0  100.4755092729525 7.499951016259767 0  105.4754923108549 -6.425720481280297e-05 0  105.4755124086795 7.499935902978086 0  110.4754982350861 -7.781915419869284e-05 0  110.4755156815976 7.499922323779953 0  115.4755048085068 -8.939272088726182e-05 0  115.4755189963629 7.499910688610727 0  120.4755119911422 -9.839198802240708e-05 0  120.4755222037232 7.499901531890205 0  125.4755196338998 -0.0001040141246522297 0  125.4755250836362 7.499895550604156 0  130.4755273697291 -0.0001051428537166734 0  130.4755273349764 7.49989364561666 0  135.4755344016487 -0.0001002112674351155 0  135.4755285945087 7.499896951613916 0  140.4755390874563 -8.702731530175751e-05 0  140.4755285435405 7.499906818537258 0  145.4755381155328 -6.264617415364881e-05 0  145.4755272472684 7.499924675709337 0  150.4755248131669 -2.379924398035009e-05 0  150.4755260954212 7.499951766201877 0  160.4755282581476 9.901628093585828e-19 0  165.4754720465161 -7.884898628314924e-05 0  165.4755178687293 7.499908878568676 0  160.4755340467692 7.499970221311433 0  170.4754417424784 -0.0001450054033365272 0  170.4755012855125 7.499848901322629 0  175.4754251880601 -0.0002022699102658561 0  175.4754876986801 7.499794398762481 0  180.4754162628973 -0.0002526786362082749 0  180.4754774475422 7.499745405274009 0  185.475411700145 -0.0002977356304127886 0  185.4754700526983 7.499701125091543 0  190.475409690884 -0.0003386061888792163 0  190.4754648955546 7.499660698154419 0  195.4754092027974 -0.0003761840979803504 0  195.4754614223588 7.499623381420714 0  200.4754096292176 -0.0004111491414601247 0  200.4754591901917 7.499588574650677 0  205.4754106028297 -0.0004440185925939358 0  205.4754578611981 7.499555803984528 0  210.4754118945391 -0.0004751889832946131 0  210.4754571830108 7.49952469712234 0  215.4754133573715 -0.0005049678247047657 0  215.475456968594 7.499494960354374 0  220.475414894622 -0.0005335968819724455 0  220.4754570794563 7.499466359945899 0  225.4754164412977 -0.0005612690081438285 0  225.4754574127694 7.499438707827935 0  230.4754179530057 -0.0005881402955097143 0  230.4754578918533 7.499411850833241 0  235.4754193991085 -0.0006143388976813372 0  235.4754584592708 7.499385662647651 0  240.4754207583881 -0.0006399715028107224 0  240.4754590718506 7.499360037775607 0  245.4754220162368 -0.0006651281478683903 0  245.4754596971006 7.499334886980114 0  250.4754231628014 -0.0006898858532671453 0  250.4754603106232 7.499310133799417 0  255.4754241917533 -0.0007143114092350394 0  255.4754608942519 7.499285711854053 0  260.4754250994834 -0.0007384635422692212 0  260.4754614347059 7.499261562741085 0  265.4754258846147 -0.0007623946169647392 0  265.4754619226327 7.499237634374516 0  270.4754265477522 -0.0007861519739708134 0  270.4754623519381 7.499213879678755 0  275.4754270914602 -0.000809778959288469 0  275.4754627193267 7.499190255582636 0  280.4754275204357 -0.0008333156542751588 0  280.4754630240097 7.499166722300571 0  285.4754278419056 -0.0008567992581890627 0  285.4754632675159 7.499143242932133 0  290.4754280662315 -0.0008802639882419009 0  290.4754634535726 7.499119783469155 0  295.4754282077092 -0.0009037402153299499 0  295.4754635879982 7.499096313377659 0  300.4754282854215 -0.0009272522899414519 0  300.4754636785843 7.499072807026832 0  305.4754283237269 -0.0009508140255515777 0  305.4754637350499 7.499049246361738 0  310.4754283512553 -0.000974419917141359 0  310.4754637695328 7.499025625334837 0  5.475516925368872 15.00032609620236 0  0.4755168907098976 15.00034624849806 0  10.47551698635857 15.00030583179018 0  15.47551708748914 15.00028546106699 0  20.47551723847963 15.00026499398056 0  25.47551744747586 15.0002444456821 0  30.4755177220326 15.00022383607241 0  35.47551806938638 15.00020318910706 0  40.47551849643684 15.00018253231935 0  45.47551900961501 15.00016189668527 0  50.47551961470007 15.00014131684274 0  55.47552031658936 15.0001208316532 0  60.47552111900029 15.00010048510423 0  65.47552202407088 15.00008032757437 0  70.4755230318125 15.00006041750961 0  75.47552413936529 15.0000408235933 0  80.47552533999158 15.00002162752758 0  85.47552662174664 15.00000292758444 0  90.47552796576498 14.99998484312703 0  95.47552934414078 14.99996752033491 0  100.4755307174664 14.99995113936823 0  105.4755320323058 14.99993592311852 0  110.4755332192943 14.99992214739743 0  115.4755341933765 14.99991015166293 0  120.4755348591604 14.9999003476808 0  125.47553512685 14.99989321990766 0  130.475534948037 14.99988930404351 0  135.4755343854524 14.99988911569169 0  140.475533733856 14.99989297243857 0  145.4755336993943 14.99990059194667 0  150.4755355823021 14.99991018525576 0  165.4755426807024 14.99987604421852 0  160.4755452019893 14.99991957242993 0  170.4755367950197 14.99982908338905 0  175.4755296473827 14.99978252203542 0  180.4755226704508 14.99973820494926 0  185.4755165342208 14.99969667879475 0  190.4755114510547 14.99965789355491 0  195.4755074040606 14.99962157297976 0  200.4755042782672 14.99958738356167 0  205.4755019284732 14.99955500446193 0  210.4755002113634 14.99952415203045 0  215.4754989988212 14.99949458462245 0  220.4754981819 14.99946609960023 0  225.4754976704922 14.99943852783378 0  230.4754973912653 14.9994117279435 0  235.4754972851242 14.99938558112807 0  240.4754973047483 14.99935998680533 0  245.4754974124297 14.99933485904472 0  250.4754975782678 14.99931012368445 0  255.4754977787013 14.99928571601033 0  260.4754979953333 14.99926157888727 0  265.4754982139984 14.99923766125438 0  270.4754984240262 14.99921391691914 0  275.4754986176512 14.99919030360804 0  280.475498789533 14.99916678225201 0  285.475498936367 14.99914331650351 0  290.4754990565518 14.99911987249232 0  295.4754991499587 14.99909641881484 0  300.4754992178663 14.99907292667839 0  305.4754992632893 14.999049369886 0  310.4754992921085 14.99902572368766 0  5.475546975758127 22.5003263426713 0  0.4755469413658252 22.50034642949386 0  10.47554702747925 22.50030610040601 0  15.47554710694644 22.50028572932588 0  20.47554722021801 22.50026525228926 0  25.47554737087999 22.50024469176466 0  30.47554756116325 22.50022407146916 0  35.4755477924601 22.5002034171215 0  40.47554806545858 22.50018275685681 0  45.47554838005077 22.50016212159893 0  50.47554873510771 22.50014154553947 0  55.47554912816286 22.50012106679847 0  60.47554955501961 22.50010072831194 0  65.47555000928222 22.50008057898354 0  70.47555048180345 22.50006067513944 0  75.47555096004837 22.50004108233303 0  80.47555142738466 22.50002187754912 0  85.47555186234317 22.50000315185154 0  90.47555223794684 22.49998501349154 0  95.47555252130103 22.49996759142332 0  100.4755526738011 22.49995103902118 0  105.4755526525607 22.49993553748971 0  110.4755524140461 22.499921297887 0  115.4755519214225 22.499908559648 0  120.4755511577387 22.49989758170121 0  125.4755501475941 22.4998886192976 0  130.4755489897128 22.49988187505385 0  135.4755479004328 22.49987740632032 0  140.4755472603739 22.49987496434941 0  145.4755476376337 22.49987374182941 0  150.4755497224147 22.49987204852111 0  165.4755616632472 22.49983952639566 0  160.4755578715105 22.49987191266031 0  170.4755622495178 22.49980274953771 0  175.4755605819289 22.4997641880868 0  180.47555764733 22.49972562203161 0  185.4755542101364 22.49968806044987 0  190.4755507625698 22.49965196148371 0  195.4755475790181 22.49961745407991 0  200.4755447867605 22.49958449335909 0  205.4755424233103 22.49955295412872 0  210.4755404759844 22.49952268241327 0  215.4755389069672 22.49949352180369 0  220.4755376682443 22.49946532569304 0  225.4755367100068 22.49943796199114 0  230.4755359850453 22.49941131403913 0  235.4755354507888 22.49938527974349 0  240.4755350700113 22.4993597699882 0  245.4755348108257 22.49933470685562 0  250.4755346463232 22.49931002190614 0  255.475534554066 22.49928565462105 0  260.4755345155353 22.49926155104161 0  265.4755345155978 22.49923766260336 0  270.4755345420077 22.49921394515237 0  275.4755345849574 22.49919035812529 0  280.4755346366745 22.49916686387251 0  285.4755346910709 22.49914342709625 0  290.4755347434583 22.49912001435246 0  295.4755347903734 22.49
[...]
<PointData  Scalars="p"> 
<DataArray  type="Float64"  Name="p"  format="ascii">1.0000000000000001e-01  1.0000000000000003e-01  9.9999711937813998e-02  1.0000000000000003e-01  1.0000000000000003e-01  9.9998538289980912e-02  1.0000000000000003e-01  9.9997796986638479e-02  1.0000000000000003e-01  9.9996921198437505e-02  1.0000000000000003e-01  9.9996294267698960e-02  1.0000000000000003e-01  9.9996076035419559e-02  1.0000000000000003e-01  9.9995389310417918e-02  1.0000000000000003e-01  9.9995234374480324e-02  1.0000000000000003e-01  9.9995062011202007e-02  1.0000000000000003e-01  9.9993504900141236e-02  1.0000000000000003e-01  9.9995991630734429e-02  1.0000000000000003e-01  9.9994745942872665e-02  1.0000000000000003e-01  9.9995203021582546e-02  1.0000000000000003e-01  9.9994872942027760e-02  1.0000000000000003e-01  9.9996445457500971e-02  1.0000000000000003e-01  9.9996546380602153e-02  1.0000000000000003e-01  9.9998465471099543e-02  1.0000000000000003e-01  1.0000110295882325e-01  1.0000000000000003e-01  1.0000254794551122e-01  1.0000000000000003e-01  1.0000671909473859e-01  1.0000000000000003e-01  1.0000974696944162e-01  1.0000000000000003e-01  1.0001498907191850e-01  1.0000000000000003e-01  1.0001693733086836e-01  1.0000000000000003e-01  1.0002769257645125e-01  1.0000000000000003e-01  1.0002319380235024e-01  1.0000000000000003e-01  1.0004390236014278e-01  1.0000000000000003e-01  1.0002697179241732e-01  1.0000000000000003e-01  1.0006376009922649e-01  1.0000000000000003e-01  1.0002574254994140e-01  1.0000000000000001e-01  1.0009255096196934e-01  1.0000000000000001e-01  1.0000000000000003e-01  9.9978347986429350e-02  9.9895434958878607e-02  1.0000000000000003e-01  1.0001811509040039e-01  1.0000000000000003e-01  9.9987162955942496e-02  1.0000000000000003e-01  1.0000898486429802e-01  1.0000000000000003e-01  1.0000514071272897e-01  1.0000000000000003e-01  1.0001143149316066e-01  1.0000000000000003e-01  1.0001177899006607e-01  1.0000000000000003e-01  1.0001722333895428e-01  1.0000000000000003e-01  1.0001782826342821e-01  1.0000000000000003e-01  1.0002050500203893e-01  1.0000000000000003e-01  1.0002251595905047e-01  1.0000000000000003e-01  1.0002388130471040e-01  1.0000000000000003e-01  1.0002499120393805e-01  1.0000000000000003e-01  1.0002639992252123e-01  1.0000000000000003e-01  1.0002701263662313e-01  1.0000000000000003e-01  1.0002763449276236e-01  1.0000000000000003e-01  1.0002834417123881e-01  1.0000000000000003e-01  1.0002858296694216e-01  1.0000000000000003e-01  1.0002893079583131e-01  1.0000000000000003e-01  1.0002905167458176e-01  1.0000000000000003e-01  1.0002941239623699e-01  1.0000000000000003e-01  1.0002896050320660e-01  1.0000000000000003e-01  1.0002987148539196e-01  1.0000000000000003e-01  1.0002833853680411e-01  1.0000000000000003e-01  1.0003089079472668e-01  1.0000000000000003e-01  1.0002640104528325e-01  1.0000000000000003e-01  1.0003379828796451e-01  1.0000000000000003e-01  1.0002133243230511e-01  1.0000000000000003e-01  1.0004323620808077e-01  1.0000000000000001e-01  1.0000000000000003e-01  1.0000074917462511e-01  1.0000000000000003e-01  1.0000005236115422e-01  9.9999946175033688e-02  9.9999952905659772e-02  1.0000045309777282e-01  1.0000025752750841e-01  1.0000058025657815e-01  1.0000153848798696e-01  1.0000070977715717e-01  1.0000138502569296e-01  1.0000052072748225e-01  1.0000451682949611e-01  1.0000122796612358e-01  1.0000408207582476e-01  1.0000208528840868e-01  1.0000445556901663e-01  1.0000657146237660e-01  1.0000683981589291e-01  1.0000929964638680e-01  1.0001346500196612e-01  1.0001287370117870e-01  1.0001840278107232e-01  1.0001941584182485e-01  1.0002495037375103e-01  1.0002091206950751e-01  1.0003802216053997e-01  1.0001257528587043e-01  1.0006089711629289e-01  9.9986717168663086e-02  1.0009266924288455e-01  1.0006465606660007e-01  9.9879642848540673e-02  9.9934178199036661e-02  9.9999197552452096e-02  9.9985756890026922e-02  9.9988862551593630e-02  9.9985990423439780e-02  9.9995716626450223e-02  9.9992416423917277e-02  9.9996009592765348e-02  9.9998893393825172e-02  9.9999584999349633e-02  1.0000061181524152e-01  1.0000299741671685e-01  1.0000323195557954e-01  1.0000398555950041e-01  1.0000525338112976e-01  1.0000559414398297e-01  1.0000599563323563e-01  1.0000693525075319e-01  1.0000709238239761e-01  1.0000770534475217e-01  1.0000788658497099e-01  1.0000887824900438e-01  1.0000809597848231e-01  1.0001047552856447e-01  1.0000734569027583e-01  1.0001396039500285e-01  1.0000351212511686e-01  1.0002069136269931e-01  1.0000000000000003e-01  1.0000169668673575e-01  1.0000000000000003e-01  1.0000049743365126e-01  1.0000049474499227e-01  1.0000085297757504e-01  1.0000045597582824e-01  1.0000082708587113e-01  1.0000208534294694e-01  1.0000161641107223e-01  1.0000223916090178e-01  1.0000310622512577e-01  1.0000383635195548e-01  1.0000013595661922e-01  1.0000963529184406e-01  1.0000297698747886e-01  1.0000586889697335e-01  1.0000794845845029e-01  1.0000720358421411e-01  1.0001060361568713e-01  1.0001555479096041e-01  1.0001544532264568e-01  1.0002008428001699e-01  1.0002758063089726e-01  1.0002529710134375e-01  1.0003632759181011e-01  1.0003422503445170e-01  1.0004741433387131e-01  1.0003158147950959e-01  1.0007364006707721e-01  9.9996333681781818e-02  1.0014228428311477e-01  1.0000346730168544e-01  9.9948780581340407e-02  9.9945602784612814e-02  9.9996038590656436e-02  9.9983990950412230e-02  9.9977599842164422e-02  9.9999623443373861e-02  9.9987355348353429e-02  9.9995339173672954e-02  1.0000065913594346e-01  1.0000123764938015e-01  1.0000298177061331e-01  1.0000780402055051e-01  1.0000785905339803e-01  1.0000936270431030e-01  1.0001194860696815e-01  1.0001228731096927e-01  1.0001303594606548e-01  1.0001467160143120e-01  1.0001507221075411e-01  1.0001554438601115e-01  1.0001683673043565e-01  1.0001689646790683e-01  1.0001804687801379e-01  1.0001772967541152e-01  1.0001999352131614e-01  1.0001756603688297e-01  1.0002318240269163e-01  1.0001441089281601e-01  1.0003272978377084e-01  1.0000000000000003e-01  1.0000239244496341e-01  1.0000000000000003e-01  1.0000123578922224e-01  1.0000240610712943e-01  1.0000184540139007e-01  1.0000238775757517e-01  1.0000394226356522e-01  1.0000367519730854e-01  1.0000478345976047e-01  1.0000674894923482e-01  1.0000614385964128e-01  1.0000666186220805e-01  1.0001129930432416e-01  1.0000334170446375e-01  1.0001462423745118e-01  1.0001144690450309e-01  1.0001114352672849e-01  1.0001240238776360e-01  1.0001838387504847e-01  1.0001616979118391e-01  1.0002217061572009e-01  1.0002751001945313e-01  1.0002833056552511e-01  1.0003195445613694e-01  1.0004353658071763e-01  1.0003361093982385e-01  1.0005630073130233e-01  1.0003110055277763e-01  1.0007905225328799e-01  9.9994089599636501e-02  1.0014732384280917e-01  9.9982318602383172e-02  9.9919107695073991e-02  9.9977730745415952e-02  9.9986035489887243e-02  9.9939411758266594e-02  1.0000418965404732e-01  9.9966704888623442e-02  9.9982640863983063e-02  9.9986329265363161e-02  9.9987578368717078e-02  9.9988308254159650e-02  9.9996119655853866e-02  9.9995155733079863e-02  9.9997256458716280e-02  1.0000094130998063e-01  1.0000136967706524e-01  1.0000224887677162e-01  1.0000471094105243e-01  1.0000494769764547e-01  1.0000579130701448e-01  1.0000724864165682e-01  1.0000798694886523e-01  1.0000832882239716e-01  1.0001016163196627e-01  1.0000965602989935e-01  1.0001245551878249e-01  1.0000978434730233e-01  1.0001659383618962e-01  1.0000723552724082e-01  1.0002439516741722e-01  1.0000000000000003e-01  1.0000309607179808e-01  1.0000000000000003e-01  1.0000233967463874e-01  1.0000294728268931e-01  1.0000304815339764e-01  1.0000445277516845e-01  1.0000416749572134e-01  1.0000522178390156e-01  1.0000769834427851e-01  1.0000713661817059e-01  1.0000816201877445e-01  1.0001231080745888e-01  1.0000927402066913e-01  1.0001346228683586e-01  1.0000925239303016e-01  1.0001901093297891e-01  1.0001398683171629e-01  1.0002062583058154e-01  1.0001631382135606e-01  1.0002191096446546e-01  1.0002885556660489e-01  1.0002653366748961e-01  1.0003479942398898e-01  1.0004062322295502e-01  1.0004330986102813e-01  1.0004350272256461e-01  1.0006382003557958e-01  1.0003570643095666e-01  1.0009027799346484e-01  9.9997128706475202e-02  1.0016574312616584e-01  1.0000501880297442e-01  9.9919969510816331e-02  9.9953706989465332e-02  9.9963567697618952e-02  9.9987078749626881e-02  9.9957781981981089e-02  9.9978429329875593e-02  9.9981551792637888e-02  9.9983221101334174e-02  9.9980152116671536e-02  9.9993804723041549e-02  9.9990576529790362e-02  9.9993918825039788e-02  9.9999431868188701e-02  9.9999647975636735e-02  1.0000081902816081e-01  1.0000472063990064e-01  1.0000487808102984e-01  1.0000574561050286e-01  1.0000811523407867e-01  1.0000847852571841e-01  1.0000946322631465e-01  1.0001080897704784e-01  1.0001207305244889e-01  1.0001198371059151e-01  1.0001489015202206e-01  1.0001287747624113e-01  1.0001891609124565e-01  1.0001055784739586e-01  1.0002823728671281e-01  1.0000000000000003e-01  1.0000390257625338e-01  1.0000000000000003e-01  1.0000262589005311e-01  1.0000396371062585e-01  1.0000496347441098e-01  1.0000506733490201e-01  1.0000576280216386e-01  1.0000821301994255e-01  1.0000795140525251e-01  1.0000928383486281e-01  1.0001277939010390e-01  1.0001177066789835e-01  1.0001435406072438e-01  1.0001655414331304e-01  1.0001726296707712e-01  1.0001008975252902e-01  1.0003030685095143e-01  1.0001737216811722e-01  1.0002391735782651e-01  1.0002846605831918e-01  1.0002637704363371e-01  1.0003200497430301e-01  1.0004287848035051e-01  1.0003698277101429e-01  1.0005013934162925e-01  1.0005096362843978e-01  1.0006192929053680e-01  1.0004279171984017e-01  1.0009664238034766e-01  9.9994983866837903e-02  1.0017805423863761e-01  9.9975628809245737e-02  9.9946262631484997e-02  9.9938209433803202e-02  9.9987348723653349e-02  9.9959782314885032e-02  9.9966232345429576e-02  9.9963966141091168e-02  9.9983373031958561e-02  9.9963832469967276e-02  9.9989196014950724e-02  9.9978748817290269e-02  9.9984628100244097e-02  9.9991602381332548e-02  9.9991919733736445e-02  9.9992910035662172e-02  9.9998578987380959e-02  9.9998333272208362e-02  9.9999619544989551e-02  1.0000283458926400e-01  1.0000319620017421e-01  1.0000385578283771e-01  1.0000635480874517e-01  1.0000659457403692e-01  1.0000815297048671e-01  1.0000879017482363e-01  1.0001151112282340e-01  1.0000945339178305e-01  1.0001605309937879e-01  1.0000789775887123e-01  1.0002466467096935e-01  1.0000000000000003e-01  1.0000432609807344e-01  1.0000000000000003e-01  1.0000316166662337e-01  1.0000547543733238e-01  1.0000521519377410e-01  1.0000625481154612e-01  1.0000842654374675e-01  1.0000808681589243e-01  1.0000942664414686e-01  1.0001281396802000e-01  1.0001179425924948e-01  1.0001438473605855e-01  1.0001844479789702e-01  1.0001722936500312e-01  1.0001731935200209e-01  1.0002655495104358e-01  1.0001187448296908e-01  1.0003286060343178e-01  1.0002925791329140e-01  1.0002686391443720e-01  1.0003079878833070e-01  1.0004029231506828e-01  1.0003668447419942e-01  1.0004358136809313e-01  1.0005776632027638e-01  1.0004657682427677e-01  1.0006832803755852e-01  1.0005173719784508e-01  1.0009267898820559e-01  1.0000515801510243e-01  1.0018283163726548e-01  9.9962495652422656e-02  9.9933547834769501e-02  9.9961199284810121e-02  9.9963241728935739e-02  9.9949502266110407e-02  9.9978133876184927e-02  9.9972383676036419e-02  9.9949642671630062e-02  9.9991300152317067e-02  9.9970454897652508e-02  9.9979438200211684e-02  9.9985523180274566e-02  9.9987325968712501e-02  9.9987236730053330e-02  9.9995600722548261e-02  9.9994885186251936e-02  9.9996261654442906e-02  1.0000068522842182e-01  1.0000110872065909e-01  1.0000196815907562e-01  1.0000481795044582e-01  1.0000545250505313e-01  1.0000610650794607e-01  1.0000872379576334e-01  1.0000869400579819e-01  1.0001142543971525e-01  1.0001022026792415e-01  1.0001629266054839e-01  1.0000864075706437e-01  1.0002541982025080e-01  1.0000000000000003e-01  1.0000483292248655e-01  1.0000000000000003e-01  1.0000395730708256e-01  1.0000557151450074e-01  1.0000601496414394e-01  1.0000835559463105e-01  1.0000823385817119e-01  1.0000954951953796e-01  1.0001255264750745e-01  1.0001181762888180e-01  1.0001357378018383e-01  1.0001829995782999e-01  1.0001704646708567e-01  1.0001896117569724e-01  1.0002553988212146e-01  1.0001963427499155e-01  1.0002773588013941e-01  1.0002144561717188e-01  1.0003690583868950e-01  1.0002989963885381e-01  1.0004154397584103e-01  1.0003231483851961e-01  1.0004288419990952e-01  1.0005118873785805e-01  1.0004981688546642e-01  1.0005240593983902e-01  1.0007591558386118e-01  1.0004588078216553e-01  1.0009758000574968e-01  1.0001365709046067e-01  1.0017558011077722e-01  9.9978226102221068e-02  9.9923080627904795e-02  9.9944094037928644e-02  9.9949945417687425e-02  9.9963803634174300e-02  9.9964493847105665e-02  9.9955184173173658e-02  9.9982723278162752e-02  9.9956583581633021e-02  9.9978772230483862e-02  9.9976476131685962e-02  9.9982915485060220e-02  9.9977602410350516e-02  9.9990787280178309e-02  9.9988474989153517e-02  9.9990603019313576e-02  9.9996322957501618e-02  9.9996511969834959e-02  9.9997255922458075e-02  1.0000156647021624e-01  1.0000169797613354e-01  1.0000276627645639e-01  1.0000507392937409e-01  1.0000637579420074e-01  1.0000649114918059e-01  1.0001012575685446e-01  1.0000844701210566e-01  1.0001452471250991e-01  1.0000752102264174e-01  1.0002357421874622e-01  1.0000000000000003e-01  1.0000539476164687e-01  1.0000000000000003e-01  1.0000393697686102e-01  1.0000610670863672e-01  1.0000747378793867e-01  1.0000811101172274e-01  1.0000917296974783e-01  1.0001211537176662e-01  1.0001182294911991e-01  1.0001310943002753e-01  1.0001697085130808e-01  1.0001633099918666e-01  1.0001840832970299e-01  1.0002421930573138e-01  1.0002114765648475e-01  1.0002538938311518e-01  1.0002942206112582e-01  1.0003003608737933e-01  1.0002007415764103e-01  1.0005128909696771e-01  1.0003174004689011e-01  1.0004088414677914e-01  1.0005006645236447e-01  1.0004177201805403e-01  1.0005462788887699e-01  1.0006170501401562e-01  1.0006475816920607e-01  1.0005267024804801e-01  1.0010323445268397e-01  1.0001023659274523e-01  1.0017444558345949e-01  9.9968364979144256e-02  9.9935102336504142e-02  9.9933043423750159e-02  9.9964999025039955e-02  9.9951091899154187e-02  9.9949587614225802e-02  9.9971475472110979e-02  9.9967256853122383e-02  9.9968420290043325e-02  9.9966538109133918e-02  9.9985177763517896e-02  9.9968565526363781e-02  9.9988614794960601e-02  9.9982037672128252e-02  9.9985713707331045e-02  9.9992403520144268e-02  9.9993110119746653e-02  9.9993530947861592e-02  9.9998880832652487e-02  9.9999032618940137e-02  1.0000005242462831e-01  1.0000357843777487e-01  1.0000385275209372e-01  1.0000525092582171e-01  1.0000686347849806e-01  1.0000932161051283e-01  1.0000795072091860e-01  1.0001438885809721e-01  1.0000745862994356e-01  1.0002316455824195e-01  1.0000000000000003e-01  1.0000563697349846e-01  1.0000000000000003e-01  1.0000417166086174e-01  1.0000718986428404e-01  1.0000715824783517e-01  1.0000871533978851e-01  1.0001122687132601e-01  1.0001135893894965e-01  1.0001275352975764e-01  1.0001637019189887e-01  1.0001525606981217e-01  1.0001734108685960e-01  1.0002257774588280e-01  1.0002051871103265e-01  1.0002354363594843e-01  1.0002977398261614e-01  1.0002764285339345e-01  1.0002786843947738e-01  1.0004269886039473e-01  1.0001993302734424e-01  1.0005153880561056e-01  1.0004703795135342e-01  1.0004261299914122e-01  1.0004622088449351e-01  1.0006445076032436e-01  1.0004783397744740e-01  1.0006989443821826e-01  1.0006224432781413e-01  1.0008957924646261e-01  1.0001880709861743e-01  1.0017424467220402e-01  9.9958657865630879e-02  9.9924037194722121e-02  9.9945529612749009e-02  9.9955366310024135e-02  9.9938513074122742e-02  9.9963535057132263e-02  9.9958652930909206e-02  9.9958415799963840e-02  9.9974480059174767e-02  9.9978452977621632e-02  9.9956920588567838e-02  9.9991141099668210e-02  9.9974610820501700e-02  9.9981808749932677e-02  9.9986296936695682e-02  9.9989053926448412e-02  9.9988150879303433e-02  9.9995683714056455e-02  9.9995444169843864e-02  9.9996300807033964e-02  1.0000047637275448e-01  1.0000145005433635e-01  1.0000193145951147e-01  1.0000537391498029e-01  1.0000531476585403e-01  1.0000792617008711e-01  1.0000752196127996e-01  1.0001315599837489e-01  1.0000666775128052e-01  1.0002197400040719e-01  1.0000000000000003e-01  1.0000586949774776e-01  1.0000000000000003e-01  1.0000462003563013e-01  1.0000686085699786e-01  1.0000738007093328e-01  1.0001008397012687e-01  1.0001031857460273e-01  1.0001182965054162e-01  1.0001513882656889e-01  1.0001464814582270e-01  1.0001610638598522e-01  1.0002077603784264e-01  1.0001917583976863e-01  1.0002148107361782e-01  1.0002766743117752e-01  1.0002522702656184e-01  1.0002802858053922e-01  1.0003794306517230e-01  1.0002889095781477e-01  1.0004034224304710e-01  1.0003327068005564e-01  1.0005213400642375e-01  1.0004509126790816e-01  1.0005950357769466e-01  1.0004779250157293e-01  1.0005426637411077e-01  1.0007900307271987e-01  1.0004710621109049e-01  1.0009212267085688e-01  1.0003117802096717e-01  1.0015419841160522e-01  9.9974159133491142e-02  9.9900558713339749e-02  9.9939656827266049e-02  9.9944219446238949e-02  9.9951672719607088e-02  9.9955586017602530e-02  9.9948211139720536e-02  9.9967784478203175e-02  9.9969383334607920e-02  9.9965421835892715e-02  9.9985170989655051e-02  9.9966433434281424e-02  9.9983630666203083e-02  9.9980415869453138e-02  9.9987068314640576e-02  9.9981932552676650e-02  9.9992849778181028e-02  9.9991663692329216e-02  9.9992953716142446e-02  9.9998179423397032e-02  9.9998484609995067e-02  9.9999313284108465e-02  1.0000311092374410e-01  1.0000414155181314e-01  1.0000433447820638e-01  1.0000820531240448e-01  1.0000689180629753e-01  1.0001231593665275e-01  1.0000668393716240e-01  1.0002117771042277e-01  1.0000000000000003e-01  1.0000623002734473e-01  1.0000000000000003e-01  1.0000441253102145e-01  1.0000700800878067e-01  1.0000830017985057e-01  1.0000936365523422e-01  1.0001051763794402e-01  1.0001364424809710e-01  1.0001366979156380e-01  1.0001507181237347e-01  1.0001893828189493e-01  1.0001827405846785e-01  1.0001977521528366e-01  1.0002514477831347e-01  1.0002312173698027e-01  1.0002560225130654e-01  1.0003414020979289e-01  1.0002915217234362e-01  1.0003513745025637e-01  1.0004104409408274e-01  1.0004104891790211e-01  1.0002725354524553e-01  1.0007209463455315e-01  1.0004118673006682e-01  1.0005786018921460e-01  1.0006389366221534e-01  1.0006009298924849e-01  1.0005177083747115e-01  1.0010240429161935e-01  1.0001563695271816e-01  1.0015237231103107e-01  9.9982167682120066e-02  9.9892562173078236e-02  9.9924286179647076e-02  9.9956504292960616e-02  9.9947543187638307e-02  9.9944851809807930e-02  9.9959629881970005e-02  9.9962585647089666e-02  9.9957330553237633e-02  9.9977157204328440e-02  9.9975661844104141e-02  9.9977608412453622e-02  9.9972974996974065e-02  9.9990384458197287e-02  9.9975227275858725e-02  9.9991324700935469e-02  9.9986653213309545e-02  9.9989301102908476e-02  9.9994789743104176e-02  9.9995982216714893e-02  9.9996085287630543e-02  1.0000080090362774e-01  1.0000111896176252e-01  1.0000272868051942e-01  1.0000501132676395e-01  1.0000721495475443e-01  1.0000597489770129e-01  1.0001212036429338e-01  1.0000613447456345e-01  1.0002007246603534e-01  1.0000000000000003e-01  1.0000613100828207e-01  1.0000000000000003e-01  1.0000425679670531e-01  1.0000748380253040e-01  1.0000747173711891e-01  1.0000918685143033e-01  1.0001159764629168e-01  1.0001208332680370e-01  1.0001349149734969e-01  1.0001700756982314e-01  1.0001638844945114e-01  1.0001813773416743e-01  1.0002285858676972e-01  1.0002098665349447e-01  1.0002275754411118e-01  1.0002980753189088e-01  1.0002677918576210e-01  1.0003033505151560e-01  1.0003937522239896e-01  1.0003524623471052e-01  1.0003563518534429e-01  1.0005580167906220e-01  1.0002485399073942e-01  1.0006491071029461e-01  1