<?xml version="1.0"?>
<VTKFile type="UnstructuredGrid"  version="0.1"  >
<UnstructuredGrid>
<Piece  NumberOfPoints="1933" NumberOfCells="3640">
<Points>
<DataArray  type="Float64"  NumberOfComponents="3"  format="ascii">-0.475440111644371 -0.0007022615240552016 0  4.524559897561835 -0.0006811995121484347 0  4.524528292864102 7.499318817933088 0  -0.4754717163451525 7.499297756742902 0  9.524559916262724 -0.0006601481696083917 0  9.524528306401672 7.499339867038952 0  14.52455995016387 -0.0006390964756012132 0  14.52452832459494 7.499360916603663 0  19.52456000160045 -0.0006180315796672897 0  19.52452834676832 7.499381979775076 0  24.52456007029324 -0.0005969403633181687 0  24.52452837117865 7.499403069620986 0  29.52456015400261 -0.0005758099058666463 0  29.52452839495306 7.499424198933459 0  34.52456024894724 -0.0005546274985686352 0  34.52452841403819 7.499445380292476 0  39.52456035000576 -0.0005333804772928223 0  39.5245284231303 7.499466626249339 0  44.52456045074572 -0.0005120559885376027 0  44.52452841556244 7.499487949557612 0  49.52456054331586 -0.0004906407351429796 0  49.52452838313205 7.499509363418976 0  54.52456061822222 -0.0004691207167247616 0  54.52452831585752 7.499530881732792 0  59.5245606639941 -0.0004474809649775253 0  59.5245282016513 7.499552519349336 0  64.52456066673182 -0.0004257052661961803 0  64.52452802589352 7.499574292332833 0  69.52456060951329 -0.0004037758581640264 0  69.52452777088365 7.499596218244151 0  74.52456047162107 -0.0003816730834958818 0  74.52452741514014 7.499618316455969 0  79.52456022752641 -0.0003593749750531611 0  79.52452693250335 7.499640608515729 0  84.52455984553339 -0.0003368567398467717 0  84.5245262909868 7.499663118573678 0  89.5245592859301 -0.0003140900947408981 0  89.52452545129827 7.499685873892713 0  94.52455849840308 -0.0002910423894796079 0  94.52452436493944 7.499708905448482 0  99.52455741831511 -0.0002676754310177875 0  99.52452297177645 7.499732248601025 0  104.5245559611793 -0.0002439439042510279 0  104.5245211969921 7.499755943746394 0  109.5245540141889 -0.0002197932899256499 0  109.5245189474147 7.499780036680447 0  114.5245514228213 -0.0001951572733985695 0  114.5245161074904 7.499804578003633 0  119.5245479690224 -0.0001699549841194928 0  119.5245125358336 7.499829620000259 0  124.5245433347588 -0.0001440894279633221 0  124.5245080648623 7.499855207483502 0  129.5245370398554 -0.0001174512196112762 0  129.5245025094561 7.499881354951039 0  134.5245283344245 -8.993870533464726e-05 0  134.5244956977934 7.499907993623598 0  139.5245160115267 -6.152248121885541e-05 0  139.5244875520048 7.499934853309411 0  144.5244980827913 -3.241995084549066e-05 0  144.5244782733331 7.499961202934777 0  149.5244712336871 -3.510499962297918e-06 0  149.5244687296013 7.499985271429774 0  159.5244717418524 6.987485913767205e-19 0  164.5244810343879 1.743343615396878e-06 0  164.524473268961 7.500000243867247 0  159.5244683257315 7.499995654347292 0  169.5244903778149 9.261256374613452e-06 0  169.5244779575455 7.500008699792834 0  174.5244988899593 2.043365748315723e-05 0  174.5244824994877 7.500020231117649 0  179.5245063602392 3.408596745094672e-05 0  179.5244868086301 7.500034032520025 0  184.5245128133882 4.948509687034236e-05 0  184.5244908056008 7.500049494842792 0  189.5245183509337 6.614582730061951e-05 0  189.5244944481858 7.500066181211835 0  194.5245230908043 8.373526181543786e-05 0  194.5244977253147 7.500083779447927 0  199.5245271449332 0.0001020186383704893 0  199.5245006461816 7.500102064123038 0  204.5245306121237 0.0001208264463407629 0  204.5245032314302 7.500120870028215 0  209.524533576958 0.0001400337006043904 0  209.5245055071968 7.500140074170549 0  214.5245361109284 0.0001595465111695749 0  214.5245075014216 7.500159583572712 0  219.5245382742081 0.0001792931627599696 0  219.5245092417136 7.500179326924252 0  224.5245401174454 0.0001992180479580896 0  224.5245107542052 7.500199248784704 0  229.5245416833668 0.0002192774459314983 0  229.524512063013 7.500219305490973 0  234.5245430081418 0.0002394365216889293 0  234.524513190058 7.5002394622182 0  239.5245441225252 0.0002596671513193725 0  239.5245141550906 7.500259690834679 0  244.5245450528102 0.0002799463198994841 0  244.5245149758309 7.500279968314138 0  249.5245458216309 0.0003002549270983889 0  249.5245156681669 7.500300275548456 0  254.5245464486485 0.00032057689224557 0  254.5245162463811 7.500320596456271 0  259.5245469511484 0.0003408984884914935 0  259.5245167233832 7.500340917318748 0  264.5245473445746 0.0003612078625479517 0  264.5245171109424 7.500361226299179 0  269.5245476430165 0.0003814947174409081 0  269.5245174199086 7.500381513122826 0  274.5245478596682 0.0004017501543882591 0  274.5245176604132 7.500401768910263 0  279.5245480072578 0.0004219666894069961 0  279.5245178420494 7.500421986173579 0  284.5245480984456 0.0004421384833178806 0  284.5245179740085 7.500442159001873 0  289.5245481461527 0.0004622618529467018 0  289.5245180651687 7.500462283480137 0  294.5245481637345 0.00048233616663814 0  294.524518124122 7.500482358403032 0  299.5245481648203 0.0005023652581941653 0  299.5245181591443 7.500502386355886 0  304.524548162432 0.0005223594644539766 0  304.5245181781816 7.500522375235628 0  309.5245481666165 0.0005423380546780588 0  309.5245181890686 7.500542340311975 0  4.524496678111429 14.99931885157953 0  -0.4755033296587656 14.9992978019112 0  9.524496684646106 14.99933988896552 0  14.52449668866117 14.99936092876188 0  19.52449668811676 14.99938198411299 0  24.52449668039651 14.9994030674991 0  29.52449666222791 14.99942419105814 0  34.52449662953858 14.99944536678882 0  39.52449657730167 14.99946660674321 0  44.52449649937456 14.9994879232265 0  49.5244963883221 14.99950932900119 0  54.52449623521358 14.99953083749202 0  59.52449602938369 14.99955246299008 0  64.52449575814931 14.99957422085613 0  69.52449540647675 14.99959612772341 0  74.52449495659761 14.99961820169804 0  79.52449438757714 14.99964046254913 0  84.52449367485421 14.99966293186891 0  89.52449278979465 14.99968563315967 0  94.52449169934768 14.99970859175886 0  99.52449036597808 14.99973183442727 0  104.5244887481909 14.99975538826368 0  109.5244868022108 14.99977927830999 0  114.524484485772 14.99980352266758 0  119.5244817655636 14.99982812298445 0  124.5244786306597 14.99985304653868 0  129.5244751150184 14.99987819355026 0  134.5244713320381 14.99990333979674 0  139.5244675208154 14.99992804160539 0  144.5244640912292 14.99995149546419 0  149.5244616206265 14.99997238900748 0  164.5244631299349 14.9999971439258 0  159.5244613339466 14.99998905628342 0  169.5244648353274 15.00000746605412 0  174.5244665947524 15.00001988863318 0  179.5244684322746 15.00003408934583 0  184.5244703088196 15.00004971470648 0  189.5244721708265 15.000066453623 0  194.5244739714998 15.00008405453209 0  199.5244756768738 15.00010232092783 0  204.5244772654845 15.00012110120934 0  209.5244787259571 15.00014027860876 0  214.5244800543253 15.0001597628335 0  219.524481251725 15.00017948358312 0  224.5244823226138 15.00019938565774 0  229.5244832734745 15.00021942530278 0  234.5244841119111 15.00023956747871 0  239.5244848460368 15.00025978381358 0  244.5244854840781 15.0002800510586 0  249.5244860341274 15.00030034991807 0  254.5244865040013 15.00032066416189 0  259.5244869011672 15.0003409799576 0  264.5244872327163 15.00036128537921 0  269.524487505363 15.00038157006678 0  274.5244877254598 15.00040182502284 0  279.5244878990178 15.0004220425422 0  284.524488031736 15.00044221627884 0  289.5244881290444 15.00046234145606 0  294.5244881961978 15.00048241522004 0  299.5244882384802 15.00050243711601 0  304.5244882616457 15.0005224096226 0  309.5244882728198 15.00054233861354 0  4.524465095956224 22.49931890119986 0  -0.4755349104998622 22.49929788189653 0  9.524465098064706 22.4993399140981 0  14.52446509319694 22.49936093390421 0  19.52446507876934 22.49938197251773 0  24.52446505203373 22.49940304115704 0  29.52446500992898 22.49942415077234 0  34.5244649489355 22.49944531228778 0  39.52446486493658 22.49946653677424 0  44.52446475309013 22.49948783559696 0  49.52446460771213 22.49950922055258 0  54.52446442216888 22.49953070399708 0  59.52446418877999 22.49955229896038 0  64.52446389873667 22.49957401924019 0  69.52446354204722 22.49959587946189 0  74.52446310753324 22.49961789508427 0  79.5244625829137 22.49964008231611 0  84.5244619550389 22.49966245788619 0  89.52446121037062 22.49968503857032 0  94.52446033585412 22.49970784031613 0  99.52445932039974 22.49973087670355 0  104.5244581572822 22.49975415631694 0  109.524456847875 22.49977767835288 0  114.5244554072284 22.49980142542183 0  119.524453871998 22.49982535201399 0  124.524452310958 22.4998493665798 0  129.5244508374404 22.49987330498626 0  134.5244496209316 22.4998968943223 0  139.5244488909737 22.499919711402 0  144.5244489202058 22.49994115628708 0  149.5244499680537 22.49996050067719 0  164.5244493286983 22.4999933929143 0  159.5244494123723 22.49998226767017 0  169.5244492160573 22.50000565342274 0  174.5244492010133 22.50001922451653 0  179.5244493430376 22.50003405845056 0  184.5244496492453 22.5000500067973 0  189.5244500962439 22.50006689139795 0  194.5244506483978 22.50008454067331 0  199.5244512689312 22.50010280431498 0  204.5244519253258 22.50012155672305 0  209.5244525912318 22.50014069545685 0  214.524453246558 22.50016013793323 0  219.524453876752 22.50017981786053 0  224.5244544718235 22.50019968200504 0  229.5244550253733 22.50021968747 0  234.5244555337411 22.50023979948866 0  239.5244559953044 22.50025998966813 0  244.5244564099232 22.50028023460556 0  249.5244567785101 22.50030051480398 0  254.524457102704 22.50032081382717 0  259.5244573846234 22.50034111764638 0  264.5244576266826 22.50036141414253 0  269.5244578314533 22.50038169273763 0  274.524458001568 22.50040194413551 0  279.5244581396565 22.50042216015543 0  284.5244582483244 22.5004423336413 0  289.5244583301909 22.50046245842046 0  294.5244583880181 22.50048252926
[...]
<PointData  Scalars="p"> 
<DataArray  type="Float64"  Name="p"  format="ascii">1.0000000000000001e-01  1.0000000000000003e-01  1.0000028879531803e-01  1.0000000000000003e-01  1.0000000000000003e-01  1.0000146111275839e-01  1.0000000000000003e-01  1.0000220149791357e-01  1.0000000000000003e-01  1.0000307644202973e-01  1.0000000000000003e-01  1.0000370268886494e-01  1.0000000000000003e-01  1.0000391994563053e-01  1.0000000000000003e-01  1.0000460616008536e-01  1.0000000000000003e-01  1.0000476048007483e-01  1.0000000000000003e-01  1.0000493205721861e-01  1.0000000000000003e-01  1.0000648919274922e-01  1.0000000000000003e-01  1.0000400102367771e-01  1.0000000000000003e-01  1.0000524624736101e-01  1.0000000000000003e-01  1.0000478866988580e-01  1.0000000000000003e-01  1.0000511857181472e-01  1.0000000000000003e-01  1.0000354510478444e-01  1.0000000000000003e-01  1.0000344442332028e-01  1.0000000000000003e-01  1.0000152503249431e-01  1.0000000000000003e-01  9.9998886794956304e-02  1.0000000000000003e-01  9.9997442372537590e-02  1.0000000000000003e-01  9.9993270771203194e-02  1.0000000000000003e-01  9.9990242734258383e-02  1.0000000000000003e-01  9.9985000469877405e-02  1.0000000000000003e-01  9.9983053237571895e-02  1.0000000000000003e-01  9.9972295661587607e-02  1.0000000000000003e-01  9.9976797859058691e-02  1.0000000000000003e-01  9.9956084918004132e-02  1.0000000000000003e-01  9.9973021209121285e-02  1.0000000000000003e-01  9.9936225410802215e-02  1.0000000000000003e-01  9.9974253010709183e-02  1.0000000000000001e-01  9.9907431309589526e-02  1.0000000000000001e-01  1.0000000000000003e-01  1.0002171026328853e-01  1.0010465825465939e-01  1.0000000000000003e-01  9.9981914380366882e-02  1.0000000000000003e-01  1.0001288572430789e-01  1.0000000000000003e-01  9.9991055098736945e-02  1.0000000000000003e-01  9.9994902512098166e-02  1.0000000000000003e-01  9.9988609346121457e-02  1.0000000000000003e-01  9.9988263509757730e-02  1.0000000000000003e-01  9.9982817340780364e-02  1.0000000000000003e-01  9.9982212890220912e-02  1.0000000000000003e-01  9.9979535651665744e-02  1.0000000000000003e-01  9.9977524311307436e-02  1.0000000000000003e-01  9.9976158595019640e-02  1.0000000000000003e-01  9.9975048492216001e-02  1.0000000000000003e-01  9.9973639244035045e-02  1.0000000000000003e-01  9.9973026225698383e-02  1.0000000000000003e-01  9.9972403989959574e-02  1.0000000000000003e-01  9.9971693883738388e-02  1.0000000000000003e-01  9.9971454614653399e-02  1.0000000000000003e-01  9.9971106493242798e-02  1.0000000000000003e-01  9.9970984934329446e-02  1.0000000000000003e-01  9.9970624106521314e-02  1.0000000000000003e-01  9.9971074995542045e-02  1.0000000000000003e-01  9.9970164519723501e-02  1.0000000000000003e-01  9.9971695347966030e-02  1.0000000000000003e-01  9.9969145638629964e-02  1.0000000000000003e-01  9.9973629938606534e-02  1.0000000000000003e-01  9.9966240820239638e-02  1.0000000000000003e-01  9.9978692250893259e-02  1.0000000000000003e-01  9.9956813137771605e-02  1.0000000000000001e-01  1.0000000000000003e-01  9.9999253433418145e-02  1.0000000000000003e-01  9.9999948398367899e-02  1.0000005460415365e-01  1.0000004756048636e-01  9.9999546647317528e-02  9.9999742106975736e-02  9.9999419106231016e-02  9.9998459947330948e-02  9.9999288863305905e-02  9.9998613182030308e-02  9.9999477010350654e-02  9.9995479470228549e-02  9.9998769229023926e-02  9.9995913343700366e-02  9.9997911264200962e-02  9.9995540453827497e-02  9.9993423386151914e-02  9.9993155989519314e-02  9.9990696050445124e-02  9.9986528969085622e-02  9.9987122097177583e-02  9.9981591896155728e-02  9.9980578663987935e-02  9.9975043408438879e-02  9.9979084711448535e-02  9.9961967783245981e-02  9.9987425181761638e-02  9.9939088010136970e-02  1.0001328997425311e-01  9.9907308334154274e-02  9.9935318054791625e-02  1.0012052999623229e-01  1.0006586041391810e-01  1.0000081721860210e-01  1.0001426062263394e-01  1.0001115177798710e-01  1.0001402840203756e-01  1.0000429740517250e-01  1.0000759954228966e-01  1.0000400598424491e-01  1.0000112161497279e-01  1.0000043002821152e-01  9.9999403610564475e-02  9.9997017512103464e-02  9.9996783160245989e-02  9.9996029703230488e-02  9.9994761652016026e-02  9.9994420927498079e-02  9.9994019408897031e-02  9.9993079638419385e-02  9.9992922238029691e-02  9.9992309403545157e-02  9.9992127411243956e-02  9.9991136297717290e-02  9.9991917039956996e-02  9.9989539386217671e-02  9.9992665031444661e-02  9.9986057197461425e-02  9.9996492952516280e-02  9.9979332634820034e-02  1.0000000000000003e-01  9.9998307375630091e-02  1.0000000000000003e-01  9.9999503687955724e-02  9.9999506992187848e-02  9.9999147215817485e-02  9.9999544162695214e-02  9.9999172613834439e-02  9.9997913127992485e-02  9.9998382027836993e-02  9.9997758962649091e-02  9.9996890526008061e-02  9.9996160123573194e-02  9.9999861616290084e-02  9.9990357559166271e-02  9.9997018358937567e-02  9.9994125576471263e-02  9.9992044109819614e-02  9.9992790586389588e-02  9.9989390147937479e-02  9.9984436577119265e-02  9.9984548182088018e-02  9.9979909098963107e-02  9.9972409432563386e-02  9.9974696822821216e-02  9.9963663462637020e-02  9.9965767387310625e-02  9.9952574259953963e-02  9.9968416845992253e-02  9.9926338808622645e-02  1.0000367819082763e-01  9.9857674968068591e-02  9.9996494073231690e-02  1.0005143586899234e-01  1.0005448188154210e-01  1.0000398807679550e-01  1.0001603606681962e-01  1.0002243901523698e-01  1.0000040200394487e-01  1.0001267593712058e-01  1.0000469095629554e-01  9.9999369476030386e-02  9.9998790964730841e-02  9.9997047744717377e-02  9.9992224185027553e-02  9.9992169600703160e-02  9.9990666207282280e-02  9.9988079835660604e-02  9.9987741221887819e-02  9.9986992764929616e-02  9.9985356657313146e-02  9.9984956037921374e-02  9.9984483611486305e-02  9.9983191044204722e-02  9.9983130616251595e-02  9.9981980599894549e-02  9.9982296060770234e-02  9.9980033875067570e-02  9.9982457604270228e-02  9.9976846519993764e-02  9.9985607144613090e-02  9.9967308170738053e-02  1.0000000000000003e-01  9.9997613028450200e-02  1.0000000000000003e-01  9.9998766047153520e-02  9.9997596262240723e-02  9.9998156106203898e-02  9.9997613845451735e-02  9.9996058034626689e-02  9.9996325234592121e-02  9.9995216807302723e-02  9.9993249722815758e-02  9.9993855166338283e-02  9.9993337130967322e-02  9.9988696690305148e-02  9.9996657353910515e-02  9.9985370945626373e-02  9.9988547662801977e-02  9.9988852172973625e-02  9.9987593500752370e-02  9.9981608743384853e-02  9.9983825815477240e-02  9.9977824010955230e-02  9.9972482047251399e-02  9.9971663679526354e-02  9.9968040690281312e-02  9.9956452529990678e-02  9.9966386273298846e-02  9.9943687001829665e-02  9.9968899387292559e-02  9.9920925368542357e-02  1.0000592991778191e-01  9.9852622721908826e-02  1.0001761835738418e-01  1.0008117665348371e-01  1.0002234846232490e-01  1.0001397339919539e-01  1.0006063799357762e-01  9.9995821134498564e-02  1.0003332119105054e-01  1.0001738083789861e-01  1.0001369141480745e-01  1.0001244119644433e-01  1.0001171343835061e-01  1.0000389946635770e-01  1.0000486438714075e-01  1.0000276410888879e-01  9.9999078667828090e-02  9.9998650627244098e-02  9.9997771925181361e-02  9.9995309512624850e-02  9.9995072893179479e-02  9.9994229511987873e-02  9.9992771667190283e-02  9.9992033489772397e-02  9.9991691013328873e-02  9.9989858467437159e-02  9.9990362415772416e-02  9.9987564880602980e-02  9.9990231454524167e-02  9.9983428501588645e-02  9.9992774935900280e-02  9.9975633582177370e-02  1.0000000000000003e-01  9.9996910709475653e-02  1.0000000000000003e-01  9.9997662389589376e-02  9.9997056198032286e-02  9.9996954007418565e-02  9.9995548789631503e-02  9.9995833777611606e-02  9.9994779500650513e-02  9.9992301179304549e-02  9.9992863434640936e-02  9.9991837893105076e-02  9.9987686406762796e-02  9.9990724652518459e-02  9.9986535069473345e-02  9.9990744605466808e-02  9.9980983463992298e-02  9.9986009442718529e-02  9.9979366365090194e-02  9.9983681805476954e-02  9.9978083938063664e-02  9.9971135372886905e-02  9.9973461510215661e-02  9.9965194065047211e-02  9.9959367762740087e-02  9.9956682315989351e-02  9.9956493775607516e-02  9.9936163193724836e-02  9.9964297590918530e-02  9.9909694736125695e-02  1.0000289581271922e-01  9.9834189291484646e-02  9.9994875853392298e-02  1.0008037448096954e-01  1.0004639494857884e-01  1.0003645257225541e-01  1.0001296784968695e-01  1.0004224934729532e-01  1.0002159867703274e-01  1.0001847553369822e-01  1.0001680182059655e-01  1.0001987606577474e-01  1.0000621805352027e-01  1.0000944797550632e-01  1.0000610610570629e-01  1.0000059204111859e-01  1.0000037629505340e-01  9.9999206114440006e-02  9.9995303844113245e-02  9.9995146821257180e-02  9.9994279642019096e-02  9.9991909706688017e-02  9.9991546296174766e-02  9.9990561810583967e-02  9.9989215150419322e-02  9.9987951423277793e-02  9.9988039301392800e-02  9.9985134098518808e-02  9.9987143033820045e-02  9.9981109789545053e-02  9.9989456838566138e-02  9.9971796114167899e-02  1.0000000000000003e-01  9.9996105206482791e-02  1.0000000000000003e-01  9.9997376787354139e-02  9.9996040793983332e-02  9.9995038716519505e-02  9.9994935338859392e-02  9.9994239581673125e-02  9.9991787909166505e-02  9.9992049826835197e-02  9.9990717476146268e-02  9.9987219658779269e-02  9.9988229191859485e-02  9.9985645359197239e-02  9.9983442784140272e-02  9.9982734503309495e-02  9.9989910645250271e-02  9.9969684154157551e-02  9.9982624793532662e-02  9.9976078144713751e-02  9.9971525742463818e-02  9.9973618547887888e-02  9.9967990574558657e-02  9.9957110721108966e-02  9.9963013721919375e-02  9.9949852571164496e-02  9.9949029240101239e-02  9.9938057694724511e-02  9.9957214344671100e-02  9.9903322851825613e-02  1.0000505251594365e-01  9.9821862093950123e-02  1.0002424457900062e-01  1.0005410871853455e-01  1.0006191294732572e-01  1.0001264904352286e-01  1.0004026983779378e-01  1.0003379980498210e-01  1.0003606991202212e-01  1.0001664272446376e-01  1.0003619790437607e-01  1.0001082228929351e-01  1.0002127366605752e-01  1.0001539404275910e-01  1.0000841830806688e-01  1.0000810102212368e-01  1.0000711217672786e-01  1.0000144207040358e-01  1.0000168845757346e-01  1.0000040286812732e-01  9.9997187351666503e-02  9.9996826059274457e-02  9.9996166640737127e-02  9.9993667330801325e-02  9.9993427024317197e-02  9.9991869108613393e-02  9.9991230027974082e-02  9.9988510704864017e-02  9.9990564381832001e-02  9.9983970039339939e-02  9.9992114432447765e-02  9.9975364950483231e-02  1.0000000000000003e-01  9.9995682752314158e-02  1.0000000000000003e-01  9.9996841546778806e-02  9.9994529319738165e-02  9.9994787880607686e-02  9.9993748794434290e-02  9.9991575183524278e-02  9.9991915430858225e-02  9.9990575514166027e-02  9.9987186182586799e-02  9.9988206646635713e-02  9.9985616094316915e-02  9.9981553011116359e-02  9.9982769617391262e-02  9.9982680331795332e-02  9.9973439260666930e-02  9.9988126137276312e-02  9.9967133426066376e-02  9.9970734354636701e-02  9.9973131921283070e-02  9.9969196814112191e-02  9.9959697908596212e-02  9.9963310605969177e-02  9.9956414449376668e-02  9.9942219790781786e-02  9.9953422233928335e-02  9.9931657463257759e-02  9.9948265350803464e-02  9.9907287552277499e-02  9.9994884993850855e-02  9.9817065677081152e-02  1.0003736669225072e-01  1.0006685009594750e-01  1.0003892276195177e-01  1.0003675408319222e-01  1.0005056200737407e-01  1.0002189349195985e-01  1.0002765396220401e-01  1.0005039499707795e-01  1.0000871901638181e-01  1.0002957152389080e-01  1.0002058530010012e-01  1.0001449978034893e-01  1.0001269560889754e-01  1.0001278716780682e-01  1.0000442103822220e-01  1.0000513750877424e-01  1.0000376188897632e-01  9.9999337784066597e-02  9.9998914601355945e-02  9.9998055839680355e-02  9.9995205431189740e-02  9.9994571128307050e-02  9.9993916757579390e-02  9.9991299436359538e-02  9.9991327766088087e-02  9.9988597706668028e-02  9.9989798872290273e-02  9.9983731569071296e-02  9.9991372796737421e-02  9.9974610850999152e-02  1.0000000000000003e-01  9.9995176865762855e-02  1.0000000000000003e-01  9.9996045998603789e-02  9.9994434225573012e-02  9.9993988883788701e-02  9.9991647756322424e-02  9.9991769069262951e-02  9.9990453615360839e-02  9.9987448568962037e-02  9.9988184275396436e-02  9.9986428244490583e-02  9.9981699177210989e-02  9.9982953932132523e-02  9.9981039359285775e-02  9.9974456357917366e-02  9.9980365375330157e-02  9.9972261794019288e-02  9.9978551429976942e-02  9.9963087896929356e-02  9.9970097362511431e-02  9.9958445615395852e-02  9.9967682238336034e-02  9.9957110250226786e-02  9.9948801147193109e-02  9.9950176167446142e-02  9.9947593186599001e-02  9.9924062643665032e-02  9.9954130258221238e-02  9.9902382408719112e-02  9.9986388395608569e-02  9.9824307070529292e-02  1.0002161876646994e-01  1.0007732990111691e-01  1.0005603498798453e-01  1.0005005029204016e-01  1.0003625451437691e-01  1.0003553129658352e-01  1.0004486208233643e-01  1.0001730615024326e-01  1.0004345054697265e-01  1.0002124849728365e-01  1.0002354917296907e-01  1.0001710384898380e-01  1.0002242186662023e-01  1.0000923278362372e-01  1.0001154637842759e-01  1.0000941912478811e-01  1.0000369845171762e-01  1.0000350983548158e-01  1.0000276682815459e-01  9.9998455708951342e-02  9.9998324356465662e-02  9.9997256550114350e-02  9.9994947946679291e-02  9.9993646442345013e-02  9.9993529721704430e-02  9.9989896136158093e-02  9.9991571100886995e-02  9.9985498291467509e-02  9.9992491465101446e-02  9.9976454599259648e-02  1.0000000000000003e-01  9.9994615717431956e-02  1.0000000000000003e-01  9.9996066829647914e-02  9.9993899898385766e-02  9.9992529893034837e-02  9.9991893395008288e-02  9.9990830850466353e-02  9.9987886996051836e-02  9.9988179573106586e-02  9.9986893520406211e-02  9.9983029576638710e-02  9.9983670290779106e-02  9.9981593223786247e-02  9.9975778610216282e-02  9.9978852369794785e-02  9.9974610384294421e-02  9.9970573730054704e-02  9.9969961427620491e-02  9.9979927921402562e-02  9.9948698517701440e-02  9.9968257153488491e-02  9.9959111717042151e-02  9.9949921524361551e-02  9.9958225780590132e-02  9.9945364556549871e-02  9.9938286454322928e-02  9.9935227760664477e-02  9.9947341857169816e-02  9.9896717467964469e-02  9.9989822710488091e-02  9.9825427015135165e-02  1.0003147890291801e-01  1.0006529980300821e-01  1.0006709068007848e-01  1.0003498746146518e-01  1.0004896824045921e-01  1.0005044231637809e-01  1.0002856584510973e-01  1.0003277599833484e-01  1.0003161714708134e-01  1.0003349394523986e-01  1.0001484070393697e-01  1.0003146245511646e-01  1.0001140486629406e-01  1.0001798478930504e-01  1.0001430863297252e-01  1.0000761800527980e-01  1.0000691133916857e-01  1.0000649197820870e-01  1.0000114117110635e-01  1.0000098990245170e-01  9.9999970516501030e-02  9.9996444130156917e-02  9.9996169418889141e-02  9.9994771787454237e-02  9.9993157434155017e-02  9.9990700506853852e-02  9.9992067802975745e-02  9.9985634030985940e-02  9.9992554226896638e-02  9.9976864032380763e-02  1.0000000000000003e-01  9.9994374270794370e-02  1.0000000000000003e-01  9.9995832581833810e-02  9.9992816837896653e-02  9.9992846230890914e-02  9.9991289944767664e-02  9.9988776333157545e-02  9.9988644648507888e-02  9.9987250014549958e-02  9.9983631263458897e-02  9.9984746140109007e-02  9.9982661408317922e-02  9.9977421447533729e-02  9.9979482035565670e-02  9.9976457577440531e-02  9.9970222767435724e-02  9.9972356233058349e-02  9.9972132250703769e-02  9.9957293202884129e-02  9.9980069737496902e-02  9.9948454091851144e-02  9.9952952151653188e-02  9.9957382484660004e-02  9.9953776646905357e-02  9.9935532729034285e-02  9.9952167956103968e-02  9.9930090041078792e-02  9.9937760226862932e-02  9.9910378855686197e-02  9.9981258119090394e-02  9.9825607312131345e-02  1.0004119167674468e-01  1.0007634996423043e-01  1.0005459810210213e-01  1.0004461921276911e-01  1.0006154984383199e-01  1.0003648771925823e-01  1.0004138871545541e-01  1.0004161985341978e-01  1.0002555612428751e-01  1.0002157725909860e-01  1.0004311451641713e-01  1.0000887657124496e-01  1.0002541400332549e-01  1.0001821252836085e-01  1.0001372490999692e-01  1.0001096641600511e-01  1.0001187153674115e-01  1.0000433717354373e-01  1.0000457731695371e-01  1.0000372152025971e-01  9.9999545283131944e-02  9.9998571798366256e-02  9.9998090365075024e-02  9.9994647722452076e-02  9.9994705548877988e-02  9.9992095385147930e-02  9.9992495782318044e-02  9.9986866081751932e-02  9.9993344611280108e-02  9.9978053281604404e-02  1.0000000000000003e-01  9.9994142449296830e-02  1.0000000000000003e-01  9.9995384258999231e-02  9.9993146671255168e-02  9.9992625117782827e-02  9.9989921052263578e-02  9.9989685704935924e-02  9.9988174932608184e-02  9.9984863675803629e-02  9.9985354876945001e-02  9.9983896872915257e-02  9.9979224474355685e-02  9.9980825750918184e-02  9.9978520999307985e-02  9.9972330637244491e-02  9.9974773358008015e-02  9.9971972482793978e-02  9.9962051693314014e-02  9.9971109344889855e-02  9.9959655890622140e-02  9.9966725310530830e-02  9.9947859588974453e-02  9.9954905168274780e-02  9.9940484031835045e-02  9.9952202323092057e-02  9.9945734423106045e-02  9.9920970733195044e-02  9.9952910592994132e-02  9.9907832703409860e-02  9.9968882918185051e-02  9.9845651368993177e-02  1.0002569826648966e-01  1.0009980462084242e-01  1.0006046635417694e-01  1.0005576813445823e-01  1.0004838487376082e-01  1.0004443578393631e-01  1.0005183270166600e-01  1.0003224738952500e-01  1.0003065226971317e-01  1.0003461417872789e-01  1.0001486003055682e-01  1.0003359755419977e-01  1.0001638959441424e-01  1.0001960863691209e-01  1.0001295110881676e-01  1.0001809075059463e-01  1.0000717051488875e-01  1.0000835748603017e-01  1.0000706807307039e-01  1.0000184186781393e-01  1.0000153667482470e-01  1.0000070878893119e-01  9.9996910049402157e-02  9.9995879776851343e-02  9.9995685791593791e-02  9.9991815651853583e-02  9.9993125752174103e-02  9.9987705771593299e-02  9.9993328257435066e-02  9.9978848840845722e-02  1.0000000000000003e-01  9.9993782404732848e-02  1.0000000000000003e-01  9.9995592157275756e-02  9.9993000250632180e-02  9.9991704851799437e-02  9.9990642276593170e-02  9.9989487534934307e-02  9.9986359637768751e-02  9.9986333977667582e-02  9.9984932317697617e-02  9.9981063432127232e-02  9.9981728222394997e-02  9.9980227689293225e-02  9.9974854677373645e-02  9.9976879253095993e-02  9.9974399694386845e-02  9.9965856548210885e-02  9.9970848083880737e-02  9.9964862914059274e-02  9.9958950534779281e-02  9.9958948693569014e-02  9.9972751216760927e-02  9.9927887881076732e-02  9.9958813208327502e-02  9.9942132437314757e-02  9.9936096443711347e-02  9.9939893833541751e-02  9.9948246089837392e-02  9.9897537138789322e-02  9.9984440369249028e-02  9.9847467744268184e-02  1.0001770244853828e-01  1.0010777291814048e-01  1.0007583017560638e-01  1.0004348312125270e-01  1.0005251171050833e-01  1.0005517052199905e-01  1.0004040937679648e-01  1.0003744426227665e-01  1.0004270738476988e-01  1.0002287510291757e-01  1.0002437116474586e-01  1.0002242328272101e-01  1.0002705555785897e-01  1.0000963314044399e-01  1.0002479837527675e-01  1.0000869444674816e-01  1.0001336813145685e-01  1.0001071997559191e-01  1.0000523089150716e-01  1.0000403816016940e-01  1.0000393601221644e-01  9.9999219746640722e-02  9.9998901383103134e-02  9.9997292210028371e-02  9.9995007905151256e-02  9.9992805254018241e-02  9.9994042216541124e-02  9.9987900373032124e-02  9.9993877297474498e-02  9.9979952973968514e-02  1.0000000000000003e-01  9.9993882046319552e-02  1.0000000000000003e-01  9.9995748303121842e-02  9.9992524593499624e-02  9.9992534037689679e-02  9.9990819963711952e-02  9.9988407106051058e-02  9.9987921722239609e-02  9.9986513389201795e-02  9.9982995453943929e-02  9.9983614859501399e-02  9.9981865956094998e-02  9.9977142119246770e-02  9.9979015171662605e-02  9.9977245225469358e-02  9.9970190882089097e-02  9.9973221468748791e-02  9.9969666987793179e-02  9.9960620450440435e-02  9.9964753341999085e-02  9.9964366914781611e-02  9.9944188474377721e-02  9.9975150579340644e-02  9.9935083343307279e-02  9