<?xml version="1.0"?>
<VTKFile type="UnstructuredGrid"  version="0.1"  >
<UnstructuredGrid>
<Piece  NumberOfPoints="1933" NumberOfCells="3640">
<Points>
<DataArray  type="Float64"  NumberOfComponents="3"  format="ascii">-0.4752690323057353 -0.002084612999309642 0  4.524730988123773 -0.002019091436793598 0  4.524632666853116 7.497980939039452 0  -0.4753673478843972 7.497915429669525 0  9.52473103294045 -0.001953581510221414 0  9.524632683785491 7.498046439350446 0  14.52473110838903 -0.001888044286333532 0  14.52463269862338 7.49811196977338 0  19.52473121054997 -0.001822443824793853 0  19.52463270445929 7.498177565500307 0  24.52473132904707 -0.001756748266849181 0  24.52463269155384 7.498243257581684 0  29.5247314492615 -0.001690929322702883 0  29.52463264730671 7.498309073662118 0  34.52473155343264 -0.001624961292067071 0  34.52463255622284 7.498375038963594 0  39.52473162100226 -0.001558820053955899 0  39.52463239976583 7.498441177247077 0  44.52473162844868 -0.001492482171957472 0  44.52463215605081 7.498507511656054 0  49.52473154875877 -0.001425924144887599 0  49.52463179935596 7.49857406542251 0  54.52473135061021 -0.001359121789251862 0  54.52463129943931 7.498640862447485 0  59.52473099728244 -0.001292049726382836 0  59.52463062064249 7.498707927778158 0  64.52473044527341 -0.00122468094489779 0  64.5246297207504 7.498775288004341 0  69.52472964255797 -0.001156986410202819 0  69.52462854956023 7.498842971593784 0  74.5247285263832 -0.001088934693629045 0  74.52462704709269 7.498911009180516 0  79.52472702043443 -0.001020491592900679 0  79.52462514135071 7.498979433812278 0  84.52472503112287 -0.0009516197126053711 0  84.52462274550552 7.499048281149691 0  89.52472244260881 -0.0008822779691613689 0  89.52461975435062 7.499117589582832 0  94.52471910995831 -0.000812420983629385 0  94.52461603984294 7.499187400174242 0  99.52471484946342 -0.0007419983399194238 0  99.52461144554316 7.499257756216723 0  104.5247094245345 -0.0006709537484391999 0  104.5246057798435 7.499328701936653 0  109.5247025244974 -0.0005992243497559171 0  109.5245988081341 7.499400279327773 0  114.5246937317392 -0.0005267409270485409 0  114.5245902447674 7.499472520954467 0  119.524682469336 -0.0004534311785398371 0  119.5245797473427 7.499545434176059 0  124.5246679154536 -0.000379231674012136 0  124.5245669195286 7.49961896731721 0  129.5246488606366 -0.0003041227343145295 0  129.5245513364374 7.49969293825712 0  134.5246234666638 -0.0002282218200875922 0  134.5245326223442 7.499766885701982 0  139.5245888569841 -0.0001520243293362838 0  139.5245106409176 7.4998397636267 0  144.5245404253043 -7.70157170589169e-05 0  144.5244859123123 7.499909323385081 0  149.5244706958792 -7.225756720002561e-06 0  149.5244604540841 7.499970888198896 0  159.5244717418524 4.12370596480889e-19 0  164.5245158034683 2.982997263175753e-05 0  164.5244799550219 7.500029765255013 0  159.5244616327778 7.499999521412068 0  169.5245517817087 7.166965683994347e-05 0  169.524498103358 7.500071980320907 0  174.5245810997057 0.0001212521883229621 0  174.524514999192 7.500121685244346 0  179.5246050517297 0.0001758995851624464 0  179.5245302258174 7.500176326332914 0  184.524624711335 0.0002339403772022407 0  184.5245436881645 7.500234316060004 0  189.52464092963 0.0002943060175009332 0  189.5245554508735 7.500294622885826 0  194.5246543702946 0.0003562920261076376 0  194.5245656512432 7.500356555539015 0  199.5246655501736 0.0004194196756986591 0  199.524574452314 7.500419638583211 0  204.5246748742922 0.0004833547260043999 0  204.5245820186382 7.50048353746885 0  209.5246826630919 0.0005478583851589259 0  209.5245885047029 7.50054801206429 0  214.5246891727599 0.0006127567855027246 0  214.524594050187 7.500612887078499 0  219.524694610202 0.0006779213645686658 0  219.5245987787692 7.50067803273545 0  224.5246991440811 0.0007432558553922156 0  224.5246027986759 7.500743351814064 0  229.5247029130359 0.0008086874056415483 0  229.5246062040017 7.500808770737914 0  234.5247060318841 0.0008741603569075978 0  234.5246090763008 7.500874233308021 0  239.524708596383 0.000939631791736474 0  239.5246114862022 7.500939696207357 0  244.5247106869518 0.001005068292410442 0  244.5246134949333 7.501005125726226 0  249.5247123716355 0.001070443557745445 0  249.5246151557083 7.501070495354393 0  254.5247137085175 0.001135736650167693 0  254.524616514972 7.501135784010139 0  259.5247147477232 0.00120093072767016 0  259.5246176135014 7.501200974758171 0  264.5247155331243 0.001266012172872651 0  264.5246184873776 7.501266053925263 0  269.5247161038169 0.00133097007598441 0  269.5246191688344 7.501331010565483 0  274.5247164954279 0.001395796067754158 0  274.5246196869838 7.501395836262843 0  279.5247167412661 0.001460484538261437 0  279.5246200684207 7.50146052529219 0  284.5247168733013 0.001525033321708083 0  284.5246203376819 7.50152507519141 0  289.5247169228759 0.001589444977056994 0  289.524620517549 7.501589487827837 0  294.5247169209379 0.001653728839419673 0  294.5246206291812 7.501653771061776 0  299.5247168973498 0.001717904009563992 0  299.5246206921041 7.501717941105055 0  304.5247168784082 0.001782003202698852 0  304.5246207242131 7.501782025631146 0  309.5247168809011 0.001846076164132368 0  309.5246207422184 7.501846067729214 0  4.524534373816167 14.99798098908096 0  -0.4754656358504187 14.9979155327017 0  9.524534371371796 14.9980464508024 0  14.52453434877548 14.99811195451963 0  19.52453429739028 14.99817753132763 0  24.52453420762269 14.99824320876862 0  29.52453406838854 14.99830901186734 0  34.52453386664473 14.99837496393859 0  39.52453358698614 14.99844108730071 0  44.52453321125871 14.9985074039016 0  49.52453271814447 14.99857393584961 0  54.52453208268638 14.998640705847 0  59.52453127573161 14.99870773752762 0  64.52453026328176 14.99877505569862 0  69.52452900574571 14.99884268647867 0  74.52452745710414 14.99891065731062 0  79.52452556401214 14.99897899680202 0  84.52452326490619 14.99904773430381 0  89.52452048924575 14.9991168990638 0  94.52451715713812 14.99918651865985 0  99.52451317980039 14.99925661618275 0  104.5245084616566 14.99932720522138 0  109.524502905432 14.99939828096306 0  114.5244964224843 14.99946980443482 0  119.5244889518694 14.99954167473193 0  124.5244804931918 14.99961368057224 0  129.5244711595119 14.99968541740311 0  134.5244612554056 14.99975615050576 0  139.5244513762877 14.9998246038373 0  144.524442495838 14.99988868100268 0  149.5244359352174 14.99994525594862 0  164.5244432775091 15.0000303195257 0  159.524437560829 14.99999371363097 0  169.5244495991191 15.00007429807907 0  174.5244564973246 15.00012426312419 0  179.5244636111452 15.0001786784597 0  184.5244706117754 15.00023632046533 0  189.5244772709845 15.00029628623572 0  194.5244834534618 15.00035792376235 0  199.5244890931893 15.00042076348818 0  204.5244941709581 15.00048446549027 0  209.5244986970532 15.00054878158251 0  214.5245026990765 15.00061352880728 0  219.5245062138213 15.00067857099446 0  224.5245092820545 15.00074380587266 0  229.5245119452872 15.00080915597079 0  234.5245142438656 15.00087456211546 0  239.5245162159152 15.00093997872497 0  244.5245178968294 15.00100537036579 0  249.5245193190997 15.00107070921449 0  254.5245205123497 15.00113597318582 0  259.5245215034851 15.00120114456796 0  264.5245223169036 15.00126620906093 0  269.5245229747263 15.00133115515564 0  274.5245234970262 15.00139597381991 0  279.5245239020458 15.0014606584814 0  284.5245242064082 15.00152520531204 0  289.5245244253511 15.00158961382374 0  294.5245245730632 15.00165388777441 0  299.5245246632589 15.0017180363543 0  304.5245247102558 15.00178207558939 0  309.5245247310048 15.00184602995475 0  4.524436228720445 22.49798103821357 0  -0.4755637775420729 22.49791568363207 0  9.524436217579851 22.49804642839567 0  14.52443617851286 22.49811188022044 0  19.52443610259292 22.49817741715772 0  24.52443598130719 22.49824306094876 0  29.52443580578779 22.49830883218613 0  34.5244355662492 22.49837475073976 0  39.52443525156884 22.49844083611639 0  44.52443484896872 22.49850710777307 0  49.52443434376868 22.49857358537601 0  54.52443371919082 22.49864028898633 0  59.52443295621299 22.49870723915027 0  64.52443203348442 22.49877445686585 0  69.52443092733809 22.49884196338241 0  74.52442961196368 22.49890977976861 0  79.5244280598419 22.49897792614357 0  84.52442624259901 22.49904642040595 0  89.52442413252093 22.49911527619618 0  94.52442170508087 22.49918449967247 0  99.52441894298791 22.49925408443928 0  104.5244158424569 22.49932400359683 0  109.524412422606 22.49939419733614 0  114.5244087390173 22.49946455375576 0  119.5244049023619 22.49953487968506 0  124.5244011021492 22.49960485759809 0  129.5243976333507 22.49967398526574 0  134.5243949186117 22.49974149944642 0  139.5243935096761 22.49980630035408 0  144.5243940389853 22.49986693404583 0  149.5243970853558 22.49992177972596 0  164.5243969317253 22.50002988553255 0  159.5243982172746 22.49998727832328 0  169.5243963790602 22.50007677786063 0  174.5243967123211 22.50012782124381 0  179.5243978569749 22.50018240463717 0  184.5243996234219 22.50023981262406 0  189.5244018025674 22.50029939687514 0  194.5244042107257 22.50036062517757 0  199.5244067036608 22.50042307984687 0  204.5244091761 22.50048643991007 0  209.5244115557454 22.50055046092491 0  214.524413796091 22.50061495720415 0  219.5244158698408 22.50067978754644 0  224.5244177635089 22.50074484424883 0  229.5244194732393 22.50081004480431 0  234.5244210016857 22.50087532567336 0  239.5244223557382 22.50094063761735 0  244.5244235448971 22.50100594219684 0  249.5244245801253 22.50107120914037 0  254.5244254730515 22.50113641436912 0  259.5244262354219 22.50120153852458 0  264.5244268787317 22.50126656588953 0  269.524427413983 22.50133148362588 0  274.5244278515456 22.50139628127385 0  279.524428201101 22.50146095046925 0  284.5244284716886 22.5015254848367 0  289.5244286718895 22.50158988000336 0  294.5244288102236 22.50165413364673 0  299.5244288958762 22.5017182
[...]
<PointData  Scalars="p"> 
<DataArray  type="Float64"  Name="p"  format="ascii">1.0000000000000001e-01  1.0000000000000003e-01  9.9997878510810045e-02  1.0000000000000003e-01  1.0000000000000003e-01  9.9998660547618301e-02  1.0000000000000003e-01  9.9997972740052149e-02  1.0000000000000003e-01  9.9998123017957810e-02  1.0000000000000003e-01  9.9997720025297041e-02  1.0000000000000003e-01  9.9996246057909535e-02  1.0000000000000003e-01  9.9996176173396276e-02  1.0000000000000003e-01  9.9995171546036155e-02  1.0000000000000003e-01  9.9993435623565274e-02  1.0000000000000003e-01  9.9994711584889609e-02  1.0000000000000003e-01  9.9987490880546176e-02  1.0000000000000003e-01  9.9986124578579250e-02  1.0000000000000003e-01  9.9982873615094142e-02  1.0000000000000003e-01  9.9980952397766359e-02  1.0000000000000003e-01  9.9974819678348023e-02  1.0000000000000003e-01  9.9972875857443924e-02  1.0000000000000003e-01  9.9967602606785430e-02  1.0000000000000003e-01  9.9959817309569182e-02  1.0000000000000003e-01  9.9956849106033419e-02  1.0000000000000003e-01  9.9947549949855441e-02  1.0000000000000003e-01  9.9941397044889274e-02  1.0000000000000003e-01  9.9930555574833171e-02  1.0000000000000003e-01  9.9929924955562424e-02  1.0000000000000003e-01  9.9905155071036963e-02  1.0000000000000003e-01  9.9922488656519426e-02  1.0000000000000003e-01  9.9873181248384013e-02  1.0000000000000003e-01  9.9922605462127778e-02  1.0000000000000003e-01  9.9831538696665389e-02  1.0000000000000003e-01  9.9934489497021564e-02  1.0000000000000001e-01  9.9765823433449558e-02  1.0000000000000001e-01  1.0000000000000003e-01  1.0013664040476797e-01  1.0034094826489896e-01  1.0000000000000003e-01  1.0001540280128772e-01  1.0000000000000003e-01  1.0010367747982440e-01  1.0000000000000003e-01  1.0005104857759593e-01  1.0000000000000003e-01  1.0006415203695813e-01  1.0000000000000003e-01  1.0004991698595908e-01  1.0000000000000003e-01  1.0005333795140210e-01  1.0000000000000003e-01  1.0004118098784924e-01  1.0000000000000003e-01  1.0004158974141970e-01  1.0000000000000003e-01  1.0003665102480112e-01  1.0000000000000003e-01  1.0003268021102506e-01  1.0000000000000003e-01  1.0002987702318779e-01  1.0000000000000003e-01  1.0002781403357301e-01  1.0000000000000003e-01  1.0002442092655733e-01  1.0000000000000003e-01  1.0002287455008076e-01  1.0000000000000003e-01  1.0002123354190440e-01  1.0000000000000003e-01  1.0001925954499372e-01  1.0000000000000003e-01  1.0001809378723450e-01  1.0000000000000003e-01  1.0001713518369088e-01  1.0000000000000003e-01  1.0001581469744243e-01  1.0000000000000003e-01  1.0001520076641979e-01  1.0000000000000003e-01  1.0001435509129659e-01  1.0000000000000003e-01  1.0001394055353227e-01  1.0000000000000003e-01  1.0001288380741352e-01  1.0000000000000003e-01  1.0001344762034949e-01  1.0000000000000003e-01  1.0001129262566559e-01  1.0000000000000003e-01  1.0001380369952016e-01  1.0000000000000003e-01  1.0000872813305049e-01  1.0000000000000003e-01  1.0001681236318009e-01  1.0000000000000001e-01  1.0000000000000003e-01  9.9995283624716255e-02  1.0000000000000003e-01  9.9996016392571010e-02  9.9995839753910257e-02  9.9995285127690930e-02  9.9993353728016821e-02  9.9993654820468195e-02  9.9993063617672226e-02  9.9990034640094608e-02  9.9991822044675396e-02  9.9990318400435318e-02  9.9989292415782235e-02  9.9980413289939382e-02  9.9985117128857173e-02  9.9976983768512842e-02  9.9981295398318307e-02  9.9976889747907416e-02  9.9970623383406204e-02  9.9971536451647858e-02  9.9967713813792117e-02  9.9957331400673602e-02  9.9961821993337321e-02  9.9950835064162399e-02  9.9950309213922561e-02  9.9938447058439642e-02  9.9954308246168105e-02  9.9908794439946463e-02  9.9980642669342895e-02  9.9851494989997527e-02  1.0004900287104590e-01  9.9763628496571832e-02  9.9835456843975032e-02  1.0048258266221359e-01  1.0017453751554324e-01  1.0001804999178401e-01  1.0004620717115441e-01  1.0003683980087905e-01  1.0005219523397461e-01  1.0002781080440266e-01  1.0003834453885957e-01  1.0003292628716559e-01  1.0002712982604368e-01  1.0002629777039572e-01  1.0002563364090888e-01  1.0002022420700546e-01  1.0001993155010751e-01  1.0001883882553496e-01  1.0001581483712531e-01  1.0001513285030933e-01  1.0001439495008557e-01  1.0001236577505010e-01  1.0001166970979199e-01  1.0001106165099111e-01  1.0000951467653021e-01  1.0000912313941705e-01  1.0000800698652472e-01  1.0000778211290437e-01  1.0000580796559384e-01  1.0000757894972580e-01  1.0000274761317350e-01  1.0000858979611692e-01  1.0000000000000003e-01  9.9992444556391918e-02  1.0000000000000003e-01  9.9995540824066656e-02  9.9993608586458657e-02  9.9991774139942757e-02  9.9991890456142374e-02  9.9991224332815626e-02  9.9986948054780506e-02  9.9988131624400636e-02  9.9987344257042782e-02  9.9983034295647241e-02  9.9981573957083014e-02  9.9987547045801983e-02  9.9963885255026835e-02  9.9975395902051081e-02  9.9969545354523362e-02  9.9961036533191036e-02  9.9964724482229345e-02  9.9958668152783425e-02  9.9945600357792569e-02  9.9948836375781433e-02  9.9942212302677955e-02  9.9923317778661064e-02  9.9935092241657170e-02  9.9911413747799049e-02  9.9921043435487453e-02  9.9888205491184268e-02  9.9939664129690020e-02  9.9820903171131445e-02  1.0003674508895709e-01  9.9632227580219959e-02  9.9924383895988025e-02  1.0038646813558118e-01  1.0022889116213551e-01  1.0004024663927824e-01  1.0006170761550952e-01  1.0009685151819538e-01  1.0003566255657673e-01  1.0006997947724382e-01  1.0005718210130242e-01  1.0004601099626055e-01  1.0004617564891118e-01  1.0004612333512278e-01  1.0003509934929793e-01  1.0003582260450422e-01  1.0003390150766701e-01  1.0002783798230573e-01  1.0002708827089518e-01  1.0002611088208989e-01  1.0002204771107236e-01  1.0002131104590155e-01  1.0002028223375665e-01  1.0001772373717616e-01  1.0001669457194926e-01  1.0001597238179237e-01  1.0001374516391007e-01  1.0001353342449902e-01  1.0001140831439673e-01  1.0001214908008350e-01  1.0000766212594644e-01  1.0001361297455096e-01  1.0000000000000003e-01  9.9990585825346270e-02  1.0000000000000003e-01  9.9994267376442680e-02  9.9989784364818493e-02  9.9990685522643771e-02  9.9989811780662324e-02  9.9985121938798077e-02  9.9986221147703780e-02  9.9985120365294319e-02  9.9979284576202143e-02  9.9981499104899160e-02  9.9981156211353145e-02  9.9968230073751649e-02  9.9983606453794532e-02  9.9960853313349460e-02  9.9960315972910829e-02  9.9962966348895996e-02  9.9961633158604124e-02  9.9945858775517135e-02  9.9954649112140109e-02  9.9944577884623548e-02  9.9931499088444523e-02  9.9933889266790824e-02  9.9932579602095603e-02  9.9902080569266583e-02  9.9936955615364045e-02  9.9878473922686783e-02  9.9953426597578499e-02  9.9815131413338920e-02  1.0006104147279826e-01  9.9613262676304368e-02  9.9943093583327369e-02  1.0049441182540171e-01  1.0013820890921062e-01  1.0002493240710479e-01  1.0017844125141860e-01  9.9994958531153644e-02  1.0009022918283422e-01  1.0005916801854402e-01  1.0005237836807922e-01  1.0005066809510700e-01  1.0005575258141766e-01  1.0003779147730259e-01  1.0004175318255755e-01  1.0003957889659790e-01  1.0003133422276012e-01  1.0003074301848155e-01  1.0002995988104835e-01  1.0002422850243246e-01  1.0002370875315914e-01  1.0002272610680596e-01  1.0001904714413419e-01  1.0001821047585770e-01  1.0001698935532620e-01  1.0001472126690991e-01  1.0001317012787422e-01  1.0001278571127419e-01  1.0000960370427542e-01  1.0001085052320104e-01  1.0000571405940474e-01  1.0001085153530780e-01  1.0000000000000003e-01  9.9988687878415763e-02  1.0000000000000003e-01  9.9991929313650169e-02  9.9989016156922753e-02  9.9989438698984925e-02  9.9984262219461759e-02  9.9985496550144479e-02  9.9983982509922839e-02  9.9977302415085262e-02  9.9979695809761404e-02  9.9979014088574764e-02  9.9967655537789440e-02  9.9974713543363528e-02  9.9967285972905731e-02  9.9969409260599315e-02  9.9951112316787813e-02  9.9959081129114613e-02  9.9940616967954768e-02  9.9952743065283206e-02  9.9944664828274313e-02  9.9925522172490525e-02  9.9937477223147025e-02  9.9922834035984662e-02  9.9910269114101974e-02  9.9907406777223137e-02  9.9919911651227197e-02  9.9860122796914016e-02  9.9951765670454426e-02  9.9790248824182248e-02  1.0006739893832747e-01  9.9555844123528692e-02  9.9851039961332461e-02  1.0054860916015937e-01  1.0019600783555278e-01  1.0008518358144876e-01  1.0007986498553514e-01  1.0011087452328117e-01  1.0007198486704608e-01  1.0006613218247691e-01  1.0005880762025307e-01  1.0007804101007708e-01  1.0004555739626142e-01  1.0005574992483258e-01  1.0005260388181304e-01  1.0004060913623650e-01  1.0004074323362992e-01  1.0004055011075674e-01  1.0003144502023012e-01  1.0003130817164529e-01  1.0003033356961147e-01  1.0002497558962180e-01  1.0002406660814744e-01  1.0002314643043818e-01  1.0001931284996937e-01  1.0001839993068644e-01  1.0001671574906053e-01  1.0001482279281661e-01  1.0001233638760930e-01  1.0001300663026065e-01  1.0000751614996999e-01  1.0001281114876616e-01  1.0000000000000003e-01  9.9986464394202071e-02  1.0000000000000003e-01  9.9991594070146211e-02  9.9987654613385893e-02  9.9984971510073462e-02  9.9984533368187092e-02  9.9983780594309346e-02  9.9977012202310769e-02  9.9978496210708256e-02  9.9977807387699624e-02  9.9968168058870793e-02  9.9971760403496215e-02  9.9968502629364089e-02  9.9959324936768082e-02  9.9960337935505350e-02  9.9974891966285298e-02  9.9927500236356950e-02  9.9953503493617840e-02  9.9942799606802607e-02  9.9927179079377773e-02  9.9938004474127012e-02  9.9931674592845784e-02  9.9902475052900550e-02  9.9926540071293465e-02  9.9899030965500041e-02  9.9903193716805824e-02  9.9871174149121222e-02  9.9947121501203454e-02  9.9771053485862030e-02  1.0009247881649397e-01  9.9511865577370989e-02  9.9885400249316178e-02  1.0050787677134616e-01  1.0024443020867373e-01  1.0000216867202505e-01  1.0012178059629392e-01  1.0009898661512520e-01  1.0010672185126984e-01  1.0003911510671398e-01  1.0010475604164519e-01  1.0004039565948694e-01  1.0006871378156158e-01  1.0006160510443679e-01  1.0004674282918265e-01  1.0004694566889911e-01  1.0004895688239698e-01  1.0003579818577986e-01  1.0003692997551447e-01  1.0003593996223006e-01  1.0002824281145491e-01  1.0002774732185157e-01  1.0002705165688094e-01  1.0002193488510688e-01  1.0002089022898378e-01  1.0001993377430028e-01  1.0001600443682385e-01  1.0001540786246045e-01  1.0001263962974541e-01  1.0001241624645434e-01  1.0000722081339772e-01  1.0001197010846609e-01  1.0000000000000003e-01  9.9985265552924599e-02  1.0000000000000003e-01  9.9990959051057995e-02  9.9983776317579320e-02  9.9985292082321320e-02  9.9983346137165571e-02  9.9977481664464823e-02  9.9978232887727156e-02  9.9977536233662193e-02  9.9968041662452087e-02  9.9971781107055013e-02  9.9969037142849090e-02  9.9956631505721802e-02  9.9961490038955367e-02  9.9963812656328283e-02  9.9939766411619391e-02  9.9970645207863071e-02  9.9930651885840008e-02  9.9925910145267430e-02  9.9936803671580476e-02  9.9931715217586606e-02  9.9907064018663075e-02  9.9921690191101906e-02  9.9916346706551848e-02  9.9875641334250725e-02  9.9919866549123368e-02  9.9860582326726427e-02  9.9925901601662884e-02  9.9780564802643981e-02  1.0008691176230658e-01  9.9475471529369211e-02  9.9908908674803898e-02  1.0055681007403408e-01  1.0018786883175067e-01  1.0004088122721326e-01  1.0015512928571754e-01  1.0005963018082477e-01  1.0008926981008975e-01  1.0013918331286843e-01  1.0003194708056508e-01  1.0008425224587481e-01  1.0006869316151648e-01  1.0005785844841510e-01  1.0005408514242649e-01  1.0006073421827778e-01  1.0004164486586588e-01  1.0004449041174611e-01  1.0004404081524207e-01  1.0003410847191281e-01  1.0003330584160759e-01  1.0003295542527633e-01  1.0002607212035136e-01  1.0002540543783017e-01  1.0002419015134277e-01  1.0001998138103044e-01  1.0001824001514821e-01  1.0001740210083647e-01  1.0001318041119203e-01  1.0001364129945389e-01  1.0000824646248546e-01  1.0001262400618678e-01  1.0000000000000003e-01  9.9984081842336883e-02  1.0000000000000003e-01  9.9988914775445609e-02  9.9983888956105549e-02  9.9984626779781371e-02  9.9978107439506539e-02  9.9979009252138443e-02  9.9977628556159659e-02  9.9969034496094150e-02  9.9971963205199618e-02  9.9970586556234753e-02  9.9957589162425448e-02  9.9962315948360192e-02  9.9961282057861464e-02  9.9943118711502410e-02  9.9958556859314346e-02  9.9945991594063810e-02  9.9949029580574292e-02  9.9922525767120060e-02  9.9935320156149379e-02  9.9902757594183156e-02  9.9930350905219109e-02  9.9913098340090170e-02  9.9891653736602956e-02  9.9900050281512998e-02  9.9912627182524499e-02  9.9835718190852865e-02  9.9948472128109922e-02  9.9769302222210920e-02  1.0007575648843892e-01  9.9473121486116312e-02  9.9850324641310842e-02  1.0060597467685926e-01  1.0022257112207807e-01  1.0007113297486225e-01  1.0010872664976204e-01  1.0007389610471047e-01  1.0012821758609035e-01  1.0006144397904694e-01  1.0011701878062670e-01  1.0005984584780524e-01  1.0007213179578404e-01  1.0005306025422338e-01  1.0007528166675099e-01  1.0004479400030071e-01  1.0005187644594563e-01  1.0005109104346113e-01  1.0003858587030688e-01  1.0003850723090639e-01  1.0003918661393836e-01  1.0002945019076584e-01  1.0002903858359107e-01  1.0002839918820886e-01  1.0002242362114599e-01  1.0002147727410615e-01  1.0001988447704561e-01  1.0001655391679883e-01  1.0001381771123280e-01  1.0001416222554724e-01  1.0000793539152873e-01  1.0001241890730721e-01  1.0000000000000003e-01  9.9982494999066709e-02  1.0000000000000003e-01  9.9989123963267854e-02  9.9983386491220280e-02  9.9980780102055286e-02  9.9979248127326587e-02  9.9978844022601099e-02  9.9970642763781425e-02  9.9972295089773705e-02  9.9971535266478145e-02  9.9960684311299008e-02  9.9963370270540974e-02  9.9962265086382091e-02  9.9945849207600440e-02  9.9955189503381850e-02  9.9951249579025389e-02  9.9936138676937888e-02  9.9940580106092719e-02  9.9962238826034902e-02  9.9889551314393990e-02  9.9930367886742449e-02  9.9917775598480724e-02  9.9886653471328440e-02  9.9919186802886140e-02  9.9893745492697028e-02  9.9881533244436271e-02  9.9866473949617021e-02  9.9939911990656619e-02  9.9743552686748532e-02  1.0009919402378516e-01  9.9458062134631736e-02  9.9858009376733392e-02  1.0058553551909080e-01  1.0025764660937612e-01  1.0002467370099619e-01  1.0013043584152879e-01  1.0011023138810743e-01  1.0008149469134646e-01  1.0008541646583491e-01  1.0010234366429534e-01  1.0009818921607502e-01  1.0004185747541078e-01  1.0009300958643011e-01  1.0004365277950876e-01  1.0006188996259421e-01  1.0005844251013618e-01  1.0004444093271576e-01  1.0004326463767740e-01  1.0004613062187535e-01  1.0003375985322835e-01  1.0003408718140180e-01  1.0003339697266342e-01  1.0002573301419317e-01  1.0002466242128706e-01  1.0002412228556619e-01  1.0001854070627549e-01  1.0001785398856741e-01  1.0001514675882804e-01  1.0001379466196202e-01  1.0000853291728524e-01  1.0001278608191400e-01  1.0000000000000003e-01  9.9981853184489003e-02  1.0000000000000003e-01  9.9988999993991967e-02  9.9980282486169816e-02  9.9981804332302235e-02  9.9979182770382591e-02  9.9973017233672384e-02  9.9973282061968261e-02  9.9972547491469277e-02  9.9962563353589912e-02  9.9965634709565127e-02  9.9964342857916846e-02  9.9949018603106204e-02  9.9955567791658720e-02  9.9954069486593244e-02  9.9935460515003752e-02  9.9944705767404288e-02  9.9949586082101277e-02  9.9911279821794416e-02  9.9961259054620361e-02  9.9902024140401141e-02  9.9893954323174633e-02  9.9911867280042407e-02  9.9913333606988480e-02  9.9859563959819292e-02  9.9919457119313645e-02  9.9859566232045852e-02  9.9906953091161654e-02  9.9777927136909042e-02  1.0009165351826299e-01  9.9431407316391607e-02  9.9877170223110753e-02  1.0061154854466899e-01  1.0022443697122005e-01  1.0003714614204194e-01  1.0016323926585918e-01  1.0006847014632339e-01  1.0009972465311856e-01  1.0010526182214254e-01  1.0007811861536334e-01  1.0007082963123450e-01  1.0012292772803469e-01  1.0003092553721361e-01  1.0007415101168426e-01  1.0005984187848377e-01  1.0005289951286217e-01  1.0004656225471728e-01  1.0005375229749318e-01  1.0003689788317581e-01  1.0003828134275798e-01  1.0003890036445397e-01  1.0002950015553980e-01  1.0002808693313153e-01  1.0002769120207047e-01  1.0002138329040398e-01  1.0001983603510121e-01  1.0001915168547271e-01  1.0001399178251139e-01  1.0001423121854927e-01  1.0000890358894025e-01  1.0001247075032121e-01  1.0000000000000003e-01  9.9981308126330104e-02  1.0000000000000003e-01  9.9987609331425586e-02  9.9981030404687532e-02  9.9982119540252032e-02  9.9975018999092918e-02  9.9975493178640143e-02  9.9973932682542871e-02  9.9965430354937698e-02  9.9967274210920692e-02  9.9966893446060828e-02  9.9953220959313138e-02  9.9957968337851075e-02  9.9956722628383177e-02  9.9938975862337548e-02  9.9947968354429803e-02  9.9947829277008335e-02  9.9920678635932000e-02  9.9944973115606045e-02  9.9928882438721583e-02  9.9928088927412173e-02  9.9899979941769662e-02  9.9911939467902569e-02  9.9871840433467168e-02  9.9903530670076762e-02  9.9909741790503437e-02  9.9823589186778444e-02  9.9947874318058627e-02  9.9775898170964494e-02  1.0005369759901793e-01  9.9471057686627146e-02  9.9835799417841223e-02  1.0066117904249312e-01  1.0023450512446791e-01  1.0006406340564991e-01  1.0012816542409089e-01  1.0007974522694593e-01  1.0012703326769225e-01  1.0007576021068271e-01  1.0008069687063996e-01  1.0010007767215388e-01  1.0006114209689079e-01  1.0009683739833818e-01  1.0005097973824388e-01  1.0006362657471683e-01  1.0004489650027916e-01  1.0006412939406271e-01  1.0003926442700933e-01  1.0004336829698313e-01  1.0004367230450310e-01  1.0003269824769505e-01  1.0003207924218468e-01  1.0003290042755537e-01  1.0002383625045815e-01  1.0002307311486676e-01  1.0002186257838341e-01  1.0001727830461299e-01  1.0001465993570370e-01  1.0001506183217307e-01  1.0000843233288566e-01  1.0001257898077770e-01  1.0000000000000003e-01  9.9980235221976035e-02  1.0000000000000003e-01  9.9988051477655715e-02  9.9981170116382592e-02  9.9979172916711684e-02  9.9976709661040303e-02  9.9976337876475571e-02  9.9968207747309357e-02  9.9969107143403194e-02  9.9968703639174886e-02  9.9957772215124474e-02  9.9960056302855149e-02  9.9959752232367874e-02  9.9943931619447035e-02  9.9950173921945218e-02  9.9950727715363785e-02  9.9927063691214763e-02  9.9942234049519574e-02  9.9937747473491739e-02  9.9915517237398221e-02  9.9924087387766661e-02  9.9956537138226415e-02  9.9849836141314458e-02  9.9920345695928017e-02  9.9888856687426447e-02  9.9869351244603458e-02  9.9875183650582025e-02  9.9941297431324905e-02  9.9735675666936516e-02  1.0009535701208484e-01  9.9475858277251500e-02  9.9818999436870670e-02  1.0065865910694809e-01  1.0026882753871119e-01  1.0003109960953485e-01  1.0013316197385405e-01  1.0010674648040657e-01  1.0009597659203713e-01  1.0008087513847531e-01  1.0010848235357185e-01  1.0006576626961239e-01  1.0007365269229211e-01  1.0007975155837623e-01  1.0008525749669872e-01  1.0003201636387210e-01  1.0007664144530516e-01  1.0003685708048816e-01  1.0005016107546109e-01  1.0004779964509466e-01  1.0003657229738447e-01  1.0003443102200135e-01  1.0003717378058608e-01  1.0002708076008573e-01  1.0002640321086498e-01  1.0002570650264415e-01  1.0001876324069453e-01  1.0001789758012494e-01  1.0001581241037343e-01  1.0001354176720695e-01  1.0000865006709253e-01  1.0001256431192997e-01  1.0000000000000003e-01  9.9980195444601613e-02  1.0000000000000003e-01  9.9988488216449373e-02  9.9979158760563541e-02  9.9980804290886974e-02  9.9977699146892515e-02  9.9972187557990186e-02  9.9971558011356876e-02  9.9970950661918523e-02  9.9961548547873771e-02  9.9963688363199771e-02  9.9962796718813030e-02  9.9948942606025035e-02  9.9953538280055418e-02  9.9954495812326030e-02  9.9934163928888001e-02  9.9943848100019869e-02  9.9944332942337080e-02  9.9917182866442633e-02  9.9932807524485287e-02  9.9940200535665727e-02  9.9887253923909694e-02  9.9955712611430006e-02  9.9885998433220727e-02  9