<?xml version="1.0"?>
<VTKFile type="UnstructuredGrid"  version="0.1"  >
<UnstructuredGrid>
<Piece  NumberOfPoints="1933" NumberOfCells="3640">
<Points>
<DataArray  type="Float64"  NumberOfComponents="3"  format="ascii">0.4752886488498449 0.001496732743064229 0  5.475288666333925 0.001431952443885771 0  5.475385897948752 7.501432032561932 0  0.475385846531813 7.501496752415593 0  10.47528867720798 0.00136708584611259 0  10.47538599942086 7.501367190568567 0  15.47528872742284 0.001302061999312944 0  15.47538618119797 7.501302176372018 0  20.47528887440362 0.00123685399304862 0  20.4753864746602 7.501236971868141 0  25.47528917627109 0.001171462700299155 0  25.47538691276836 7.501171581996062 0  30.47528968843689 0.001105907095226994 0  30.47538752943275 7.501106027690232 0  35.47529046335813 0.001040218453690727 0  35.4753883590605 7.501040341200746 0  40.4752915516089 0.0009744370739230082 0  40.47538943647911 7.500974563339389 0  45.47529300345434 0.0009086107150976707 0  45.47539079716557 7.500908742178367 0  50.47529487058384 0.0008427942704595293 0  50.47539247766478 7.500842932857237 0  55.47529720787678 0.000777050400377959 0  55.47539451609404 7.500777198288173 0  60.47530007517342 0.0007114509980872958 0  60.47539695265156 7.50071161066368 0  65.47530353906892 0.0006460794747640687 0  65.47539983005223 7.500646253768608 0  70.47530767475774 0.0005810339510299967 0  70.47540319381291 7.500581226189651 0  75.47531256796255 0.00051643154603589 0  75.47540709228338 7.50051664561184 0  80.47531831695565 0.0004524140809429616 0  80.47541157627424 7.500452654507949 0  85.47532503465386 0.0003891556831759374 0  85.47541669806199 7.500389427678853 0  90.47533285068103 0.0003268730234307673 0  90.47542250943313 7.500327182312683 0  95.47534191315241 0.0002658392885977383 0  95.47542905825911 7.500266191527261 0  100.4753523896208 0.0002064035700201641 0  100.4754363828591 7.500206802778897 0  105.475364466035 0.0001490182564089715 0  105.4754445030846 7.500149463101105 0  110.4753783413475 9.427847235359276e-05 0  110.4754534067192 7.500094753897497 0  115.4753942130155 4.297992657816837e-05 0  115.4754630295775 7.50004343890182 0  120.4754122438045 -3.794771021222018e-06 0  120.475473228135 7.499996529646368 0  125.4754324906063 -4.45455275937807e-05 0  125.4754837459929 7.499955372481906 0  130.4754547563616 -7.715582306948535e-05 0  130.4754941833563 7.499921757665129 0  135.475478286201 -9.859207035188492e-05 0  135.4755040002406 7.499898039621249 0  140.4755011455126 -0.0001044725676565758 0  140.4755126395947 7.499887232124013 0  145.4755189330745 -8.858457480443875e-05 0  145.4755199996304 7.499893018816869 0  150.4755220127032 -4.314569283985048e-05 0  150.4755278812535 7.499919814242815 0  160.4755282581476 9.226051391311233e-19 0  165.4754045878954 -0.0001614355120226951 0  165.4755062433055 7.499815484115224 0  160.4755439449417 7.499944861156662 0  170.4753332152379 -0.0003038452905165826 0  170.4754679354043 7.499684475542745 0  175.4752905645345 -0.0004324308113987216 0  175.4754357884715 7.49956106056481 0  180.4752644942248 -0.0005499481327896444 0  180.4754105978264 7.499446234876983 0  185.4752483655346 -0.0006585976102129391 0  185.4753914920267 7.499339085113041 0  190.4752384027115 -0.0007601839085954927 0  190.4753772733929 7.499238367621848 0  195.4752323837687 -0.000856138889669143 0  195.4753668385424 7.499142931492305 0  200.4752289556739 -0.0009475743187882499 0  200.4753592844488 7.499051815152681 0  205.4752272652139 -0.001035347704740322 0  205.4753539071571 7.498964244023055 0  210.4752267553336 -0.001120122797415373 0  210.4753501691363 7.498879601132508 0  215.475227050149 -0.001202418298766361 0  215.4753476627788 7.498797394688082 0  220.4752278883515 -0.001282644738668208 0  220.4753460789001 7.498717229968094 0  225.4752290835366 -0.001361131626760456 0  225.475345181992 7.498638786969548 0  230.4752304998472 -0.001438147259577392 0  230.4753447915908 7.498561803261727 0  235.4752320365448 -0.001513913193255997 0  235.4753447685162 7.498486061009084 0  240.4752336179303 -0.001588614907615951 0  240.475345004773 7.498411377161801 0  245.4752351865779 -0.001662409764399772 0  245.4753454161468 7.498337595996247 0  250.4752366986765 -0.001735433038953257 0  250.4753459367551 7.498264583381807 0  255.4752381207796 -0.001807802571056797 0  255.4753465150317 7.498192222315438 0  260.4752394275168 -0.001879622415612489 0  260.4753471107533 7.498120409392147 0  265.475240600022 -0.001950985756709322 0  265.4753476928519 7.498049051976508 0  270.4752416249036 -0.002021977261770827 0  270.4753482378194 7.497978065915043 0  275.4752424936976 -0.002092674980989372 0  275.4753487285639 7.49790737369259 0  280.4752432027632 -0.00216315182571966 0  280.4753491536209 7.497836902997157 0  285.4752437536516 -0.002233476568027971 0  285.4753495066306 7.497766585730145 0  290.4752441539704 -0.002303714159410747 0  290.4753497859871 7.497696357595367 0  295.4752444187989 -0.002373924908725127 0  295.475349994596 7.497626158540255 0  300.4752445725499 -0.002444161562731087 0  300.4753501396519 7.497555934520701 0  305.4752446508335 -0.002514462327256792 0  305.4753502325623 7.497485641309991 0  310.4752447008369 -0.00258483574176199 0  310.4753502896955 7.497415251281377 0  5.475482814891464 15.00143223251906 0  0.4754827543903966 15.001496805719 0  10.47548292894441 15.00136744945561 0  15.4754831252884 15.00130245288351 0  20.47548342532442 15.00123724895738 0  25.47548384793251 15.00117185482149 0  30.47548441150829 15.00110629737366 0  35.47548513465677 15.0010406116747 0  40.47548603631925 15.0009748398003 0  45.47548713568415 15.00090903036518 0  50.47548845201126 15.0008432387456 0  55.4754900043918 15.00077752798126 0  60.47549181141171 15.00071197035596 0  65.47549389065934 15.00064664969977 0  70.4754962579924 15.00058166451237 0  75.47549892646384 15.00051713207402 0  80.47550190477655 15.0004531937905 0  85.47550519511822 15.00039002211243 0  90.4755087902094 15.00032782948131 0  95.47551266941691 15.00026687987321 0  100.4755167938656 15.00020750361261 0  105.4755211007436 15.00015011613666 0  110.475525497554 15.00009524113639 0  115.4755298582652 15.00004353760546 0  120.4755340255914 14.99999582799294 0  125.4755378277483 14.99995311923643 0  130.4755411248355 14.99991659658854 0  135.4755439097961 14.99988754488123 0  140.4755464987689 14.99986709744595 0  145.4755498396643 14.99985558494388 0  150.4755558801936 14.99985088240873 0  165.4755685595634 14.99975265377666 0  160.4755752110007 14.99985009906699 0  170.4755551715344 14.99964580724705 0  175.4755391256046 14.99953742929365 0  180.4755232926174 14.99943160742574 0  185.4755090758646 14.99932984485347 0  190.4754969699745 14.99923239056749 0  195.4754869978026 14.9991389680847 0  200.4754789687055 14.99904912234138 0  205.4754726162061 14.99896237289451 0  210.4754676658023 14.99887827514683 0  215.4754638650283 14.99879643969304 0  220.4754609941714 14.99871653366679 0  225.4754588676686 14.9986382751785 0  230.4754573314374 14.99856142580357 0  235.4754562587862 14.99848578319042 0  240.4754555461434 14.99841117453311 0  245.4754551091471 14.99833745107299 0  250.4754548792835 14.99826448356267 0  255.4754548010857 14.99819215854989 0  260.4754548298503 14.99812037533261 0  265.4754549297894 14.99804904345545 0  270.4754550725444 14.99797808064729 0  275.4754552359866 14.99790741113058 0  280.4754554032249 14.99783696426374 0  285.4754555617915 14.99776667350755 0  290.4754557029275 14.99769647572376 0  295.4754558210192 14.99762631079538 0  300.4754559132591 14.99755612143297 0  305.4754559798474 14.99748585260129 0  310.4754560253411 14.99741544874669 0  5.47557932912154 22.50143267006165 0  0.4755792677904025 22.50149708194896 0  10.4755794293339 22.50136795625426 0  15.47557959180784 22.50130297966681 0  20.4755798312232 22.50123777338435 0  25.475580157524 22.50117237039321 0  30.47558057829091 22.50110680640859 0  35.47558109991731 22.50104112112036 0  40.47558172801867 22.50097535883884 0  45.47558246738186 22.50090956908199 0  50.47558332163663 22.50084380738613 0  55.47558429273435 22.5007781364879 0  60.4755853802633 22.50071262797224 0  65.47558658059182 22.50064736446947 0  70.47558788581284 22.50058244249496 0  75.4755892824612 22.50051797604784 0  80.47559074998298 22.50045410110754 0  85.47559225897268 22.50039098118237 0  90.47559376926669 22.50032881405346 0  95.47559522811683 22.50026783978801 0  100.4755965689082 22.5002083499053 0  105.4755977112877 22.5001506971559 0  110.4755985642087 22.50009530450856 0  115.4755990343418 22.50004267027921 0  120.4755990435539 22.49999336327656 0  125.4755985605023 22.49994799644176 0  130.4755976519644 22.49990715837605 0  135.4755965570368 22.49987126791703 0  140.4755957763682 22.49984029756491 0  145.4755961376828 22.49981329609975 0  150.4755987277898 22.49978768423895 0  165.4756235164647 22.49968312855777 0  160.4756154040835 22.49976151689715 0  170.4756251496225 22.49959464885363 0  175.4756220861087 22.49950113130551 0  180.4756162539968 22.49940621640022 0  185.4756091921793 22.4993121046854 0  190.4756019246429 22.49921991887794 0  195.4755950490615 22.4991301096875 0  200.4755888668505 22.49904275275182 0  205.4755834928515 22.49895773365103 0  210.47557893315 22.49887485383201 0  215.4755751356745 22.49879388763925 0  220.4755720212491 22.49871461110296 0  225.4755695017295 22.49863681512909 0  230.4755674900205 22.49856031041288 0  235.4755659051886 22.49848492816172 0  240.4755646747045 22.49841051884353 0  245.4755637350737 22.49833695012634 0  250.4755630316056 22.49826410459852 0  255.4755625177647 22.49819187755126 0  260.4755621543403 22.49812017494451 0  265.4755619085816 22.49804891159649 0  270.4755617533507 22.49797800959973 0  275.4755616663281 22.49790739694992 0  280.4755616292733 22.49783700636436 0  285.4755616273475 22.49776677425256 0  290.4755616485079 22.49769663976319 0  295.4755616830248 22.49762654374171 0  300.4755617231725 2
[...]
<PointData  Scalars="p"> 
<DataArray  type="Float64"  Name="p"  format="ascii">1.0000000000000001e-01  1.0000000000000003e-01  1.0000212144780593e-01  1.0000000000000003e-01  1.0000000000000003e-01  1.0000133933687372e-01  1.0000000000000003e-01  1.0000202693035391e-01  1.0000000000000003e-01  1.0000187661337916e-01  1.0000000000000003e-01  1.0000227960570057e-01  1.0000000000000003e-01  1.0000375327771283e-01  1.0000000000000003e-01  1.0000382326138607e-01  1.0000000000000003e-01  1.0000482794332674e-01  1.0000000000000003e-01  1.0000656362391035e-01  1.0000000000000003e-01  1.0000528812446774e-01  1.0000000000000003e-01  1.0001250803340817e-01  1.0000000000000003e-01  1.0001387408103728e-01  1.0000000000000003e-01  1.0001712493801612e-01  1.0000000000000003e-01  1.0001904630287926e-01  1.0000000000000003e-01  1.0002517828263267e-01  1.0000000000000003e-01  1.0002712251999309e-01  1.0000000000000003e-01  1.0003239567433622e-01  1.0000000000000003e-01  1.0004018030164816e-01  1.0000000000000003e-01  1.0004314895628437e-01  1.0000000000000003e-01  1.0005244801027163e-01  1.0000000000000003e-01  1.0005860026591185e-01  1.0000000000000003e-01  1.0006944212622450e-01  1.0000000000000003e-01  1.0007007286773516e-01  1.0000000000000003e-01  1.0009484185969324e-01  1.0000000000000003e-01  1.0007750915332378e-01  1.0000000000000003e-01  1.0012681600413272e-01  1.0000000000000003e-01  1.0007739214785520e-01  1.0000000000000003e-01  1.0016845829198744e-01  1.0000000000000003e-01  1.0006550908058946e-01  1.0000000000000001e-01  1.0023417301305315e-01  1.0000000000000001e-01  1.0000000000000003e-01  9.9863376877803528e-02  9.9659073938027823e-02  1.0000000000000003e-01  9.9984607552667984e-02  1.0000000000000003e-01  9.9896337499791071e-02  1.0000000000000003e-01  9.9948964590065498e-02  1.0000000000000003e-01  9.9935862136211084e-02  1.0000000000000003e-01  9.9950096613432265e-02  1.0000000000000003e-01  9.9946676217628663e-02  1.0000000000000003e-01  9.9958832888167898e-02  1.0000000000000003e-01  9.9958424283065950e-02  1.0000000000000003e-01  9.9963362964779146e-02  1.0000000000000003e-01  9.9967333796015065e-02  1.0000000000000003e-01  9.9970136885923502e-02  1.0000000000000003e-01  9.9972199861926944e-02  1.0000000000000003e-01  9.9975592887938988e-02  1.0000000000000003e-01  9.9977139173438576e-02  1.0000000000000003e-01  9.9978780095681355e-02  1.0000000000000003e-01  9.9980754015034604e-02  1.0000000000000003e-01  9.9981919628818611e-02  1.0000000000000003e-01  9.9982878174944001e-02  1.0000000000000003e-01  9.9984198476039024e-02  1.0000000000000003e-01  9.9984812404419074e-02  1.0000000000000003e-01  9.9985657755685631e-02  1.0000000000000003e-01  9.9986072529706274e-02  1.0000000000000003e-01  9.9987128527222371e-02  1.0000000000000003e-01  9.9986565684859890e-02  1.0000000000000003e-01  9.9988718702259144e-02  1.0000000000000003e-01  9.9986210638263406e-02  1.0000000000000003e-01  9.9991280911873037e-02  1.0000000000000003e-01  9.9983205776557615e-02  1.0000000000000001e-01  1.0000000000000003e-01  1.0000471642771271e-01  1.0000000000000003e-01  1.0000398340262784e-01  1.0000416010861603e-01  1.0000471478879654e-01  1.0000664579091414e-01  1.0000634489826031e-01  1.0000693625762143e-01  1.0000996463543727e-01  1.0000817776797517e-01  1.0000968150540634e-01  1.0001070708488959e-01  1.0001958528450247e-01  1.0001488246665001e-01  1.0002301431664530e-01  1.0001870390249806e-01  1.0002310949814817e-01  1.0002937455910989e-01  1.0002846256954692e-01  1.0003228528605124e-01  1.0004266600796191e-01  1.0003817685220959e-01  1.0004916361499244e-01  1.0004968808921971e-01  1.0006155119707702e-01  1.0004569062785740e-01  1.0009120219800872e-01  1.0001935646374242e-01  1.0014850243954354e-01  9.9950996158623351e-02  1.0023636909053495e-01  1.0016453808101594e-01  9.9517460669599114e-02  9.9825471851152689e-02  9.9981955523132868e-02  9.9953798944760280e-02  9.9963165423856498e-02  9.9947811340921816e-02  9.9972194765066802e-02  9.9961661346492370e-02  9.9967079525356398e-02  9.9972875964284752e-02  9.9973707861715833e-02  9.9974372058162564e-02  9.9979781407039517e-02  9.9980073962441074e-02  9.9981166685836786e-02  9.9984190636918838e-02  9.9984872533345884e-02  9.9985610395608132e-02  9.9987639553051955e-02  9.9988335471941636e-02  9.9988943582258738e-02  9.9990490319466760e-02  9.9990882055611824e-02  9.9991997667740765e-02  9.9992223277719533e-02  9.9994195895573942e-02  9.9992427468938688e-02  9.9997254220787909e-02  9.9991419030950116e-02  1.0000000000000003e-01  1.0000755541558255e-01  1.0000000000000003e-01  1.0000445901167648e-01  1.0000639140182918e-01  1.0000822525562145e-01  1.0000810912569465e-01  1.0000877547632203e-01  1.0001305089074393e-01  1.0001186779291389e-01  1.0001265555855128e-01  1.0001696449910732e-01  1.0001842514670048e-01  1.0001245353458819e-01  1.0003611120692842e-01  1.0002460294139491e-01  1.0003045343237053e-01  1.0003896028734315e-01  1.0003527409303867e-01  1.0004133062841257e-01  1.0005439566995560e-01  1.0005116191990503e-01  1.0005778609729232e-01  1.0007667751028745e-01  1.0006490583910142e-01  1.0008858385074547e-01  1.0007895228789128e-01  1.0011179126973030e-01  1.0006033478311362e-01  1.0017909067830388e-01  9.9963255316832839e-02  1.0036776644700951e-01  1.0007560667762198e-01  9.9613588936417002e-02  9.9771132818452096e-02  9.9959762855260870e-02  9.9938302043666771e-02  9.9903161681845709e-02  9.9964347721841096e-02  9.9930031908622013e-02  9.9942829144301609e-02  9.9954000148259253e-02  9.9953835156131238e-02  9.9953887696040328e-02  9.9964911520560973e-02  9.9964188081796787e-02  9.9966109167224759e-02  9.9972172639227933e-02  9.9972922147612400e-02  9.9973899532195695e-02  9.9977962614953411e-02  9.9978699144100583e-02  9.9979727844991775e-02  9.9982286327959954e-02  9.9983315190761216e-02  9.9984037547642249e-02  9.9986264183588122e-02  9.9986476541105526e-02  9.9988600296922081e-02  9.9987861525335994e-02  9.9992344479155698e-02  9.9986401002875924e-02  1.0000000000000003e-01  1.0000941420468128e-01  1.0000000000000003e-01  1.0000573256568449e-01  1.0001021515239972e-01  1.0000931407843247e-01  1.0001018811123025e-01  1.0001487698747785e-01  1.0001377822277863e-01  1.0001487943498961e-01  1.0002071393877129e-01  1.0001850020755176e-01  1.0001884377396933e-01  1.0003176734198331e-01  1.0001639391750315e-01  1.0003914450172542e-01  1.0003968070798387e-01  1.0003703189449628e-01  1.0003836585150164e-01  1.0005413691557165e-01  1.0004534939174732e-01  1.0005542054817117e-01  1.0006849595473186e-01  1.0006610855822261e-01  1.0006741867133026e-01  1.0009791336970741e-01  1.0006304267032783e-01  1.0012152237485628e-01  1.0004657005580250e-01  1.0018486278567071e-01  9.9938960841336799e-02  1.0038672607882763e-01  1.0005689083553149e-01  9.9505663088780436e-02  9.9861814309931185e-02  9.9975071358068240e-02  9.9821573497432911e-02  1.0000504810193976e-01  9.9909780442532486e-02  9.9940840898050207e-02  9.9947630726226769e-02  9.9949340202434400e-02  9.9944256242920346e-02  9.9962216916903546e-02  9.9958255025155374e-02  9.9960429348111793e-02  9.9968673942297651e-02  9.9969264857307380e-02  9.9970048007579762e-02  9.9975779318473831e-02  9.9976298858910975e-02  9.9977281500811671e-02  9.9980960325799811e-02  9.9981796915948440e-02  9.9983017796037257e-02  9.9985286041356772e-02  9.9986836536828980e-02  9.9987221703424264e-02  9.9990402061480493e-02  9.9989157676346169e-02  9.9994289774612194e-02  9.9989159093459540e-02  1.0000000000000003e-01  1.0001131222842569e-01  1.0000000000000003e-01  1.0000807031014905e-01  1.0001098355982979e-01  1.0001056114380022e-01  1.0001573680199323e-01  1.0001450279903105e-01  1.0001601720449137e-01  1.0002269590498845e-01  1.0002030337523984e-01  1.0002098572418643e-01  1.0003234194337632e-01  1.0002528573677050e-01  1.0003271312728003e-01  1.0003058907735843e-01  1.0004888439532532e-01  1.0004091769469457e-01  1.0005937782477450e-01  1.0004725521322756e-01  1.0005533356102944e-01  1.0007447195916981e-01  1.0006252071390473e-01  1.0007716371201625e-01  1.0008972441077461e-01  1.0009258990466871e-01  1.0008008672267564e-01  1.0013986848675416e-01  1.0004823410376391e-01  1.0020974343254849e-01  9.9932602851207281e-02  1.0044414048476721e-01  1.0014893495026136e-01  9.9451484579940574e-02  9.9804021104506618e-02  9.9914823908260023e-02  9.9920151123787979e-02  9.9889136252096597e-02  9.9928026472998130e-02  9.9933879607041448e-02  9.9941202430592097e-02  9.9921970428048859e-02  9.9954453073005503e-02  9.9944260372406821e-02  9.9947406421236201e-02  9.9959401077750434e-02  9.9959266599769447e-02  9.9959459785689680e-02  9.9968564727271253e-02  9.9968701303726620e-02  9.9969675865431248e-02  9.9975033790978704e-02  9.9975942489806180e-02  9.9976862682630327e-02  9.9980695993691915e-02  9.9981608952188772e-02  9.9983292600135013e-02  9.9985186091487821e-02  9.9987671101620101e-02  9.9987002896600077e-02  9.9992489262431899e-02  9.9987201234329595e-02  1.0000000000000003e-01  1.0001353560807061e-01  1.0000000000000003e-01  1.0000840568156642e-01  1.0001234537548649e-01  1.0001502761560599e-01  1.0001546602249753e-01  1.0001621920546773e-01  1.0002298622773746e-01  1.0002150280803172e-01  1.0002219236705279e-01  1.0003182963003442e-01  1.0002823846085467e-01  1.0003149679926075e-01  1.0004067206340417e-01  1.0003966028487622e-01  1.0002510953977187e-01  1.0007249265716356e-01  1.0004649464904278e-01  1.0005719848204822e-01  1.0007281460571280e-01  1.0006199330257111e-01  1.0006832375219359e-01  1.0009751697868920e-01  1.0007345779489613e-01  1.0010096585793782e-01  1.0009679914556249e-01  1.0012882040607736e-01  1.0005287953019698e-01  1.0022893184366169e-01  9.9907529345070981e-02  1.0048811251614723e-01  1.0011456667822921e-01  9.9492231412949869e-02  9.9755605087412103e-02  9.9997834646049735e-02  9.9878235673693458e-02  9.9901024901978164e-02  9.9893291755050476e-02  9.9960893229510614e-02  9.9895256023110210e-02  9.9959614159039520e-02  9.9931296212473944e-02  9.9938404752074397e-02  9.9953266991039763e-02  9.9953063453606300e-02  9.9951052438262689e-02  9.9964211017014901e-02  9.9963078823287782e-02  9.9964068804971259e-02  9.9971765867093096e-02  9.9972261057173425e-02  9.9972956639458391e-02  9.9978073388103342e-02  9.9979117641198628e-02  9.9980074248234560e-02  9.9984002978571018e-02  9.9984600108788110e-02  9.9987366865144964e-02  9.9987592331757774e-02  9.9992783688809359e-02  9.9988040943804604e-02  1.0000000000000003e-01  1.0001473453957317e-01  1.0000000000000003e-01  1.0000904087405041e-01  1.0001622309295702e-01  1.0001470734807548e-01  1.0001665367063592e-01  1.0002251687592155e-01  1.0002176614777079e-01  1.0002246344078562e-01  1.0003195603339039e-01  1.0002821766158622e-01  1.0003096236011340e-01  1.0004336513327947e-01  1.0003850821880034e-01  1.0003618729830364e-01  1.0006022846555654e-01  1.0002935555507515e-01  1.0006934441044778e-01  1.0007408315937301e-01  1.0006319343428741e-01  1.0006828289782931e-01  1.0009292780554829e-01  1.0007830699095552e-01  1.0008365123916192e-01  1.0012434838330043e-01  1.0008013171674356e-01  1.0013941179469404e-01  1.0007409387409927e-01  1.0021942268439668e-01  9.9913100376407424e-02  1.0052449373479755e-01  1.0009105308876372e-01  9.9443311113856056e-02  9.9812170386705770e-02  9.9959120466330320e-02  9.9844890907638706e-02  9.9940381808488563e-02  9.9910743800828053e-02  9.9860830135076753e-02  9.9968063813942756e-02  9.9915759212358748e-02  9.9931317653532720e-02  9.9942152782593191e-02  9.9945924868251559e-02  9.9939276198498392e-02  9.9958365242468386e-02  9.9955519230206652e-02  9.9955968878217866e-02  9.9965901138778970e-02  9.9966703282972733e-02  9.9967053704795389e-02  9.9973936845613176e-02  9.9974603299404427e-02  9.9975818360700672e-02  9.9980027211077710e-02  9.9981767914911618e-02  9.9982606368599333e-02  9.9986826650242999e-02  9.9986367683451385e-02  9.9991758559054580e-02  9.9987387508443729e-02  1.0000000000000003e-01  1.0001591836482995e-01  1.0000000000000003e-01  1.0001108483516861e-01  1.0001611073445561e-01  1.0001537302641501e-01  1.0002189140165242e-01  1.0002098984928735e-01  1.0002237109437771e-01  1.0003096341469241e-01  1.0002803557092138e-01  1.0002941299410188e-01  1.0004240759970852e-01  1.0003768232839953e-01  1.0003871734188434e-01  1.0005687659488686e-01  1.0004144202503835e-01  1.0005400701426496e-01  1.0005096720005689e-01  1.0007746908097047e-01  1.0006467802453582e-01  1.0009723311671828e-01  1.0006964667006885e-01  1.0008689887803789e-01  1.0010833663809597e-01  1.0009994555731516e-01  1.0008737176048874e-01  1.0016426738663077e-01  1.0005153018055554e-01  1.0023068344897915e-01  9.9924253117231812e-02  1.0052683972629192e-01  1.0014963184782609e-01  9.9394159265440277e-02  9.9777470684717956e-02  9.9928868396286966e-02  9.9891294687155976e-02  9.9926114203130398e-02  9.9871798180364596e-02  9.9938569184656878e-02  9.9882994083710500e-02  9.9940164521309979e-02  9.9927880470280978e-02  9.9946949554084494e-02  9.9924729218628244e-02  9.9955216252324924e-02  9.9948133240184589e-02  9.9948918613133139e-02  9.9961423754235279e-02  9.9961501869585648e-02  9.9960822487724754e-02  9.9970558761276168e-02  9.9970969920105304e-02  9.9971609316389098e-02  9.9977584618619608e-02  9.9978530876982039e-02  9.9980123138741980e-02  9.9983454201863053e-02  9.9986188943201271e-02  9.9985846340679058e-02  9.9992069283180454e-02  9.9987591997937192e-02  1.0000000000000003e-01  1.0001750514645323e-01  1.0000000000000003e-01  1.0001087580583595e-01  1.0001661355452533e-01  1.0001921899703335e-01  1.0002075115543957e-01  1.0002115570335578e-01  1.0002935542419229e-01  1.0002770363237791e-01  1.0002846436938924e-01  1.0003931290513446e-01  1.0003662790294379e-01  1.0003773424123941e-01  1.0005414645777352e-01  1.0004480852421631e-01  1.0004874955633764e-01  1.0006385622115550e-01  1.0005941716522013e-01  1.0003776341842180e-01  1.0011043717669976e-01  1.0006962911383518e-01  1.0008222164633324e-01  1.0011333545701970e-01  1.0008081068309947e-01  1.0010625073487517e-01  1.0011845638639262e-01  1.0013351857413143e-01  1.0006009207192829e-01  1.0025642182525532e-01  9.9900826114518670e-02  1.0054189088044131e-01  1.0014194028958873e-01  9.9414611793151211e-02  9.9742399073265750e-02  9.9975327611708492e-02  9.9869585523538529e-02  9.9889780314932217e-02  9.9918522212484956e-02  9.9914596284395793e-02  9.9897670482300846e-02  9.9901824619149329e-02  9.9958152529603647e-02  9.9907002540872772e-02  9.9956358110977916e-02  9.9938120506757905e-02  9.9941567713808480e-02  9.9955569407247979e-02  9.9956744806495967e-02  9.9953878951904510e-02  9.9966249665857279e-02  9.9965921814676020e-02  9.9966611866222035e-02  9.9974275783849945e-02  9.9975345827457832e-02  9.9975886076613868e-02  9.9981467107244079e-02  9.9982154159515044e-02  9.9984860065349748e-02  9.9986213961736833e-02  9.9991471894810335e-02  9.9987224823639517e-02  1.0000000000000003e-01  1.0001814708188132e-01  1.0000000000000003e-01  1.0001099997916225e-01  1.0001971704301015e-01  1.0001819510445657e-01  1.0002081705050112e-01  1.0002698126478829e-01  1.0002671679083636e-01  1.0002745206292593e-01  1.0003743415002225e-01  1.0003436366378173e-01  1.0003565653130371e-01  1.0005097739509226e-01  1.0004442989409891e-01  1.0004592972401218e-01  1.0006453411515208e-01  1.0005529156860252e-01  1.0005041404122129e-01  1.0008871192439911e-01  1.0003874211144564e-01  1.0009797050679910e-01  1.0010603495098935e-01  1.0008812834636896e-01  1.0008666444492449e-01  1.0014042149136236e-01  1.0008054195883902e-01  1.0014042622159193e-01  1.0009304124000130e-01  1.0022205341745113e-01  9.9908371661324658e-02  1.0056852765392203e-01  1.0012277436731869e-01  9.9388606118824246e-02  9.9775613909615493e-02  9.9962852280758574e-02  9.9836783603265838e-02  9.9931542509020935e-02  9.9900291255709955e-02  9.9894751740130849e-02  9.9921896858969891e-02  9.9929182862883492e-02  9.9877085637792809e-02  9.9969085413457462e-02  9.9925860317267468e-02  9.9940168465793705e-02  9.9947111485583370e-02  9.9953447341273094e-02  9.9946257549513723e-02  9.9963111789705572e-02  9.9961727701016301e-02  9.9961108734078749e-02  9.9970508794934618e-02  9.9971921499104610e-02  9.9972317016908993e-02  9.9978624960989360e-02  9.9980171477316429e-02  9.9980856297471374e-02  9.9986014883968979e-02  9.9985777101187681e-02  9.9991101071662009e-02  9.9987539774630735e-02  1.0000000000000003e-01  1.0001869230664259e-01  1.0000000000000003e-01  1.0001239040201097e-01  1.0001896942082933e-01  1.0001788034179533e-01  1.0002497997756662e-01  1.0002450590012775e-01  1.0002606694659635e-01  1.0003456753868124e-01  1.0003272428736089e-01  1.0003310602535816e-01  1.0004677567166541e-01  1.0004202947119832e-01  1.0004327645584825e-01  1.0006101911026213e-01  1.0005202901685407e-01  1.0005217002960412e-01  1.0007931423334725e-01  1.0005502521925078e-01  1.0007111586298809e-01  1.0007190535316847e-01  1.0010001329660997e-01  1.0008805760361539e-01  1.0012814593986845e-01  1.0009646483126290e-01  1.0009025768054193e-01  1.0017639048188275e-01  1.0005213124948940e-01  1.0022408132765254e-01  9.9946320348490283e-02  1.0052887692839488e-01  1.0016414498616276e-01  9.9338982529365724e-02  9.9765546112489709e-02  9.9935933802273891e-02  9.9871860587003564e-02  9.9920265573595887e-02  9.9872983587838068e-02  9.9924254939647114e-02  9.9919317296060808e-02  9.9899936063507333e-02  9.9938872072301371e-02  9.9903175055186380e-02  9.9949030683648632e-02  9.9936385596602312e-02  9.9955113303328569e-02  9.9935881114751782e-02  9.9960745700387293e-02  9.9956641100683502e-02  9.9956336989632633e-02  9.9967311066463088e-02  9.9967929457299598e-02  9.9967108266183838e-02  9.9976172093648841e-02  9.9976934955234978e-02  9.9978144987603781e-02  9.9982729672687787e-02  9.9985346627747454e-02  9.9984946405091452e-02  9.9991572343843024e-02  9.9987431351362163e-02  1.0000000000000003e-01  1.0001976520321756e-01  1.0000000000000003e-01  1.0001194840321137e-01  1.0001883008381984e-01  1.0002082637160949e-01  1.0002328972963902e-01  1.0002366189548073e-01  1.0003179059612963e-01  1.0003089149492815e-01  1.0003129590564101e-01  1.0004222500704527e-01  1.0003994160037753e-01  1.0004024700574866e-01  1.0005606401759166e-01  1.0004982322375804e-01  1.0004927143844748e-01  1.0007292999957748e-01  1.0005776309191317e-01  1.0006225153270037e-01  1.0008447515244974e-01  1.0007590875049439e-01  1.0004346631454426e-01  1.0015014650970319e-01  1.0007965146183297e-01  1.0011113816147317e-01  1.0013063517375251e-01  1.0012480779305043e-01  1.0005871013298276e-01  1.0026428763054961e-01  9.9904675963759168e-02  1.0052406930513348e-01  1.0018093872635389e-01  9.9341514678652751e-02  9.9731224697869700e-02  9.9968900349857295e-02  9.9866862446310017e-02  9.9893264045040328e-02  9.9904042703660170e-02  9.9919138134280813e-02  9.9891532534602867e-02  9.9934248695045316e-02  9.9926360491434496e-02  9.9920261247073802e-02  9.9914756045629050e-02  9.9967993304853842e-02  9.9923369884398136e-02  9.9963153363032450e-02  9.9949848762128604e-02  9.9952209861100386e-02  9.9963437368817035e-02  9.9965577734716052e-02  9.9962834968611011e-02  9.9972928035483286e-02  9.9973604866383847e-02  9.9974301545312255e-02  9.9981244297630528e-02  9.9982110076268546e-02  9.9984194055330017e-02  9.9986466275007541e-02  9.9991354459093101e-02  9.9987445696486446e-02  1.0000000000000003e-01  1.0001980516620755e-01  1.0000000000000003e-01  1.0001151190607037e-01  1.0002084108776496e-01  1.0001919535058697e-01  1.0002230083828482e-01  1.0002781124974711e-01  1.0002844097776466e-01  1.0002904894960260e-01  1.0003844921603922e-01  1.0003630991196391e-01  1.0003720258813062e-01  1.0005105370600335e-01  1.0004645909812598e-01  1.0004550337146945e-01  1.0006583058893842e-01  1.0005614858702326e-01  1.0005566633458411e-01  1.0008280959403477e-01  1.0006718887638709e-01  1.0005980002685178e-01  1.0011273435366226e-01  1.0004428874770735e-01  1.0011399597097065e-01  1