<?xml version="1.0"?>
<VTKFile type="UnstructuredGrid"  version="0.1"  >
<UnstructuredGrid>
<Piece  NumberOfPoints="1933" NumberOfCells="3640">
<Points>
<DataArray  type="Float64"  NumberOfComponents="3"  format="ascii">-0.2939971089653095 0.000494271277780174 0  4.70600291373631 0.0004640234556474384 0  4.706048321402861 7.500464101584174 0  -0.2939517270239292 7.500494304336345 0  9.706002939900081 0.0004337007134362226 0  9.706048411633459 7.500433795493946 0  14.70600300943161 0.0004032591052816458 0  14.70604856688428 7.500403359321042 0  19.70600316793699 0.000372689650815803 0  19.70604881035028 7.500372791028015 0  24.70600345925349 0.0003420046188716127 0  24.70604916550204 7.500342105920789 0  29.70600392347685 0.0003112297843505267 0  29.70604965556434 7.500311331145694 0  34.70600459717137 0.0002804000384300919 0  34.70605030313901 7.500280502218847 0  39.70600551438334 0.0002495570762684878 0  39.70605113009547 7.500249661126784 0  44.70600670788116 0.0002187484515336002 0  44.70605215765326 7.500218855575671 0  49.70600821039592 0.0001880275911942341 0  49.70605340655467 7.50018813910013 0  54.70601005578524 0.0001574545511953352 0  54.70605489723742 7.500157571864865 0  59.70601228010615 0.0001270974197467823 0  59.70605664993459 7.500127222089712 0  64.70601492260444 9.703436955994175e-05 0  64.70605868462677 7.500097168109519 0  69.70601802662067 6.735644292995386e-05 0  69.70606102076654 7.500067501154638 0  74.7060216404047 3.817123946823673e-05 0  74.70606367666504 7.500038329015651 0  79.70602581778586 9.607780981864484e-06 0  79.70606666838351 7.500009780849993 0  84.70603061859717 -1.817702982746317e-05 0  84.7060700079047 7.499982013509716 0  89.70603610862645 -4.498973409341241e-05 0  89.70607370024589 7.499955219935161 0  94.70604235868041 -7.058849241126628e-05 0  94.70607773902695 7.499929640386453 0  99.70604944195041 -9.46667033751688e-05 0  99.70608209980655 7.499905577591234 0  104.7060574281633 -0.0001168299203629952 0  104.7060867302603 7.499883417280511 0  109.7060663716054 -0.000136562779982762 0  109.7060915360779 7.499863656026581 0  114.7060762874513 -0.0001531809066177318 0  114.7060963615373 7.499846938635211 0  119.7060871056269 -0.0001657601639949373 0  119.7061009646631 7.499834107111733 0  124.7060985812979 -0.0001730320670326169 0  124.7061049902427 7.499826261240704 0  129.7061101211227 -0.0001732302929874547 0  129.7061079532759 7.499824824349139 0  134.7061204449359 -0.0001638731180653004 0  134.7061092689301 7.499831591240154 0  139.7061269228351 -0.0001414895924951025 0  139.7061084220185 7.499848700340258 0  144.7061242581553 -0.0001014361374852061 0  144.7061055075026 7.499878427001929 0  149.7061017746876 -3.868114448044804e-05 0  149.7061027341998 7.499922814015519 0  159.7061073738539 1.25327396038952e-18 0  164.7060208324543 -0.0001233526200057187 0  164.7060925550579 7.499857524616441 0  159.7061170454971 7.499954522305833 0  169.7059747934521 -0.0002266814104078122 0  169.7060675260168 7.499763729150925 0  174.7059502045898 -0.0003157081228368352 0  174.7060471445004 7.499679034013089 0  179.7059374368775 -0.0003936698670280706 0  179.7060319163853 7.499603308592353 0  184.7059313550351 -0.0004630034650513497 0  184.7060210844376 7.499535205392471 0  189.7059291265517 -0.000525603062634202 0  189.7060136782889 7.499473308281909 0  194.7059291451355 -0.0005829207283596537 0  194.7060088320711 7.499416403506727 0  199.7059304750021 -0.0006360593862395671 0  199.7060058557433 7.499363514403901 0  204.7059325559414 -0.0006858569846968166 0  204.7060042253254 7.499313872027984 0  209.7059350434562 -0.0007329547693990933 0  209.7060035515588 7.499266873649525 0  214.7059377203149 -0.0007778490647623417 0  214.7060035478046 7.499222044866666 0  219.7059404465101 -0.0008209292303567119 0  219.7060040033878 7.499179009061876 0  224.705943130236 -0.0008625050977234243 0  224.7060047631916 7.499137463984327 0  229.705945710607 -0.0009028267700789881 0  229.7060057126293 7.499097164158413 0  234.7059481470878 -0.0009420989957798268 0  234.7060067667713 7.499057907740812 0  239.7059504128528 -0.000980491713883576 0  239.7060078625344 7.499019526672358 0  244.7059524905295 -0.001018147895113833 0  244.7060089530817 7.49898187924087 0  249.7059543694191 -0.0010551894579966 0  249.706010003802 7.498944844405037 0  254.7059560436881 -0.00109172179908255 0  254.7060109894306 7.498908317412205 0  259.7059575112097 -0.00112783730838993 0  259.706011891986 7.49887220637882 0  264.7059587728922 -0.001163618122314092 0  264.7060126993112 7.498836429603822 0  269.705959832373 -0.001199138277485224 0  269.7060134040642 7.498800913463567 0  274.7059606960505 -0.001234465355027532 0  274.7060140030379 7.498765590802615 0  279.7059613734242 -0.001269661630546135 0  279.7060144967288 7.498730399798062 0  284.705961877764 -0.001304784652981408 0  284.706014889074 7.498695283346901 0  289.705962227087 -0.001339887037822846 0  289.7060151872736 7.498660189116913 0  294.7059624454128 -0.001375015030459462 0  294.7060154016369 7.498625070524487 0  299.7059625640415 -0.001410204988483087 0  299.7060155453971 7.498589889064585 0  304.7059626221666 -0.001445476194281447 0  304.7060156346472 7.49855461860793 0  309.7059626649734 -0.001480817109253408 0  309.7060156891259 7.498519252466678 0  4.706093481583377 15.00046428499079 0  -0.2939065724361531 15.00049438692875 0  9.706093575051586 15.00043401312389 0  14.70609372857092 15.00040358170139 0  19.7060939565204 15.00037300706846 0  24.70609427087435 15.00034231325204 0  29.70609468267886 15.00031153133044 0  34.70609520245181 15.00028069843049 0  39.70609584014191 15.00024985705394 0  44.70609660491638 15.00021905492392 0  49.70609750486703 15.00018834537086 0  54.70609854664144 15.000157788242 0  59.70609973496382 15.0001274513359 0  64.70610107199339 15.00009741239854 0  69.70610255644708 15.00006776176191 0  74.70610418240737 15.00003860575693 0  79.70610593771575 15.00001007108935 0  84.70610780185181 14.99998231043124 0  89.70610974320513 14.99995550954725 0  94.70611171570444 14.99992989632744 0  99.70611365490893 14.99990575210023 0  104.7061154740069 14.99988342545868 0  109.7061170608294 14.99986334836043 0  114.7061182783004 14.99984605306214 0  119.7061189730868 14.99983218573465 0  124.7061190011964 14.99982250685061 0  129.7061182853863 14.99981785674458 0  134.7061169270306 14.99981904163757 0  139.7061154002099 14.99982654976065 0  144.7061148406358 14.99983990967312 0  149.7061173434309 14.99985623563705 0  164.7061314391462 14.99980538448263 0  159.7061346523816 14.99987328108186 0  169.7061227927297 14.99973237194762 0  174.7061121244874 14.99966029755487 0  179.7061016936881 14.99959199108589 0  184.7060925488213 14.99952824985186 0  189.7060850195041 14.99946894726047 0  194.7060790768875 14.9994136122357 0  199.7060745397226 14.99936169236475 0  204.7060711806475 14.99931266194716 0  209.7060687762875 14.99926605904086 0  214.7060671278323 14.99922149182515 0  219.706066066992 14.99917863292877 0  224.7060654552592 14.99913721003717 0  229.7060651805081 14.99909699626675 0  234.7060651528971 14.99905780159417 0  239.7060653009316 14.99901946566877 0  244.7060655680269 14.99898185194954 0  249.706065909652 14.99894484298005 0  254.7060662910161 14.99890833659406 0  259.7060666852279 14.99887224286986 0  264.7060670718396 14.99883648168599 0  269.7060674356983 14.99880098077197 0  274.7060677660373 14.99876567418321 0  279.7060680557332 14.99873050116384 0  284.7060683007096 14.99869540539144 0  289.7060684994337 14.99866033461312 0  294.7060686525746 14.99862524066417 0  299.7060687629362 14.99859007974521 0  304.7060688360271 14.99855481246805 0  309.7060688819278 14.99851940216611 0  4.706138365803599 22.50046466265256 0  -0.2938616876462342 22.50049466958331 0  9.706138444729083 22.50043442147907 0  14.7061385644172 22.50040398762571 0  19.70613873361282 22.50037339672103 0  24.70613895733656 22.50034268365559 0  29.70613923854788 22.50031188511753 0  34.70613957890225 22.50028104077566 0  39.70613997893188 22.50025019394702 0  44.70614043788527 22.50021939220087 0  49.70614095336437 22.50018868812735 0  54.70614152082104 22.50015814038639 0  59.70614213293521 22.50012781510716 0  64.70614277887235 22.50009778769735 0  69.70614344340899 22.50006814512499 0  74.70614410592722 22.50003898874704 0  79.70614473929355 22.50001043776343 0  84.70614530869457 22.49998263336643 0  89.70614577058612 22.49995574361114 0  94.70614607206826 22.49992996892098 0  99.70614615125277 22.49990554789644 0  104.7061459395937 22.49988276261333 0  109.7061453677568 22.49986194168191 0  114.7061443774389 22.49984345768954 0  119.706142942545 22.499827712783 0  124.7061411039608 22.49981510139628 0  129.7061390218238 22.49980593174723 0  134.706137045354 22.49980027748036 0  139.7061357879513 22.49979772008308 0  144.7061361650011 22.49979694392531 0  149.7061392899249 22.49979521349787 0  164.706160692535 22.49974728327768 0  159.7061541897147 22.49979704558279 0  169.7061620260221 22.49969067142856 0  174.7061597434817 22.49963138235189 0  179.7061554314198 22.49957222703608 0  184.7061503059544 22.49951477480783 0  189.7061451457221 22.49945972144518 0  194.7061403830652 22.49940724591707 0  199.7061362177569 22.49935725712993 0  204.70613270825 22.49930954142247 0  209.7061298343299 22.49926384334166 0  214.7061275366519 22.49921990659341 0  219.7061257402131 22.49917749276098 0  224.706124367496 22.49913638823625 0  229.7061233452951 22.49909640524318 0  234.7061226078408 22.4990573801333 0  239.7061220978431 22.4990191706119 0  244.706121766428 22.49898165272104 0  249.7061215725301 22.49894471796186 0  254.7061214820666 22.4989082707124 0  259.7061214670472 22.49887222598531 0  264.7061215047259 22.49883650751817 0  269.7061215768078 22.49880104617091 0  274.7061216687427 22.4987657785978 0  279.7061217690917 22.49873064615893 0  284.7061218689844 22.49869559402399 0  289.7061219616871 22.49866057038513 0  294.7061220423499 22.4986
[...]
<PointData  Scalars="p"> 
<DataArray  type="Float64"  Name="p"  format="ascii">1.0000000000000001e-01  1.0000000000000003e-01  1.0000258760413933e-01  1.0000000000000003e-01  1.0000000000000003e-01  1.0000370449834460e-01  1.0000000000000003e-01  1.0000559152813612e-01  1.0000000000000003e-01  1.0000685829192987e-01  1.0000000000000003e-01  1.0000827569202289e-01  1.0000000000000003e-01  1.0001010239827428e-01  1.0000000000000003e-01  1.0001128357653130e-01  1.0000000000000003e-01  1.0001253892119306e-01  1.0000000000000003e-01  1.0001455344202273e-01  1.0000000000000003e-01  1.0001579772947965e-01  1.0000000000000003e-01  1.0001899365282246e-01  1.0000000000000003e-01  1.0002237558032991e-01  1.0000000000000003e-01  1.0002488689596561e-01  1.0000000000000003e-01  1.0002734258489215e-01  1.0000000000000003e-01  1.0003093004025965e-01  1.0000000000000003e-01  1.0003271129781252e-01  1.0000000000000003e-01  1.0003487931637023e-01  1.0000000000000003e-01  1.0003839636248345e-01  1.0000000000000003e-01  1.0003902725086887e-01  1.0000000000000003e-01  1.0004157728508109e-01  1.0000000000000003e-01  1.0004283027932898e-01  1.0000000000000003e-01  1.0004519047088052e-01  1.0000000000000003e-01  1.0004266897378915e-01  1.0000000000000003e-01  1.0005003540827374e-01  1.0000000000000003e-01  1.0003998222773378e-01  1.0000000000000003e-01  1.0005578188486224e-01  1.0000000000000003e-01  1.0003375209504453e-01  1.0000000000000003e-01  1.0006529404168357e-01  1.0000000000000003e-01  1.0002385778891180e-01  1.0000000000000001e-01  1.0008442500192591e-01  1.0000000000000001e-01  1.0000000000000003e-01  9.9898410332948689e-02  9.9828271158410933e-02  1.0000000000000003e-01  9.9955295013821804e-02  1.0000000000000003e-01  9.9917108369666566e-02  1.0000000000000003e-01  9.9934425946913041e-02  1.0000000000000003e-01  9.9927543851575831e-02  1.0000000000000003e-01  9.9931599386972783e-02  1.0000000000000003e-01  9.9927616879857975e-02  1.0000000000000003e-01  9.9930964271279496e-02  1.0000000000000003e-01  9.9929576898182118e-02  1.0000000000000003e-01  9.9930184500296060e-02  1.0000000000000003e-01  9.9930901515332085e-02  1.0000000000000003e-01  9.9931495384742622e-02  1.0000000000000003e-01  9.9931762508394542e-02  1.0000000000000003e-01  9.9932876151526018e-02  1.0000000000000003e-01  9.9933431020423596e-02  1.0000000000000003e-01  9.9934065752885270e-02  1.0000000000000003e-01  9.9934891370829573e-02  1.0000000000000003e-01  9.9935670587306361e-02  1.0000000000000003e-01  9.9936066329007547e-02  1.0000000000000003e-01  9.9937191039364603e-02  1.0000000000000003e-01  9.9937221290437334e-02  1.0000000000000003e-01  9.9938797835428306e-02  1.0000000000000003e-01  9.9937738582962440e-02  1.0000000000000003e-01  9.9941274986342366e-02  1.0000000000000003e-01  9.9936582430855500e-02  1.0000000000000003e-01  9.9946000149152184e-02  1.0000000000000003e-01  9.9931522872780107e-02  1.0000000000000003e-01  9.9956763692580525e-02  1.0000000000000003e-01  9.9913246838194733e-02  1.0000000000000001e-01  1.0000000000000003e-01  1.0000350432257954e-01  1.0000000000000003e-01  1.0000389865984401e-01  1.0000424720438721e-01  1.0000479096939247e-01  1.0000591251020703e-01  1.0000592809979882e-01  1.0000599722845566e-01  1.0000747492431755e-01  1.0000702911162027e-01  1.0000744016682968e-01  1.0000986442805289e-01  1.0001227624200058e-01  1.0001289569665869e-01  1.0001640888869362e-01  1.0001532987884840e-01  1.0001590003633999e-01  1.0001874121853357e-01  1.0001739536827367e-01  1.0001723791673088e-01  1.0002087849609398e-01  1.0001734657766520e-01  1.0001938690725631e-01  1.0001827183333180e-01  1.0002118013674205e-01  1.0001185384004442e-01  1.0002967975332863e-01  9.9999009040445286e-02  1.0004996776224925e-01  9.9972487895936213e-02  1.0008642644068201e-01  1.0005991777733453e-01  9.9712214057155107e-02  9.9931977893671226e-02  9.9983254188879198e-02  9.9976845969145370e-02  9.9981187044894448e-02  9.9970480457810679e-02  9.9979126161631737e-02  9.9973932666163084e-02  9.9973536891263676e-02  9.9974667176196366e-02  9.9974379939240035e-02  9.9973382712365000e-02  9.9974931992623708e-02  9.9974844987301942e-02  9.9974718333660270e-02  9.9975690845497150e-02  9.9975821300140238e-02  9.9975909511901925e-02  9.9976418275074433e-02  9.9976859890999414e-02  9.9976476166383110e-02  9.9977729613044700e-02  9.9976516732199691e-02  9.9978898080789275e-02  9.9975273397948247e-02  9.9982310254735154e-02  9.9969838785853984e-02  9.9991571464212906e-02  9.9957939132317472e-02  1.0000000000000003e-01  1.0000481021385468e-01  1.0000000000000003e-01  1.0000365413858400e-01  1.0000559093146615e-01  1.0000684496324540e-01  1.0000737128956202e-01  1.0000743713094064e-01  1.0000967637065745e-01  1.0000925215011984e-01  1.0000903221630071e-01  1.0001193800566108e-01  1.0001221724975952e-01  1.0001223393129406e-01  1.0002051964745454e-01  1.0001978631764362e-01  1.0002095719487153e-01  1.0002609888361581e-01  1.0002361842284689e-01  1.0002417348106599e-01  1.0002922660840817e-01  1.0002617078979976e-01  1.0002528877333602e-01  1.0003205000083329e-01  1.0002397406090184e-01  1.0002980399411253e-01  1.0002357386494910e-01  1.0003507239734089e-01  1.0000923484090504e-01  1.0005993616315614e-01  9.9969188921031085e-02  1.0013754349656073e-01  1.0006999275058320e-01  9.9696473015953996e-02  9.9859154388470650e-02  9.9966173077559325e-02  9.9964206421859617e-02  9.9939407665620664e-02  9.9964957768497550e-02  9.9950492546263869e-02  9.9950371492891474e-02  9.9952934489786774e-02  9.9951833274813107e-02  9.9949063811579239e-02  9.9952284927958740e-02  9.9951472319759302e-02  9.9950960433302843e-02  9.9952839738675164e-02  9.9953041095987294e-02  9.9952807144669420e-02  9.9954223594134486e-02  9.9954311821795233e-02  9.9954576492140845e-02  9.9955043838568722e-02  9.9955975972498501e-02  9.9954836865853047e-02  9.9957576715121441e-02  9.9954125976779523e-02  9.9960177518160900e-02  9.9950351076300251e-02  9.9969026832858590e-02  9.9933442191296545e-02  1.0000000000000003e-01  1.0000554329693757e-01  1.0000000000000003e-01  1.0000373302521075e-01  1.0000632187828964e-01  1.0000632807839266e-01  1.0000632455771667e-01  1.0000849788809577e-01  1.0000783138857887e-01  1.0000713931101521e-01  1.0000979319614323e-01  1.0000855873589587e-01  1.0000806424517271e-01  1.0001348335619061e-01  1.0001098736907199e-01  1.0001548064583347e-01  1.0002115859088265e-01  1.0001900090057074e-01  1.0001829806637869e-01  1.0002438979760296e-01  1.0001918570195101e-01  1.0001954692277062e-01  1.0002398207107398e-01  1.0002026790242118e-01  1.0001571421821134e-01  1.0002746735457017e-01  1.0000865800932589e-01  1.0003042392651076e-01  9.9996246572408520e-02  1.0005695070943220e-01  9.9948525380800415e-02  1.0014834512474839e-01  1.0008549821974350e-01  9.9636558389990096e-02  9.9897850767648053e-02  9.9997667086720102e-02  9.9919611926507626e-02  9.9998269867574721e-02  9.9963655433614004e-02  9.9968930343896131e-02  9.9969752171698317e-02  9.9969440210706459e-02  9.9963175425140466e-02  9.9968496704378212e-02  9.9966094330601857e-02  9.9964869608304557e-02  9.9967151845100674e-02  9.9967049476227379e-02  9.9966410049687926e-02  9.9968157537485780e-02  9.9968293867084765e-02  9.9967911472804136e-02  9.9969232181076770e-02  9.9968874040595471e-02  9.9969541711818877e-02  9.9968844300932294e-02  9.9971212814750327e-02  9.9967068191821842e-02  9.9974570616667757e-02  9.9962307994841626e-02  9.9982582363350295e-02  9.9949686262276294e-02  1.0000000000000003e-01  1.0000630287299513e-01  1.0000000000000003e-01  1.0000428456445574e-01  1.0000621476207799e-01  1.0000562904772596e-01  1.0000853175361804e-01  1.0000775945149019e-01  1.0000756794368150e-01  1.0001023903159637e-01  1.0000875564626785e-01  1.0000777885494454e-01  1.0001242140537492e-01  1.0001027962285224e-01  1.0001092964222283e-01  1.0001561817473997e-01  1.0001812243804309e-01  1.0001828639124839e-01  1.0002600294773205e-01  1.0002085862146304e-01  1.0001988001684670e-01  1.0002778069228853e-01  1.0001958751453387e-01  1.0002085577277747e-01  1.0002399209655473e-01  1.0002251161180595e-01  1.0000969630720975e-01  1.0003660192294618e-01  9.9990458941006832e-02  1.0006366694642760e-01  9.9937249124098765e-02  1.0017595590805574e-01  1.0014081294583159e-01  9.9580985517218182e-02  9.9878928842397074e-02  9.9973774764312559e-02  9.9941061325692152e-02  9.9957449299365744e-02  9.9962930910297218e-02  9.9963731740611850e-02  9.9968352999255466e-02  9.9954087100323788e-02  9.9964478844182414e-02  9.9959509352724962e-02  9.9957247429549603e-02  9.9960321604350366e-02  9.9959837249025102e-02  9.9958135629647019e-02  9.9960927459612714e-02  9.9960809130254333e-02  9.9960379971339511e-02  9.9961903637454413e-02  9.9962224366773808e-02  9.9961551220003803e-02  9.9963206952437586e-02  9.9962074453378874e-02  9.9963902615263861e-02  9.9961093242226448e-02  9.9966834803250124e-02  9.9956395697908346e-02  9.9975406145515949e-02  9.9941511637078387e-02  1.0000000000000003e-01  1.0000722129687790e-01  1.0000000000000003e-01  1.0000415689807778e-01  1.0000593199560791e-01  1.0000699627061198e-01  1.0000726673353512e-01  1.0000689459233765e-01  1.0000969666145100e-01  1.0000863674403269e-01  1.0000717035416237e-01  1.0001115105499318e-01  1.0000919246772676e-01  1.0000827056321607e-01  1.0001388555677802e-01  1.0001172694111125e-01  1.0000878446379668e-01  1.0002345188730653e-01  1.0001838575373008e-01  1.0001849832225482e-01  1.0002675349728460e-01  1.0001931338882447e-01  1.0001653726171539e-01  1.0002813495978034e-01  1.0001361701863061e-01  1.0001983646485593e-01  1.0001433466620169e-01  1.0002861399864219e-01  9.9983639422130843e-02  1.0007255527408243e-01  9.9915647171171337e-02  1.0020000634036923e-01  1.0015399944657694e-01  9.9579188528527651e-02  9.9855589764265285e-02  1.0001830697555844e-01  9.9943312719107988e-02  9.9955665523497605e-02  9.9951599782216502e-02  9.9987798067978376e-02  9.9953779591749850e-02  9.9977097481874264e-02  9.9965683518142792e-02  9.9963279092418200e-02  9.9966856501040216e-02  9.9966139130587842e-02  9.9962525827805543e-02  9.9966511646048473e-02  9.9965776783899146e-02  9.9964685505339504e-02  9.9967180377100159e-02  9.9967090269993439e-02  9.9966718591551956e-02  9.9967791681887533e-02  9.9968447832209623e-02  9.9966882811223776e-02  9.9969780428238494e-02  9.9965974789147177e-02  9.9972071019023931e-02  9.9961617687442744e-02  9.9980004789429144e-02  9.9948132106519622e-02  1.0000000000000003e-01  1.0000773501269548e-01  1.0000000000000003e-01  1.0000392520104388e-01  1.0000736353876473e-01  1.0000626885432724e-01  1.0000653303045676e-01  1.0000888187032637e-01  1.0000868104066084e-01  1.0000721038713685e-01  1.0001122158097871e-01  1.0000913353855399e-01  1.0000768659594471e-01  1.0001351931139416e-01  1.0001062946949431e-01  1.0000816324080231e-01  1.0001725895916408e-01  1.0001014280637745e-01  1.0001617203363326e-01  1.0002674095174008e-01  1.0001972560151046e-01  1.0001844818892008e-01  1.0002773019793897e-01  1.0001894876933219e-01  1.0001313293909636e-01  1.0003087611648817e-01  1.0000476675528817e-01  1.0002885117598992e-01  9.9990377471706068e-02  1.0006946009656592e-01  9.9904755565647915e-02  1.0022865505707249e-01  1.0015173757532893e-01  9.9550840566367024e-02  9.9874956807606996e-02  1.0001859912943591e-01  9.9926602646253609e-02  9.9975765392437868e-02  9.9955431235588824e-02  9.9942314425968862e-02  9.9982142997608867e-02  9.9963567018539257e-02  9.9964589961240385e-02  9.9965579254769399e-02  9.9966433821757211e-02  9.9959929708145920e-02  9.9965485195731923e-02  9.9963796652854278e-02  9.9962019150278678e-02  9.9964793704263172e-02  9.9964910359713374e-02  9.9963870172534552e-02  9.9966142091728272e-02  9.9965781618593333e-02  9.9965938419087547e-02  9.9965912247504563e-02  9.9967701008797594e-02  9.9964119776014340e-02  9.9970290006604678e-02  9.9960005442839658e-02  9.9977777473568272e-02  9.9946256825308000e-02  1.0000000000000003e-01  1.0000809880688212e-01  1.0000000000000003e-01  1.0000468169632004e-01  1.0000709584750786e-01  1.0000564049721815e-01  1.0000837134932397e-01  1.0000766685511589e-01  1.0000691926476020e-01  1.0001065187335327e-01  1.0000891363595539e-01  1.0000744949572790e-01  1.0001279616398252e-01  1.0001009962509208e-01  1.0000803655220829e-01  1.0001554988286510e-01  1.0000967221272830e-01  1.0000912728087624e-01  1.0001626649361105e-01  1.0001775100377916e-01  1.0001629841001805e-01  1.0003000999415008e-01  1.0001735899354001e-01  1.0001750841447318e-01  1.0002550715186459e-01  1.0001933757534770e-01  1.0000257429515493e-01  1.0004142717650916e-01  9.9977291374189495e-02  1.0007278979164315e-01  9.9902154404704346e-02  1.0024273489149590e-01  1.0018486474671018e-01  9.9518626674949456e-02  9.9867933894556907e-02  1.0000986260786887e-01  9.9949866789557931e-02  9.9983567829675171e-02  9.9944316251590407e-02  9.9966527357220780e-02  9.9953247402054968e-02  9.9974514742913842e-02  9.9965946296800987e-02  9.9974595255009152e-02  9.9960972115028274e-02  9.9970125048130173e-02  9.9966783089559252e-02  9.9964125226214132e-02  9.9967375065401307e-02  9.9967147054095276e-02  9.9965263910802099e-02  9.9968025342799791e-02  9.9968223506719189e-02  9.9967134303611815e-02  9.9969375588373280e-02  9.9968215168843952e-02  9.9969620717949195e-02  9.9967070662776700e-02  9.9972521574572093e-02  9.9962344815741969e-02  9.9979900034469799e-02  9.9949447647908363e-02  1.0000000000000003e-01  1.0000877650047017e-01  1.0000000000000003e-01  1.0000450562499459e-01  1.0000673273474221e-01  1.0000712582938809e-01  1.0000762703551080e-01  1.0000631322108314e-01  1.0000975154531894e-01  1.0000857308456215e-01  1.0000725224404391e-01  1.0001185216699732e-01  1.0001020286511128e-01  1.0000794799720002e-01  1.0001495675862604e-01  1.0001058973857890e-01  1.0000766703894728e-01  1.0001624778036362e-01  1.0001081538527852e-01  1.0000528292434192e-01  1.0002744388383022e-01  1.0001827167981339e-01  1.0001606732869280e-01  1.0003232185926778e-01  1.0001321998420856e-01  1.0001785760726944e-01  1.0001860983458943e-01  1.0002873366223031e-01  9.9974866902386772e-02  1.0008937598683015e-01  9.9884264013163915e-02  1.0025962040364172e-01  1.0019312815235577e-01  9.9519629399966753e-02  9.9850744283954670e-02  1.0003196538183280e-01  9.9948725477322822e-02  9.9971354294231499e-02  9.9964680689372906e-02  9.9967579554118696e-02  9.9948771875750061e-02  9.9955971677960970e-02  9.9982138016094874e-02  9.9957868259515206e-02  9.9974782574057064e-02  9.9967186699462932e-02  9.9964685906144615e-02  9.9967863020168288e-02  9.9967894651391428e-02  9.9964347911103979e-02  9.9968062108043071e-02  9.9967488329864698e-02  9.9966528248978614e-02  9.9968486785200858e-02  9.9969112746216865e-02  9.9967390627062808e-02  9.9970362335356791e-02  9.9967071810352928e-02  9.9971995809102557e-02  9.9962932314528644e-02  9.9979403620264085e-02  9.9949743365721211e-02  1.0000000000000003e-01  1.0000902656419799e-01  1.0000000000000003e-01  1.0000425007721629e-01  1.0000808347982436e-01  1.0000661262141365e-01  1.0000671512619522e-01  1.0000881513672691e-01  1.0000833712248527e-01  1.0000681582095966e-01  1.0001094537137518e-01  1.0000967795584392e-01  1.0000759713318640e-01  1.0001444396429082e-01  1.0001122872654443e-01  1.0000783395143233e-01  1.0001635615381593e-01  1.0001056254082415e-01  1.0000532040363262e-01  1.0001961901114925e-01  1.0000649009137258e-01  1.0001457409880737e-01  1.0002992199371101e-01  1.0001917659376361e-01  1.0001187478852128e-01  1.0003613150167603e-01  1.0000314224468372e-01  1.0002732948815252e-01  9.9992321774175386e-02  1.0007710431923821e-01  9.9877941738174061e-02  1.0028657849907599e-01  1.0018966997913717e-01  9.9511527765018606e-02  9.9863757448677939e-02  1.0003507563184155e-01  9.9936278175613680e-02  9.9990549752416447e-02  9.9967196900510008e-02  9.9962041349281869e-02  9.9963193710954953e-02  9.9964050335362459e-02  9.9946794427121108e-02  9.9983422602333491e-02  9.9966944134836630e-02  9.9969605518378579e-02  9.9969286405326319e-02  9.9971160672469250e-02  9.9965432178076727e-02  9.9970097690025933e-02  9.9969100804860725e-02  9.9967095782283688e-02  9.9969739384728848e-02  9.9969576312125177e-02  9.9969192882349511e-02  9.9969930611798027e-02  9.9971572632825037e-02  9.9968031970187068e-02  9.9973844460368153e-02  9.9964490319767438e-02  9.9980312533469687e-02  9.9951984747198144e-02  1.0000000000000003e-01  1.0000919558305184e-01  1.0000000000000003e-01  1.0000491493531016e-01  1.0000786831773019e-01  1.0000593896898957e-01  1.0000866330594357e-01  1.0000780966515797e-01  1.0000692569081693e-01  1.0001007133390769e-01  1.0000902226194987e-01  1.0000704448080759e-01  1.0001315762983486e-01  1.0001100114883033e-01  1.0000851811710117e-01  1.0001624983617903e-01  1.0001120917174317e-01  1.0000681707776385e-01  1.0001791718067329e-01  1.0000827693629828e-01  1.0000583720313563e-01  1.0001806994068042e-01  1.0001565365730274e-01  1.0001509592931621e-01  1.0003186092723687e-01  1.0001913210802096e-01  1.0000244897994812e-01  1.0004855212308672e-01  9.9975909164281826e-02  1.0007501558828856e-01  9.9895870982004975e-02  1.0027936477324048e-01  1.0020595986906622e-01  9.9499896807481641e-02  9.9863191485178859e-02  1.0002619475934921e-01  9.9950063480391552e-02  9.9992134115245865e-02  9.9956785814015403e-02  9.9976386368642686e-02  9.9968860413884975e-02  9.9955889423780031e-02  9.9962870298370712e-02  9.9957491095912579e-02  9.9975520129606837e-02  9.9968077049359449e-02  9.9976039791774801e-02  9.9965117799868039e-02  9.9972317462523441e-02  9.9970131570557230e-02  9.9967740125504106e-02  9.9970258550702781e-02  9.9970382811343336e-02  9.9968220732309182e-02  9.9971139597192324e-02  9.9970234620156612e-02  9.9971132431499049e-02  9.9969453756686380e-02  9.9974195841442695e-02  9.9965018968215413e-02  9.9980757650651814e-02  9.9953164792371457e-02  1.0000000000000003e-01  1.0000968510144312e-01  1.0000000000000003e-01  1.0000480872823800e-01  1.0000749090297850e-01  1.0000739602859393e-01  1.0000813870807641e-01  1.0000664359216407e-01  1.0000971286120963e-01  1.0000877254817349e-01  1.0000690840916318e-01  1.0001158071008590e-01  1.0001037235538573e-01  1.0000824886750943e-01  1.0001537670991760e-01  1.0001240989557321e-01  1.0000784449774214e-01  1.0001768663584154e-01  1.0001059182021056e-01  1.0000539519055822e-01  1.0001806021336494e-01  1.0000948640959248e-01  9.9999368738891758e-02  1.0003348575601795e-01  1.0001300793061731e-01  1.0001751372456463e-01  1.0002724601679817e-01  1.0002757034136289e-01  9.9974939821296169e-02  1.0009858124062519e-01  9.9879376860742289e-02  1.0027750947083836e-01  1.0020979300370757e-01  9.9515372330656798e-02  9.9853742676514867e-02  1.0003928528910716e-01  9.9951746266026292e-02  9.9982502430316672e-02  9.9969369879732983e-02  9.9979680883180322e-02  9.9960578794561966e-02  9.9971214221642693e-02  9.9965744485273247e-02  9.9956495959195452e-02  9.9958488126582409e-02  9.9983554345087336e-02  9.9963456653857377e-02  9.9977193204995582e-02  9.9971446845056808e-02  9.9969523489185405e-02  9.9971869952481723e-02  9.9972080343815786e-02  9.9969170789452111e-02  9.9971633606778146e-02  9.9971795449909737e-02  9.9969887441137037e-02  9.9973136633747295e-02  9.9970436586213601e-02  9.9974526970018587e-02  9.9966855333694385e-02  9.9981428838087485e-02  9.9954967519790883e-02  1.0000000000000003e-01  1.0000988533595399e-01  1.0000000000000003e-01  1.0000462425395004e-01  1.0000873195481444e-01  1.0000710560858143e-01  1.0000743595983043e-01  1.0000904518563460e-01  1.0000888915960958e-01  1.0000721858491420e-01  1.0001092912055619e-01  1.0000979182937825e-01  1.0000785404156574e-01  1.0001406577673287e-01  1.0001250054484830e-01  1.0000867945679456e-01  1.0001759815869854e-01  1.0001281697157978e-01  1.0000658101325702e-01  1.0001909506019060e-01  1.0001015626317879e-01  1.0000213859989426e-01  1.0002243835768600e-01  1.0000407395636117e-01  1.0000896122087938e-01  1