<?xml version="1.0"?>
<VTKFile type="UnstructuredGrid"  version="0.1"  >
<UnstructuredGrid>
<Piece  NumberOfPoints="1933" NumberOfCells="3640">
<Points>
<DataArray  type="Float64"  NumberOfComponents="3"  format="ascii">0.0002966822189167106 -0.002734308456955568 0  5.000296729949536 -0.002659852919110234 0  5.000185017853621 7.497340251550758 0  0.0001849589401153873 7.497265779621804 0  10.0002968152346 -0.002585470364484781 0  10.00018511133622 7.497414632848649 0  15.00029697700774 -0.002511138040301006 0  15.00018525068743 7.497488959553098 0  20.00029724394583 -0.00243681126525618 0  20.00018544346571 7.497563280493821 0  25.00029763420597 -0.002362435292433707 0  25.00018569342308 7.49763765154109 0  30.00029815714945 -0.002287950369277321 0  30.00018600008665 7.497712132552754 0  35.00029881510614 -0.002213293596916927 0  35.00018635843843 7.49778678621233 0  40.00029960465476 -0.002138399175130425 0  40.00018675863216 7.497861678024997 0  45.00030051734095 -0.002063197776288796 0  45.00018718562092 7.49793687701651 0  50.00030153987492 -0.001987615394419462 0  50.00018761858809 7.498012456892432 0  55.00030265385607 -0.001911571810932584 0  55.00018803009372 7.498088497553448 0  60.0003038350392 -0.001834978702651005 0  60.00018838485195 7.498165086951725 0  65.00030505211342 -0.001757737341465848 0  65.00018863803626 7.498242323336837 0  70.00030626489982 -0.001679735771685675 0  70.00018873297881 7.498320317993625 0  75.00030742180482 -0.001600845283986587 0  75.00018859807616 7.498399198628304 0  80.0003084562434 -0.001520915919381742 0  80.00018814263716 7.498479113623301 0  85.0003092815807 -0.00143977061735457 0  85.00018725130928 7.498560237459496 0  90.00030978384312 -0.00135719744943957 0  90.00018577658106 7.498642777699033 0  95.00030981097549 -0.001272939127195938 0  95.00018352869245 7.498726984022928 0  100.0003091565637 -0.00118667860988939 0  100.0001802621246 7.498813159888901 0  105.0003075344569 -0.001098019133889965 0  105.0001756577457 7.498901677315981 0  110.0003045380125 -0.001006456350679846 0  110.000169299921 7.498992994861087 0  115.0002995727749 -0.0009113396392736632 0  115.0001606489823 7.49908767744931 0  120.00029174233 -0.0008118196202444205 0  120.0001490126491 7.499186413042477 0  125.000279650333 -0.0007067812220220904 0  125.0001335280842 7.499290012350782 0  130.0002610506588 -0.0005947715604775148 0  130.0001131851232 7.499399358010332 0  135.0002322201085 -0.0004739648542132714 0  135.0000869631471 7.499515227477161 0  140.0001868209046 -0.0003423115412124483 0  140.0000542444109 7.499637831573494 0  145.000113814082 -0.0001983699765772527 0  145.0000158594383 7.499765784880633 0  149.9999935392588 -4.463383005565073e-05 0  149.9999765486751 7.499894235092804 0  159.9999999999993 1.119310091584304e-18 0  164.9999990247771 -5.069981161439397e-05 0  165.0000012632683 7.499934688964141 0  159.9999934491638 7.499966302903072 0  170.0000172506992 -6.823883108370025e-05 0  170.0000087703853 7.499924786323067 0  175.0000421399696 -6.293249005147176e-05 0  175.0000180923196 7.499933606847533 0  180.0000681394614 -4.128457841017172e-05 0  180.0000289396923 7.499956992410092 0  185.0000928555944 -7.745306360120169e-06 0  185.0000405657561 7.499991421362076 0  190.0001153626637 3.4563205604436e-05 0  190.0000523067753 7.50003419345632 0  195.0001354139403 8.342202925046606e-05 0  195.0000636927739 7.50008329583574 0  200.0001530661417 0.0001372341534851002 0  200.000074431247 7.500137235911886 0  205.0001685002583 0.0001948338873109524 0  205.0000843624469 7.500194902043738 0  210.0001819370893 0.0002553574830050893 0  210.0000934170427 7.500255458902464 0  215.0001935986593 0.0003181551201409664 0  215.0001015836031 7.500318271827182 0  220.0002036917884 0.0003827306185506512 0  220.0001088857852 7.500382852846145 0  225.0002124022339 0.0004486996877552239 0  225.0001153671169 7.500448822186209 0  230.0002198937649 0.000515760609969002 0  230.0001210812 7.500515880661443 0  235.0002263094219 0.0005836733353059262 0  235.0001260856077 7.500583789672624 0  240.0002317736477 0.0006522443404546844 0  240.000130438227 7.500652356553152 0  245.0002363946836 0.0007213154983187995 0  245.0001341952018 7.500721423706944 0  250.0002402669536 0.0007907557913713074 0  250.0001374099079 7.500790860473461 0  255.0002434733493 0.0008604550873298309 0  255.0001401325999 7.500860556992344 0  260.0002460873872 0.0009303194558000142 0  260.0001424104773 7.500930419573811 0  265.0002481752757 0.001000267687075696 0  265.0001442880239 7.501000367248997 0  270.0002497979116 0.001070228812065088 0  270.0001458075051 7.501070329301501 0  275.0002510128649 0.001140140539285114 0  275.0001470095398 7.501140243687185 0  280.0002518763586 0.001209948641170267 0  280.0001479336738 7.501210056347626 0  285.0002524452367 0.001279607457446615 0  285.0001486188779 7.501279721525313 0  290.0002527787664 0.001349081860041594 0  290.0001491038736 7.501349203301561 0  295.0002529399544 0.001418351262412306 0  295.0001494272351 7.501418478700706 0  300.0002529955352 0.001487416550458141 0  300.0001496272567 7.501487542818905 0  305.0002530128696 0.001556311006452792 0  305.0001497419357 7.50155641651939 0  310.0002530499451 0.001625115506140127 0  310.0001498102319 7.501625157429541 0  5.000073160171611 14.9973404631881 0  7.310433958340745e-05 14.99726599150069 0  10.00007322822968 14.99741481495512 0  15.00007331242095 14.99748910714486 0  20.00007341114127 14.9975633965219 0  25.00007351963662 14.99763774046813 0  30.00007363035027 14.99771219802823 0  35.0000737325522 14.9977868303525 0  40.00007381172693 14.9978617012576 0  45.00007384885296 14.99793687806043 0  50.00007381957548 14.99801243269145 0  55.00007369323004 14.9980884430757 0  60.00007343165848 14.99816499478977 0  65.00007298775795 14.99824218302804 0  70.0000723036991 14.99832011493571 0  75.00007130876169 14.99839891238582 0  80.00006991674881 14.99847871528697 0  85.00006802299349 14.99855968549712 0  90.00006550107504 14.99864201136444 0  95.00006219958213 14.99872591276549 0  100.0000579396702 14.9988116461693 0  105.0000525149483 14.99889950852982 0  110.0000456965879 14.99898983734541 0  115.0000372489048 14.99908300137136 0  120.0000269644109 14.99917937109714 0  125.0000147328605 14.99927924834602 0  130.0000006656252 14.99938271751864 0  134.9999853015421 14.99948935409931 0  139.999969912028 14.99959768840684 0  144.9999568700224 14.99970428083932 0  149.9999498643294 14.99980221709323 0  164.9999762444497 14.99989425219735 0  159.9999703352262 14.99989199847978 0  169.9999786883193 14.99990358882194 0  174.9999804589217 14.99992278206198 0  179.9999827821092 14.99995167928074 0  184.9999859699813 14.99998901832497 0  189.999989926897 15.00003331414244 0  194.9999944203408 15.00008320074989 0  199.9999992054475 15.00013753007462 0  205.0000040734448 15.00019537469093 0  210.0000088641913 15.00025599828768 0  215.0000134635294 15.00031881972086 0  220.0000177954217 15.00038338008762 0  225.0000218133178 15.00044931545936 0  230.0000254924979 15.00051633529473 0  235.0000288239047 15.0005842057003 0  240.0000318094211 15.00065273655948 0  245.0000344583821 15.00072177165602 0  250.0000367850688 15.00079118109036 0  255.0000388069419 15.00086085545321 0  260.0000405434301 15.00093070136402 0  265.0000420151088 15.00100063809546 0  270.0000432431553 15.00107059509882 0  275.0000442489908 15.00114051031927 0  280.0000450540322 15.00121032925109 0  285.0000456795557 15.00128000472938 0  290.0000461466607 15.00134949747592 0  295.000046476506 15.00141877738782 0  300.0000466911017 15.00148782543149 0  305.0000468153063 15.00155663568437 0  310.0000468811792 15.00162521639355 0  4.999961307368139 22.49734081941823 0  -3.8743114767259e-05 22.49726642241305 0  9.999961351875848 22.49741509186108 0  14.99996138668462 22.49748930828386 0  19.9999614054634 22.49756352897317 0  24.99996139969345 22.49763781112026 0  29.99996135881068 22.49771221159716 0  34.99996126996114 22.4977867884944 0  39.99996111752586 22.49786160217889 0  44.99996088253303 22.49793671624325 0  49.99996054201677 22.49801219850854 0  54.99996006834173 22.49808812214334 0  59.99995942850488 22.49816456692381 0  64.99995858343222 22.49824162064122 0  69.99995748731352 22.49831938064729 0  74.99995608706713 22.49839795550283 0  79.99995432209997 22.49847746664192 0  84.99995212465203 22.49855804986646 0  89.99994942120641 22.49863985630561 0  94.99994613573817 22.49872305215637 0  99.99994219600858 22.49880781596797 0  104.9999375447228 22.4988943312992 0  109.9999321581621 22.49898277103865 0  114.999926075781 22.49907326724584 0  119.9999194448741 22.49916585674015 0  124.9999125838909 22.49926038778543 0  129.9999060643628 22.49935636802806 0  134.9999008010103 22.499452732208 0  139.9998981163789 22.49954752144824 0  144.9998997031843 22.49963752393507 0  149.9999073455212 22.49971810773998 0  164.9999282502815 22.4998474309896 0  159.9999250380469 22.49982131955863 0  169.9999283890664 22.49987439671581 0  174.9999269714398 22.49990541391038 0  179.9999251734381 22.49994181620813 0  184.9999236791952 22.49998376528193 0  189.9999227884729 22.50003082782951 0  194.999922563598 22.5000823391368 0  199.9999229427908 22.50013759667927 0  204.9999238120698 22.50019594926107 0  209.9999250457128 22.50025682969856 0  214.9999265265064 22.50031975978449 0  219.9999281541993 22.50038434312413 0  224.9999298475994 22.50045025373373 0  229.9999315435529 22.50051722411797 0  234.9999331946308 22.50058503439214 0  239.9999347664703 22.50065350296721 0  244.9999362352379 22.50072247883627 0  249.9999375853991 22.50079183530906 0  254.9999388078534 22.5008614649853 0  259.9999398984017 22.50093127576394 0  264.9999408565206 22.50100118771309 0  269.9999416843798 22.50107113065987 0  274.9999423860745 22.50114104238827 0  279.9999429670519 22.50121086734958 0  284.9999434337537 22.50128055578428 0  289.9999437935454 22.50135006310931 0  294.9999440550959 22.50141934931547 0  299.99994
[...]
<PointData  Scalars="p"> 
<DataArray  type="Float64"  Name="p"  format="ascii">1.0000000000000001e-01  1.0000000000000003e-01  9.9996101368687182e-02  1.0000000000000003e-01  1.0000000000000003e-01  9.9995467702545832e-02  1.0000000000000003e-01  9.9993155706388476e-02  1.0000000000000003e-01  9.9991981726899021e-02  1.0000000000000003e-01  9.9990315163936597e-02  1.0000000000000003e-01  9.9987577700441782e-02  1.0000000000000003e-01  9.9986353107979056e-02  1.0000000000000003e-01  9.9984476742421668e-02  1.0000000000000003e-01  9.9981389500263820e-02  1.0000000000000003e-01  9.9980933145445372e-02  1.0000000000000003e-01  9.9973275584590765e-02  1.0000000000000003e-01  9.9969049188232906e-02  1.0000000000000003e-01  9.9964528734895586e-02  1.0000000000000003e-01  9.9960885327236682e-02  1.0000000000000003e-01  9.9953508360079324e-02  1.0000000000000003e-01  9.9950525176623950e-02  1.0000000000000003e-01  9.9945098172949401e-02  1.0000000000000003e-01  9.9936770155444291e-02  1.0000000000000003e-01  9.9934304266237145e-02  1.0000000000000003e-01  9.9926007123397401e-02  1.0000000000000003e-01  9.9920952021539763e-02  1.0000000000000003e-01  9.9911891012666287e-02  1.0000000000000003e-01  9.9914022597906244e-02  1.0000000000000003e-01  9.9891348490363130e-02  1.0000000000000003e-01  9.9912113448718060e-02  1.0000000000000003e-01  9.9865840761314439e-02  1.0000000000000003e-01  9.9918416070360672e-02  1.0000000000000003e-01  9.9830592139576249e-02  1.0000000000000003e-01  9.9935654384314440e-02  1.0000000000000001e-01  9.9770846502559768e-02  1.0000000000000001e-01  1.0000000000000003e-01  1.0018602479729706e-01  1.0038243082836858e-01  1.0000000000000003e-01  1.0005421640881255e-01  1.0000000000000003e-01  1.0014695616470133e-01  1.0000000000000003e-01  1.0009711350782967e-01  1.0000000000000003e-01  1.0011209320098081e-01  1.0000000000000003e-01  1.0009924038869528e-01  1.0000000000000003e-01  1.0010533682908244e-01  1.0000000000000003e-01  1.0009447623934764e-01  1.0000000000000003e-01  1.0009611624386301e-01  1.0000000000000003e-01  1.0009245640502271e-01  1.0000000000000003e-01  1.0008928532956506e-01  1.0000000000000003e-01  1.0008695914554736e-01  1.0000000000000003e-01  1.0008541707329766e-01  1.0000000000000003e-01  1.0008220646744286e-01  1.0000000000000003e-01  1.0008069600450886e-01  1.0000000000000003e-01  1.0007904715738278e-01  1.0000000000000003e-01  1.0007700162002102e-01  1.0000000000000003e-01  1.0007550206294059e-01  1.0000000000000003e-01  1.0007451392468494e-01  1.0000000000000003e-01  1.0007257325731400e-01  1.0000000000000003e-01  1.0007216359538121e-01  1.0000000000000003e-01  1.0007006463801456e-01  1.0000000000000003e-01  1.0007086752620999e-01  1.0000000000000003e-01  1.0006667857594991e-01  1.0000000000000003e-01  1.0007171888202576e-01  1.0000000000000003e-01  1.0006097075705886e-01  1.0000000000000003e-01  1.0007699776988466e-01  1.0000000000000003e-01  1.0004862395629491e-01  1.0000000000000003e-01  1.0009713049994946e-01  1.0000000000000001e-01  1.0000000000000003e-01  9.9993581058371708e-02  1.0000000000000003e-01  9.9993639651966837e-02  9.9993181857935848e-02  9.9992295229849967e-02  9.9989980397774667e-02  9.9990150633353342e-02  9.9989715942042048e-02  9.9986366841715801e-02  9.9987916682689970e-02  9.9986576250472178e-02  9.9983518152457956e-02  9.9975620165229137e-02  9.9977906375040990e-02  9.9969368172780584e-02  9.9973110447843946e-02  9.9969817606776618e-02  9.9963104877533820e-02  9.9965013882430342e-02  9.9962808763321226e-02  9.9952753234175434e-02  9.9959058914432880e-02  9.9950228541527117e-02  9.9951019939065772e-02  9.9940779416069353e-02  9.9959907773405257e-02  9.9913955002439964e-02  9.9989027727009475e-02  9.9858252731117522e-02  1.0005779783965504e-01  9.9767488802242232e-02  9.9838389371450509e-02  1.0058601218539827e-01  1.0017588451649673e-01  1.0002789655478102e-01  1.0005170597634876e-01  1.0004157632571146e-01  1.0006177227609557e-01  1.0003805680180396e-01  1.0004976046019565e-01  1.0004680767146722e-01  1.0004209501153420e-01  1.0004186823687440e-01  1.0004245500315931e-01  1.0003756260414132e-01  1.0003746891077696e-01  1.0003692024317112e-01  1.0003407885713732e-01  1.0003352704828467e-01  1.0003298283207715e-01  1.0003122000970843e-01  1.0003034836040164e-01  1.0003035626379989e-01  1.0002814693453639e-01  1.0002911772408683e-01  1.0002604697164323e-01  1.0002953216112756e-01  1.0002127636247536e-01  1.0003484051253586e-01  1.0001012527902313e-01  1.0004736319282063e-01  1.0000000000000003e-01  9.9990520812079015e-02  1.0000000000000003e-01  9.9993590257972373e-02  9.9990459206131865e-02  9.9988071920545304e-02  9.9987617229704201e-02  9.9987139435762984e-02  9.9982258175118396e-02  9.9983413302243723e-02  9.9983146195802591e-02  9.9977577663063852e-02  9.9976395682237332e-02  9.9980068648041764e-02  9.9957164168673007e-02  9.9965008353089288e-02  9.9960221880191880e-02  9.9949823309614147e-02  9.9954581177044838e-02  9.9950282936632440e-02  9.9937156290709331e-02  9.9942209623660586e-02  9.9938997712526026e-02  9.9920562199106180e-02  9.9935912126581747e-02  9.9915448702733153e-02  9.9927632079787165e-02  9.9895837478069363e-02  9.9953475989698407e-02  9.9829381386077082e-02  1.0005351974211769e-01  9.9635165335106329e-02  9.9883274245995898e-02  1.0054234209636316e-01  1.0028229172614549e-01  1.0005869140773432e-01  1.0007392255334115e-01  1.0012043887757428e-01  1.0005707370343338e-01  1.0009274746530623e-01  1.0008495947246786e-01  1.0007549240532036e-01  1.0007669587017495e-01  1.0007943288693540e-01  1.0006939868420552e-01  1.0007065863374673e-01  1.0006998326281150e-01  1.0006435656849087e-01  1.0006369215740425e-01  1.0006332206945458e-01  1.0005939454714367e-01  1.0005885123650322e-01  1.0005795082988690e-01  1.0005590229565282e-01  1.0005433439930980e-01  1.0005502707350218e-01  1.0005091119506621e-01  1.0005423067308435e-01  1.0004686676734567e-01  1.0005714960856629e-01  1.0003570372945915e-01  1.0007496084897011e-01  1.0000000000000003e-01  9.9988639084945791e-02  1.0000000000000003e-01  9.9992724337715833e-02  9.9987365434429251e-02  9.9987915931231366e-02  9.9987379188252457e-02  9.9982308365406170e-02  9.9983653672975709e-02  9.9983665030041247e-02  9.9977405732105562e-02  9.9980007945990129e-02  9.9980289849374612e-02  9.9966884853445445e-02  9.9978880228975817e-02  9.9960328518847730e-02  9.9954318973073747e-02  9.9958113150966504e-02  9.9957991168421648e-02  9.9942153849170420e-02  9.9952787597796897e-02  9.9946202277785459e-02  9.9933687417891659e-02  9.9938875852653472e-02  9.9942619726847037e-02  9.9912021595702449e-02  9.9952380251386683e-02  9.9894472776981671e-02  9.9974973020516583e-02  9.9828799945658409e-02  1.0008919797557815e-01  9.9612648898061221e-02  9.9879336027952861e-02  1.0066895637842302e-01  1.0018755031227160e-01  1.0001773583358715e-01  1.0019065868999612e-01  9.9998607321582986e-02  1.0009210034675821e-01  1.0006762922416183e-01  1.0006261091190358e-01  1.0006186679898306e-01  1.0007127365143346e-01  1.0005485210020280e-01  1.0005970336647893e-01  1.0005958427702505e-01  1.0005220666501431e-01  1.0005194408456770e-01  1.0005209952155282e-01  1.0004680995045721e-01  1.0004635269785701e-01  1.0004612781664834e-01  1.0004253353993656e-01  1.0004237475939902e-01  1.0004095260905531e-01  1.0004024820602192e-01  1.0003692159173100e-01  1.0004082812915255e-01  1.0003136037984978e-01  1.0004439186332247e-01  1.0002094622834765e-01  1.0005701255632955e-01  1.0000000000000003e-01  9.9986706618278381e-02  1.0000000000000003e-01  9.9990728222699138e-02  9.9986997682052409e-02  9.9987844271832799e-02  9.9981743242741186e-02  9.9983277942660986e-02  9.9982533402461340e-02  9.9975735240810382e-02  9.9978696834448044e-02  9.9979251665039584e-02  9.9967591714323442e-02  9.9974093491123225e-02  9.9968853563182442e-02  9.9965477366168565e-02  9.9951667838241692e-02  9.9956426035530774e-02  9.9937302388267993e-02  9.9949937114529749e-02  9.9945923265208153e-02  9.9926196115828314e-02  9.9941773876904685e-02  9.9931456030240395e-02  9.9920558442345653e-02  9.9920266527657980e-02  9.9940808656688931e-02  9.9876958711080419e-02  9.9979731293911592e-02  9.9806707939134737e-02  1.0010440446097590e-01  9.9549555982209714e-02  9.9767134605966840e-02  1.0075801033941383e-01  1.0024218924365881e-01  1.0007886237252912e-01  1.0010828430239879e-01  1.0011106405497887e-01  1.0008154802641508e-01  1.0007712904710742e-01  1.0006798266853689e-01  1.0009413457125593e-01  1.0006366750125520e-01  1.0007493682161259e-01  1.0007525441643157e-01  1.0006476719268888e-01  1.0006533495017252e-01  1.0006691721423738e-01  1.0005849832658863e-01  1.0005853249026495e-01  1.0005835937778548e-01  1.0005352440495423e-01  1.0005264225966920e-01  1.0005274673458435e-01  1.0004872199068307e-01  1.0004929036330953e-01  1.0004642176609341e-01  1.0004806090772154e-01  1.0004078377712293e-01  1.0005163568638725e-01  1.0002923501493259e-01  1.0006639699214655e-01  1.0000000000000003e-01  9.9984414291741000e-02  1.0000000000000003e-01  9.9990648629562973e-02  9.9986438862094643e-02  9.9983717076985293e-02  9.9983175562002868e-02  9.9983082040999122e-02  9.9976098340049349e-02  9.9978074732593208e-02  9.9979114702308997e-02  9.9969178756511998e-02  9.9973356236193689e-02  9.9972264356386051e-02  9.9960979644405312e-02  9.9963763298957453e-02  9.9975696523249863e-02  9.9931749960452704e-02  9.9952880443316586e-02  9.9946153067073565e-02  9.9928248199597239e-02  9.9942374504593270e-02  9.9941238162422938e-02  9.9911600714082074e-02  9.9940985426975618e-02  9.9917765767746858e-02  9.9925844323586421e-02  9.9891773802901609e-02  9.9983680132005329e-02  9.9785963895376917e-02  1.0014150070017641e-01  9.9498332479924220e-02  9.9775190317741763e-02  1.0073461944062187e-01  1.0029544971914531e-01  9.9983026036591385e-02  1.0013193759497337e-01  1.0010550012963797e-01  1.0011434494949098e-01  1.0003636786335170e-01  1.0011095191764152e-01  1.0004785864501831e-01  1.0007677452591426e-01  1.0007478569877619e-01  1.0006202292266698e-01  1.0006286656435423e-01  1.0006772275098835e-01  1.0005560450259447e-01  1.0005703947031160e-01  1.0005751896595008e-01  1.0005026713071728e-01  1.0005005145895171e-01  1.0004999328629333e-01  1.0004575795589531e-01  1.0004445663422060e-01  1.0004543047551538e-01  1.0004010492420132e-01  1.0004354157786556e-01  1.0003573563695353e-01  1.0004604946868734e-01  1.0002445448986218e-01  1.0005925768995216e-01  1.0000000000000003e-01  9.9983159717047035e-02  1.0000000000000003e-01  9.9990487783571988e-02  9.9982611171218858e-02  9.9984642375344643e-02  9.9983175280638562e-02  9.9977203293106345e-02  9.9977867837141396e-02  9.9978907337497647e-02  9.9969030292309080e-02  9.9973428177713722e-02  9.9973178724577907e-02  9.9959681910898490e-02  9.9965572777812095e-02  9.9969472705706955e-02  9.9945521349129970e-02  9.9971714318675811e-02  9.9940974623730985e-02  9.9927477195676212e-02  9.9941221307459416e-02  9.9939352883441371e-02  9.9914842232571258e-02  9.9932657366096592e-02  9.9935170318737984e-02  9.9892278268832180e-02  9.9945711393002443e-02  9.9884991681209748e-02  9.9963833818213152e-02  9.9794935397086712e-02  1.0014894864809641e-01  9.9447204205694223e-02  9.9791985441619976e-02  1.0079319781509101e-01  1.0024112109383145e-01  1.0000666087089086e-01  1.0016925493472829e-01  1.0006107525348944e-01  1.0009972783297438e-01  1.0014369239806252e-01  1.0003759057616880e-01  1.0008849271849633e-01  1.0007785431999984e-01  1.0007016843743709e-01  1.0006698324741875e-01  1.0007759643757769e-01  1.0006024334889567e-01  1.0006369127597488e-01  1.0006519084479956e-01  1.0005627792736380e-01  1.0005566590465582e-01  1.0005648955393515e-01  1.0004996373859330e-01  1.0004991255678515e-01  1.0004900488833261e-01  1.0004642993255497e-01  1.0004356559507009e-01  1.0004662864352201e-01  1.0003785039610075e-01  1.0004841851686123e-01  1.0002731527926514e-01  1.0006153674491074e-01  1.0000000000000003e-01  9.9982064403087573e-02  1.0000000000000003e-01  9.9988468279771509e-02  9.9982948292065082e-02  9.9984859324870751e-02  9.9978100454833019e-02  9.9979361900810679e-02  9.9979255708825598e-02  9.9970213545419906e-02  9.9973760813714452e-02  9.9974373457598187e-02  9.9960996986999368e-02  9.9966613181005942e-02  9.9968036266028362e-02  9.9949301827337786e-02  9.9964716689894317e-02  9.9957496946166347e-02  9.9952236013358675e-02  9.9934375264590036e-02  9.9943730882711454e-02  9.9909902635785197e-02  9.9939599648177294e-02  9.9928788461222010e-02  9.9907543248356906e-02  9.9918896333817731e-02  9.9943429849579560e-02  9.9857058110089283e-02  9.9990862712135767e-02  9.9784647597386755e-02  1.0014465904198069e-01  9.9431675880683704e-02  9.9722655509575833e-02  1.0085578270858785e-01  1.0026958894277788e-01  1.0003409379299794e-01  1.0011731024928520e-01  1.0006209112675808e-01  1.0013491160672471e-01  1.0007143373460092e-01  1.0011906150716694e-01  1.0006246166121714e-01  1.0007862150858431e-01  1.0005818813132582e-01  1.0008554404699511e-01  1.0005754922013220e-01  1.0006526926378805e-01  1.0006744174854923e-01  1.0005646340592307e-01  1.0005664350573318e-01  1.0005894657940873e-01  1.0005016796807385e-01  1.0004971601638162e-01  1.0005041010597912e-01  1.0004447601827123e-01  1.0004505182918920e-01  1.0004266233819674e-01  1.0004315373533434e-01  1.0003601297906467e-01  1.0004640134636125e-01  1.0002500069213695e-01  1.0005821959588371e-01  1.0000000000000003e-01  9.9980406218110010e-02  1.0000000000000003e-01  9.9988773528366229e-02  9.9983000665449698e-02  9.9980997501983138e-02  9.9979549376343999e-02  9.9980612970224772e-02  9.9972107700848314e-02  9.9974306694459308e-02  9.9975157113463220e-02  9.9963853512805442e-02  9.9967161785828679e-02  9.9968732600054289e-02  9.9951582231982916e-02  9.9961719206556485e-02  9.9962206165356268e-02  9.9944290611265987e-02  9.9952465891504680e-02  9.9971377962624092e-02  9.9904310484579387e-02  9.9938698305472626e-02  9.9933120771236297e-02  9.9897640008844088e-02  9.9936839699723085e-02  9.9916480109301500e-02  9.9908187357040962e-02  9.9888752736642702e-02  9.9987995988120817e-02  9.9752159137355551e-02  1.0017702462057836e-01  9.9405491568823043e-02  9.9719149739750351e-02  1.0084213175498702e-01  1.0030845141740348e-01  9.9983276772776533e-02  1.0013186888606157e-01  1.0009675936817276e-01  1.0008566914138603e-01  1.0008519786440613e-01  1.0011446618867678e-01  1.0010469849954452e-01  1.0004372143497839e-01  1.0009960293546775e-01  1.0005218543922782e-01  1.0007105339887885e-01  1.0007142372696262e-01  1.0005959313863255e-01  1.0005883564814387e-01  1.0006415357986000e-01  1.0005279390126090e-01  1.0005357074431134e-01  1.0005410445199664e-01  1.0004740947207802e-01  1.0004612252261105e-01  1.0004751078860293e-01  1.0004108999624688e-01  1.0004395604797127e-01  1.0003735994766577e-01  1.0004558659346971e-01  1.0002586628713274e-01  1.0005815077967495e-01  1.0000000000000003e-01  9.9979759517088027e-02  1.0000000000000003e-01  9.9988952342307050e-02  9.9979732243686795e-02  9.9982143436814386e-02  9.9980420528961458e-02  9.9974511371606761e-02  9.9975152664298850e-02  9.9976219341560049e-02  9.9965921489655551e-02  9.9969086073208771e-02  9.9970367662844450e-02  9.9954053600380510e-02  9.9961314539862400e-02  9.9963782052572642e-02  9.9943763704899519e-02  9.9955268356954924e-02  9.9963523859538814e-02  9.9925560170398678e-02  9.9969566335943852e-02  9.9924883202347367e-02  9.9904552010060932e-02  9.9926361809572456e-02  9.9934567572803293e-02  9.9877092517346402e-02  9.9947083600028352e-02  9.9885888720643967e-02  9.9950182097224269e-02  9.9785669191683413e-02  1.0017868291431715e-01  9.9362078052048941e-02  9.9734454882765250e-02  1.0086630092731100e-01  1.0027490707121149e-01  9.9987878572214237e-02  1.0016458737626552e-01  1.0005175240982198e-01  1.0009442090965140e-01  1.0010299993615794e-01  1.0008507066715588e-01  1.0007971247633250e-01  1.0012916558019933e-01  1.0003567926613480e-01  1.0007887268015254e-01  1.0006736848878814e-01  1.0006339652854483e-01  1.0005760724989161e-01  1.0006777922189172e-01  1.0005269733532514e-01  1.0005455014638096e-01  1.0005693764781286e-01  1.0004848465435832e-01  1.0004777506548722e-01  1.0004791412472827e-01  1.0004327800538880e-01  1.0004068049769378e-01  1.0004379794027379e-01  1.0003479754579994e-01  1.0004429861769554e-01  1.0002518653824541e-01  1.0005571476849846e-01  1.0000000000000003e-01  9.9979253616249791e-02  1.0000000000000003e-01  9.9987428343406917e-02  9.9980409428797393e-02  9.9983011580381378e-02  9.9975900051767916e-02  9.9977046507092895e-02  9.9976965614631014e-02  9.9968567130746908e-02  9.9970755058963134e-02  9.9972496633020907e-02  9.9957936576996059e-02  9.9963025734956912e-02  9.9964737820928795e-02  9.9946042422892609e-02  9.9956638126800390e-02  9.9960942551873502e-02  9.9933069448085637e-02  9.9957718247446273e-02  9.9950214676727434e-02  9.9937493992237489e-02  9.9922541970111689e-02  9.9930486025425230e-02  9.9888950122637987e-02  9.9921254338977417e-02  9.9941773171994652e-02  9.9842444597016008e-02  9.9991874153022423e-02  9.9786505792579194e-02  1.0013730421321911e-01  9.9393796564553216e-02  9.9692598025393431e-02  1.0090859222802308e-01  1.0028169536511572e-01  1.0001339540162553e-01  1.0012912140953661e-01  1.0005713891200944e-01  1.0012170793800326e-01  1.0007041994281200e-01  1.0008099909399353e-01  1.0010594799833991e-01  1.0007490338665145e-01  1.0010234526519281e-01  1.0005597656386069e-01  1.0007123424465335e-01  1.0005169820226120e-01  1.0007450613856789e-01  1.0005193949930062e-01  1.0005666276642798e-01  1.0005924215443854e-01  1.0004994151348623e-01  1.0004943543791439e-01  1.0005210509824174e-01  1.0004358472750116e-01  1.0004401853873113e-01  1.0004237302145723e-01  1.0004121828610205e-01  1.0003485920208252e-01  1.0004428331888557e-01  1.0002445013391749e-01  1.0005460173880767e-01  1.0000000000000003e-01  9.9978101175096729e-02  1.0000000000000003e-01  9.9987807713631027e-02  9.9980872958733868e-02  9.9979734174766494e-02  9.9977469181068881e-02  9.9978734105823766e-02  9.9970641791145523e-02  9.9972137562206548e-02  9.9973751519626938e-02  9.9962325771601274e-02  9.9964944995002733e-02  9.9966879391683805e-02  9.9949977802574447e-02  9.9956800852290500e-02  9.9961706736693995e-02  9.9937245379627462e-02  9.9953712082130705e-02  9.9956134594047286e-02  9.9929737183722708e-02  9.9943604290295557e-02  9.9973768050906145e-02  9.9873731360273485e-02  9.9937769416412484e-02  9.9913805815320819e-02  9.9892027177414092e-02  9.9895301476329024e-02  9.9988777867655115e-02  9.9738098305792749e-02  1.0017953043795082e-01  9.9398626048611619e-02  9.9678392062159366e-02  1.0089154210823666e-01  1.0031235251439431e-01  9.9979929472062218e-02  1.0013052897818203e-01  1.0008345737107337e-01  1.0008992694259744e-01  1.0007028903083275e-01  1.0010645162829897e-01  1.0006941617728944e-01  1.0007976245235842e-01  1.0009278032234105e-01  1.0009419009877378e-01  1.0003622336268882e-01  1.0008389915172426e-01  1.0004557533908354e-01  1.0005954507232338e-01  1.0006000918789175e-01  1.0005072383529102e-01  1.0004919120252070e-01  1.0005379588097660e-01  1.0004509524720709e-01  1.0004451556110368e-01  1.0004599311471940e-01  1.0003845326655539e-01  1.0004061847914768e-01  1.0003524033990507e-01  1.0004150761208842e-01  1.0002391363096644e-01  1.0005279015545411e-01  1.0000000000000003e-01  9.9977876290235856e-02  1.0000000000000003e-01  9.9988261926526142e-02  9.9978389328928718e-02  9.9981032516799864e-02  9.9978783004513752e-02  9.9973768645798003e-02  9.9973535425634724e-02  9.9974830078293747e-02  9.9965310790052608e-02  9.9967769911391599e-02  9.9969155799888965e-02  9.9954385056441664e-02  9.9958789319702687e-02  9.9963200600786867e-02  9.9941721212972040e-02  9.9952485050988943e-02  9.9959018463461002e-02  9.9929731982532147e-02  9.9948323176539025e-02  9.9960905806477901e-02  9.9907897126015985e-02  9.9968555177714913e-02  9.9920594110289654e-02  9