<?xml version="1.0"?>
<VTKFile type="UnstructuredGrid"  version="0.1"  >
<UnstructuredGrid>
<Piece  NumberOfPoints="1933" NumberOfCells="3640">
<Points>
<DataArray  type="Float64"  NumberOfComponents="3"  format="ascii">0.4754704577399164 -0.0001436721645326855 0  5.475470500819265 -0.0001617084716468108 0  5.475497595482466 7.499838422978981 0  0.4754975154500002 7.499856395372391 0  10.4754705581319 -0.000179862776845728 0  10.4754977397721 7.499820290417708 0  15.4754706925433 -0.0001981874619686446 0  15.47549798197655 7.499801971511364 0  20.47547097185096 -0.0002166829784702757 0  20.47549835477612 7.499783476071737 0  25.47547145883654 -0.0002353190577360832 0  25.47549889025679 7.499764838678249 0  30.47547220910715 -0.0002540462539060084 0  30.47549961911563 7.499746110619671 0  35.47547327183641 -0.0002728022178123597 0  35.47550057008178 7.499727355017115 0  40.47547469144236 -0.0002915148003026604 0  40.47550176969828 7.499708644329676 0  45.47547650942044 -0.0003101031168720879 0  45.47550324233466 7.499690059566118 0  50.47547876603991 -0.0003284771998623385 0  50.47550501026279 7.499671690759099 0  55.47548150181624 -0.000346536563343907 0  55.47550709365773 7.499653638455742 0  60.47548475874064 -0.000364167808286092 0  60.47550951039963 7.499636016131337 0  65.47548858126854 -0.0003812412498302169 0  65.47551227555124 7.499618953557057 0  70.47549301704086 -0.0003976064217713128 0  70.47551540036569 7.499602601265462 0  75.47549811727762 -0.0004130861807205611 0  75.47551889062636 7.499587136376402 0  80.47550393669768 -0.0004274689695738669 0  80.47552274403459 7.499572770188315 0  85.47551053269575 -0.0004404985777540971 0  85.47552694624545 7.499559758123151 0  90.47551796327075 -0.0004518604137459716 0  90.47553146495946 7.499548412859591 0  95.47552628280407 -0.000461162823672304 0  95.47553624123563 7.499539121818853 0  100.4755355340302 -0.000467911257261579 0  100.4755411768832 7.499532370593866 0  105.4755457331806 -0.0004714719651588268 0  105.4755461164358 7.499528774417748 0  110.4755568426696 -0.0004710202216571224 0  110.4755508220264 7.499529120230207 0  115.4755687207916 -0.0004654655810401322 0  115.4755549398783 7.499534421954644 0  120.4755810284513 -0.0004533432487679999 0  120.4755579592832 7.499545990262653 0  125.475593054807 -0.0004326566577378477 0  125.4755591716486 7.499565513033326 0  130.4756033885495 -0.0004006542555745839 0  130.4755576547709 7.49959512868633 0  135.4756092930106 -0.0003535337295708247 0  135.4755523503059 7.499637441248679 0  140.4756055071224 -0.0002861319490821334 0  140.4755424031566 7.499695359136068 0  145.4755819083794 -0.000191966906440513 0  145.4755281700592 7.49977155794888 0  150.4755187815691 -6.54678832238744e-05 0  150.4755139126732 7.499867601216574 0  160.4755282581469 9.275285257029819e-19 0  165.4754150017104 -0.0001752867089712542 0  165.4755091586667 7.499795676943906 0  160.4755393855189 7.499931830100499 0  170.4753600464563 -0.0003149823257843239 0  170.4754783307313 7.499670500554455 0  175.4753349796265 -0.0004293660000726871 0  175.4754541523025 7.49956276989832 0  180.4753256418773 -0.000524546218619108 0  180.4754371691811 7.499471011826555 0  185.4753246451061 -0.0006050134110088003 0  185.4754261673757 7.499392409643999 0  190.4753280310931 -0.0006741604705880258 0  190.4754196843995 7.499324314350068 0  195.4753336380834 -0.000734535085934599 0  195.4754164524212 7.499264549153886 0  200.4753402662714 -0.0007880442006732247 0  200.4754154855271 7.499211402486356 0  205.4753472408353 -0.000836120801035178 0  205.4754160534928 7.49916354728751 0  210.4753541789172 -0.0008798517344938447 0  210.4754176283107 7.499119955314762 0  215.4753608631966 -0.0009200715978800929 0  215.4754198327073 7.49907982501689 0  220.4753671720107 -0.000957430252402503 0  220.4754223986529 7.499042525552171 0  225.4753730399551 -0.0009924410451724768 0  225.475425136284 7.499007554773608 0  230.4753784352013 -0.001025515337080609 0  230.4754279114418 7.498974508085386 0  235.4753833461732 -0.001056987432898308 0  235.47543062972 7.498943055384657 0  240.4753877735835 -0.001087132796078441 0  240.4754332252217 7.498912923899769 0  245.4753917256286 -0.001116181540746309 0  245.475435652668 7.498883885303541 0  250.4753952150961 -0.001144328568941729 0  250.4754378818664 7.498855745933298 0  255.4753982576898 -0.001171741291047097 0  255.4754398938571 7.498828339289215 0  260.4754008711588 -0.001198565570631552 0  260.4754416782473 7.498801520230036 0  265.4754030750197 -0.001224930325648628 0  265.4754432314075 7.498775160467423 0  270.4754048907358 -0.001250951061676969 0  270.475444555298 7.498749145099996 0  275.4754063423153 -0.001276732482686764 0  275.4754456567456 7.49872337004417 0  280.475407457315 -0.001302370195397049 0  280.4754465470452 7.498697740329758 0  285.4754082682556 -0.001327951365648758 0  285.4754472417625 7.498672169350248 0  290.4754088144072 -0.001353553957467267 0  290.4754477606012 7.498646579307926 0  295.4754091438019 -0.00137924382088973 0  295.4754481272422 7.498620903287828 0  300.4754093149279 -0.001405068282945498 0  300.47544836908 7.4985950896378 0  305.4754093967562 -0.001431043876771767 0  305.4754485171501 7.498569109603934 0  310.4754094636547 -0.001457134343848321 0  310.4754486075055 7.498542969466921 0  5.475524324880405 14.99983872142776 0  0.4755242382401379 14.99985656035304 0  10.47552446688562 14.99982062665162 0  15.47552469252951 14.99980230526146 0  20.47552502043452 14.99978379345077 0  25.47552546523907 14.99976513773052 0  30.47552603964185 14.9997463943802 0  35.47552675483483 14.99972762825218 0  40.47552762028813 14.99970891204504 0  45.47552864327808 14.9996903263395 0  50.47552982827746 14.99967196042562 0  55.47553117620424 14.9996539138986 0  60.47553268346736 14.99963629902935 0  65.47553434072211 14.99961924396906 0  70.47553613122273 14.99960289691278 0  75.47553802865006 14.99958743141952 0  80.47553999427387 14.99957305316499 0  85.47554197331976 14.99956000848449 0  90.47554389044915 14.99954859513652 0  95.47554564440293 14.99953917574526 0  100.4755471021547 14.99953219428703 0  105.4755480935951 14.99952819559528 0  110.4755484090327 14.99952784682296 0  115.4755478041943 14.99953195741153 0  120.4755460215756 14.999541489018 0  125.4755428438417 14.99955753651058 0  130.4755382050226 14.99958124099004 0  135.4755323970548 14.9996135577837 0  140.4755264140249 14.99965473152523 0  145.4755224425388 14.99970318845595 0  150.4755243268947 14.99975317454405 0  165.4755521724118 14.9997156837553 0  160.4755549549285 14.99980333890213 0  170.4755412601667 14.99962336857062 0  175.475527552922 14.99953516639643 0  180.4755143548815 14.99945470718476 0  185.4755031170983 14.9993826475502 0  190.4754942353745 14.99931838072092 0  195.4754875998722 14.99926088991751 0  200.4754828997578 14.99920911868404 0  205.4754797755276 14.99916211153367 0  210.4754778876957 14.99911905295758 0  215.475476942636 14.99907926477801 0  220.4754766979028 14.99904218884158 0  225.4754769586477 14.99900736661758 0  230.4754775708861 14.99897442022333 0  235.4754784143109 14.99894303629004 0  240.4754793957522 14.99891295279439 0  245.4754804436638 14.99888394851308 0  250.4754815036571 14.99885583464346 0  255.4754825349621 14.99882844815808 0  260.4754835076723 14.99880164653623 0  265.4754844006022 14.99877530359651 0  270.4754851996333 14.99874930623363 0  275.4754858964197 14.99872355193219 0  280.4754864873553 14.99869794699313 0  285.4754869727507 14.99867240545984 0  290.4754873561693 14.99864684876015 0  295.4754876440447 14.99862120604732 0  300.4754878458023 14.99859541504097 0  305.4754879751346 14.99856942260576 0  310.4754880535953 14.99854318279994 0  5.475550690071571 22.49983931430608 0  0.4755506055792258 22.49985704661466 0  10.47555080669755 22.49982123989537 0  15.47555097469943 22.49980289601684 0  20.47555120399347 22.49978434528762 0  25.47555149900803 22.49976564853638 0  30.47555186092027 22.49974686889258 0  35.47555228859275 22.49972807376617 0  40.47555277868644 22.49970933602216 0  45.47555332529294 22.49969073504605 0  50.47555391928326 22.49967235804399 0  55.47555454746122 22.4996543017491 0  60.47555519155411 22.49963667463357 0  65.47555582704152 22.49961959970795 0  70.47555642182239 22.49960321798954 0  75.47555693474298 22.49958769272894 0  80.47555731405936 22.49957321447573 0  85.47555749600663 22.49956000702515 0  90.47555740382087 22.49954833417843 0  95.4755569478461 22.49953850701094 0  100.4755560278176 22.49953089086241 0  105.475554539122 22.49952591036044 0  110.4755523858613 22.49952404914406 0  115.475549504906 22.49952583808346 0  120.4755459066243 22.49953182097252 0  125.4755417389414 22.49954247899856 0  130.4755373799473 22.49955808403017 0  135.4755335563223 22.49957843663415 0  140.4755314620068 22.49960243384185 0  145.4755327992706 22.49962742829457 0  150.475539563972 22.49964847755735 0  165.475575445251 22.49962595900123 0  160.475566173701 22.49968275144864 0  170.4755770409202 22.49956034568348 0  175.4755734557452 22.49949234725666 0  180.475567120496 22.49942604724036 0  185.4755598273884 22.49936354840704 0  190.4755526804691 22.49930563450475 0  195.4755462608868 22.49925234646698 0  200.4755408097219 22.499203362122 0  205.4755363685256 22.49915821484949 0  210.4755328730209 22.49911640841337 0  215.4755302106068 22.49907747168641 0  220.4755282534158 22.49904098084394 0  225.4755268760229 22.49900656497505 0  230.4755259640104 22.49897390386674 0  235.4755254173319 22.49894272256116 0  240.4755251508693 22.49891278499507 0  245.475525093589 22.49888388780283 0  250.4755251870849 22.49885585473413 0  255.4755253839448 22.4988285318238 0  260.4755256461401 22.49880178330934 0  265.4755259435537 22.49877548823394 0  270.4755262526625 22.49874953765768 0  275.4755265553835 22.49872383240101 0  280.4755268380868 22.49869828124568 0  285.4755270907766 22.49867279950167 0  290.475527306499 22.49864730779179 0  295.4755274811023 22.49
[...]
<PointData  Scalars="p"> 
<DataArray  type="Float64"  Name="p"  format="ascii">1.0000000000000001e-01  1.0000000000000003e-01  9.9999711941130887e-02  1.0000000000000003e-01  1.0000000000000003e-01  9.9998538298848208e-02  1.0000000000000003e-01  9.9997796998344199e-02  1.0000000000000003e-01  9.9996921215190632e-02  1.0000000000000003e-01  9.9996294290026086e-02  1.0000000000000003e-01  9.9996076059467420e-02  1.0000000000000003e-01  9.9995389339181034e-02  1.0000000000000003e-01  9.9995234407681252e-02  1.0000000000000003e-01  9.9995062042371782e-02  1.0000000000000003e-01  9.9993504934502708e-02  1.0000000000000003e-01  9.9995991671878573e-02  1.0000000000000003e-01  9.9994745978310498e-02  1.0000000000000003e-01  9.9995203062273247e-02  1.0000000000000003e-01  9.9994872985079142e-02  1.0000000000000003e-01  9.9996445497893785e-02  1.0000000000000003e-01  9.9996546427167418e-02  1.0000000000000003e-01  9.9998465526851640e-02  1.0000000000000003e-01  1.0000110301289067e-01  1.0000000000000003e-01  1.0000254801797816e-01  1.0000000000000003e-01  1.0000671917822274e-01  1.0000000000000003e-01  1.0000974707101307e-01  1.0000000000000003e-01  1.0001498918767589e-01  1.0000000000000003e-01  1.0001693749444784e-01  1.0000000000000003e-01  1.0002769273339807e-01  1.0000000000000003e-01  1.0002319403146735e-01  1.0000000000000003e-01  1.0004390259583483e-01  1.0000000000000003e-01  1.0002697206061890e-01  1.0000000000000003e-01  1.0006376046924624e-01  1.0000000000000003e-01  1.0002574284226316e-01  1.0000000000000001e-01  1.0009255169855126e-01  1.0000000000000001e-01  1.0000000000000003e-01  9.9978349616141354e-02  9.9895434026975205e-02  1.0000000000000003e-01  1.0001811663386076e-01  1.0000000000000003e-01  9.9987164364007577e-02  1.0000000000000003e-01  1.0000898641014118e-01  1.0000000000000003e-01  1.0000514219855001e-01  1.0000000000000003e-01  1.0001143297738931e-01  1.0000000000000003e-01  1.0001178046173735e-01  1.0000000000000003e-01  1.0001722478578991e-01  1.0000000000000003e-01  1.0001782967875938e-01  1.0000000000000003e-01  1.0002050639661440e-01  1.0000000000000003e-01  1.0002251731956344e-01  1.0000000000000003e-01  1.0002388263307560e-01  1.0000000000000003e-01  1.0002499250444499e-01  1.0000000000000003e-01  1.0002640119014909e-01  1.0000000000000003e-01  1.0002701387278157e-01  1.0000000000000003e-01  1.0002763570048580e-01  1.0000000000000003e-01  1.0002834534985784e-01  1.0000000000000003e-01  1.0002858411529020e-01  1.0000000000000003e-01  1.0002893192179661e-01  1.0000000000000003e-01  1.0002905276909516e-01  1.0000000000000003e-01  1.0002941347560172e-01  1.0000000000000003e-01  1.0002896154486896e-01  1.0000000000000003e-01  1.0002987253224113e-01  1.0000000000000003e-01  1.0002833951644652e-01  1.0000000000000003e-01  1.0003089183895661e-01  1.0000000000000003e-01  1.0002640193055969e-01  1.0000000000000003e-01  1.0003379939790186e-01  1.0000000000000003e-01  1.0002133313168039e-01  1.0000000000000003e-01  1.0004323760704008e-01  1.0000000000000001e-01  1.0000000000000003e-01  1.0000074917536614e-01  1.0000000000000003e-01  1.0000005236294976e-01  9.9999946177297197e-02  9.9999952911282136e-02  1.0000045309960932e-01  1.0000025753301375e-01  1.0000058026587179e-01  1.0000153849009354e-01  1.0000070978203678e-01  1.0000138503368748e-01  1.0000052072392548e-01  1.0000451683698625e-01  1.0000122797203402e-01  1.0000408207051290e-01  1.0000208529001349e-01  1.0000445557914996e-01  1.0000657145930862e-01  1.0000683982621700e-01  1.0000929967112146e-01  1.0001346500971722e-01  1.0001287373625206e-01  1.0001840281488542e-01  1.0001941588504780e-01  1.0002495039518421e-01  1.0002091215783117e-01  1.0003802214296786e-01  1.0001257537619709e-01  1.0006089722111247e-01  9.9986717072501660e-02  1.0009267003197439e-01  1.0006465742317762e-01  9.9879641542056405e-02  9.9934177920496123e-02  9.9999198321029381e-02  9.9985757355792113e-02  9.9988863017909671e-02  9.9985990908682182e-02  9.9995717089260250e-02  9.9992416856116650e-02  9.9996010044264103e-02  9.9998893826285906e-02  9.9999585420141937e-02  1.0000061224000861e-01  1.0000299782963670e-01  1.0000323235750656e-01  1.0000398596135238e-01  1.0000525377191119e-01  1.0000559452670142e-01  1.0000599601186931e-01  1.0000693562333408e-01  1.0000709274402875e-01  1.0000770571054685e-01  1.0000788693164460e-01  1.0000887861207966e-01  1.0000809630299733e-01  1.0001047590923318e-01  1.0000734595904831e-01  1.0001396086025828e-01  1.0000351224719475e-01  1.0002069202371594e-01  1.0000000000000003e-01  1.0000169668425370e-01  1.0000000000000003e-01  1.0000049743374873e-01  1.0000049475030345e-01  1.0000085297832381e-01  1.0000045598036222e-01  1.0000082709768021e-01  1.0000208534592621e-01  1.0000161642046947e-01  1.0000223917691077e-01  1.0000310622417440e-01  1.0000383635981014e-01  1.0000013596767487e-01  1.0000963529167252e-01  1.0000297698945286e-01  1.0000586891204477e-01  1.0000794844594825e-01  1.0000720359222273e-01  1.0001060363788375e-01  1.0001555479074188e-01  1.0001544534426647e-01  1.0002008432931023e-01  1.0002758064099226e-01  1.0002529716309862e-01  1.0003632763222736e-01  1.0003422511269069e-01  1.0004741432692990e-01  1.0003158168940150e-01  1.0007363999060225e-01  9.9996333967995954e-02  1.0014228471318665e-01  1.0000346860941732e-01  9.9948780011240829e-02  9.9945603415162898e-02  9.9996039646767648e-02  9.9983991871709976e-02  9.9977600891416801e-02  9.9999624447915283e-02  9.9987356265528723e-02  9.9995340139896902e-02  1.0000066005756779e-01  1.0000123854173509e-01  1.0000298267311812e-01  1.0000780489753489e-01  1.0000785990587571e-01  1.0000936355692895e-01  1.0001194943702359e-01  1.0001228812046038e-01  1.0001303675024123e-01  1.0001467238523475e-01  1.0001507298001938e-01  1.0001554514378634e-01  1.0001683747869750e-01  1.0001689719228615e-01  1.0001804761346077e-01  1.0001773036432222e-01  1.0001999425616361e-01  1.0001756667230094e-01  1.0002318318569964e-01  1.0001441138163202e-01  1.0003273083017458e-01  1.0000000000000003e-01  1.0000239244087787e-01  1.0000000000000003e-01  1.0000123578990457e-01  1.0000240610214647e-01  1.0000184540069373e-01  1.0000238776190858e-01  1.0000394225833920e-01  1.0000367519741216e-01  1.0000478346870890e-01  1.0000674894147997e-01  1.0000614385889590e-01  1.0000666186945685e-01  1.0001129928774170e-01  1.0000334169114927e-01  1.0001462424996987e-01  1.0001144687418763e-01  1.0001114351685161e-01  1.0001240238980356e-01  1.0001838384534600e-01  1.0001616978745605e-01  1.0002217062756033e-01  1.0002751000218511e-01  1.0002833056071886e-01  1.0003195449269264e-01  1.0004353652704194e-01  1.0003361098855172e-01  1.0005630066264834e-01  1.0003110065512408e-01  1.0007905209681016e-01  9.9994089942609291e-02  1.0014732374299148e-01  9.9982319676828732e-02  9.9919107468813564e-02  9.9977731195566424e-02  9.9986036215180762e-02  9.9939412141619430e-02  1.0000419054897197e-01  9.9966705461428190e-02  9.9982641575998732e-02  9.9986329900218607e-02  9.9987578969173818e-02  9.9988308877214799e-02  9.9996120256238150e-02  9.9995156307715910e-02  9.9997257049618343e-02  1.0000094188035601e-01  1.0000137023084257e-01  1.0000224943433134e-01  1.0000471148328179e-01  1.0000494822446628e-01  1.0000579183542660e-01  1.0000724915269193e-01  1.0000798745622587e-01  1.0000832931445883e-01  1.0001016213359390e-01  1.0000965648749600e-01  1.0001245603473596e-01  1.0000978474326638e-01  1.0001659441496563e-01  1.0000723578997650e-01  1.0002439593422768e-01  1.0000000000000003e-01  1.0000309606689878e-01  1.0000000000000003e-01  1.0000233966993823e-01  1.0000294727790152e-01  1.0000304815495790e-01  1.0000445276857592e-01  1.0000416749415987e-01  1.0000522179038211e-01  1.0000769833528882e-01  1.0000713661790536e-01  1.0000816202856463e-01  1.0001231079359653e-01  1.0000927401511485e-01  1.0001346229328571e-01  1.0000925235488430e-01  1.0001901093463524e-01  1.0001398683043290e-01  1.0002062579432622e-01  1.0001631380488116e-01  1.0002191097335432e-01  1.0002885552576922e-01  1.0002653366510765e-01  1.0003479943021691e-01  1.0004062320005401e-01  1.0004330982489794e-01  1.0004350278518095e-01  1.0006381989664949e-01  1.0003570661654372e-01  1.0009027774780592e-01  9.9997129207935603e-02  1.0016574269210599e-01  1.0000501971055592e-01  9.9919969809563566e-02  9.9953707685347601e-02  9.9963568626270538e-02  9.9987079534450241e-02  9.9957782592961564e-02  9.9978430265967616e-02  9.9981552635784329e-02  9.9983221871648043e-02  9.9980152917809997e-02  9.9993805495295782e-02  9.9990577253063470e-02  9.9993919577655355e-02  9.9999432592611251e-02  9.9999648675942826e-02  1.0000081973874263e-01  1.0000472132839512e-01  1.0000487875061026e-01  1.0000574628057743e-01  1.0000811588762289e-01  1.0000847916055344e-01  1.0000946386385284e-01  1.0001080958901047e-01  1.0001207367012963e-01  1.0001198429237600e-01  1.0001489077078034e-01  1.0001287799820537e-01  1.0001891676174031e-01  1.0001055822483015e-01  1.0002823817079308e-01  1.0000000000000003e-01  1.0000390256752680e-01  1.0000000000000003e-01  1.0000262588588188e-01  1.0000396370843120e-01  1.0000496346479650e-01  1.0000506732869106e-01  1.0000576280669193e-01  1.0000821300731792e-01  1.0000795140027426e-01  1.0000928384163360e-01  1.0001277937219540e-01  1.0001177066284390e-01  1.0001435406984195e-01  1.0001655411126795e-01  1.0001726295362970e-01  1.0001008974196963e-01  1.0003030682385140e-01  1.0001737214347461e-01  1.0002391736176344e-01  1.0002846600236995e-01  1.0002637702179881e-01  1.0003200498418259e-01  1.0004287841623299e-01  1.0003698276230072e-01  1.0005013931929536e-01  1.0005096361145321e-01  1.0006192917719471e-01  1.0004279190560539e-01  1.0009664203885109e-01  9.9994984496272268e-02  1.0017805347556424e-01  9.9975629494097440e-02  9.9946263026244681e-02  9.9938210261909105e-02  9.9987349522855776e-02  9.9959782883830214e-02  9.9966233089272563e-02  9.9963966656680114e-02  9.9983373797256192e-02  9.9963833168613708e-02  9.9989196726215340e-02  9.9978749430690086e-02  9.9984628769589884e-02  9.9991603011080232e-02  9.9991920332793680e-02  9.9992910658530609e-02  9.9998579587496070e-02  9.9998333848198076e-02  9.9999620133354380e-02  1.0000283515608600e-01  1.0000319675183018e-01  1.0000385633343159e-01  1.0000635534900697e-01  1.0000659509024261e-01  1.0000815350268616e-01  1.0000879066040173e-01  1.0001151165347315e-01  1.0000945382138439e-01  1.0001605367711719e-01  1.0000789805439118e-01  1.0002466543000534e-01  1.0000000000000003e-01  1.0000432608793729e-01  1.0000000000000003e-01  1.0000316166403847e-01  1.0000547542545846e-01  1.0000521518599720e-01  1.0000625481015266e-01  1.0000842652942150e-01  1.0000808680889697e-01  1.0000942664829525e-01  1.0001281394790137e-01  1.0001179424954132e-01  1.0001438474421027e-01  1.0001844477083931e-01  1.0001722935338193e-01  1.0001731935379597e-01  1.0002655490913952e-01  1.0001187444417464e-01  1.0003286062835516e-01  1.0002925784986817e-01  1.0002686389256223e-01  1.0003079878534431e-01  1.0004029225313939e-01  1.0003668443920632e-01  1.0004358138317661e-01  1.0005776622546754e-01  1.0004657683727446e-01  1.0006832795575507e-01  1.0005173731301596e-01  1.0009267868485919e-01  1.0000515869421882e-01  1.0018283065668296e-01  9.9962496442522225e-02  9.9933548215915408e-02  9.9961200128965463e-02  9.9963242445942860e-02  9.9949503081960128e-02  9.9978134596488258e-02  9.9972384308062906e-02  9.9949643246849004e-02  9.9991300983566456e-02  9.9970455560447216e-02  9.9979438936754858e-02  9.9985523860044501e-02  9.9987326608222529e-02  9.9987237396801057e-02  9.9995601364341366e-02  9.9994885798057445e-02  9.9996262285693818e-02  1.0000068583683938e-01  1.0000110930730291e-01  1.0000196875456942e-01  1.0000481852388098e-01  1.0000545306789524e-01  1.0000610706096333e-01  1.0000872434923191e-01  1.0000869451832839e-01  1.0001142599503644e-01  1.0001022072477353e-01  1.0001629325460482e-01  1.0000864108263466e-01  1.0002542059371901e-01  1.0000000000000003e-01  1.0000483291123993e-01  1.0000000000000003e-01  1.0000395729903923e-01  1.0000557150375969e-01  1.0000601496069822e-01  1.0000835557848554e-01  1.0000823384758546e-01  1.0000954951922340e-01  1.0001255262799927e-01  1.0001181761693115e-01  1.0001357378220306e-01  1.0001829992870608e-01  1.0001704645406796e-01  1.0001896118116259e-01  1.0002553984214417e-01  1.0001963425117127e-01  1.0002773588558066e-01  1.0002144553777315e-01  1.0003690583824791e-01  1.0002989963575257e-01  1.0004154390465037e-01  1.0003231480522876e-01  1.0004288419659638e-01  1.0005118866485718e-01  1.0004981682994867e-01  1.0005240597718540e-01  1.0007591543440389e-01  1.0004588091320729e-01  1.0009757974908709e-01  1.0001365767190112e-01  1.0017557912593351e-01  9.9978226805870901e-02  9.9923081108948528e-02  9.9944094762666857e-02  9.9949946222380973e-02  9.9963804345945734e-02  9.9964494466985659e-02  9.9955184831257232e-02  9.9982723917039482e-02  9.9956584000000709e-02  9.9978773009342270e-02  9.9976476769452149e-02  9.9982916094384672e-02  9.9977603037590013e-02  9.9990787884891727e-02  9.9988475548529049e-02  9.9990603611436024e-02  9.9996323522641789e-02  9.9996512512258773e-02  9.9997256478368296e-02  1.0000156700733180e-01  1.0000169849185404e-01  1.0000276680285984e-01  1.0000507442870141e-01  1.0000637629614158e-01  1.0000649162030339e-01  1.0001012626115363e-01  1.0000844742208910e-01  1.0001452525715097e-01  1.0000752130759204e-01  1.0002357492324232e-01  1.0000000000000003e-01  1.0000539474654319e-01  1.0000000000000003e-01  1.0000393696947042e-01  1.0000610670112217e-01  1.0000747377291862e-01  1.0000811099863886e-01  1.0000917296718488e-01  1.0001211534968152e-01  1.0001182293519095e-01  1.0001310943149910e-01  1.0001697082103041e-01  1.0001633098188584e-01  1.0001840833243822e-01  1.0002421926589605e-01  1.0002114763648332e-01  1.0002538939103500e-01  1.0002942200067783e-01  1.0003003606493220e-01  1.0002007413824639e-01  1.0005128905351957e-01  1.0003174000579554e-01  1.0004088415727894e-01  1.0005006635347502e-01  1.0004177198697906e-01  1.0005462787677764e-01  1.0006170495189778e-01  1.0006475807373245e-01  1.0005267039517032e-01  1.0010323415341764e-01  1.0001023713908595e-01  1.0017444469494444e-01  9.9968365603914394e-02  9.9935102684333144e-02  9.9933044267627183e-02  9.9964999754317649e-02  9.9951092524695209e-02  9.9949588343103649e-02  9.9971476134454632e-02  9.9967257380522700e-02  9.9968420930117624e-02  9.9966538577253447e-02  9.9985178435439123e-02  9.9968566165656331e-02  9.9988615421713098e-02  9.9982038225738132e-02  9.9985714308718207e-02  9.9992404085278347e-02  9.9993110655030248e-02  9.9993531508209554e-02  9.9998881369533665e-02  9.9999033134751350e-02  1.0000005294992231e-01  1.0000357894869327e-01  1.0000385323784476e-01  1.0000525142895608e-01  1.0000686393916557e-01  1.0000932210251923e-01  1.0000795113046373e-01  1.0001438938687601e-01  1.0000745891477152e-01  1.0002316524223102e-01  1.0000000000000003e-01  1.0000563695706886e-01  1.0000000000000003e-01  1.0000417165528176e-01  1.0000718984714185e-01  1.0000715823538896e-01  1.0000871533281000e-01  1.0001122685011041e-01  1.0001135892272321e-01  1.0001275352640562e-01  1.0001637016227653e-01  1.0001525605119418e-01  1.0001734108634672e-01  1.0002257770482509e-01  1.0002051868655928e-01  1.0002354363977765e-01  1.0002977393052427e-01  1.0002764282975850e-01  1.0002786844124521e-01  1.0004269879396446e-01  1.0001993296943591e-01  1.0005153884096657e-01  1.0004703785681102e-01  1.0004261295645651e-01  1.0004622089297566e-01  1.0006445064448589e-01  1.0004783395721846e-01  1.0006989440464321e-01  1.0006224434839528e-01  1.0008957903400903e-01  1.0001880759256233e-01  1.0017424382708426e-01  9.9958658654443172e-02  9.9924037346245040e-02  9.9945530330080481e-02  9.9955366917859390e-02  9.9938513792813502e-02  9.9963535697609032e-02  9.9958653460437627e-02  9.9958416443194975e-02  9.9974480603738175e-02  9.9978453473896001e-02  9.9956921037322372e-02  9.9991141767435607e-02  9.9974611342769179e-02  9.9981809345982428e-02  9.9986297475062991e-02  9.9989054433080995e-02  9.9988151411770407e-02  9.9995684223927725e-02  9.9995444651957505e-02  9.9996301311237878e-02  1.0000047685289654e-01  1.0000145052099882e-01  1.0000193192518131e-01  1.0000537437827554e-01  1.0000531518939718e-01  1.0000792663460600e-01  1.0000752233741975e-01  1.0001315648874678e-01  1.0000666801335036e-01  1.0002197463392977e-01  1.0000000000000003e-01  1.0000586948066019e-01  1.0000000000000003e-01  1.0000462002523505e-01  1.0000686084138460e-01  1.0000738006342248e-01  1.0001008394924112e-01  1.0001031855850787e-01  1.0001182964421067e-01  1.0001513879899611e-01  1.0001464812514414e-01  1.0001610638183818e-01  1.0002077600099296e-01  1.0001917581487221e-01  1.0002148107125339e-01  1.0002766737852846e-01  1.0002522700047689e-01  1.0002802858644623e-01  1.0003794300351122e-01  1.0002889092191912e-01  1.0004034225652252e-01  1.0003327056633504e-01  1.0005213399942828e-01  1.0004509126595726e-01  1.0005950347865429e-01  1.0004779244051290e-01  1.0005426640923258e-01  1.0007900292903059e-01  1.0004710626101032e-01  1.0009212255668370e-01  1.0003117831474939e-01  1.0015419776690550e-01  9.9974159856802219e-02  9.9900558965131531e-02  9.9939657386879419e-02  9.9944220188940058e-02  9.9951673342925693e-02  9.9955586541214045e-02  9.9948211780129470e-02  9.9967785044154642e-02  9.9969383826174832e-02  9.9965422385465033e-02  9.9985171510191401e-02  9.9966433778466424e-02  9.9983631321263131e-02  9.9980416399856623e-02  9.9987068820274680e-02  9.9981933078211307e-02  9.9992850278515163e-02  9.9991664155705512e-02  9.9992954208151449e-02  9.9998179892911571e-02  9.9998485056812303e-02  9.9999313749085231e-02  1.0000311136209245e-01  1.0000414198785326e-01  1.0000433489399684e-01  1.0000820575188162e-01  1.0000689216385382e-01  1.0001231640701835e-01  1.0000668418749212e-01  1.0002117831079428e-01  1.0000000000000003e-01  1.0000623000709054e-01  1.0000000000000003e-01  1.0000441252149932e-01  1.0000700799668459e-01  1.0000830016200020e-01  1.0000936363779815e-01  1.0001051763084039e-01  1.0001364422163697e-01  1.0001366977135305e-01  1.0001507180651277e-01  1.0001893824495650e-01  1.0001827403325544e-01  1.0001977521310139e-01  1.0002514472848117e-01  1.0002312170506190e-01  1.0002560225185803e-01  1.0003414014873591e-01  1.0002915214222714e-01  1.0003513746432430e-01  1.0004104400900760e-01  1.0004104888278456e-01  1.0002725353843395e-01  1.0007209455002079e-01  1.0004118668449541e-01  1.0005786019918604e-01  1.0006389355507679e-01  1.0006009291617000e-01  1.0005177094212206e-01  1.0010240408281243e-01  1.0001563721466605e-01  1.0015237187670485e-01  9.9982168268901009e-02  9.9892562275506469e-02  9.9924286861397954e-02  9.9956504935062057e-02  9.9947543664974547e-02  9.9944852449911414e-02  9.9959630423733903e-02  9.9962586102226067e-02  9.9957331118847748e-02  9.9977157722299648e-02  9.9975662252807893e-02  9.9977608926754891e-02  9.9972975358011265e-02  9.9990384996329659e-02  9.9975227789455362e-02  9.9991325197891459e-02  9.9986653648800161e-02  9.9989301581171516e-02  9.9994790187476826e-02  9.9995982638506009e-02  9.9996085728654246e-02  1.0000080132957613e-01  1.0000111936113559e-01  1.0000272910225547e-01  1.0000501170926844e-01  1.0000721536030494e-01  1.0000597523694774e-01  1.0001212080016389e-01  1.0000613470486495e-01  1.0002007302459871e-01  1.0000000000000003e-01  1.0000613098736960e-01  1.0000000000000003e-01  1.0000425678935490e-01  1.0000748378255653e-01  1.0000747172223155e-01  1.0000918684059126e-01  1.0001159762284229e-01  1.0001208330672363e-01  1.0001349148949180e-01  1.0001700753646647e-01  1.0001638842389157e-01  1.0001813772739915e-01  1.0002285854154871e-01  1.0002098662314622e-01  1.0002275754021948e-01  1.0002980747124524e-01  1.0002677914953406e-01  1.0003033506011326e-01  1.0003937514959500e-01  1.0003524620306360e-01  1.0003563519574260e-01  1.0005580158327529e-01  1.0002485392616769e-01  1.0006491075857295e-01  1