<?xml version="1.0"?>
<VTKFile type="UnstructuredGrid"  version="0.1"  >
<UnstructuredGrid>
<Piece  NumberOfPoints="1933" NumberOfCells="3640">
<Points>
<DataArray  type="Float64"  NumberOfComponents="3"  format="ascii">-0.0002600080463074361 0.00160935671744265 0  4.999740013548567 0.001538356017064763 0  4.999846581890143 7.501538449792712 0  -0.0001534780183945483 7.501609382380648 0  9.999740029114804 0.001467256279400023 0  9.999846698968058 7.501467377492046 0  14.99974009138322 0.00139597906597046 0  14.99984690741488 7.501396110859162 0  19.99974026553314 0.001324495909479144 0  19.99984724256311 7.501324631416513 0  24.99974061715145 0.00125280972015175 0  24.99984774138498 7.501252946658258 0  29.99974120850127 0.00118094378698899 0  29.99984844177819 7.501181082067969 0  34.99974209832195 0.001108935234937788 0  34.99984938205497 7.501109075852466 0  39.99974334308266 0.001036831357517702 0  39.99985060085307 7.501036975870356 0  44.9997449987786 0.0009646879014863839 0  44.99985213738587 7.500964838210215 0  49.99974712288746 0.0008925687512584379 0  49.99985403189723 7.500892727025047 0  54.99974977634844 0.0008205467017124296 0  54.99985632620416 7.500820715385402 0  59.99975302553387 0.0007487051772697732 0  59.99985906423162 7.500748887044527 0  64.99975694423451 0.0006771408855966244 0  64.9998622924512 7.500677339120863 0  69.99976161568718 0.0006059675093962643 0  69.99986606013134 7.5006061858078 0  74.99976713467834 0.0005353206593657288 0  74.99987041927757 7.500535563331107 0  79.9997736097262 0.0004653644561814125 0  79.99987542408493 7.500465636508375 0  84.99978116530552 0.0003963003051630744 0  84.99988112964516 7.500396607439212 0  89.99978994397692 0.0003283787110432886 0  89.99988758950872 7.500328727096359 0  94.99980010810454 0.0002619154090539706 0  94.99989485150712 7.500262310927526 0  99.99981184047117 0.0001973137535603729 0  99.99990295096825 7.500197760055639 0  104.9998253423856 0.0001350963535803327 0  104.9999119000869 7.500135590323471 0  109.9998408264227 7.5950611870671e-05 0  109.9999216718326 7.500076472281643 0  114.999858498084 2.079548131281157e-05 0  114.9999321765689 7.500021286191062 0  119.9998785149201 -2.911904981049777e-05 0  119.9999432301488 7.499971196839534 0  124.9999009001745 -7.206178651123721e-05 0  124.9999545152851 7.499927752397671 0  129.999925364852 -0.0001055923946840775 0  129.9999655474463 7.499893007008271 0  134.9999509450869 -0.0001262192390719627 0  134.9999756821373 7.499869652775442 0  139.9999752638555 -0.0001289155862014622 0  139.9999842659369 7.499861116207195 0  144.9999930099955 -0.0001066029502729119 0  144.9999912017667 7.499871546701001 0  149.9999926774752 -5.058649823767894e-05 0  149.9999986632146 7.499905859801639 0  160.0000000000009 8.518518603058053e-19 0  164.9998603237476 -0.0001844853791645192 0  164.9999757228541 7.499788949167012 0  160.0000178613399 7.499936779480819 0  169.9997804488985 -0.0003463955948637827 0  169.9999328908364 7.499640152753576 0  174.9997332856312 -0.0004918776796106649 0  174.9998970672066 7.499500635445576 0  179.9997049012675 -0.0006242579490032239 0  179.9998691406558 7.499371361324964 0  184.9996876982939 -0.0007461800214190594 0  184.9998481015878 7.499251168230287 0  189.9996773715907 -0.000859797323376093 0  189.9998325741048 7.49913855096326 0  194.999671399214 -0.0009668104159470795 0  194.9998212954533 7.499032133936013 0  199.9996682538296 -0.001068535600169229 0  199.999813235592 7.498930774516956 0  204.999666978348 -0.001165985902850136 0  204.9998075942582 7.498833555483927 0  209.9996669522731 -0.001259944072848276 0  209.9998037625676 7.498739748069705 0  214.9996677601006 -0.001351020844896193 0  214.999801280575 7.498648772554241 0  219.9996691153152 -0.001439698847983219 0  219.9997998008199 7.498560164505742 0  224.9996708152628 -0.001526364855124097 0  224.9997990597846 7.498473548080415 0  229.9996727135459 -0.001611333277162215 0  229.9997988564644 7.498388615602201 0  234.9996747026101 -0.001694863316251756 0  234.9997990365829 7.498305112135229 0  239.9996767024222 -0.00177717159934752 0  239.9997994810414 7.49822282383565 0  244.9996786529093 -0.001858441602137361 0  244.9998000974747 7.498141569102078 0  249.9996805087857 -0.001938830787163192 0  249.9998008140578 7.498061191781027 0  254.9996822359689 -0.00201847610187367 0  254.9998015749576 7.497981555881974 0  259.9996838090797 -0.002097498286322045 0  259.9998023369809 7.497902541408759 0  264.9996852097498 -0.002176005301048167 0  264.9998030671178 7.497824041029645 0  269.9996864255388 -0.002254095082430835 0  269.9998037407632 7.497745957397453 0  274.9996874493954 -0.002331857747646398 0  274.9998043404485 7.497668201006757 0  279.9996882796164 -0.002409377286251063 0  279.9998048549755 7.497590688547965 0  284.9996889203384 -0.002486732667200978 0  284.999805278845 7.497513341803595 0  289.9996893825761 -0.002563998121187696 0  289.9998056118766 7.497436087245057 0  294.9996896858643 -0.002641242059228116 0  294.9998058589361 7.497358856649945 0  299.9996898603377 -0.002718523519869802 0  299.9998060296792 7.497281589286785 0  304.9996899486923 -0.002795883903070356 0  304.9998061384671 7.497204236496499 0  309.9996900061944 -0.002873329401119366 0  309.9998062052543 7.497126769742157 0  4.999952793438903 15.00153868131039 0  -4.727650631669578e-05 15.00160945010166 0  9.999952923641303 15.0014676737711 0  14.99995314633618 15.00139642560993 0  19.99995348536625 15.00132494573992 0  24.99995396165263 15.00125325534585 0  29.99995459548525 15.00118138654546 0  34.99995540728698 15.00110938063367 0  39.99995641773555 15.00103728682619 0  44.99995764763985 15.00096516176513 0  49.99995911771552 15.00089306981671 0  54.99996084828329 15.00082108413976 0  59.99996285885057 15.00074928852592 0  64.99996516750841 15.00067778006223 0  69.99996779004583 15.00060667273114 0  74.99997073866545 15.00053610214036 0  79.99997402015252 15.00046623166451 0  84.99997763332917 15.00039726038814 0  89.99998156560639 15.00032943336446 0  94.9999857884778 15.00026305483514 0  99.99999025189699 15.00019850516234 0  104.9999948778062 15.00013626221349 0  109.9999995537504 15.00007692761049 0  115.0000041289431 15.00002125715939 0  120.0000084178445 14.99997019197748 0  125.0000122211439 14.99992488041083 0  130.0000153819715 14.99988666690146 0  135.0000179064673 14.99985699453122 0  140.0000201888992 14.99983710510799 0  145.0000233734879 14.99982727384627 0  150.0000297809704 14.99982488662455 0  165.0000458340635 14.99971639289021 0  160.0000528746965 14.99982675804438 0  170.0000309980831 14.99959563754883 0  175.0000131023605 14.99947350911113 0  179.9999954426375 14.99935462290993 0  184.9999796201994 14.9992406318311 0  189.9999661936798 14.9991317628334 0  194.9999551829118 14.99902765299919 0  199.9999463655023 14.9989277453468 0  204.9999394343195 14.99883146224821 0  209.9999340746897 14.9987382736577 0  214.9999299983439 14.99864771771584 0  219.9999269552829 14.99855940108222 0  224.9999247350689 14.99847299164536 0  229.9999231635418 14.99838820922672 0  234.9999220979841 14.99830481659447 0  239.9999214221273 14.99822261159586 0  244.9999210416134 14.99814142056416 0  249.999920880107 14.99806109289976 0  254.9999208760711 14.99798149664489 0  259.9999209801477 14.99790251486978 0  264.9999211530418 14.997824042713 0  269.9999213638284 14.99774598495599 0  274.9999215885853 14.99766825404854 0  279.9999218092687 14.99759076854038 0  284.9999220127905 14.99751345190722 0  289.9999221902135 14.99743623178178 0  294.9999223361287 14.99735903957666 0  299.9999224483064 14.99728181034131 0  304.9999225280022 14.99720448220038 0  309.99992258165 14.9971269932877 0  5.000058555342587 22.50153918344467 0  5.848467069807795e-05 22.50160977480153 0  10.00005866919596 22.50146825040622 0  15.00005885218288 22.50139702191293 0  20.00005912044461 22.50132553709115 0  25.00005948475696 22.50125383481673 0  30.00005995318572 22.50118195698145 0  35.00006053239026 22.50110994994721 0  40.00006122806201 22.50103786531232 0  45.00006204484387 22.50096576060981 0  50.00006298593604 22.50089370025842 0  55.00006405248438 22.50082175693533 0  60.00006524278255 22.50075001347768 0  65.00006655127926 22.50067856540802 0  70.00006796736132 22.50060752418919 0  75.0000694738808 22.50053702134038 0  80.0000710454112 22.50046721356928 0  85.00007264625505 22.50039828909069 0  90.00007422831847 22.5003304752837 0  95.00007572913002 22.50026404775272 0  100.0000770705632 22.50019934062482 0  105.0000781592999 22.50013675741016 0  110.0000788908193 22.50007678072472 0  115.0000791597946 22.5000199772207 0  120.0000788812244 22.49996699049183 0  125.0000780281409 22.49991850844984 0  130.0000766922968 22.49987518119638 0  135.0000751711321 22.49983744917123 0  140.0000740712247 22.49980521964292 0  145.0000743820984 22.49977731338129 0  150.0000773915985 22.49975065715239 0  165.0001069090837 22.49963603587657 0  160.0000973728023 22.49972395999803 0  170.0001089648963 22.49953671268396 0  175.0001056196154 22.49943183008222 0  180.0000991035856 22.49932555750166 0  185.0000911866769 22.49922039032217 0  190.0000830412206 22.49911758247497 0  195.0000753480854 22.49901761924778 0  200.0000684480932 22.49892056030926 0  205.0000624687917 22.49882625226212 0  210.000057414011 22.49873444967048 0  215.0000532218855 22.49864487976468 0  220.0000498003279 22.49855727474841 0  225.0000470476509 22.49847138630009 0  230.000044863887 22.49838699068815 0  235.0000431565062 22.4983038891814 0  240.0000418428702 22.49822190628251 0  245.0000408508655 22.49814088710533 0  250.0000401185701 22.4980606945583 0  255.0000395934599 22.49798120664499 0  260.0000392314196 22.49790231401166 0  265.0000389957266 22.49782391778088 0  270.0000388560601 22.49774592766921 0  275.0000387875808 22.49766826036942 0  280.0000387700779 22.49759083816711 0  285.0000387871946 22.49751358774568 0  290.0000388257459 22.49743643908869 0  295.0000388751918 22.49735932428314
[...]
<PointData  Scalars="p"> 
<DataArray  type="Float64"  Name="p"  format="ascii">1.0000000000000001e-01  1.0000000000000003e-01  1.0000389868849228e-01  1.0000000000000003e-01  1.0000000000000003e-01  1.0000453204952900e-01  1.0000000000000003e-01  1.0000684394753614e-01  1.0000000000000003e-01  1.0000801766439639e-01  1.0000000000000003e-01  1.0000968398520768e-01  1.0000000000000003e-01  1.0001242142362414e-01  1.0000000000000003e-01  1.0001364567938592e-01  1.0000000000000003e-01  1.0001552181270953e-01  1.0000000000000003e-01  1.0001860897969136e-01  1.0000000000000003e-01  1.0001906462176581e-01  1.0000000000000003e-01  1.0002672288380347e-01  1.0000000000000003e-01  1.0003094895110064e-01  1.0000000000000003e-01  1.0003546930866557e-01  1.0000000000000003e-01  1.0003911225180361e-01  1.0000000000000003e-01  1.0004648958081418e-01  1.0000000000000003e-01  1.0004947215368590e-01  1.0000000000000003e-01  1.0005489908102250e-01  1.0000000000000003e-01  1.0006322736761546e-01  1.0000000000000003e-01  1.0006569273049676e-01  1.0000000000000003e-01  1.0007398982221724e-01  1.0000000000000003e-01  1.0007904523842354e-01  1.0000000000000003e-01  1.0008810582483502e-01  1.0000000000000003e-01  1.0008597408267439e-01  1.0000000000000003e-01  1.0010864869339250e-01  1.0000000000000003e-01  1.0008788319983571e-01  1.0000000000000003e-01  1.0013415579098028e-01  1.0000000000000003e-01  1.0008158108683701e-01  1.0000000000000003e-01  1.0016940374867017e-01  1.0000000000000003e-01  1.0006434299584854e-01  1.0000000000000001e-01  1.0022914751598348e-01  1.0000000000000001e-01  1.0000000000000003e-01  9.9813970864255447e-02  9.9617561015376568e-02  1.0000000000000003e-01  9.9945781387351565e-02  1.0000000000000003e-01  9.9853039894272536e-02  1.0000000000000003e-01  9.9902883087091984e-02  1.0000000000000003e-01  9.9887903037834777e-02  1.0000000000000003e-01  9.9900756055836357e-02  1.0000000000000003e-01  9.9894659489869572e-02  1.0000000000000003e-01  9.9905520134796172e-02  1.0000000000000003e-01  9.9903880226087330e-02  1.0000000000000003e-01  9.9907540062922892e-02  1.0000000000000003e-01  9.9910711175031058e-02  1.0000000000000003e-01  9.9913037475547542e-02  1.0000000000000003e-01  9.9914579568943784e-02  1.0000000000000003e-01  9.9917790224526362e-02  1.0000000000000003e-01  9.9919300772034383e-02  1.0000000000000003e-01  9.9920949647427801e-02  1.0000000000000003e-01  9.9922995222684760e-02  1.0000000000000003e-01  9.9924494851534928e-02  1.0000000000000003e-01  9.9925483006378088e-02  1.0000000000000003e-01  9.9927423727666762e-02  1.0000000000000003e-01  9.9927833412192232e-02  1.0000000000000003e-01  9.9929932443726652e-02  1.0000000000000003e-01  9.9929129511448209e-02  1.0000000000000003e-01  9.9933318639367094e-02  1.0000000000000003e-01  9.9928278125774955e-02  1.0000000000000003e-01  9.9939026694788977e-02  1.0000000000000003e-01  9.9922999034322196e-02  1.0000000000000003e-01  9.9951374025518361e-02  1.0000000000000003e-01  9.9902865494254756e-02  1.0000000000000001e-01  1.0000000000000003e-01  1.0000641931029468e-01  1.0000000000000003e-01  1.0000636054238493e-01  1.0000681824499112e-01  1.0000770475140164e-01  1.0001001979634890e-01  1.0000984930633891e-01  1.0001028384113382e-01  1.0001363333145510e-01  1.0001208293878712e-01  1.0001342331342818e-01  1.0001648139772434e-01  1.0002438059564717e-01  1.0002209306204861e-01  1.0003063248358228e-01  1.0002688900914086e-01  1.0003018201036296e-01  1.0003689556772979e-01  1.0003498569757699e-01  1.0003719079094077e-01  1.0004724750198632e-01  1.0004094065432259e-01  1.0004977121182397e-01  1.0004898072519924e-01  1.0005922045450399e-01  1.0004009164833044e-01  1.0008604577971819e-01  1.0001097160274992e-01  1.0014174628551076e-01  9.9942202434487495e-02  1.0023250849104404e-01  1.0016160978667588e-01  9.9413976641784890e-02  9.9824111405960564e-02  9.9972101229051230e-02  9.9948291036613152e-02  9.9958421121978863e-02  9.9938224895993535e-02  9.9961940532097032e-02  9.9950237068973338e-02  9.9953189864138980e-02  9.9957902562751749e-02  9.9958129555085859e-02  9.9957542783924727e-02  9.9962435257889198e-02  9.9962529132734415e-02  9.9963077804038555e-02  9.9965919245788487e-02  9.9966471192936682e-02  9.9967015431068160e-02  9.9968778307381018e-02  9.9969650077137137e-02  9.9969642187542701e-02  9.9971851617354196e-02  9.9970880849789723e-02  9.9973951755476895e-02  9.9970466450583773e-02  9.9978722637024994e-02  9.9965157969888752e-02  9.9989874249842348e-02  9.9952634856506989e-02  1.0000000000000003e-01  1.0000947991752634e-01  1.0000000000000003e-01  1.0000640998797473e-01  1.0000954096235803e-01  1.0001192846140014e-01  1.0001238286276996e-01  1.0001286040217282e-01  1.0001774219991398e-01  1.0001658654394215e-01  1.0001685332399922e-01  1.0002242240544681e-01  1.0002360423104209e-01  1.0001992956598964e-01  1.0004283795046567e-01  1.0003499106928929e-01  1.0003977779077436e-01  1.0005017750107909e-01  1.0004541823096334e-01  1.0004971636048925e-01  1.0006284493768661e-01  1.0005778976262941e-01  1.0006100169985110e-01  1.0007943938033510e-01  1.0006408725613886e-01  1.0008455108357779e-01  1.0007236900895952e-01  1.0010416264811835e-01  1.0004652261579544e-01  1.0017062048120538e-01  9.9946478378833276e-02  1.0036483386206793e-01  1.0011672384507643e-01  9.9457642983114672e-02  9.9717701276907156e-02  9.9941303609337909e-02  9.9926073432891019e-02  9.9879555925976152e-02  9.9942921553602515e-02  9.9907247994765511e-02  9.9915035944369471e-02  9.9924503050852820e-02  9.9923300063139667e-02  9.9920562957713815e-02  9.9930597220229359e-02  9.9929337652117547e-02  9.9930013025122541e-02  9.9935639805334972e-02  9.9936304503456960e-02  9.9936674594122629e-02  9.9940602215359678e-02  9.9941145731707051e-02  9.9942046191870595e-02  9.9944094807036837e-02  9.9945662902012733e-02  9.9944970236828551e-02  9.9949086320639313e-02  9.9945766804477337e-02  9.9953131070366810e-02  9.9942847867463575e-02  9.9964294701000864e-02  9.9925036049056670e-02  1.0000000000000003e-01  1.0001136186697665e-01  1.0000000000000003e-01  1.0000727599426833e-01  1.0001263539635745e-01  1.0001208454423863e-01  1.0001262110243829e-01  1.0001769257016629e-01  1.0001634678540182e-01  1.0001633516519820e-01  1.0002259533559874e-01  1.0001999239317889e-01  1.0001971000979501e-01  1.0003311714628163e-01  1.0002111858438334e-01  1.0003967360498796e-01  1.0004568299725491e-01  1.0004188774056025e-01  1.0004200908472560e-01  1.0005784890514287e-01  1.0004721287636570e-01  1.0005379849978438e-01  1.0006631573616444e-01  1.0006112515749994e-01  1.0005738109722552e-01  1.0008798230349322e-01  1.0004762038715491e-01  1.0010552915727354e-01  1.0002502895931842e-01  1.0017120294208651e-01  9.9910799649306992e-02  1.0038735707951736e-01  1.0012066222922147e-01  9.9331025120664829e-02  9.9812441594269122e-02  9.9982259535250431e-02  9.9809334716584486e-02  1.0000138811901804e-01  9.9907894622479232e-02  9.9932365852799798e-02  9.9937384036928589e-02  9.9938128944563026e-02  9.9928721895221048e-02  9.9945143592158031e-02  9.9940292842895545e-02  9.9940411848173163e-02  9.9947789593737443e-02  9.9948052612312890e-02  9.9947897172158615e-02  9.9953186867405078e-02  9.9953644421164417e-02  9.9953869337144757e-02  9.9957463752577899e-02  9.9957622746301544e-02  9.9959045010750758e-02  9.9959749486429855e-02  9.9963076392849570e-02  9.9959169769653855e-02  9.9968637986862507e-02  9.9955606086834264e-02  9.9979052769285162e-02  9.9942985066954829e-02  1.0000000000000003e-01  1.0001329454543369e-01  1.0000000000000003e-01  1.0000927248906111e-01  1.0001300316495799e-01  1.0001215624308059e-01  1.0001825789348333e-01  1.0001672274271139e-01  1.0001746706660930e-01  1.0002426621823021e-01  1.0002130382067334e-01  1.0002074854652657e-01  1.0003241035218953e-01  1.0002590687432798e-01  1.0003114744049596e-01  1.0003452310914360e-01  1.0004833528330560e-01  1.0004357462424464e-01  1.0006270144923902e-01  1.0005006370151630e-01  1.0005407788310706e-01  1.0007380801943375e-01  1.0005822735147715e-01  1.0006854560249354e-01  1.0007944621926286e-01  1.0007973562020252e-01  1.0005919252531538e-01  1.0012304743591730e-01  1.0002026870319185e-01  1.0019329696334581e-01  9.9895594290692807e-02  1.0045045325061519e-01  1.0023286357680879e-01  9.9241965066835747e-02  9.9757801311533098e-02  9.9921131330950805e-02  9.9891707686833600e-02  9.9888929397091375e-02  9.9918446101607328e-02  9.9922864259102920e-02  9.9932011872192208e-02  9.9905859531147181e-02  9.9936326857925181e-02  9.9925058209293718e-02  9.9924740546059834e-02  9.9935227910061042e-02  9.9934660680041032e-02  9.9933078404446624e-02  9.9941497494953610e-02  9.9941463758081897e-02  9.9941636904635436e-02  9.9946472024013841e-02  9.9947354509068637e-02  9.9947250087017589e-02  9.9951275031347223e-02  9.9950706857286145e-02  9.9953575663260033e-02  9.9951936535369643e-02  9.9959214135902807e-02  9.9948361886191980e-02  9.9970763587509393e-02  9.9933600221261548e-02  1.0000000000000003e-01  1.0001558720488479e-01  1.0000000000000003e-01  1.0000935207631105e-01  1.0001356204431107e-01  1.0001628419272683e-01  1.0001682547585436e-01  1.0001691865526680e-01  1.0002390339272112e-01  1.0002192640179147e-01  1.0002088597775373e-01  1.0003082346633943e-01  1.0002664495130435e-01  1.0002773671010294e-01  1.0003902299073704e-01  1.0003623868618518e-01  1.0002430201678869e-01  1.0006825694558874e-01  1.0004712104620678e-01  1.0005384915230763e-01  1.0007175689902660e-01  1.0005762755571217e-01  1.0005876381971558e-01  1.0008840588451785e-01  1.0005901672547023e-01  1.0008223745798667e-01  1.0007416188434123e-01  1.0010823064262300e-01  1.0001632028149353e-01  1.0021404705475712e-01  9.9858494254324678e-02  1.0050168246683601e-01  1.0022481073533079e-01  9.9265348635937681e-02  9.9704537884688416e-02  1.0001696687462219e-01  9.9868054584819579e-02  9.9894492175571753e-02  9.9885646657701013e-02  9.9963626725199567e-02  9.9889041093049413e-02  9.9952134954595609e-02  9.9923219862078125e-02  9.9925208593302825e-02  9.9937971453478880e-02  9.9937128677584780e-02  9.9932272375968509e-02  9.9944390727768312e-02  9.9942956407814115e-02  9.9942476944845066e-02  9.9949728951444911e-02  9.9949945088506201e-02  9.9950003309411672e-02  9.9954238804175283e-02  9.9955540506697110e-02  9.9954566713109705e-02  9.9959892557069926e-02  9.9956455998066934e-02  9.9964262383296962e-02  9.9953948239979939e-02  9.9975544283409323e-02  9.9940739787260549e-02  1.0000000000000003e-01  1.0001684193516364e-01  1.0000000000000003e-01  1.0000951294164261e-01  1.0001739039832609e-01  1.0001535876939341e-01  1.0001682573701211e-01  1.0002279858631022e-01  1.0002213353352618e-01  1.0002109365775395e-01  1.0003097220371478e-01  1.0002657327683850e-01  1.0002682250273383e-01  1.0004032141526212e-01  1.0003442925058149e-01  1.0003052809370386e-01  1.0005448377498015e-01  1.0002828471110090e-01  1.0005903049182877e-01  1.0007252858393108e-01  1.0005878183139415e-01  1.0006064962572214e-01  1.0008516505060798e-01  1.0006734569568181e-01  1.0006483279659578e-01  1.0010773067991276e-01  1.0005429135672940e-01  1.0011501403980981e-01  1.0003617160663363e-01  1.0020507417680649e-01  9.9851044929460911e-02  1.0055282014000891e-01  1.0020801619299018e-01  9.9206765205080413e-02  9.9758862988963692e-02  9.9993333052105282e-02  9.9830735028454673e-02  9.9938915740072756e-02  9.9900264295946214e-02  9.9856298962203757e-02  9.9962402255369356e-02  9.9911500541974715e-02  9.9922138972584382e-02  9.9929824740937090e-02  9.9933011143076289e-02  9.9922397721168885e-02  9.9939751029338331e-02  9.9936303896586323e-02  9.9934804202181607e-02  9.9943717344491895e-02  9.9944330033140627e-02  9.9943506399169685e-02  9.9950032441685377e-02  9.9950084040287462e-02  9.9950991834448943e-02  9.9953566950029174e-02  9.9956431717017430e-02  9.9953368662787478e-02  9.9962147401892826e-02  9.9951579060889653e-02  9.9972683322824232e-02  9.9938460593557571e-02  1.0000000000000003e-01  1.0001793740669083e-01  1.0000000000000003e-01  1.0001153281143656e-01  1.0001705321192098e-01  1.0001514177910374e-01  1.0002190152928700e-01  1.0002063965949734e-01  1.0002074557852830e-01  1.0002978904877696e-01  1.0002624095440993e-01  1.0002562791153670e-01  1.0003900656301627e-01  1.0003338907597278e-01  1.0003196539954419e-01  1.0005070308363950e-01  1.0003528500055198e-01  1.0004250605598462e-01  1.0004776658636186e-01  1.0006563132121403e-01  1.0005627205701209e-01  1.0009010620056320e-01  1.0006040353803770e-01  1.0007121576927630e-01  1.0009246595742564e-01  1.0008110856743989e-01  1.0005657367764352e-01  1.0014295454337362e-01  1.0000913848524752e-01  1.0021536419196898e-01  9.9855338015801598e-02  1.0056835077384416e-01  1.0027734708853024e-01  9.9144170443094704e-02  9.9730394782269124e-02  9.9965898702149142e-02  9.9882677549775298e-02  9.9937901025107148e-02  9.9865078848911784e-02  9.9928556808223115e-02  9.9880930329175832e-02  9.9937531333634172e-02  9.9921370481766747e-02  9.9941805674378686e-02  9.9914449211866388e-02  9.9942444376307241e-02  9.9934725306791344e-02  9.9932552730520374e-02  9.9943531287407392e-02  9.9943351869554123e-02  9.9941048811213545e-02  9.9949827728879864e-02  9.9950280251060675e-02  9.9949586219261907e-02  9.9955520567412096e-02  9.9954945125202338e-02  9.9957334840876530e-02  9.9956843530757039e-02  9.9963984875671069e-02  9.9953596226196054e-02  9.9974997939877353e-02  9.9941777846379962e-02  1.0000000000000003e-01  1.0001959586647403e-01  1.0000000000000003e-01  1.0001122752125512e-01  1.0001700082134198e-01  1.0001900433572562e-01  1.0002045238412195e-01  1.0001938843168508e-01  1.0002789495156197e-01  1.0002569536342812e-01  1.0002484443118637e-01  1.0003614988292767e-01  1.0003284075757508e-01  1.0003126936369677e-01  1.0004842260276973e-01  1.0003828354015618e-01  1.0003779638691396e-01  1.0005571478688295e-01  1.0004753823552077e-01  1.0002862106163155e-01  1.0009570193523684e-01  1.0006130561405621e-01  1.0006688417313490e-01  1.0010237054014266e-01  1.0006316464966876e-01  1.0008352560997488e-01  1.0009182366640311e-01  1.0011125506439504e-01  1.0001200548203414e-01  1.0024786112575444e-01  9.9822966120317255e-02  1.0059454057730764e-01  1.0028085898718390e-01  9.9157810065642421e-02  9.9691527859449125e-02  1.0001671417123727e-01  9.9868119841349079e-02  9.9903230806071719e-02  9.9914319745380495e-02  9.9914793756119724e-02  9.9885524375569454e-02  9.9895291763117761e-02  9.9956272178523167e-02  9.9900389168166279e-02  9.9947807216859308e-02  9.9928940385011655e-02  9.9928569955432422e-02  9.9940400685883835e-02  9.9941159229929244e-02  9.9935841192173802e-02  9.9947201010711598e-02  9.9946424944757334e-02  9.9945891349153937e-02  9.9952586555168976e-02  9.9953874092732972e-02  9.9952485868333760e-02  9.9958907002228273e-02  9.9956041199575976e-02  9.9962637739619470e-02  9.9954410888752593e-02  9.9974132295719095e-02  9.9941846612935828e-02  1.0000000000000003e-01  1.0002024268141189e-01  1.0000000000000003e-01  1.0001104869511493e-01  1.0002026985440052e-01  1.0001785823712250e-01  1.0001958112298845e-01  1.0002549120311449e-01  1.0002484955779367e-01  1.0002378248973756e-01  1.0003408196347281e-01  1.0003091648004660e-01  1.0002963447598352e-01  1.0004595119479738e-01  1.0003868871291012e-01  1.0003622057084194e-01  1.0005624235369880e-01  1.0004473561667339e-01  1.0003647821809336e-01  1.0007444907263516e-01  1.0003043335977801e-01  1.0007512569491221e-01  1.0009545874360994e-01  1.0007364446008124e-01  1.0006543741248335e-01  1.0012292167762077e-01  1.0005292075827280e-01  1.0011412044778913e-01  1.0004982736939713e-01  1.0021434660785070e-01  9.9821306490435205e-02  1.0063796620146633e-01  1.0026555551624683e-01  9.9133634849695590e-02  9.9725067217945981e-02  1.0001211553491836e-01  9.9835398470913730e-02  9.9948235993970597e-02  9.9905569349398496e-02  9.9896990036570349e-02  9.9914918687795784e-02  9.9920279291675379e-02  9.9870825058619689e-02  9.9964312978358269e-02  9.9921120238681466e-02  9.9932624501193335e-02  9.9936596398505079e-02  9.9942387078623546e-02  9.9932214883007561e-02  9.9947297042455793e-02  9.9945445141038855e-02  9.9943057495866891e-02  9.9951510803906310e-02  9.9952221143558992e-02  9.9952082179803295e-02  9.9956718538297767e-02  9.9959316606373097e-02  9.9956199173429142e-02  9.9965200090711623e-02  9.9955698928126710e-02  9.9974812012814065e-02  9.9944282664170159e-02  1.0000000000000003e-01  1.0002074867027197e-01  1.0000000000000003e-01  1.0001257299109929e-01  1.0001959256777428e-01  1.0001698997954764e-01  1.0002410246758360e-01  1.0002295569188283e-01  1.0002303636341865e-01  1.0003143620902420e-01  1.0002924766701095e-01  1.0002750555953423e-01  1.0004206791944932e-01  1.0003697763710523e-01  1.0003526500246233e-01  1.0005396359842504e-01  1.0004336588692675e-01  1.0003906051797612e-01  1.0006693877694040e-01  1.0004228510309295e-01  1.0004979048201347e-01  1.0006251164103937e-01  1.0007746822641253e-01  1.0006951987438704e-01  1.0011106436224813e-01  1.0007875232756590e-01  1.0005823245545929e-01  1.0015757422391203e-01  1.0000812758894216e-01  1.0021351175459038e-01  9.9862692134754252e-02  1.0060624630103031e-01  1.0030741386556220e-01  9.9091330688245910e-02  9.9718279689608488e-02  9.9986597137525071e-02  9.9870861390152249e-02  9.9942851876063776e-02  9.9878280044918222e-02  9.9929568400238006e-02  9.9918991915341565e-02  9.9894042260058422e-02  9.9925086643194480e-02  9.9897646460679085e-02  9.9944016129462146e-02  9.9928757608724231e-02  9.9948295612060700e-02  9.9925487158935011e-02  9.9948054185260371e-02  9.9943331984825814e-02  9.9940752520880249e-02  9.9950053430142183e-02  9.9950560207718669e-02  9.9947890596351813e-02  9.9956411398733819e-02  9.9955978127131626e-02  9.9957623860428363e-02  9.9958778735149231e-02  9.9965138490080138e-02  9.9955714134304194e-02  9.9975548372874951e-02  9.9945395705605636e-02  1.0000000000000003e-01  1.0002190133053084e-01  1.0000000000000003e-01  1.0001219358231472e-01  1.0001912898626947e-01  1.0002026803143192e-01  1.0002253312243389e-01  1.0002126787135845e-01  1.0002936143142041e-01  1.0002786525600142e-01  1.0002625082718772e-01  1.0003767843409116e-01  1.0003505852676506e-01  1.0003312344727007e-01  1.0005002792012685e-01  1.0004320346222055e-01  1.0003829658716348e-01  1.0006276231798807e-01  1.0004629256679179e-01  1.0004386971387395e-01  1.0007027164444156e-01  1.0005640244905276e-01  1.0002623150698706e-01  1.0012628805788508e-01  1.0006223656363204e-01  1.0008620333017357e-01  1.0010798818115614e-01  1.0010470887519417e-01  1.0001122407919329e-01  1.0026193125349776e-01  9.9820456010735081e-02  1.0060142160003581e-01  1.0032162934032357e-01  9.9108366574047882e-02  9.9687617002625808e-02  1.0002006120994125e-01  9.9869456303547557e-02  9.9916531206052997e-02  9.9910058831367290e-02  9.9929701522608133e-02  9.9893537409251137e-02  9.9930572989366667e-02  9.9920229168698901e-02  9.9907210490817744e-02  9.9905800285650173e-02  9.9963770444192385e-02  9.9916093255747268e-02  9.9954417655533687e-02  9.9940449121683914e-02  9.9939984927415404e-02  9.9949270479792462e-02  9.9950804165167398e-02  9.9946199430303737e-02  9.9954900200482616e-02  9.9955480702333302e-02  9.9954003291497076e-02  9.9961543511247336e-02  9.9959378710088018e-02  9.9964757237547802e-02  9.9958489831706618e-02  9.9976084920255073e-02  9.9947207309863714e-02  1.0000000000000003e-01  1.0002212624074583e-01  1.0000000000000003e-01  1.0001173929069491e-01  1.0002161306721748e-01  1.0001896947737728e-01  1.0002121909066096e-01  1.0002623427459321e-01  1.0002646733276997e-01  1.0002517233420621e-01  1.0003469316547925e-01  1.0003223343658317e-01  1.0003084711543077e-01  1.0004562028193639e-01  1.0004121492691143e-01  1.0003680275944780e-01  1.0005828590379583e-01  1.0004752005121671e-01  1.0004098551762690e-01  1.0007027718855033e-01  1.0005168292090602e-01  1.0003909757001934e-01  1.0009211673856928e-01  1.0003144541443522e-01  1.0007941801147591e-01  1