<?xml version="1.0"?>
<VTKFile type="UnstructuredGrid"  version="0.1"  >
<UnstructuredGrid>
<Piece  NumberOfPoints="1933" NumberOfCells="3640">
<Points>
<DataArray  type="Float64"  NumberOfComponents="3"  format="ascii">0.0003063091411272811 -0.003066696524321357 0  5.0003063767505 -0.002990739025596186 0  5.000192422215863 7.497009420902668 0  0.0001923299475373175 7.496933424015082 0  10.00030649047567 -0.002914901307371261 0  10.00019257401892 7.49708526449714 0  15.00030671418159 -0.002839175804087516 0  15.00019280903912 7.497160985754499 0  20.00030710209058 -0.002763513488608109 0  20.00019314652314 7.497236641700088 0  25.00030769518822 -0.002687844022069026 0  25.00019360134743 7.497312305349758 0  30.00030852241755 -0.002612085174207065 0  30.00019418330001 7.497388059665432 0  35.00030960288567 -0.002536146954007102 0  35.00019489654267 7.497463994659632 0  40.00031094784824 -0.002459932899845953 0  40.00019573923309 7.497540206574423 0  45.00031256212755 -0.002383339725954694 0  45.00019670312672 7.497616798407565 0  50.00031444491215 -0.002306255914810683 0  50.00019777298066 7.497693881371615 0  55.00031658996304 -0.002228559518462042 0  55.00019892562013 7.497771577090335 0  60.00031898523582 -0.00215011523743196 0  60.0002001285302 7.497850020486932 0  65.00032161188884 -0.002070770712182232 0  65.00020133781693 7.497929363431212 0  70.00032444256584 -0.001990351848968362 0  70.0002024953412 7.498009779310226 0  75.00032743875185 -0.001908656881924559 0  75.00020352474988 7.498091468788447 0  80.00033054683938 -0.001825448722224037 0  80.00020432601342 7.498174667143555 0  85.00033369231542 -0.001740444935920096 0  85.00020476793289 7.498259653714443 0  90.0003367710719 -0.001653304388644346 0  90.0002046778537 7.498346764189271 0  95.00033963618054 -0.001563609148018044 0  95.00020382756111 7.498436406689253 0  100.0003420772711 -0.001470839576441499 0  100.0002019140428 7.498529082833937 0  105.0003437875446 -0.001374339598999093 0  105.0001985335778 7.498625415090237 0  110.0003443095577 -0.001273267835663629 0  110.0001931477908 7.498726181391906 0  115.0003429438126 -0.00116652872433451 0  115.0001850416417 7.498832356505566 0  120.0003385909152 -0.001052676504132588 0  120.0001732775673 7.498945155135374 0  125.0003294733243 -0.0009297860687090097 0  125.0001566612029 7.499066060384856 0  130.0003126362949 -0.0007952948859352192 0  130.0001337609267 7.499196794663659 0  135.0002830403868 -0.0006458603029983806 0  135.0001030844322 7.499339132487251 0  140.0002318921387 -0.0004774166939135254 0  140.0000636499978 7.499494342222834 0  145.0001435309474 -0.0002861222260859807 0  145.0000164860375 7.499661884140921 0  149.9999894465186 -7.290841112706231e-05 0  149.9999682819522 7.499837123333115 0  159.999999999998 1.056440070794662e-18 0  164.9999603163727 -0.0001161392887002002 0  164.9999953529716 7.499857874429389 0  159.9999970718607 7.499940252346684 0  169.9999618149784 -0.0001835798761009532 0  169.9999931944226 7.499803729579871 0  174.9999809281525 -0.0002170331190573506 0  174.9999953296094 7.49977643090831 0  180.0000066478137 -0.0002257661068631659 0  180.0000016092037 7.499770797384129 0  185.0000337838423 -0.0002162554787946694 0  185.0000107879776 7.499781936071355 0  190.0000599520899 -0.0001931349152411666 0  190.0000216295621 7.499805932836929 0  195.0000841394259 -0.0001597456212663754 0  195.0000331794393 7.499839801944835 0  200.0001060000811 -0.0001185173154939582 0  200.0000447766536 7.499881296702385 0  205.0001255063788 -7.123706102530481e-05 0  205.000055995214 7.49992872651741 0  210.0001427747782 -1.923703163538763e-05 0  210.0000665787534 7.499980810959795 0  215.0001579795679 3.647528801412758e-05 0  215.0000763867544 7.500036570762733 0  220.0001713106315 9.512679571363163e-05 0  220.0000853549761 7.500095248488784 0  225.0001829534472 0.0001561157227238597 0  225.0000934678885 7.500156251239735 0  230.0001930803098 0.0002189671329113144 0  230.0001007400923 7.500219109216518 0  235.0002018471948 0.0002833010876282316 0  235.000107204075 7.500283445533769 0  240.000209393427 0.0003488095369589519 0  240.0001129023044 7.500348954015181 0  245.000215842722 0.000415239300949895 0  245.0001178822479 7.500415382681201 0  250.0002213048684 0.0004823793704938819 0  250.0001221933504 7.500482521341326 0  255.0002258777085 0.0005500513349076778 0  255.0001258853287 7.500550192195686 0  260.0002296492526 0.0006181021346725544 0  260.0001290073429 7.500618242695746 0  265.0002326998874 0.0006863986128070494 0  265.00013160776 7.5006865401634 0  270.0002351046642 0.0007548235451413334 0  270.0001337343126 7.500754967857138 0  275.0002369357053 0.0008232730041750815 0  275.0001354344885 7.500823422331138 0  280.000238264746 0.0008916550842236334 0  280.0001367560347 7.500891812079983 0  285.0002391657939 0.0009598902189946804 0  285.0001377474456 7.500960057616753 0  290.000239717734 0.001027913595039473 0  290.0001384582862 7.501028093308237 0  295.0002400064661 0.001095680550754434 0  295.0001389392509 7.501095871491553 0  300.0002401254646 0.001163176381023178 0  300.0001392419375 7.501163369605472 0  305.000240172363 0.00123043252301641 0  305.0001394188068 7.50123060125325 0  310.0002402361848 0.001297550721510885 0  310.0001395250486 7.501297632428068 0  5.000078185349551 14.99700975462388 0  7.809427423755011e-05 14.99693371347307 0  10.00007830835454 14.99708557832084 0  15.00007847701066 14.99716126080688 0  20.00007869575501 14.99723687665609 0  25.00007896423891 14.99731250453005 0  30.00007927839571 14.99738822815891 0  35.0000796301789 14.99746413644416 0  40.00008000681695 14.99754032385011 0  45.00008038986117 14.99761689135382 0  50.00008075406984 14.99769394797081 0  55.00008106607741 14.99777161283798 0  60.00008128276589 14.99785001786665 0  65.00008134923961 14.99792931102501 0  70.00008119629733 14.99800966035886 0  75.00008073729899 14.99809125890624 0  80.00007986433683 14.99817433069994 0  85.00007844367926 14.99825913806871 0  90.00007631058244 14.99834599041385 0  95.00007326385665 14.99843525448434 0  100.000069061127 14.99852736576665 0  105.0000634168266 14.99862283967506 0  110.0000560069001 14.99872227926137 0  115.0000464876158 14.99882637219976 0  120.0000345414742 14.99893586212352 0  125.000019971679 14.99905146506969 0  130.0000028776825 14.99917367625553 0  134.9999839538609 14.99930236956106 0  139.9999649461975 14.99943602581206 0  144.9999492322818 14.9995703290847 0  149.9999422273323 14.99969567446243 0  164.9999826857767 14.99978543768611 0  159.9999769537852 14.99981312756151 0  169.9999817190217 14.99976399791696 0  174.9999790388206 14.99975493464595 0  179.9999771409109 14.99975930655743 0  184.9999768673513 14.99977592611188 0  189.9999782469637 14.99980293047534 0  194.999980984163 14.99983845117792 0  199.9999847011832 14.99988084958619 0  204.9999890438384 14.9999287676276 0  209.9999937188778 14.99998110809092 0  214.99999849984 15.00003699361532 0  220.0000032201026 15.00009572405577 0  225.0000077620447 15.00015673910447 0  230.0000120462209 15.00021958773523 0  235.0000160220394 15.00028390402588 0  240.0000196602728 15.0003493883096 0  245.0000229472961 15.00041579256345 0  250.000025880774 15.00048290909507 0  255.0000284664914 15.00055056178181 0  260.0000307160684 15.00061859930218 0  265.0000326453154 15.0006868899536 0  270.0000342730734 15.00075531778172 0  275.0000356203676 15.00082377985281 0  280.0000367097949 15.00089218459033 0  285.0000375650838 15.00096045116577 0  290.000038210839 15.00102850996708 0  295.0000386726733 15.00109630412614 0  300.0000389781246 15.00116379188533 0  305.0000391592986 15.00123094904237 0  310.0000392588893 15.00129776946416 0  4.999963832358119 22.49701034586962 0  -3.625209105256877e-05 22.49693435148184 0  9.999963920880631 22.49708608903368 0  14.99996401574059 22.49716168073482 0  19.99996411322432 22.4972372082387 0  24.9999642053842 22.4973127547665 0  29.99996428094067 22.49738840393418 0  34.99996432532264 22.49746424212257 0  39.99996432017795 22.49754036005063 0  44.9999642425981 22.49761685419547 0  49.99996406418805 22.49769382835196 0  54.99996375003085 22.49777139546146 0  59.99996325757105 22.4978496797707 0  64.99996253543475 22.49792881935736 0  69.99996152223474 22.49800896904159 0  74.99996014546829 22.49809030367826 0  79.99995832071471 22.49817302176274 0  84.99995595151145 22.49825734916418 0  89.99995293055537 22.49834354256322 0  94.99994914330188 22.49843189173894 0  99.99994447566819 22.4985227190746 0  104.9999388284693 22.49861637330979 0  109.9999321424495 22.49871321230075 0  114.9999244392162 22.49881356586984 0  119.999915884599 22.49891766414297 0  124.999906880732 22.49902550870486 0  129.9998981887206 22.49913665420254 0  134.9998910696009 22.49924986113813 0  139.999887397839 22.49936259098837 0  144.999889635805 22.49947038332919 0  149.9999004536202 22.49956639936202 0  164.9999376036006 22.49970251220196 0  159.9999306728385 22.49969296260284 0  169.9999384275258 22.49970990993958 0  174.9999357089496 22.49972095169976 0  179.9999316036673 22.49973853418506 0  184.9999274932122 22.49976356119891 0  189.9999240924925 22.49979582038275 0  194.9999216719853 22.49983458730342 0  199.9999202471308 22.49987897127981 0  204.9999197066902 22.49992808943838 0  209.9999198899345 22.49998114235132 0  214.9999206289076 22.50003743825517 0  219.9999217691761 22.50009639264455 0  224.9999231782399 22.50015751747939 0  229.999924747343 22.50022040713837 0  234.9999263900574 22.50028472443553 0  239.9999280395241 22.50035018806716 0  244.9999296453481 22.50041656190027 0  249.9999311706227 22.50048364608664 0  254.9999325893017 22.50055126981515 0  259.999933883948 22.50061928547448 0  264.9999350438722 22.50068756400871 0  269.9999360635918 22.50075599128247 0  274.9999369415872 22.50082446530393 0  279.9999376793319 22.50089289417382 0  284.9999382806158 22.50096119461597 0  289.9999387512689 22.50102929087805 0  294.9999390994927 22.5010971136202 0  
[...]
<PointData  Scalars="p"> 
<DataArray  type="Float64"  Name="p"  format="ascii">1.0000000000000001e-01  1.0000000000000003e-01  9.9996101381123983e-02  1.0000000000000003e-01  1.0000000000000003e-01  9.9995467724166412e-02  1.0000000000000003e-01  9.9993155740756290e-02  1.0000000000000003e-01  9.9991981771351476e-02  1.0000000000000003e-01  9.9990315217687323e-02  1.0000000000000003e-01  9.9987577766756347e-02  1.0000000000000003e-01  9.9986353184086690e-02  1.0000000000000003e-01  9.9984476826022253e-02  1.0000000000000003e-01  9.9981389597844209e-02  1.0000000000000003e-01  9.9980933251063872e-02  1.0000000000000003e-01  9.9973275690816515e-02  1.0000000000000003e-01  9.9969049306928917e-02  1.0000000000000003e-01  9.9964528856463397e-02  1.0000000000000003e-01  9.9960885451665593e-02  1.0000000000000003e-01  9.9953508495427251e-02  1.0000000000000003e-01  9.9950525314040667e-02  1.0000000000000003e-01  9.9945098309312627e-02  1.0000000000000003e-01  9.9936770304026770e-02  1.0000000000000003e-01  9.9934304410349034e-02  1.0000000000000003e-01  9.9926007271539344e-02  1.0000000000000003e-01  9.9920952172172117e-02  1.0000000000000003e-01  9.9911891173799713e-02  1.0000000000000003e-01  9.9914022744321693e-02  1.0000000000000003e-01  9.9891348682890069e-02  1.0000000000000003e-01  9.9912113582583326e-02  1.0000000000000003e-01  9.9865841013758838e-02  1.0000000000000003e-01  9.9918416159076179e-02  1.0000000000000003e-01  9.9830592419276443e-02  1.0000000000000003e-01  9.9935654337721613e-02  1.0000000000000001e-01  9.9770846530590443e-02  1.0000000000000001e-01  1.0000000000000003e-01  1.0018602480025808e-01  1.0038242937001465e-01  1.0000000000000003e-01  1.0005421703639375e-01  1.0000000000000003e-01  1.0014695584087396e-01  1.0000000000000003e-01  1.0009711357134696e-01  1.0000000000000003e-01  1.0011209304783115e-01  1.0000000000000003e-01  1.0009924025040925e-01  1.0000000000000003e-01  1.0010533659597051e-01  1.0000000000000003e-01  1.0009447606752661e-01  1.0000000000000003e-01  1.0009611599121861e-01  1.0000000000000003e-01  1.0009245616048783e-01  1.0000000000000003e-01  1.0008928508422578e-01  1.0000000000000003e-01  1.0008695888030801e-01  1.0000000000000003e-01  1.0008541680051013e-01  1.0000000000000003e-01  1.0008220620236996e-01  1.0000000000000003e-01  1.0008069572542896e-01  1.0000000000000003e-01  1.0007904687748340e-01  1.0000000000000003e-01  1.0007700134387804e-01  1.0000000000000003e-01  1.0007550178163800e-01  1.0000000000000003e-01  1.0007451364247955e-01  1.0000000000000003e-01  1.0007257298058558e-01  1.0000000000000003e-01  1.0007216331357860e-01  1.0000000000000003e-01  1.0007006436262619e-01  1.0000000000000003e-01  1.0007086724484704e-01  1.0000000000000003e-01  1.0006667830944889e-01  1.0000000000000003e-01  1.0007171859099755e-01  1.0000000000000003e-01  1.0006097051050310e-01  1.0000000000000003e-01  1.0007699745178320e-01  1.0000000000000003e-01  1.0004862375602090e-01  1.0000000000000003e-01  1.0009713009511022e-01  1.0000000000000001e-01  1.0000000000000003e-01  9.9993581069833484e-02  1.0000000000000003e-01  9.9993639668515821e-02  9.9993181877057122e-02  9.9992295250670174e-02  9.9989980427227551e-02  9.9990150665342267e-02  9.9989715972768956e-02  9.9986366883883460e-02  9.9987916726529791e-02  9.9986576290889195e-02  9.9983518206018251e-02  9.9975620209380861e-02  9.9977906416301943e-02  9.9969368229767416e-02  9.9973110502446103e-02  9.9969817654596685e-02  9.9963104945210310e-02  9.9965013945987391e-02  9.9962808818964050e-02  9.9952753315858664e-02  9.9959058983608684e-02  9.9950228622883774e-02  9.9951020022251827e-02  9.9940779512948899e-02  9.9959907851216376e-02  9.9913955084127051e-02  9.9989027759873991e-02  9.9858252655750157e-02  1.0005779788812084e-01  9.9767487909431143e-02  9.9838391149492334e-02  1.0058601121765855e-01  1.0017588335646410e-01  1.0002789667531409e-01  1.0005170594731515e-01  1.0004157619261393e-01  1.0006177203773692e-01  1.0003805679654502e-01  1.0004976027097420e-01  1.0004680753655763e-01  1.0004209492344969e-01  1.0004186810491235e-01  1.0004245487124776e-01  1.0003756251280214e-01  1.0003746878735416e-01  1.0003692012382404e-01  1.0003407875810920e-01  1.0003352693312978e-01  1.0003298271902292e-01  1.0003121990834636e-01  1.0003034825195267e-01  1.0003035615454249e-01  1.0002814683640614e-01  1.0002911761496623e-01  1.0002604687505791e-01  1.0002953204737022e-01  1.0002127628143513e-01  1.0003484036793379e-01  1.0001012524003272e-01  1.0004736298743963e-01  1.0000000000000003e-01  9.9990520828059384e-02  1.0000000000000003e-01  9.9993590274260941e-02  9.9990459230121273e-02  9.9988071954962329e-02  9.9987617270469092e-02  9.9987139475757769e-02  9.9982258232901022e-02  9.9983413362922283e-02  9.9983146252949892e-02  9.9977577742780599e-02  9.9976395759042935e-02  9.9980068718037260e-02  9.9957164252492167e-02  9.9965008436537120e-02  9.9960221950460837e-02  9.9949823413608363e-02  9.9954581271618062e-02  9.9950283019568209e-02  9.9937156404806785e-02  9.9942209729462855e-02  9.9938997799170107e-02  9.9920562325795131e-02  9.9935912215467132e-02  9.9915448816875335e-02  9.9927632148585854e-02  9.9895837557249650e-02  9.9953476042510786e-02  9.9829381294065017e-02  1.0005351991317875e-01  9.9635164693919989e-02  9.9883274470554020e-02  1.0054234293503500e-01  1.0028229079814403e-01  1.0005869199912143e-01  1.0007392236399948e-01  1.0012043855108049e-01  1.0005707392450809e-01  1.0009274716140139e-01  1.0008495931897225e-01  1.0007549233471362e-01  1.0007669568142610e-01  1.0007943269368423e-01  1.0006939857710290e-01  1.0007065844241403e-01  1.0006998307826069e-01  1.0006435642351136e-01  1.0006369196982541e-01  1.0006332188116090e-01  1.0005939438335326e-01  1.0005885104689508e-01  1.0005795064140013e-01  1.0005590211790738e-01  1.0005433421157335e-01  1.0005502687859021e-01  1.0005091101677992e-01  1.0005423046828014e-01  1.0004686659076700e-01  1.0005714937868344e-01  1.0003570358811417e-01  1.0007496052378338e-01  1.0000000000000003e-01  9.9988639103362351e-02  1.0000000000000003e-01  9.9992724353055520e-02  9.9987365462120947e-02  9.9987915962652274e-02  9.9987379217405012e-02  9.9982308409999582e-02  9.9983653720514612e-02  9.9983665071419064e-02  9.9977405794921551e-02  9.9980008008417970e-02  9.9980289899542413e-02  9.9966884928295530e-02  9.9978880303083745e-02  9.9960328560097705e-02  9.9954319055024513e-02  9.9958113222355469e-02  9.9957991225574513e-02  9.9942153946985302e-02  9.9952787681333533e-02  9.9946202348640531e-02  9.9933687520061015e-02  9.9938875951411779e-02  9.9942619790166776e-02  9.9912021711898932e-02  9.9952380298558852e-02  9.9894472854289318e-02  9.9974973065038969e-02  9.9828799813455979e-02  1.0008919834841021e-01  9.9612647896386575e-02  9.9879336212937181e-02  1.0066895596435538e-01  1.0018755058475720e-01  1.0001773582078315e-01  1.0019065786621917e-01  9.9998607929664571e-02  1.0009209989720726e-01  1.0006762913039886e-01  1.0006261089455887e-01  1.0006186664164564e-01  1.0007127347094134e-01  1.0005485208025636e-01  1.0005970320926917e-01  1.0005958414344389e-01  1.0005220659389907e-01  1.0005194395167424e-01  1.0005209938998459e-01  1.0004680985839599e-01  1.0004635256760608e-01  1.0004612768688019e-01  1.0004253343243957e-01  1.0004237462821126e-01  1.0004095248161876e-01  1.0004024808181297e-01  1.0003692146738348e-01  1.0004082798189180e-01  1.0003136027085847e-01  1.0004439168325231e-01  1.0002094614757899e-01  1.0005701229934409e-01  1.0000000000000003e-01  9.9986706639111925e-02  1.0000000000000003e-01  9.9990728242067159e-02  9.9986997711315806e-02  9.9987844297329584e-02  9.9981743286259556e-02  9.9983277987373040e-02  9.9982533442444205e-02  9.9975735303281479e-02  9.9978696898491856e-02  9.9979251717367199e-02  9.9967591794080032e-02  9.9974093567230068e-02  9.9968853619661832e-02  9.9965477468254474e-02  9.9951667905373590e-02  9.9956426091316150e-02  9.9937302487809035e-02  9.9949937205811634e-02  9.9945923330401240e-02  9.9926196236687137e-02  9.9941773971508205e-02  9.9931456116265444e-02  9.9920558542439447e-02  9.9920266642691741e-02  9.9940808695639496e-02  9.9876958821321499e-02  9.9979731313897119e-02  9.9806707934139247e-02  1.0010440472764789e-01  9.9549555166583564e-02  9.9767135845596475e-02  1.0075800994467257e-01  1.0024218866440442e-01  1.0007886206884962e-01  1.0010828467538885e-01  1.0011106361237343e-01  1.0008154788941398e-01  1.0007712909217774e-01  1.0006798253182417e-01  1.0009413429421897e-01  1.0006366753994299e-01  1.0007493661645787e-01  1.0007525424970119e-01  1.0006476712652981e-01  1.0006533478924039e-01  1.0006691704927567e-01  1.0005849822987360e-01  1.0005853233029280e-01  1.0005835921836798e-01  1.0005352428028895e-01  1.0005264210084115e-01  1.0005274657234589e-01  1.0004872185070757e-01  1.0004929019713905e-01  1.0004642160819517e-01  1.0004806073895252e-01  1.0004078362684303e-01  1.0005163547665089e-01  1.0002923490078214e-01  1.0006639669056441e-01  1.0000000000000003e-01  9.9984414317470724e-02  1.0000000000000003e-01  9.9990648649477473e-02  9.9986438886725856e-02  9.9983717112196627e-02  9.9983175601471866e-02  9.9983082073933499e-02  9.9976098394003718e-02  9.9978074787938034e-02  9.9979114745932005e-02  9.9969178830857139e-02  9.9973356304870781e-02  9.9972264403711431e-02  9.9960979734149552e-02  9.9963763376822279e-02  9.9975696586497617e-02  9.9931750041371128e-02  9.9952880522477999e-02  9.9946153113867106e-02  9.9928248310804518e-02  9.9942374601195386e-02  9.9941238220264947e-02  9.9911600843959447e-02  9.9940985511551006e-02  9.9917765858517860e-02  9.9925844387493953e-02  9.9891773919734597e-02  9.9983680148962736e-02  9.9785963921672854e-02  1.0014150092801466e-01  9.9498331869908085e-02  9.9775190682150031e-02  1.0073461974633567e-01  1.0029544902529978e-01  9.9983026712955905e-02  1.0013193716526679e-01  1.0010549985862656e-01  1.0011434491879946e-01  1.0003636785230373e-01  1.0011095149368544e-01  1.0004785884127301e-01  1.0007677425080146e-01  1.0007478553237846e-01  1.0006202289957403e-01  1.0006286640380896e-01  1.0006772258134999e-01  1.0005560445092668e-01  1.0005703931664922e-01  1.0005751881745180e-01  1.0005026704152334e-01  1.0005005131324796e-01  1.0004999314108717e-01  1.0004575784252540e-01  1.0004445649149461e-01  1.0004543032576869e-01  1.0004010480114563e-01  1.0004354141739560e-01  1.0003573550628900e-01  1.0004604928342009e-01  1.0002445439134269e-01  1.0005925741331029e-01  1.0000000000000003e-01  9.9983159746195788e-02  1.0000000000000003e-01  9.9990487800399444e-02  9.9982611205353247e-02  9.9984642409049071e-02  9.9983175311655390e-02  9.9977203340821358e-02  9.9977867888889210e-02  9.9978907376089540e-02  9.9969030360221187e-02  9.9973428245411139e-02  9.9973178771041241e-02  9.9959681994550340e-02  9.9965572854690599e-02  9.9969472759045844e-02  9.9945521448575603e-02  9.9971714422490934e-02  9.9940974649663589e-02  9.9927477302343817e-02  9.9941221390780391e-02  9.9939352939735077e-02  9.9914842349996952e-02  9.9932657478922868e-02  9.9935170363880430e-02  9.9892278412787125e-02  9.9945711447368080e-02  9.9884991791497707e-02  9.9963833829315854e-02  9.9794935510478189e-02  1.0014894876721148e-01  9.9447203838758408e-02  9.9791985792598251e-02  1.0079319730868699e-01  1.0024112123357440e-01  1.0000666078564233e-01  1.0016925444552946e-01  1.0006107555524305e-01  1.0009972763172875e-01  1.0014369184226513e-01  1.0003759090859898e-01  1.0008849237083872e-01  1.0007785416538417e-01  1.0007016840289441e-01  1.0006698307965402e-01  1.0007759622816532e-01  1.0006024331412866e-01  1.0006369109837072e-01  1.0006519067932224e-01  1.0005627784073211e-01  1.0005566574511986e-01  1.0005648939246559e-01  1.0004996362635760e-01  1.0004991239731634e-01  1.0004900473196193e-01  1.0004642979469258e-01  1.0004356544191033e-01  1.0004662847159333e-01  1.0003785026209026e-01  1.0004841831456908e-01  1.0002731516787440e-01  1.0006153645631530e-01  1.0000000000000003e-01  9.9982064434281148e-02  1.0000000000000003e-01  9.9988468301755784e-02  9.9982948326482440e-02  9.9984859351289854e-02  9.9978100498590697e-02  9.9979361945868317e-02  9.9979255743686921e-02  9.9970213605862654e-02  9.9973760874068063e-02  9.9974373499941815e-02  9.9960997064706264e-02  9.9966613253440237e-02  9.9968036310782896e-02  9.9949301921527942e-02  9.9964716777902501e-02  9.9957496991870842e-02  9.9952236144475598e-02  9.9934375326646452e-02  9.9943730918746795e-02  9.9909902749734686e-02  9.9939599739836474e-02  9.9928788517372677e-02  9.9907543359060325e-02  9.9918896461468135e-02  9.9943429857517280e-02  9.9857058271640375e-02  9.9990862713603454e-02  9.9784647737580084e-02  1.0014465907021970e-01  9.9431675792019100e-02  9.9722656545832677e-02  1.0085578205714113e-01  1.0026958839047261e-01  1.0003409363189873e-01  1.0011731043639681e-01  1.0006209094712021e-01  1.0013491116304432e-01  1.0007143400420716e-01  1.0011906104603606e-01  1.0006246157155999e-01  1.0007862145120761e-01  1.0005818802162136e-01  1.0008554376322568e-01  1.0005754923862048e-01  1.0006526906899658e-01  1.0006744157246453e-01  1.0005646334132061e-01  1.0005664334721197e-01  1.0005894641288000e-01  1.0005016787630659e-01  1.0004971586169621e-01  1.0005040994835498e-01  1.0004447590275364e-01  1.0004505167254671e-01  1.0004266218940884e-01  1.0004315358706993e-01  1.0003601284096245e-01  1.0004640115159236e-01  1.0002500059160753e-01  1.0005821931728553e-01  1.0000000000000003e-01  9.9980406254731868e-02  1.0000000000000003e-01  9.9988773550508198e-02  9.9983000694906274e-02  9.9980997538683350e-02  9.9979549419163649e-02  9.9980613001346155e-02  9.9972107755634892e-02  9.9974306749501710e-02  9.9975157152382269e-02  9.9963853584583998e-02  9.9967161853924097e-02  9.9968732641148750e-02  9.9951582321025981e-02  9.9961719287866693e-02  9.9962206207704074e-02  9.9944290724647902e-02  9.9952465979959770e-02  9.9971378027913629e-02  9.9904310572491217e-02  9.9938698394761077e-02  9.9933120792767727e-02  9.9897640145192895e-02  9.9936839785518497e-02  9.9916480172123484e-02  9.9908187434603793e-02  9.9888752899731370e-02  9.9987995927300802e-02  9.9752159361713041e-02  1.0017702457469019e-01  9.9405491690467279e-02  9.9719150210114876e-02  1.0084213162121115e-01  1.0030845080093993e-01  9.9983277253721803e-02  1.0013186853297050e-01  1.0009675903681559e-01  1.0008566933945674e-01  1.0008519760825542e-01  1.0011446592812803e-01  1.0010469839986509e-01  1.0004372140823452e-01  1.0009960255916668e-01  1.0005218555067079e-01  1.0007105314939756e-01  1.0007142354034460e-01  1.0005959308898010e-01  1.0005883547950932e-01  1.0006415339280908e-01  1.0005279382880461e-01  1.0005357057813583e-01  1.0005410428723148e-01  1.0004740936465133e-01  1.0004612236594052e-01  1.0004751062498188e-01  1.0004108987271190e-01  1.0004395587884794e-01  1.0003735980452988e-01  1.0004558640872439e-01  1.0002586617728272e-01  1.0005815050037289e-01  1.0000000000000003e-01  9.9979759557116007e-02  1.0000000000000003e-01  9.9988952361702021e-02  9.9979732282897041e-02  9.9982143473072826e-02  9.9980420561825753e-02  9.9974511420479431e-02  9.9975152716044277e-02  9.9976219378302214e-02  9.9965921555405943e-02  9.9969086139087823e-02  9.9970367701946949e-02  9.9954053681020005e-02  9.9961314617498506e-02  9.9963782094690881e-02  9.9943763806326510e-02  9.9955268445810902e-02  9.9963523905584495e-02  9.9925560286373075e-02  9.9969566455568176e-02  9.9924883203985210e-02  9.9904552124946464e-02  9.9926361906561192e-02  9.9934567582638439e-02  9.9877092670422482e-02  9.9947083662583411e-02  9.9885888808935480e-02  9.9950182106097837e-02  9.9785669446375722e-02  1.0017868275339452e-01  9.9362078397772544e-02  9.9734455255417298e-02  1.0086630032528260e-01  1.0027490701650815e-01  9.9987878541543493e-02  1.0016458692472656e-01  1.0005175266660354e-01  1.0009442063620430e-01  1.0010299963381729e-01  1.0008507075478609e-01  1.0007971234578303e-01  1.0012916509258885e-01  1.0003567950205863e-01  1.0007887237295993e-01  1.0006736834122588e-01  1.0006339646285704e-01  1.0005760709354662e-01  1.0006777901461351e-01  1.0005269728370382e-01  1.0005454997530121e-01  1.0005693748008747e-01  1.0004848456200240e-01  1.0004777490795416e-01  1.0004791396678019e-01  1.0004327788601949e-01  1.0004068034842011e-01  1.0004379777442149e-01  1.0003479742411815e-01  1.0004429842705401e-01  1.0002518643139710e-01  1.0005571450053574e-01  1.0000000000000003e-01  9.9979253658480136e-02  1.0000000000000003e-01  9.9987428368039408e-02  9.9980409469363346e-02  9.9983011609587669e-02  9.9975900098671119e-02  9.9977046554467389e-02  9.9976965651798477e-02  9.9968567190850802e-02  9.9970755121189428e-02  9.9972496673569319e-02  9.9957936652948665e-02  9.9963025807403502e-02  9.9964737861002254e-02  9.9946042518230097e-02  9.9956638214329582e-02  9.9960942593285626e-02  9.9933069561099680e-02  9.9957718350359812e-02  9.9950214705467333e-02  9.9937494147300812e-02  9.9922542032722259e-02  9.9930486043124239e-02  9.9888950236122737e-02  9.9921254462678147e-02  9.9941773141781390e-02  9.9842444788999271e-02  9.9991874156778016e-02  9.9786505979816559e-02  1.0013730409218796e-01  9.9393797043389326e-02  9.9692598832679780e-02  1.0090859154887172e-01  1.0028169489887229e-01  1.0001339527896080e-01  1.0012912149593831e-01  1.0005713873228705e-01  1.0012170757611751e-01  1.0007042008812027e-01  1.0008099890085971e-01  1.0010594767420217e-01  1.0007490353729040e-01  1.0010234488471358e-01  1.0005597648516121e-01  1.0007123415338200e-01  1.0005169809842639e-01  1.0007450587655872e-01  1.0005193948313340e-01  1.0005666258382313e-01  1.0005924197765419e-01  1.0004994143338725e-01  1.0004943528221776e-01  1.0005210493018231e-01  1.0004358462708077e-01  1.0004401838169252e-01  1.0004237286972802e-01  1.0004121814976710e-01  1.0003485906401646e-01  1.0004428313027003e-01  1.0002445003521480e-01  1.0005460147359019e-01  1.0000000000000003e-01  9.9978101222313001e-02  1.0000000000000003e-01  9.9987807739179382e-02  9.9980872995352035e-02  9.9979734214781971e-02  9.9977469228277133e-02  9.9978734140932404e-02  9.9970641848154920e-02  9.9972137620784163e-02  9.9973751560168383e-02  9.9962325844021177e-02  9.9964945065616567e-02  9.9966879431877917e-02  9.9949977889693370e-02  9.9956800935795925e-02  9.9961706777955919e-02  9.9937245489144746e-02  9.9953712179201876e-02  9.9956134626995846e-02  9.9929737315390746e-02  9.9943604391325339e-02  9.9973768085649867e-02  9.9873731477657407e-02  9.9937769496823772e-02  9.9913805828136915e-02  9.9892027283709731e-02  9.9895301643692425e-02  9.9988777766618311e-02  9.9738098606902234e-02  1.0017953030502511e-01  9.9398626512806176e-02  9.9678392479182171e-02  1.0089154185980541e-01  1.0031235198032019e-01  9.9979929805077389e-02  1.0013052868732643e-01  1.0008345710037425e-01  1.0008992704830867e-01  1.0007028884381405e-01  1.0010645130691166e-01  1.0006941630655186e-01  1.0007976223797187e-01  1.0009278013422837e-01  1.0009418996293405e-01  1.0003622334982422e-01  1.0008389882640371e-01  1.0004557540175837e-01  1.0005954485469476e-01  1.0006000901423664e-01  1.0005072377075346e-01  1.0004919104779457e-01  1.0005379570619959e-01  1.0004509516545089e-01  1.0004451540886905e-01  1.0004599295598283e-01  1.0003845316167592e-01  1.0004061832102025e-01  1.0003524020302131e-01  1.0004150744786175e-01  1.0002391352708204e-01  1.0005278989928459e-01  1.0000000000000003e-01  9.9977876340624633e-02  1.0000000000000003e-01  9.9988261950127791e-02  9.9978389375024235e-02  9.9981032557528729e-02  9.9978783043805655e-02  9.9973768697866575e-02  9.9973535482126855e-02  9.9974830119948052e-02  9.9965310858584844e-02  9.9967769980615420e-02  9.9969155843533428e-02  9.9954385138213114e-02  9.9958789400476825e-02  9.9963200643273437e-02  9.9941721313147144e-02  9.9952485147924694e-02  9.9959018502613933e-02  9.9929732104681479e-02  9.9948323278976597e-02  9.9960905836245825e-02  9.9907897259599643e-02  9.9968555304064427e-02  9.9920594072541558e-02  9