<?xml version="1.0"?>
<VTKFile type="UnstructuredGrid"  version="0.1"  >
<UnstructuredGrid>
<Piece  NumberOfPoints="1933" NumberOfCells="3640">
<Points>
<DataArray  type="Float64"  NumberOfComponents="3"  format="ascii">0.000299722257044166 -0.002839273165303088 0  5.000299776265241 -0.002764343325862789 0  5.000187356033545 7.497235778657307 0  0.0001872865868572937 7.4971608251643 0  10.00029987053147 -0.002689501247753832 0  10.00018746793323 7.497310621731205 0  15.00030005186242 -0.002614728974167525 0  15.0001876374958 7.497385388818885 0  20.00030035700196 -0.002539980451430063 0  20.00018787597074 7.497460131338175 0  25.00030081131621 -0.002465196008843303 0  25.00018819062307 7.497534910573736 0  30.00030143035014 -0.002390308795614836 0  30.00018858422019 7.497609793679466 0  35.00030222173176 -0.002315247357445282 0  35.00018905464295 7.497684851969102 0  40.00030318667455 -0.002239936211547923 0  40.00018959457272 7.49776016065423 0  45.00030432091682 -0.002164295306651475 0  45.00019019111064 7.497835799488624 0  50.0003056151093 -0.002088238791010612 0  50.00019082520024 7.497911854022181 0  55.00030705469191 -0.002011673268320348 0  55.00019147074847 7.497988417331319 0  60.00030861927232 -0.001934495580758828 0  60.00019209334447 7.498065592201198 0  65.00031028147724 -0.001856590063951166 0  65.00019264845618 7.498143493814115 0  70.00031200517711 -0.001777825139637415 0  70.00019307895121 7.498222253066177 0  75.00031374290836 -0.001698049027979313 0  75.00019331172615 7.498302020703068 0  80.00031543218414 -0.001617084255275949 0  80.00019325314088 7.498382972547866 0  85.00031699019743 -0.00153472048516329 0  85.00019278283874 7.498465316194554 0  90.00031830609016 -0.001450704987285948 0  90.00019174536834 7.498549299666166 0  95.0003192294261 -0.001364729743516887 0  95.00018993882587 7.498635222677505 0  100.0003195525417 -0.00127641373515211 0  100.0001870995369 7.498723451263775 0  105.0003189827657 -0.001185278310791319 0  105.0001828816571 7.49881443653286 0  110.0003170974131 -0.001090712690947539 0  110.0001768307916 7.498908737897586 0  115.0003132688571 -0.0009919257469960508 0  115.0001683518919 7.499007049706726 0  120.0003065365846 -0.0008878797686772584 0  120.00015667522 7.499110226261826 0  125.0002953838733 -0.0007772038842041109 0  125.0001408332462 7.499219290607838 0  130.0002773408244 -0.0006580947946014806 0  130.0001196827152 7.499335390572503 0  135.0002482685852 -0.0005282477067500695 0  135.0000920540549 7.499459618472732 0  140.0002010539016 -0.0003849764072181541 0  140.0000572145803 7.499592519092701 0  145.0001231983439 -0.0002260812997418078 0  145.0000160573053 7.499732974076103 0  149.9999922467973 -5.356276342909112e-05 0  149.9999739381288 7.499876199783893 0  159.9999999999988 9.867242157660365e-19 0  164.999986801044 -7.136514180724629e-05 0  164.9999993968875 7.499910431471463 0  159.9999945931944 7.499958076260589 0  169.9999997446754 -0.0001046626636301814 0  170.0000038517025 7.499886557533541 0  175.0000228099416 -0.0001115962432376956 0  175.0000109041484 7.499883971955335 0  180.0000487210879 -9.954232036574575e-05 0  180.0000203090719 7.499898193576428 0  185.0000742014143 -7.35910453314209e-05 0  185.0000311623116 7.499925267701895 0  190.0000978646553 -3.734188144424762e-05 0  190.0000426193012 7.499962110746623 0  195.0001192220617 6.631835459163681e-06 0  195.0000540570518 7.50000640262501 0  200.0001382032508 5.647013162999706e-05 0  200.0000650667059 7.500056412608219 0  205.0001549233195 0.0001108110920257008 0  205.0000754044396 7.500110846227237 0  210.0001695701179 0.0001686430442498516 0  210.0000849418579 7.500168727594198 0  215.0001823505971 0.0002292032209662307 0  215.0000936267658 7.5002293132249 0  220.0001934662288 0.0002919079928282367 0  220.0001014550631 7.500292030052981 0  225.0002031026827 0.0003563043920062403 0  225.0001084516284 7.500356431002592 0  230.0002114264204 0.0004220360002355285 0  230.000114657747 7.500422163009983 0  235.0002185845671 0.0004888185923138044 0  235.0001201230707 7.500488943806679 0  240.0002247062656 0.0005564224787278959 0  240.0001249006171 7.500556544880985 0  245.0002299046437 0.000624659515788005 0  245.0001290437904 7.500624778831591 0  250.0002342789774 0.0006933734255657022 0  250.000132604725 7.500693489883325 0  255.0002379168797 0.0007624325142706319 0  255.0001356335056 7.500762546721334 0  260.0002408964439 0.0008317241792420341 0  260.000138177951 7.500831837068937 0  265.0002432883561 0.0009011508064535689 0  265.0001402837711 7.500901263628116 0  270.0002451579826 0.0009706268200238258 0  270.0001419949582 7.500970741148298 0  275.0002465674889 0.001040076780324419 0  275.0001433542998 7.501040194511209 0  280.0002475779968 0.001109434561501309 0  280.0001444039318 7.501109557833113 0  285.0002482517704 0.001178643796174664 0  285.0001451858323 7.501178774705158 0  290.0002486542713 0.001247659981989621 0  290.000145742147 7.501247799825179 0  295.0002488557365 0.001316454929787685 0  295.0001461152779 7.501316602421587 0  300.0002489313439 0.001385024602005685 0  300.0001463477199 7.50138517201453 0  305.0002489580144 0.001453401698239894 0  305.000146482038 7.501453527174633 0  310.0002490035363 0.001521673684399317 0  310.0001465623171 7.501521728171051 0  5.000074747032889 14.99723602884761 0  7.468007131605781e-05 14.997161061542 0  10.00007483244271 14.99731084543275 0  15.00007494330718 14.99738557666153 0  20.00007507992993 14.99746028492259 0  25.00007523894809 14.99753503431775 0  30.0000754139071 14.99760989168709 0  35.00007559492429 14.99768492694448 0  40.00007576803496 14.99776021358481 0  45.00007591439852 14.99783582955449 0  50.00007600938 14.99791185849511 0  55.00007602146204 14.99798839134599 0  60.00007591092017 14.99806552831577 0  65.00007562819063 14.99814338126428 0  70.00007511185302 14.9982220765685 0  75.00007428615973 14.99830175857469 0  80.00007305805771 14.99838259375702 0  85.00007131370187 14.9984647757011 0  90.00006891456931 14.99854853098246 0  95.00006569352935 14.99863412585847 0  100.0000614516752 14.99872187333004 0  105.0000559576131 14.99881213933867 0  110.000048952443 14.9989053452417 0  115.0000401663607 14.99900196050569 0  120.0000293571378 14.99910247345503 0  125.0000163871974 14.99920731671724 0  130.0000013641472 14.99931670442446 0  134.9999848759421 14.99943030629118 0  139.9999683438614 14.9995466370072 0  144.999954458101 14.999661980239 0  149.9999474526439 14.99976857202039 0  164.9999782785817 14.99985988931483 0  159.9999724252889 14.99986709143839 0  169.9999796454301 14.99985950707844 0  174.9999800105247 14.99986977720559 0  179.9999810007382 14.99989092958865 0  184.9999830955279 14.99992172563774 0  189.999986238558 14.99996056100057 0  194.9999901773972 15.00000591101287 0  199.9999946252117 15.00005647268714 0  204.9999993273098 15.00011118260322 0  210.0000040815152 15.00016919048107 0  215.0000087382063 15.00022982163424 0  220.0000131927398 15.00029254097801 0  225.0000173761222 15.00035692256922 0  230.0000212463518 15.00042262518711 0  235.0000247812552 15.000489373245 0  240.0000279728908 15.00055694203156 0  245.0000308233437 15.00062514633899 0  250.0000333416472 15.00069383170171 0  255.0000355415751 15.00076286764309 0  260.0000374400902 15.00083214248553 0  265.0000390562632 15.00090155940433 0  270.0000404105335 15.00097103351223 0  275.0000415241976 15.00104048984533 0  280.0000424190443 15.00110986219141 0  285.000043117125 15.001179092755 0  290.0000436406455 15.00124813267883 0  295.0000440121711 15.00131694340786 0  300.0000442554584 15.00138549873253 0  305.0000443976534 15.00145378695776 0  310.0000444741739 15.00152181178952 0  4.999962104699042 22.49723645929342 0  -3.795651013865919e-05 22.49716155785344 0  9.999962163106247 22.49731119617269 0  14.99996221687863 22.49738584689199 0  19.99996226051171 22.49746048025764 0  24.99996228566705 22.4975351616809 0  29.99996228155467 22.49760995647925 0  34.99996223477834 22.49768493167702 0  39.99996212885597 22.49776015722599 0  44.99996194357267 22.4978357071034 0  49.99996165424794 22.49791166049045 0  54.9999612309471 22.49798810311561 0  59.99996063765049 22.49806512879836 0  64.99995983139991 22.49814284120993 0  69.9999587614663 22.49822135585002 0  74.99995736863477 22.49830080221442 0  79.99995558478784 22.49838132607239 0  84.99995333310154 22.49846309166817 0  89.99995052938975 22.49854628346297 0  94.99994708546345 22.49863110667979 0  99.99994291586997 22.49871778528916 0  104.9999379500862 22.49880655501223 0  109.9999321531712 22.49889764714844 0  114.999925558944 22.49899125620868 0  119.9999183205522 22.49908748005651 0  124.9999107828723 22.49918621537274 0  129.9999035773013 22.49928698464599 0  134.9998977279222 22.49938866759381 0  139.9998947315705 22.49948912229339 0  144.9998965240092 22.49958474263435 0  149.9999051691293 22.49967019978464 0  164.9999312039772 22.4998016666432 0  159.9999268174502 22.49978078519303 0  169.9999315591377 22.49982245304978 0  174.999929730694 22.49984716223976 0  179.9999272040823 22.49987762145637 0  184.999924883669 22.49991422673438 0  189.9999232003162 22.49995661454578 0  194.9999222820832 22.50000410131904 0  199.9999220915757 22.5000559251122 0  204.9999225156788 22.50011136156817 0  209.9999234176155 22.50016977016302 0  214.9999246641486 22.50023060525067 0  219.9999261379166 22.50029341103302 0  224.9999277415249 22.50035781035064 0  229.999929397419 22.50042349208947 0  234.9999310458546 22.5004901993224 0  239.9999326422069 22.50055771897156 0  244.9999341542544 22.5006258731482 0  249.9999355597136 22.50069451205961 0  254.9999368441327 22.50076350828112 0  259.9999379991321 22.50083275218219 0  264.9999390209786 22.50090214831813 0  269.9999399094245 22.50097161263322 0  274.9999406667926 22.50104107035074 0  279.999941297275 22.50111045444296 0  284.9999418064763 22.50117970456614 0  289.9999422012768 22.5012487662944 0  294.9999424901976 22.50131759035623 0  299.99994268
[...]
<PointData  Scalars="p"> 
<DataArray  type="Float64"  Name="p"  format="ascii">1.0000000000000001e-01  1.0000000000000003e-01  9.9996101372614721e-02  1.0000000000000003e-01  1.0000000000000003e-01  9.9995467709372746e-02  1.0000000000000003e-01  9.9993155717241294e-02  1.0000000000000003e-01  9.9991981740939331e-02  1.0000000000000003e-01  9.9990315180911948e-02  1.0000000000000003e-01  9.9987577721385570e-02  1.0000000000000003e-01  9.9986353132017314e-02  1.0000000000000003e-01  9.9984476768826089e-02  1.0000000000000003e-01  9.9981389531082127e-02  1.0000000000000003e-01  9.9980933178804576e-02  1.0000000000000003e-01  9.9973275618144994e-02  1.0000000000000003e-01  9.9969049225719545e-02  1.0000000000000003e-01  9.9964528773294661e-02  1.0000000000000003e-01  9.9960885366534941e-02  1.0000000000000003e-01  9.9953508402828378e-02  1.0000000000000003e-01  9.9950525220025288e-02  1.0000000000000003e-01  9.9945098216018421e-02  1.0000000000000003e-01  9.9936770202371475e-02  1.0000000000000003e-01  9.9934304311753708e-02  1.0000000000000003e-01  9.9926007170185724e-02  1.0000000000000003e-01  9.9920952069114666e-02  1.0000000000000003e-01  9.9911891063558550e-02  1.0000000000000003e-01  9.9914022644148393e-02  1.0000000000000003e-01  9.9891348551169795e-02  1.0000000000000003e-01  9.9912113490996143e-02  1.0000000000000003e-01  9.9865840841043829e-02  1.0000000000000003e-01  9.9918416098380355e-02  1.0000000000000003e-01  9.9830592227910825e-02  1.0000000000000003e-01  9.9935654369608065e-02  1.0000000000000001e-01  9.9770846511424538e-02  1.0000000000000001e-01  1.0000000000000003e-01  1.0018602479823392e-01  1.0038243036768492e-01  1.0000000000000003e-01  1.0005421660704973e-01  1.0000000000000003e-01  1.0014695606242974e-01  1.0000000000000003e-01  1.0009711352791474e-01  1.0000000000000003e-01  1.0011209315263131e-01  1.0000000000000003e-01  1.0009924034503949e-01  1.0000000000000003e-01  1.0010533675548446e-01  1.0000000000000003e-01  1.0009447618510288e-01  1.0000000000000003e-01  1.0009611616409383e-01  1.0000000000000003e-01  1.0009245632781580e-01  1.0000000000000003e-01  1.0008928525210394e-01  1.0000000000000003e-01  1.0008695906180001e-01  1.0000000000000003e-01  1.0008541698716826e-01  1.0000000000000003e-01  1.0008220638374879e-01  1.0000000000000003e-01  1.0008069591639109e-01  1.0000000000000003e-01  1.0007904706900655e-01  1.0000000000000003e-01  1.0007700153283057e-01  1.0000000000000003e-01  1.0007550197412043e-01  1.0000000000000003e-01  1.0007451383558000e-01  1.0000000000000003e-01  1.0007257316993831e-01  1.0000000000000003e-01  1.0007216350640280e-01  1.0000000000000003e-01  1.0007006455106204e-01  1.0000000000000003e-01  1.0007086743737023e-01  1.0000000000000003e-01  1.0006667849180308e-01  1.0000000000000003e-01  1.0007171879013414e-01  1.0000000000000003e-01  1.0006097067920995e-01  1.0000000000000003e-01  1.0007699766944474e-01  1.0000000000000003e-01  1.0004862389305920e-01  1.0000000000000003e-01  1.0009713037212256e-01  1.0000000000000001e-01  1.0000000000000003e-01  9.9993581061990799e-02  1.0000000000000003e-01  9.9993639657191533e-02  9.9993181863975295e-02  9.9992295236424153e-02  9.9989980407076934e-02  9.9990150643457634e-02  9.9989715951746910e-02  9.9986366855033176e-02  9.9987916696537948e-02  9.9986576263238522e-02  9.9983518169372121e-02  9.9975620179183350e-02  9.9977906388067486e-02  9.9969368190781283e-02  9.9973110465088610e-02  9.9969817621881008e-02  9.9963104898906918e-02  9.9965013902505798e-02  9.9962808780894599e-02  9.9952753259972910e-02  9.9959058936282333e-02  9.9950228567220981e-02  9.9951019965337867e-02  9.9940779446668099e-02  9.9959907797977879e-02  9.9913955028243920e-02  9.9989027737384717e-02  9.9858252707330245e-02  1.0005779785495392e-01  9.9767488520316042e-02  9.9838389933077504e-02  1.0058601187958703e-01  1.0017588415008678e-01  1.0002789659287373e-01  1.0005170596718990e-01  1.0004157628367608e-01  1.0006177220083524e-01  1.0003805680014886e-01  1.0004976040044422e-01  1.0004680762887161e-01  1.0004209498372428e-01  1.0004186819520471e-01  1.0004245496151125e-01  1.0003756257530344e-01  1.0003746887180549e-01  1.0003692020548828e-01  1.0003407882587020e-01  1.0003352701192411e-01  1.0003298279638118e-01  1.0003121997770389e-01  1.0003034832615869e-01  1.0003035622930263e-01  1.0002814690355220e-01  1.0002911768963195e-01  1.0002604694114729e-01  1.0002953212520910e-01  1.0002127633688734e-01  1.0003484046687768e-01  1.0001012526671248e-01  1.0004736312797179e-01  1.0000000000000003e-01  9.9990520817124715e-02  1.0000000000000003e-01  9.9993590263116397e-02  9.9990459213706862e-02  9.9988071931412764e-02  9.9987617242579124e-02  9.9987139448395976e-02  9.9982258193366244e-02  9.9983413321410960e-02  9.9983146213852223e-02  9.9977577688239616e-02  9.9976395706501756e-02  9.9980068670145347e-02  9.9957164195155671e-02  9.9965008379441653e-02  9.9960221902388499e-02  9.9949823342455141e-02  9.9954581206918192e-02  9.9950282962824710e-02  9.9937156326743756e-02  9.9942209657078604e-02  9.9938997739890234e-02  9.9920562239117591e-02  9.9935912154657039e-02  9.9915448738782706e-02  9.9927632101514952e-02  9.9895837503084506e-02  9.9953476006373221e-02  9.9829381357034536e-02  1.0005351979612902e-01  9.9635165132653511e-02  9.9883274316990678e-02  1.0054234236100161e-01  1.0028229143304865e-01  1.0005869159450649e-01  1.0007392249355358e-01  1.0012043877447808e-01  1.0005707377326702e-01  1.0009274736933547e-01  1.0008495942401187e-01  1.0007549238303470e-01  1.0007669581057548e-01  1.0007943282592249e-01  1.0006939865039416e-01  1.0007065857333045e-01  1.0006998320454465e-01  1.0006435652271761e-01  1.0006369209817688e-01  1.0006332201000422e-01  1.0005939449542942e-01  1.0005885117663535e-01  1.0005795077037490e-01  1.0005590223953154e-01  1.0005433434003300e-01  1.0005502701196074e-01  1.0005091113877340e-01  1.0005423060841821e-01  1.0004686671159227e-01  1.0005714953598165e-01  1.0003570368483065e-01  1.0007496074629295e-01  1.0000000000000003e-01  9.9988639090760764e-02  1.0000000000000003e-01  9.9992724342558681e-02  9.9987365443173215e-02  9.9987915941154956e-02  9.9987379197458218e-02  9.9982308379486004e-02  9.9983653687994736e-02  9.9983665043109168e-02  9.9977405751942430e-02  9.9980007965711798e-02  9.9980289865219105e-02  9.9966884877086701e-02  9.9978880252379998e-02  9.9960328531889464e-02  9.9954318998944663e-02  9.9958113173521143e-02  9.9957991186467490e-02  9.9942153880062001e-02  9.9952787624181694e-02  9.9946202300162393e-02  9.9933687450156877e-02  9.9938875883846714e-02  9.9942619746843070e-02  9.9912021632400316e-02  9.9952380266285959e-02  9.9894472801402304e-02  9.9974973034571160e-02  9.9828799903929816e-02  1.0008919809329642e-01  9.9612648581782481e-02  9.9879336086513809e-02  1.0066895624736194e-01  1.0018755039827372e-01  1.0001773582956042e-01  1.0019065842982067e-01  9.9998607513646878e-02  1.0009210020477961e-01  1.0006762919456803e-01  1.0006261090643545e-01  1.0006186674929690e-01  1.0007127359444863e-01  1.0005485209391100e-01  1.0005970331683699e-01  1.0005958423485049e-01  1.0005220664256449e-01  1.0005194404260552e-01  1.0005209948001342e-01  1.0004680992139156e-01  1.0004635265673031e-01  1.0004612777567663e-01  1.0004253350599603e-01  1.0004237471797665e-01  1.0004095256881923e-01  1.0004024816680372e-01  1.0003692155246892e-01  1.0004082808265609e-01  1.0003136034543669e-01  1.0004439180646546e-01  1.0002094620284555e-01  1.0005701247518638e-01  1.0000000000000003e-01  9.9986706624856078e-02  1.0000000000000003e-01  9.9990728228813913e-02  9.9986997691294766e-02  9.9987844279884927e-02  9.9981743256482097e-02  9.9983277956783634e-02  9.9982533415087532e-02  9.9975735260540585e-02  9.9978696854679111e-02  9.9979251681566864e-02  9.9967591739513584e-02  9.9974093515164772e-02  9.9968853581024988e-02  9.9965477398401018e-02  9.9951667859467297e-02  9.9956426053137995e-02  9.9937302419708302e-02  9.9949937143360271e-02  9.9945923285798155e-02  9.9926196153995145e-02  9.9941773906787226e-02  9.9931456057407914e-02  9.9920558473956159e-02  9.9920266563993998e-02  9.9940808668987136e-02  9.9876958745903605e-02  9.9979731300218075e-02  9.9806707937576747e-02  1.0010440454516407e-01  9.9549555724697411e-02  9.9767134997594015e-02  1.0075801021446533e-01  1.0024218906064339e-01  1.0007886227666467e-01  1.0010828442019276e-01  1.0011106391517420e-01  1.0008154798317993e-01  1.0007712906134544e-01  1.0006798262536495e-01  1.0009413448378440e-01  1.0006366751348124e-01  1.0007493675682898e-01  1.0007525436379236e-01  1.0006476717180522e-01  1.0006533489935605e-01  1.0006691716215507e-01  1.0005849829605436e-01  1.0005853243975323e-01  1.0005835932745243e-01  1.0005352436559339e-01  1.0005264220951889e-01  1.0005274668336037e-01  1.0004872194648712e-01  1.0004929031084155e-01  1.0004642171623884e-01  1.0004806085443367e-01  1.0004078372967261e-01  1.0005163562016357e-01  1.0002923497889057e-01  1.0006639689692229e-01  1.0000000000000003e-01  9.9984414299864321e-02  1.0000000000000003e-01  9.9990648635851331e-02  9.9986438869872379e-02  9.9983717088102206e-02  9.9983175574470173e-02  9.9983082051398955e-02  9.9976098357085263e-02  9.9978074750073392e-02  9.9979114716089071e-02  9.9969178779988954e-02  9.9973356257890264e-02  9.9972264371335232e-02  9.9960979672743755e-02  9.9963763323560800e-02  9.9975696543215101e-02  9.9931749986026289e-02  9.9952880468310468e-02  9.9946153081855477e-02  9.9928248234710526e-02  9.9942374535108930e-02  9.9941238180686662e-02  9.9911600755097738e-02  9.9940985453689124e-02  9.9917765796413371e-02  9.9925844343765252e-02  9.9891773839811168e-02  9.9983680137347708e-02  9.9785963903705130e-02  1.0014150077209602e-01  9.9498332287351679e-02  9.9775190432961999e-02  1.0073461953681621e-01  1.0029544949997618e-01  9.9983026250228271e-02  1.0013193745923568e-01  1.0010550004408102e-01  1.0011434493977774e-01  1.0003636785987220e-01  1.0011095178376916e-01  1.0004785870700511e-01  1.0007677443903343e-01  1.0007478564624447e-01  1.0006202291538203e-01  1.0006286651365667e-01  1.0006772269743051e-01  1.0005560448628477e-01  1.0005703942179026e-01  1.0005751891906553e-01  1.0005026710255722e-01  1.0005005141294485e-01  1.0004999324044780e-01  1.0004575792010031e-01  1.0004445658915483e-01  1.0004543042823477e-01  1.0004010488534738e-01  1.0004354152719740e-01  1.0003573559569742e-01  1.0004604941018960e-01  1.0002445445875510e-01  1.0005925760260249e-01  1.0000000000000003e-01  9.9983159726250478e-02  1.0000000000000003e-01  9.9990487788884946e-02  9.9982611181995848e-02  9.9984642385990710e-02  9.9983175290433518e-02  9.9977203308173127e-02  9.9977867853486835e-02  9.9978907349684815e-02  9.9969030313751317e-02  9.9973428199103848e-02  9.9973178739253779e-02  9.9959681937315109e-02  9.9965572802103150e-02  9.9969472722551189e-02  9.9945521380539942e-02  9.9971714351460780e-02  9.9940974631945290e-02  9.9927477229345585e-02  9.9941221333787952e-02  9.9939352901213668e-02  9.9914842269654774e-02  9.9932657401733696e-02  9.9935170332992387e-02  9.9892278314295299e-02  9.9945711410173874e-02  9.9884991716046673e-02  9.9963833821707052e-02  9.9794935432927001e-02  1.0014894868566780e-01  9.9447204089902264e-02  9.9791985552667828e-02  1.0079319765478446e-01  1.0024112113787711e-01  1.0000666084398584e-01  1.0016925478024642e-01  1.0006107534878557e-01  1.0009972776941138e-01  1.0014369222253659e-01  1.0003759068116941e-01  1.0008849260869726e-01  1.0007785427119222e-01  1.0007016842653454e-01  1.0006698319443876e-01  1.0007759637146170e-01  1.0006024333792241e-01  1.0006369121989134e-01  1.0006519079255399e-01  1.0005627790001285e-01  1.0005566585427993e-01  1.0005648950295419e-01  1.0004996370315573e-01  1.0004991250643183e-01  1.0004900483896048e-01  1.0004642988902539e-01  1.0004356554670972e-01  1.0004662858923687e-01  1.0003785035378750e-01  1.0004841845298726e-01  1.0002731524409442e-01  1.0006153665378673e-01  1.0000000000000003e-01  9.9982064412936500e-02  1.0000000000000003e-01  9.9988468286711471e-02  9.9982948302934874e-02  9.9984859333213480e-02  9.9978100468648343e-02  9.9979361915042517e-02  9.9979255719836610e-02  9.9970213564503238e-02  9.9973760832778605e-02  9.9974373470968755e-02  9.9960997011541278e-02  9.9966613203890609e-02  9.9968036280162612e-02  9.9949301857084352e-02  9.9964716717695273e-02  9.9957496960607128e-02  9.9952236054751134e-02  9.9934375284226093e-02  9.9943730894072505e-02  9.9909902671775422e-02  9.9939599677126137e-02  9.9928788478955172e-02  9.9907543283312736e-02  9.9918896374140448e-02  9.9943429852078505e-02  9.9857058161117715e-02  9.9990862712589057e-02  9.9784647641688901e-02  1.0014465905084710e-01  9.9431675852788934e-02  9.9722655836994412e-02  1.0085578250255438e-01  1.0026958876824925e-01  1.0003409374219797e-01  1.0011731030835325e-01  1.0006209107002029e-01  1.0013491146662178e-01  1.0007143381974938e-01  1.0011906136150919e-01  1.0006246163293747e-01  1.0007862149046412e-01  1.0005818809668084e-01  1.0008554395739912e-01  1.0005754922597591e-01  1.0006526920227475e-01  1.0006744169295578e-01  1.0005646338552862e-01  1.0005664345567652e-01  1.0005894652683009e-01  1.0005016793910025e-01  1.0004971596753763e-01  1.0005041005621199e-01  1.0004447598179744e-01  1.0004505177972829e-01  1.0004266229121893e-01  1.0004315368851995e-01  1.0003601293545872e-01  1.0004640128486375e-01  1.0002500066039526e-01  1.0005821950791625e-01  1.0000000000000003e-01  9.9980406229672428e-02  1.0000000000000003e-01  9.9988773535357997e-02  9.9983000674751549e-02  9.9980997513569786e-02  9.9979549389868777e-02  9.9980612980054243e-02  9.9972107718145339e-02  9.9974306711848593e-02  9.9975157125753597e-02  9.9963853535467953e-02  9.9967161807340235e-02  9.9968732613037695e-02  9.9951582260100730e-02  9.9961719232245949e-02  9.9962206178734206e-02  9.9944290647066628e-02  9.9952465919459499e-02  9.9971377983228735e-02  9.9904310512370559e-02  9.9938698333662659e-02  9.9933120778041409e-02  9.9897640051895414e-02  9.9936839726827639e-02  9.9916480129138494e-02  9.9908187381530372e-02  9.9888752788163754e-02  9.9987995968893087e-02  9.9752159208245095e-02  1.0017702460602927e-01  9.9405491607355595e-02  9.9719149888439870e-02  1.0084213171237744e-01  1.0030845122268227e-01  9.9983276924693817e-02  1.0013186877451433e-01  1.0009675926356851e-01  1.0008566920393025e-01  1.0008519778349380e-01  1.0011446610642255e-01  1.0010469846804387e-01  1.0004372142653860e-01  1.0009960281664859e-01  1.0005218547442614e-01  1.0007105332009124e-01  1.0007142366804557e-01  1.0005959312295785e-01  1.0005883559489034e-01  1.0006415352080145e-01  1.0005279387838477e-01  1.0005357069183737e-01  1.0005410439997393e-01  1.0004740943815894e-01  1.0004612247313963e-01  1.0004751073694158e-01  1.0004108995724069e-01  1.0004395599456938e-01  1.0003735990247203e-01  1.0004558653513633e-01  1.0002586625244769e-01  1.0005815069148555e-01  1.0000000000000003e-01  9.9979759529726514e-02  1.0000000000000003e-01  9.9988952348430707e-02  9.9979732256066378e-02  9.9982143448265948e-02  9.9980420539340184e-02  9.9974511387036696e-02  9.9975152680644400e-02  9.9976219353163837e-02  9.9965921510415973e-02  9.9969086094019763e-02  9.9970367675192351e-02  9.9954053625839701e-02  9.9961314564395651e-02  9.9963782065874696e-02  9.9943763736926150e-02  9.9955268385033283e-02  9.9963523874075824e-02  9.9925560207029307e-02  9.9969566373719065e-02  9.9924883202898371e-02  9.9904552046316195e-02  9.9926361840222994e-02  9.9934567575896735e-02  9.9877092565692244e-02  9.9947083619782925e-02  9.9885888748535032e-02  9.9950182100005197e-02  9.9785669272160579e-02  1.0017868286342148e-01  9.9362078161368383e-02  9.9734455000676084e-02  1.0086630073681642e-01  1.0027490705383806e-01  9.9987878562542598e-02  1.0016458723369230e-01  1.0005175249091364e-01  1.0009442082327172e-01  1.0010299984070928e-01  1.0008507069481815e-01  1.0007971243509624e-01  1.0012916542621252e-01  1.0003567934065140e-01  1.0007887258313120e-01  1.0006736844220865e-01  1.0006339650780342e-01  1.0005760720051600e-01  1.0006777915644896e-01  1.0005269731902813e-01  1.0005455009235723e-01  1.0005693759485637e-01  1.0004848462519789e-01  1.0004777501574300e-01  1.0004791407485829e-01  1.0004327796769814e-01  1.0004068045055889e-01  1.0004379788790745e-01  1.0003479750737916e-01  1.0004429855749938e-01  1.0002518650450902e-01  1.0005571468388945e-01  1.0000000000000003e-01  9.9979253629583709e-02  1.0000000000000003e-01  9.9987428351183336e-02  9.9980409441607895e-02  9.9983011589604959e-02  9.9975900066575543e-02  9.9977046522057147e-02  9.9976965626369860e-02  9.9968567149723075e-02  9.9970755078620008e-02  9.9972496645828801e-02  9.9957936600976433e-02  9.9963025757843438e-02  9.9964737833581424e-02  9.9946042453000816e-02  9.9956638154456712e-02  9.9960942564950570e-02  9.9933069483776379e-02  9.9957718279957780e-02  9.9950214685812014e-02  9.9937494041186417e-02  9.9922541989936525e-02  9.9930486030988946e-02  9.9888950158481718e-02  9.9921254378049731e-02  9.9941773162444097e-02  9.9842444657656265e-02  9.9991874154192070e-02  9.9786505851749738e-02  1.0013730417491505e-01  9.9393796715936275e-02  9.9692598280481395e-02  1.0090859201328764e-01  1.0028169521776205e-01  1.0001339536298291e-01  1.0012912143679041e-01  1.0005713885523897e-01  1.0012170782375353e-01  1.0007041998869193e-01  1.0008099903298506e-01  1.0010594789599925e-01  1.0007490343422241e-01  1.0010234514500854e-01  1.0005597653904114e-01  1.0007123421582599e-01  1.0005169816946867e-01  1.0007450605584385e-01  1.0005193949419861e-01  1.0005666270876057e-01  1.0005924209862373e-01  1.0004994148819589e-01  1.0004943538874818e-01  1.0005210504517999e-01  1.0004358469579301e-01  1.0004401848914343e-01  1.0004237297355033e-01  1.0004121824305426e-01  1.0003485915848681e-01  1.0004428325933107e-01  1.0002445010275240e-01  1.0005460165506516e-01  1.0000000000000003e-01  9.9978101190004359e-02  1.0000000000000003e-01  9.9987807721697797e-02  9.9980872970297757e-02  9.9979734187399527e-02  9.9977469195979080e-02  9.9978734116912563e-02  9.9970641809143793e-02  9.9972137580710746e-02  9.9973751532432681e-02  9.9962325794465554e-02  9.9964945017313234e-02  9.9966879404377040e-02  9.9949977830077988e-02  9.9956800878671065e-02  9.9961706749729567e-02  9.9937245414208203e-02  9.9953712112801810e-02  9.9956134604456154e-02  9.9929737225294690e-02  9.9943604322228541e-02  9.9973768061858037e-02  9.9873731397382676e-02  9.9937769441793917e-02  9.9913805819377977e-02  9.9892027210964948e-02  9.9895301529211514e-02  9.9988777835710640e-02  9.9738098400939890e-02  1.0017953039588053e-01  9.9398626195383963e-02  9.9678392193977283e-02  1.0089154202944629e-01  1.0031235234571999e-01  9.9979929577248147e-02  1.0013052888628490e-01  1.0008345728564300e-01  1.0008992697596394e-01  1.0007028897175253e-01  1.0010645152683785e-01  1.0006941621810141e-01  1.0007976238463415e-01  1.0009278026296328e-01  1.0009419005585075e-01  1.0003622335862934e-01  1.0008389904900400e-01  1.0004557535887679e-01  1.0005954500359257e-01  1.0006000913306641e-01  1.0005072381491414e-01  1.0004919115365822e-01  1.0005379582579456e-01  1.0004509522139156e-01  1.0004451551303141e-01  1.0004599306460038e-01  1.0003845323343918e-01  1.0004061842921676e-01  1.0003524029668541e-01  1.0004150756023356e-01  1.0002391359816465e-01  1.0005279007456916e-01  1.0000000000000003e-01  9.9977876306145935e-02  1.0000000000000003e-01  9.9988261933978875e-02  9.9978389343482410e-02  9.9981032529662700e-02  9.9978783016922645e-02  9.9973768662236839e-02  9.9973535443478617e-02  9.9974830091450903e-02  9.9965310811688940e-02  9.9967769933259509e-02  9.9969155813673771e-02  9.9954385082260233e-02  9.9958789345220830e-02  9.9963200614201386e-02  9.9941721244596271e-02  9.9952485081623355e-02  9.9959018475824640e-02  9.9929732021100254e-02  9.9948323208913531e-02  9.9960905815870527e-02  9.9907897168209914e-02  9.9968555217615968e-02  9.9920594098406909e-02  9