<?xml version="1.0"?>
<VTKFile type="UnstructuredGrid"  version="0.1"  >
<UnstructuredGrid>
<Piece  NumberOfPoints="1933" NumberOfCells="3640">
<Points>
<DataArray  type="Float64"  NumberOfComponents="3"  format="ascii">-0.4752639804645724 -0.002259442873840766 0  4.524736050428338 -0.002193134502652117 0  4.524636554474887 7.497806925164261 0  -0.4753634778194077 7.497740616880285 0  9.524736110213171 -0.002126862398161803 0  9.524636602104326 7.497873191408078 0  14.52473621825672 -0.002060595623038709 0  14.52463666729741 7.497939452105684 0  19.52473638408534 -0.001994295951616909 0  19.52463674929913 7.498005746760836 0  24.52473660933899 -0.001927923320258993 0  24.52463684422584 7.498072115446686 0  29.52473688970647 -0.001861437609799044 0  29.5246369448788 7.498138597966924 0  34.52473721625871 -0.001794798861648035 0  34.52463704059547 7.498205233926545 0  39.52473757616375 -0.001727966817772812 0  39.52463711705342 7.498272063263333 0  44.52473795288924 -0.001660900169459203 0  44.52463715594924 7.498339127000402 0  49.52473832599153 -0.001593555672919392 0  49.52463713449632 7.498406468109967 0  54.52473867055107 -0.001525887182094597 0  54.52463702469936 7.49847413245235 0  59.52473895627111 -0.001457844594153596 0  59.52463679236032 7.498542169796191 0  64.52473914621513 -0.001389372670799911 0  64.52463639575727 7.498610634952355 0  69.52473919510976 -0.001320409673290498 0  69.52463578391601 7.498679589073965 0  74.52473904708921 -0.00125088572214477 0  74.52463489436022 7.498749101194242 0  79.5247386326736 -0.00118072075715567 0  79.52463365018204 7.498819250095526 0  84.52473786465949 -0.001109821922921217 0  84.52463195621675 7.498890126627368 0  89.5247366324058 -0.001038080132229775 0  89.52462969403001 7.498961836615415 0  94.52473479368476 -0.000965365455863581 0  94.52462671534586 7.499034504513053 0  99.52473216271632 -0.000891520846536465 0  99.52462283347292 7.499108277910691 0  104.5247284920558 -0.0008163535331766613 0  104.5246178122922 7.499183332852253 0  109.5247234443075 -0.0007396232686571256 0  109.5246113526051 7.499259879428759 0  114.5247165465948 -0.000661026652687366 0  114.524603076477 7.499338165916996 0  119.5247071151909 -0.0005801774925363951 0  119.5245925124282 7.499418476918805 0  124.5246941276732 -0.0004965860141964049 0  124.5245790896593 7.499501114665409 0  129.5246760016884 -0.0004096484961494313 0  129.5245621614844 7.499586339047262 0  134.5246502063484 -0.0003186840131530013 0  134.5245411039412 7.499674213581945 0  139.5246125727695 -0.0002231268135382603 0  139.5245155891346 7.499764248925473 0  144.5245560623875 -0.0001231989824300525 0  144.5244862413333 7.499854641686552 0  149.5244685416774 -2.210799218937464e-05 0  149.5244561037317 7.49994082986418 0  159.5244717418524 1.092689959450618e-18 0  164.5244954271384 -4.616357363197382e-06 0  164.5244768438389 7.49998933156114 0  159.5244635401728 7.499985808968827 0  169.5245225992273 1.095529014896305e-05 0  169.5244899038061 7.500008257570668 0  174.5245488755 4.013414746937358e-05 0  174.5245030160626 7.500038948613834 0  179.5245726789574 7.878776515913725e-05 0  179.5245158376412 7.500078312695913 0  184.5245936111679 0.0001241780917251842 0  184.5245280111161 7.500124040579091 0  189.5246117555675 0.0001744410063597725 0  189.5245392997326 7.500174461841045 0  194.5246273724219 0.0002282813513722738 0  194.5245495857534 7.500228373170049 0  199.5246407667104 0.0002847821311454048 0  199.5245588382829 7.500284902233537 0  204.5246522336106 0.0003432820682200179 0  204.5245670817325 7.500343409771769 0  209.5246620386319 0.0004032958321758337 0  209.5245743721381 7.500403421390478 0  214.5246704128242 0.0004644613126394649 0  214.5245807812284 7.500464580428345 0  219.5246775541691 0.0005265042002125312 0  219.5245863864117 7.500526615286526 0  224.524683631174 0.0005892137669962411 0  224.5245912648246 7.500589316573894 0  229.5246887869576 0.0006524259941840542 0  229.5245954900288 7.500652520918569 0  234.52469314314 0.0007160115985666675 0  234.5245991303704 7.500716099340136 0  239.5246968033059 0.0007798673862032943 0  239.5246022483589 7.500779948780208 0  244.524699856015 0.0008439099120744067 0  244.5246049006515 7.500843985854034 0  249.524702377395 0.0009080707745543201 0  249.5246071383899 7.500908142193856 0  254.5247044333954 0.0009722931003569901 0  254.5246090077339 7.500972360960589 0  259.5247060817667 0.001036528927086453 0  259.5246105504897 7.501036594240828 0  264.524707373842 0.00110073729682174 0  264.5246118047799 7.501100801146077 0  269.524708356163 0.001164882955049183 0  269.5246128057137 7.501164946506718 0  274.5247090720152 0.001228935618790488 0  274.5246135860168 7.501229000116359 0  279.5247095628688 0.001292869847385213 0  279.5246141765999 7.501292936540761 0  284.5247098697263 0.001356665629443597 0  284.5246146070098 7.501356735565198 0  289.5247100342537 0.001420309899484034 0  289.5246149057343 7.501420383417256 0  294.5247100994461 0.001483799320615037 0  294.5246151003104 7.501483874963137 0  299.5247101092381 0.001547144786388289 0  299.524615217265 7.501547217120031 0  304.5247101058571 0.001610378038817799 0  304.5246152821045 7.501610433738543 0  309.5247101224273 0.001673559804079246 0  309.5246153200803 7.501673572308286 0  4.524537014778591 14.99780703946332 0  -0.4754630134391006 14.99774076074221 0  9.524537041256755 14.99787327219023 0  14.52453706312058 14.99793950394321 0  19.52453707491343 14.9980057751894 0  24.52453706936103 14.99807212466984 0  29.52453703721688 14.99813859040093 0  34.52453696685112 14.99820521030276 0  39.52453684377735 14.99827202282362 0  44.52453665014412 14.998339067627 0  49.52453636416782 14.99840638633945 0  54.52453595947123 14.99847402335355 0  59.52453540429246 14.99854202668974 0  64.52453466053356 14.99861044893088 0  69.52453368262006 14.99867934824871 0  74.52453241615623 14.99874878954157 0  79.5245307963728 14.99881884569345 0  84.52452874641214 14.99888959893539 0  89.52452617556698 14.99896114222864 0  94.52452297774941 14.99903358045414 0  99.52451903074348 14.99910703092502 0  104.5245141973065 14.99918162221324 0  109.5245083300493 14.99925748927679 0  114.524501283467 14.99933476100309 0  119.5244929387186 14.99941353289142 0  124.5244832498568 14.99949381168571 0  129.5244723236648 14.99957540908164 0  134.5244605465677 14.99965774745618 0  139.5244487637223 14.99973952478912 0  144.5244384775189 14.99981818357493 0  149.524431917681 14.99988918180765 0  164.5244466694325 14.99997304224113 0  159.5244410461627 14.99995219846903 0  169.5244511956338 15.00000081964131 0  174.5244557508618 15.00003590942615 0  179.5244606425654 15.00007741310629 0  184.524465820908 15.00012414642078 0  189.5244711231891 15.00017500767751 0  194.5244763809148 15.00022908042526 0  199.524481458122 15.00028563693017 0  204.524486259069 15.00034411062066 0  209.5244907239807 15.00040406336795 0  214.5244948213476 15.000465156314 0  219.524498540283 15.00052712632134 0  224.5245018841453 15.00058976776277 0  229.5245048656388 15.00065291870271 0  234.5245075032463 15.0007164504799 0  239.5245098187168 15.00078025985532 0  244.5245118353567 15.00084426307667 0  249.5245135769099 15.00090839137734 0  254.524515066853 15.00097258756009 0  259.5245163279797 15.00103680341805 0  264.5245173821788 15.00110099782236 0  269.5245182503396 15.00116513536626 0  274.5245189523271 15.00122918550238 0  279.5245195070013 15.00129312214731 0  284.5245199322766 15.00135692375508 0  289.5245202452346 15.00142057387203 0  294.5245204624071 15.00148406216852 0  299.5245206004168 15.0015473858739 0  304.5245206773949 15.00161055139191 0  309.524520715889 15.00167357562741 0  4.524437559325827 22.49780721229446 0  -0.4755624648158781 22.49774102067024 0  9.524437571354238 22.49787337284991 0  14.52443756389839 22.49793954480881 0  19.5244375294099 22.49800576583989 0  24.52443745967713 22.49807207138383 0  29.52443734545609 22.49813849610859 0  34.52443717605804 22.49820507477331 0  39.5244369389225 22.49827184285931 0  44.52443661920027 22.49833883713104 0  49.52443619935432 22.49840609618827 0  54.52443565877532 22.49847366102505 0  59.52443497341439 22.49854157559323 0  64.52443411544809 22.49860988735749 0  69.52443305301207 22.49867864781412 0  74.52443175007555 22.4987479129238 0  79.52443016657975 22.49881774336505 0  84.52442825904529 22.49888820444152 0  89.52442598197746 22.49895936534875 0  94.52442329057679 22.4990312972906 0  99.52442014553003 22.49910406957711 0  104.524416521005 22.49917774225075 0  109.5244124174152 22.49925235286077 0  114.5244078809479 22.49932789360137 0  119.5244030320247 22.49940427305607 0  124.5243981041915 22.4994812544139 0  129.5243934921828 22.49955836021122 0  134.5243898008952 22.49963473554164 0  139.5243878725302 22.49970897559628 0  144.5243887445762 22.49977896933791 0  149.5243934621463 22.49984193453482 0  164.5244018588226 22.49995360471173 0  159.5244011870423 22.49991971653496 0  169.52440166687 22.49999019532162 0  174.5244013154191 22.50003072217162 0  179.524401245624 22.50007539700844 0  184.5244016349682 22.5001238950999 0  189.5244024928812 22.50017568446166 0  194.524403745249 22.50023020148708 0  199.5244052884908 22.50028692948529 0  204.5244070187856 22.50034542556253 0  209.524408845415 22.5004053230522 0  214.5244106951692 22.50046632387538 0  219.5244125122355 22.50052818782935 0  224.5244142561243 22.50059072192134 0  229.5244158989775 22.50065377094847 0  234.5244174229221 22.50071720963531 0  239.524418817744 22.50078093626286 0  244.5244200789625 22.50084486758929 0  249.5244212062909 22.50090893483954 0  254.5244222024384 22.50097308056112 0  259.5244230721825 22.50103725617991 0  264.5244238216669 22.5011014201242 0  269.5244244578654 22.50116553641785 0  274.524424988192 22.50122957366656 0  279.524425420236 22.50129350437428 0  284.5244257616411 22.50135730452524 0  289.5244260201781 22.50142095334153 0  294.5244262041219 22.50148443306325 0  299.524426323087 22.5015
[...]
<PointData  Scalars="p"> 
<DataArray  type="Float64"  Name="p"  format="ascii">1.0000000000000001e-01  1.0000000000000003e-01  9.9997878424087180e-02  1.0000000000000003e-01  1.0000000000000003e-01  9.9998660720960711e-02  1.0000000000000003e-01  9.9997973111808455e-02  1.0000000000000003e-01  9.9998123569244590e-02  1.0000000000000003e-01  9.9997720708877733e-02  1.0000000000000003e-01  9.9996246938685904e-02  1.0000000000000003e-01  9.9996177167066699e-02  1.0000000000000003e-01  9.9995172635255924e-02  1.0000000000000003e-01  9.9993436880280506e-02  1.0000000000000003e-01  9.9994712897763627e-02  1.0000000000000003e-01  9.9987492305322515e-02  1.0000000000000003e-01  9.9986126157203037e-02  1.0000000000000003e-01  9.9982875230415325e-02  1.0000000000000003e-01  9.9980954045683315e-02  1.0000000000000003e-01  9.9974821491231006e-02  1.0000000000000003e-01  9.9972877637463903e-02  1.0000000000000003e-01  9.9967604396337437e-02  1.0000000000000003e-01  9.9959819270255851e-02  1.0000000000000003e-01  9.9956850957152343e-02  1.0000000000000003e-01  9.9947551852446220e-02  1.0000000000000003e-01  9.9941399013755136e-02  1.0000000000000003e-01  9.9930557566025313e-02  1.0000000000000003e-01  9.9929926737074098e-02  1.0000000000000003e-01  9.9905157309146064e-02  1.0000000000000003e-01  9.9922490263548519e-02  1.0000000000000003e-01  9.9873183658107323e-02  1.0000000000000003e-01  9.9922606804056999e-02  1.0000000000000003e-01  9.9831541481059188e-02  1.0000000000000003e-01  9.9934490287897734e-02  1.0000000000000001e-01  9.9765826774299418e-02  1.0000000000000001e-01  1.0000000000000003e-01  1.0013662538288315e-01  1.0034093844132153e-01  1.0000000000000003e-01  1.0001539267144127e-01  1.0000000000000003e-01  1.0010366495656475e-01  1.0000000000000003e-01  1.0005103704363442e-01  1.0000000000000003e-01  1.0006414007863046e-01  1.0000000000000003e-01  1.0004990538274397e-01  1.0000000000000003e-01  1.0005332616225220e-01  1.0000000000000003e-01  1.0004116944698806e-01  1.0000000000000003e-01  1.0004157818576886e-01  1.0000000000000003e-01  1.0003663960367169e-01  1.0000000000000003e-01  1.0003266887179847e-01  1.0000000000000003e-01  1.0002986579382361e-01  1.0000000000000003e-01  1.0002780290578259e-01  1.0000000000000003e-01  1.0002440991708120e-01  1.0000000000000003e-01  1.0002286364398354e-01  1.0000000000000003e-01  1.0002122276271323e-01  1.0000000000000003e-01  1.0001924886933324e-01  1.0000000000000003e-01  1.0001808324610839e-01  1.0000000000000003e-01  1.0001712472884150e-01  1.0000000000000003e-01  1.0001580441404104e-01  1.0000000000000003e-01  1.0001519050021536e-01  1.0000000000000003e-01  1.0001434509952546e-01  1.0000000000000003e-01  1.0001393039168716e-01  1.0000000000000003e-01  1.0001287423188784e-01  1.0000000000000003e-01  1.0001343729737257e-01  1.0000000000000003e-01  1.0001128383791537e-01  1.0000000000000003e-01  1.0001379257221098e-01  1.0000000000000003e-01  1.0000872110936261e-01  1.0000000000000003e-01  1.0001679828426285e-01  1.0000000000000001e-01  1.0000000000000003e-01  9.9995283202471932e-02  1.0000000000000003e-01  9.9996016315066827e-02  9.9995839687931132e-02  9.9995285105198312e-02  9.9993353843010141e-02  9.9993654955949612e-02  9.9993063755730374e-02  9.9990034945360379e-02  9.9991822318610243e-02  9.9990318665893307e-02  9.9989292876549465e-02  9.9980413771360660e-02  9.9985117537352369e-02  9.9976984463068283e-02  9.9981295931874464e-02  9.9976890262098231e-02  9.9970624190953275e-02  9.9971537066206678e-02  9.9967714373771596e-02  9.9957332352739722e-02  9.9961822607265785e-02  9.9950835797811347e-02  9.9950310073611201e-02  9.9938448014629991e-02  9.9954308624370047e-02  9.9908796065770633e-02  9.9980642458434368e-02  9.9851497367568209e-02  1.0004900151973467e-01  9.9763631990115315e-02  9.9835454086291922e-02  1.0048256567657751e-01  1.0017453231549099e-01  1.0001804547533055e-01  1.0004620255825002e-01  1.0003683578286775e-01  1.0005219057953613e-01  1.0002780672642077e-01  1.0003834026404811e-01  1.0003292212699509e-01  1.0002712570428471e-01  1.0002629369023269e-01  1.0002562958079314e-01  1.0002022019346811e-01  1.0001992754821909e-01  1.0001883486037121e-01  1.0001581089473292e-01  1.0001512892067736e-01  1.0001439106734240e-01  1.0001236188991436e-01  1.0001166589324093e-01  1.0001105779283052e-01  1.0000951098125693e-01  1.0000911925335293e-01  1.0000800350578919e-01  1.0000777803664312e-01  1.0000580504668327e-01  1.0000757402554980e-01  1.0000274622528763e-01  1.0000858296326201e-01  1.0000000000000003e-01  9.9992443879062157e-02  1.0000000000000003e-01  9.9995540677889294e-02  9.9993608343934809e-02  9.9991774190665295e-02  9.9991890548895151e-02  9.9991224444396287e-02  9.9986948400779749e-02  9.9988131981046544e-02  9.9987344566158085e-02  9.9983034909372229e-02  9.9981574525691452e-02  9.9987547498803980e-02  9.9963886256118129e-02  9.9975396659134505e-02  9.9969546054544292e-02  9.9961037727058250e-02  9.9964725344606542e-02  9.9958668957032759e-02  9.9945601722271016e-02  9.9948837341930843e-02  9.9942213144795428e-02  9.9923319376574213e-02  9.9935093116545637e-02  9.9911414995792716e-02  9.9921044601031309e-02  9.9888207256401212e-02  9.9939664164133996e-02  9.9820906566507342e-02  1.0003674298582033e-01  9.9632234171439460e-02  9.9924381090356687e-02  1.0038644732585755e-01  1.0022887839775180e-01  1.0004023810268024e-01  1.0006170039532084e-01  1.0009684224992389e-01  1.0003565494160904e-01  1.0006997124391782e-01  1.0005717408469643e-01  1.0004600307396273e-01  1.0004616779953331e-01  1.0004611548795339e-01  1.0003509161870736e-01  1.0003581487042720e-01  1.0003389384828161e-01  1.0002783035190374e-01  1.0002708067355860e-01  1.0002610333325472e-01  1.0002204020670914e-01  1.0002130355382487e-01  1.0002027483595478e-01  1.0001771631702923e-01  1.0001668731107763e-01  1.0001596497510569e-01  1.0001373816709663e-01  1.0001352588950715e-01  1.0001140179442879e-01  1.0001214097194315e-01  1.0000765707158416e-01  1.0001360216530016e-01  1.0000000000000003e-01  9.9990584894518023e-02  1.0000000000000003e-01  9.9994267076603430e-02  9.9989783999117676e-02  9.9990685348434527e-02  9.9989811536719569e-02  9.9985121948524144e-02  9.9986221147722099e-02  9.9985120269152100e-02  9.9979284793556195e-02  9.9981499243306529e-02  9.9981156218156508e-02  9.9968230555542811e-02  9.9983606668750363e-02  9.9960853580215434e-02  9.9960316720937387e-02  9.9962966789537061e-02  9.9961633455206575e-02  9.9945859765936465e-02  9.9954649568988016e-02  9.9944578319270241e-02  9.9931500184155891e-02  9.9933889929805633e-02  9.9932579936017368e-02  9.9902082166299602e-02  9.9936955743768083e-02  9.9878475532338445e-02  9.9953426334052076e-02  9.9815134797943364e-02  1.0006103796338146e-01  9.9613271077974797e-02  9.9943093776189013e-02  1.0049438365723287e-01  1.0013819839389293e-01  1.0002492786479342e-01  1.0017843313680391e-01  9.9994953988083141e-02  1.0009022317844479e-01  1.0005916260140472e-01  1.0005237288541843e-01  1.0005066284951139e-01  1.0005574719592450e-01  1.0003778631379387e-01  1.0004174794671791e-01  1.0003957373522376e-01  1.0003132906833684e-01  1.0003073785905200e-01  1.0002995475136096e-01  1.0002422336306641e-01  1.0002370361966353e-01  1.0002272097466602e-01  1.0001904205687270e-01  1.0001820532299180e-01  1.0001698435732408e-01  1.0001471607959514e-01  1.0001316533886724e-01  1.0001278029168341e-01  1.0000959949181265e-01  1.0001084435086384e-01  1.0000571120632448e-01  1.0001084336157577e-01  1.0000000000000003e-01  9.9988686694130649e-02  1.0000000000000003e-01  9.9991928970180763e-02  9.9989015601227138e-02  9.9989438340972459e-02  9.9984262009460811e-02  9.9985496413141015e-02  9.9983982279456499e-02  9.9977302513324012e-02  9.9979695808969385e-02  9.9979013966833674e-02  9.9967655878602346e-02  9.9974713670674384e-02  9.9967285998771971e-02  9.9969409797665568e-02  9.9951112718400348e-02  9.9959081304241096e-02  9.9940617927712860e-02  9.9952743474746281e-02  9.9944665085810291e-02  9.9925523387826204e-02  9.9937477628042573e-02  9.9922834515980857e-02  9.9910270296800108e-02  9.9907407689339173e-02  9.9919911588513863e-02  9.9860125291826682e-02  9.9951764542598159e-02  9.9790252825435258e-02  1.0006739459161747e-01  9.9555854854220374e-02  9.9851045083742582e-02  1.0054857388388223e-01  1.0019599455927389e-01  1.0008517690105760e-01  1.0007985649558145e-01  1.0011086728777592e-01  1.0007197838350401e-01  1.0006612520397830e-01  1.0005880143762469e-01  1.0007803429523440e-01  1.0004555117388778e-01  1.0005574355798035e-01  1.0005259763524715e-01  1.0004060289444477e-01  1.0004073700713345e-01  1.0004054390282231e-01  1.0003143881358501e-01  1.0003130193889367e-01  1.0003032737730279e-01  1.0002496935784841e-01  1.0002406041077504e-01  1.0002314019688052e-01  1.0001930673373931e-01  1.0001839364226804e-01  1.0001670981490668e-01  1.0001481635655211e-01  1.0001233091491885e-01  1.0001299951492967e-01  1.0000751212238193e-01  1.0001280165545444e-01  1.0000000000000003e-01  9.9986463015349580e-02  1.0000000000000003e-01  9.9991593620069069e-02  9.9987653815681338e-02  9.9984971145397145e-02  9.9984532963012115e-02  9.9983780164144567e-02  9.9977012052843012e-02  9.9978496036386574e-02  9.9977807034426797e-02  9.9968168126240473e-02  9.9971760326852011e-02  9.9968502350546842e-02  9.9959325249989711e-02  9.9960337984626321e-02  9.9974891658147214e-02  9.9927501044882155e-02  9.9953503631087015e-02  9.9942799583685113e-02  9.9927180068402122e-02  9.9938004700420982e-02  9.9931674544001439e-02  9.9902476443239435e-02  9.9926540103937311e-02  9.9899031507879654e-02  9.9903194437385226e-02  9.9871175804939455e-02  9.9947119624397646e-02  9.9771058902871287e-02  1.0009247223230593e-01  9.9511878840483195e-02  9.9885408506957526e-02  1.0050783719841637e-01  1.0024441514944386e-01  1.0000216505472301e-01  1.0012177228925936e-01  1.0009898019070736e-01  1.0010671490366622e-01  1.0003911039328023e-01  1.0010474979655526e-01  1.0004039057880029e-01  1.0006870826693942e-01  1.0006159986248989e-01  1.0004673755529012e-01  1.0004694045325152e-01  1.0004895166601212e-01  1.0003579298076351e-01  1.0003692472267448e-01  1.0003593473841546e-01  1.0002823755019707e-01  1.0002774201327050e-01  1.0002704640273259e-01  1.0002192954035984e-01  1.0002088498970570e-01  1.0001992836298557e-01  1.0001599938289089e-01  1.0001540222485185e-01  1.0001263504444245e-01  1.0001240995656110e-01  1.0000721753706182e-01  1.0001196170606541e-01  1.0000000000000003e-01  9.9985263967295027e-02  1.0000000000000003e-01  9.9990958465081478e-02  9.9983775470007516e-02  9.9985291572985774e-02  9.9983345469216153e-02  9.9977481356660541e-02  9.9978232547692211e-02  9.9977535752949223e-02  9.9968041576195668e-02  9.9971780920980260e-02  9.9969036687214755e-02  9.9956631658147180e-02  9.9961489947694354e-02  9.9963812222141971e-02  9.9939766881948985e-02  9.9970645056301377e-02  9.9930651729509323e-02  9.9925911001068804e-02  9.9936803735484192e-02  9.9931715081558639e-02  9.9907065115157012e-02  9.9921690392143575e-02  9.9916346394114619e-02  9.9875643157716257e-02  9.9919865962887100e-02  9.9860583819743720e-02  9.9925900507542950e-02  9.9780569863875332e-02  1.0008690355763687e-01  9.9475488386776473e-02  9.9908919759692655e-02  1.0055676566128126e-01  1.0018785329756474e-01  1.0004087792565237e-01  1.0015511984382647e-01  1.0005962380383017e-01  1.0008926277742222e-01  1.0013917640212071e-01  1.0003194191329028e-01  1.0008424611603493e-01  1.0006868777193080e-01  1.0005785278396950e-01  1.0005407972355253e-01  1.0006072873649349e-01  1.0004163946349720e-01  1.0004448493179607e-01  1.0004403540027543e-01  1.0003410298257083e-01  1.0003330033124658e-01  1.0003294990670365e-01  1.0002606659041684e-01  1.0002539982233197e-01  1.0002418465758077e-01  1.0001997569969645e-01  1.0001823463868185e-01  1.0001739622873122e-01  1.0001317548890422e-01  1.0001363476009313e-01  1.0000824284614430e-01  1.0001261530974315e-01  1.0000000000000003e-01  9.9984080050774166e-02  1.0000000000000003e-01  9.9988914165298842e-02  9.9983887937562105e-02  9.9984626051387776e-02  9.9978106818148976e-02  9.9979008752994550e-02  9.9977627907718691e-02  9.9969034224896683e-02  9.9971962852060628e-02  9.9970585982281424e-02  9.9957589124338692e-02  9.9962315678431612e-02  9.9961281482695397e-02  9.9943118939719439e-02  9.9958556595359765e-02  9.9945991075510721e-02  9.9949029982674589e-02  9.9922525781339561e-02  9.9935319708136419e-02  9.9902758656646162e-02  9.9930350701135442e-02  9.9913098127278180e-02  9.9891654785660852e-02  9.9900050666155010e-02  9.9912626051381875e-02  9.9835721267187330e-02  9.9948469281028338e-02  9.9769307600969789e-02  1.0007574792091897e-01  9.9473140185355816e-02  9.9850338433372349e-02  1.0060592815074000e-01  1.0022255445889117e-01  1.0007113090181398e-01  1.0010871776011529e-01  1.0007389041191034e-01  1.0012821031955149e-01  1.0006143802106042e-01  1.0011701235789100e-01  1.0005984124731869e-01  1.0007212614758074e-01  1.0005305542813865e-01  1.0007527651861772e-01  1.0004478908745999e-01  1.0005187141864051e-01  1.0005108614217056e-01  1.0003858086400334e-01  1.0003850220769969e-01  1.0003918160797208e-01  1.0002944509596175e-01  1.0002903348298839e-01  1.0002839404428146e-01  1.0002241853304604e-01  1.0002147199717527e-01  1.0001987953243857e-01  1.0001654844426346e-01  1.0001381316325895e-01  1.0001415611879182e-01  1.0000793210387428e-01  1.0001241075039037e-01  1.0000000000000003e-01  9.9982493056368388e-02  1.0000000000000003e-01  9.9989123264346655e-02  9.9983385245981105e-02  9.9980779394772984e-02  9.9979247336013641e-02  9.9978843236581669e-02  9.9970642258433232e-02  9.9972294618001126e-02  9.9971534549942953e-02  9.9960684076674286e-02  9.9963369923398063e-02  9.9962264397653738e-02  9.9945849204538612e-02  9.9955189190530869e-02  9.9951248851305033e-02  9.9936138942231745e-02  9.9940579818199676e-02  9.9962237943300558e-02  9.9889552225713940e-02  9.9930367658518565e-02  9.9917774941326740e-02  9.9886654828483412e-02  9.9919186223300718e-02  9.9893745426346089e-02  9.9881533824305216e-02  9.9866475469134880e-02  9.9939908297674532e-02  9.9743560351330071e-02  1.0009918261820619e-01  9.9458083251055956e-02  9.9858024240805365e-02  1.0058548692305133e-01  1.0025763019354232e-01  1.0002467248058886e-01  1.0013042661291331e-01  1.0011022601098404e-01  1.0008148755691287e-01  1.0008541015455777e-01  1.0010233753043532e-01  1.0009818304782531e-01  1.0004185287197996e-01  1.0009300413305293e-01  1.0004364799021090e-01  1.0006188483839408e-01  1.0005843770905250e-01  1.0004443594730619e-01  1.0004325969979305e-01  1.0004612569081690e-01  1.0003375485463842e-01  1.0003408210835880e-01  1.0003339196114662e-01  1.0002572786742561e-01  1.0002465734541682e-01  1.0002411706829796e-01  1.0001853574807498e-01  1.0001784853765948e-01  1.0001514220598838e-01  1.0001378860561108e-01  1.0000852956081949e-01  1.0001277800626125e-01  1.0000000000000003e-01  9.9981851079400108e-02  1.0000000000000003e-01  9.9988999173350232e-02  9.9980281207809843e-02  9.9981803495451160e-02  9.9979181712414683e-02  9.9973016555783653e-02  9.9973281375882281e-02  9.9972546657082537e-02  9.9962562921808371e-02  9.9965634235402417e-02  9.9964342050942651e-02  9.9949018435538634e-02  9.9955567420138405e-02  9.9954068612012489e-02  9.9935460584123934e-02  9.9944705397730760e-02  9.9949585078934255e-02  9.9911280310725381e-02  9.9961258409913156e-02  9.9902023488552358e-02  9.9893955235282550e-02  9.9911867010715125e-02  9.9913332513528200e-02  9.9859565926218932e-02  9.9919455591797046e-02  9.9859567367256125e-02  9.9906951122547341e-02  9.9777933577480896e-02  1.0009164020888896e-01  9.9431432866128863e-02  9.9877187595331859e-02  1.0061149890062995e-01  1.0022442007837280e-01  1.0003714526538450e-01  1.0016323093516014e-01  1.0006846522974623e-01  1.0009971759525671e-01  1.0010525616980709e-01  1.0007811223825790e-01  1.0007082394799373e-01  1.0012292198854039e-01  1.0003092122945074e-01  1.0007414576703601e-01  1.0005983748562479e-01  1.0005289466549035e-01  1.0004655762142727e-01  1.0005374765737593e-01  1.0003689318839964e-01  1.0003827658462414e-01  1.0003889564683974e-01  1.0002949535445080e-01  1.0002808205057687e-01  1.0002768642984056e-01  1.0002137830853811e-01  1.0001983131805020e-01  1.0001914652347059e-01  1.0001398744940662e-01  1.0001422543812051e-01  1.0000890042226998e-01  1.0001246305017927e-01  1.0000000000000003e-01  9.9981305856443256e-02  1.0000000000000003e-01  9.9987608491258331e-02  9.9981028984211642e-02  9.9982118495821434e-02  9.9975017978998798e-02  9.9975492340991512e-02  9.9973931670106611e-02  9.9965429719295673e-02  9.9967273556646918e-02  9.9966892551665229e-02  9.9953220580590030e-02  9.9957967843954457e-02  9.9956721723257286e-02  9.9938975749346917e-02  9.9947967867617227e-02  9.9947828234340438e-02  9.9920678823263220e-02  9.9944972526994524e-02  9.9928881317434132e-02  9.9928089409118598e-02  9.9899979468028213e-02  9.9911938571521225e-02  9.9871841451804319e-02  9.9903530502594540e-02  9.9909739686451504e-02  9.9823592872012007e-02  9.9947869794084224e-02  9.9775904545525998e-02  1.0005368522633266e-01  9.9471083946884184e-02  9.9835816156536764e-02  1.0066113213567322e-01  1.0023448783208987e-01  1.0006406437277526e-01  1.0012815684876801e-01  1.0007974040927652e-01  1.0012702708981945e-01  1.0007575443708243e-01  1.0008069062057327e-01  1.0010007206659881e-01  1.0006113648217085e-01  1.0009683171144204e-01  1.0005097572382594e-01  1.0006362146760357e-01  1.0004489207725377e-01  1.0006412479812378e-01  1.0003925987803075e-01  1.0004336364825323e-01  1.0004366779660800e-01  1.0003269355578238e-01  1.0003207457135548e-01  1.0003289572732091e-01  1.0002383155503387e-01  1.0002306825396673e-01  1.0002185801080850e-01  1.0001727325656842e-01  1.0001465568861372e-01  1.0001505623200312e-01  1.0000842920883238e-01  1.0001257149972968e-01  1.0000000000000003e-01  9.9980232835465532e-02  1.0000000000000003e-01  9.9988050567535264e-02  9.9981168496429074e-02  9.9979171884630930e-02  9.9976708498647426e-02  9.9976336751856687e-02  9.9968206849016542e-02  9.9969106330951338e-02  9.9968702587153291e-02  9.9957771609968715e-02  9.9960055687211877e-02  9.9959751233126129e-02  9.9943931272610753e-02  9.9950173425479127e-02  9.9950726618706937e-02  9.9927063594122095e-02  9.9942233486166890e-02  9.9937746208763320e-02  9.9915517455414674e-02  9.9924086782239338e-02  9.9956535431144702e-02  9.9849837497588370e-02  9.9920344562429542e-02  9.9888855996773385e-02  9.9869351754839991e-02  9.9875184750654905e-02  9.9941291959485590e-02  9.9735685384404402e-02  1.0009534106082249e-01  9.9475886194120136e-02  9.9819015337854769e-02  1.0065861191534682e-01  1.0026881280052626e-01  1.0003109993391132e-01  1.0013315333384602e-01  1.0010674330833871e-01  1.0009597018037766e-01  1.0008086961167605e-01  1.0010847690031584e-01  1.0006576058527404e-01  1.0007364688126270e-01  1.0007974660378073e-01  1.0008525200197441e-01  1.0003201230482099e-01  1.0007663676475428e-01  1.0003685279448649e-01  1.0005015650537483e-01  1.0004779539588735e-01  1.0003656780114056e-01  1.0003442655381536e-01  1.0003716937248572e-01  1.0002707620044343e-01  1.0002639870520497e-01  1.0002570190385875e-01  1.0001875882734330e-01  1.0001789274728277e-01  1.0001580836900953e-01  1.0001353639746054e-01  1.0000864707482680e-01  1.0001255716671446e-01  1.0000000000000003e-01  9.9980192932701967e-02  1.0000000000000003e-01  9.9988487203446968e-02  9.9979157105898026e-02  9.9980803149931560e-02  9.9977697737873406e-02  9.9972186506302879e-02  9.9971556957771129e-02  9.9970949491950345e-02  9.9961547706901230e-02  9.9963687567906592e-02  9.9962795606304986e-02  9.9948942050463258e-02  9.9953537673472204e-02  9.9954494662416626e-02  9.9934163627318884e-02  9.9943847565009028e-02  9.9944331559621333e-02  9.9917182862723164e-02  9.9932806868518645e-02  9.9940198896106697e-02  9.9887254429061406e-02  9.9955711599938046e-02  9.9885996762266852e-02  9