<?xml version="1.0"?>
<VTKFile type="UnstructuredGrid"  version="0.1"  >
<UnstructuredGrid>
<Piece  NumberOfPoints="1933" NumberOfCells="3640">
<Points>
<DataArray  type="Float64"  NumberOfComponents="3"  format="ascii">-0.475437987596663 -0.0006921571923214206 0  4.52456201968451 -0.000670433889258724 0  4.524529421423357 7.499329577847845 0  -0.4754705843105456 7.499307858042412 0  9.524562035815116 -0.0006487162526071402 0  9.524529428768028 7.499351292347249 0  14.52456206383589 -0.0006269911200718849 0  14.52452943663765 7.499373015117452 0  19.52456210322666 -0.0006052456837656013 0  19.52452944298832 7.499394758831503 0  24.52456215107381 -0.0005834681540257173 0  24.52452944473661 7.499416535047762 0  29.5245622028097 -0.0005616477394725071 0  29.52452943773025 7.499438354352295 0  34.52456225259649 -0.0005397743992318187 0  34.52452941672089 7.499460226625375 0  39.5245622934547 -0.0005178385480023747 0  39.52452937530297 7.49948216132682 0  44.52456231721353 -0.0004958307807108155 0  44.52452930580008 7.499504167756705 0  49.52456231433072 -0.000473741636677078 0  49.52452919908954 7.499526255277508 0  54.52456227360605 -0.0004515614047652409 0  54.5245290443595 7.499548433496646 0  59.52456218179518 -0.0004292799645515273 0  59.52452882879139 7.499570712413101 0  64.52456202311549 -0.0004068866570040387 0  64.52452853715722 7.499593102532558 0  69.5245617786224 -0.0003843701784373698 0  69.52452815131581 7.499615614954397 0  74.52456142542044 -0.0003617184922249574 0  74.52452764958576 7.499638261431588 0  79.52456093565166 -0.0003389187534123698 0  79.52452700596457 7.499661054400883 0  84.52456027517738 -0.0003159572419496059 0  84.5245261891546 7.499684006974602 0  89.52455940182166 -0.0002928193013342636 0  89.52452516134552 7.499707132873794 0  94.52455826297306 -0.0002694892829139443 0  94.52452387669717 7.499730446259951 0  99.52455679221811 -0.000245950506827565 0  99.52452227946694 7.499753961376305 0  104.5245549044734 -0.0002221852809281907 0  104.5245203017574 7.499777691814709 0  109.5245524887238 -0.0001981750991048891 0  109.524517860955 7.49980164902762 0  114.5245493968507 -0.0001739013425667986 0  114.5245148571815 7.499825839298865 0  119.5245454259408 -0.0001493473038556237 0  119.5245111716573 7.499850257550571 0  124.5245402895434 -0.0001245035480012378 0  124.5245066681488 7.499874874644627 0  129.5245335700302 -9.938144925920135e-05 0  129.5245012023306 7.499899611305294 0  134.524524638625 -7.40462215327524e-05 0  134.5244946492315 7.499924284465091 0  139.5245125210337 -4.869456673018038e-05 0  139.5244869689648 7.499948496040958 0  144.5244956764649 -2.382493969846128e-05 0  144.5244783474393 7.499971396028823 0  149.524471663332 -5.423750457781754e-07 0  149.5244694645714 7.499991135968796 0  159.5244717418524 3.946455147784359e-19 0  164.5244858052347 9.44042838575654e-06 0  164.5244739515875 7.50000926414604 0  159.5244677430384 7.499999028660905 0  169.5244974083821 2.293636661243699e-05 0  169.5244799461989 7.500023008233192 0  174.5245069156367 3.894563978965886e-05 0  174.5244854996776 7.500039080162971 0  179.5245147220953 5.658895135840381e-05 0  179.524490506599 7.500056724730978 0  184.5245211653914 7.533587548869732e-05 0  184.5244949442464 7.500075455171116 0  189.5245265140277 9.48508637598546e-05 0  189.5244988355667 7.500094950984317 0  194.5245309768755 0.0001149126150824265 0  194.5245022248725 7.500114995557217 0  199.5245347161292 0.0001353697455568656 0  199.524505163918 7.500135438514319 0  204.5245378586381 0.000156115391648398 0  204.5245077045989 7.500156172797957 0  209.5245405046767 0.0001770720933296548 0  209.5245098954807 7.500177120451506 0  214.5245427344362 0.000198182455948878 0  214.5245117804111 7.500198223585908 0  219.5245446127661 0.0002194031696451021 0  219.5245133982078 7.500219438483528 0  224.5245461926458 0.0002407010450236995 0  224.5245147828673 7.500240731641741 0  229.5245475177524 0.000262050300692516 0  229.524515963999 7.500262077045964 0  234.5245486243917 0.0002834306545393556 0  234.524516967333 7.500283454243118 0  239.5245495429758 0.0003048259485899941 0  239.5245178152301 7.500304846951251 0  244.5245502991778 0.0003262231402542937 0  244.5245185271595 7.500326242039283 0  249.5245509148527 0.0003476115542763217 0  249.5245191201331 7.50034762877069 0  254.5245514087903 0.000368982327925099 0  254.5245196090957 7.500368998242828 0  259.5245517973453 0.0003903280070237881 0  259.524520007271 7.500390342978483 0  264.5245520949791 0.0004116422681958627 0  264.5245203264683 7.500411656643848 0  269.524552314736 0.0004329197568554308 0  269.5245205773522 7.500432933880742 0  274.5245524686716 0.0004541560434771558 0  274.5245207696742 7.500454170252572 0  279.5245525682379 0.0004753477145233616 0  279.524520912466 7.500475362315005 0  284.5245526246172 0.0004964926306305329 0  284.5245210141855 7.500496507833826 0  289.5245526489724 0.000517590403950952 0  289.5245210828086 7.500517606183928 0  294.524552652535 0.0005386431662372812 0  294.5245211258631 7.500538658972192 0  299.5245526463719 0.0005596567042576144 0  299.5245211504094 7.500559670927741 0  304.5245526405104 0.0005806419675657571 0  304.5245211630291 7.500580651091722 0  309.5245526417986 0.0006016165560125207 0  309.5245211699842 7.500601614353809 0  4.524496828480548 14.99932959869973 0  -0.4755031755449896 14.99930789595156 0  9.524496828957245 14.99935129995285 0  14.52449682342412 14.99937301310062 0  19.52449680907212 14.99939474970601 0  24.52449678268426 14.99941652024271 0  29.52449674047016 14.9994383344369 0  34.52449667790484 14.9994602015179 0  39.52449658958377 14.99948213043853 0  44.52449646908215 14.99950413007018 0  49.52449630880492 14.99952620936874 0  54.52449609981657 14.99954837750846 0  59.52449583164405 14.99957064398159 0  64.52449549204829 14.99959301866113 0  69.52449506676405 14.99961551182141 0  74.52449453921115 14.99963813410559 0  79.524493890188 14.99966089642008 0  84.52449309757084 14.99968380972044 0  89.52449213606597 14.99970688462646 0  94.52449097710164 14.9997301307575 0  99.52448958901596 14.9997535555973 0  104.5244879378143 14.99977716255245 0  109.5244859889555 14.99980094761593 0  114.5244837109158 14.99982489360859 0  119.5244810816844 14.99984896023571 0  124.5244780998245 14.99987306701643 0  129.5244748020432 14.99989706443787 0  134.5244712885905 14.99992068679858 0  139.5244677542323 14.99994348032046 0  144.5244645114643 14.99996471159501 0  149.5244619661111 14.99998332345042 0  164.5244620959367 15.00000952982123 0  159.5244601844345 14.99999761114871 0  169.5244642403586 15.00002377596912 0  174.5244665610535 15.00003991216885 0  179.5244689412603 15.00005747531835 0  184.5244712787382 15.00007608997307 0  189.5244735025396 15.00009547498797 0  194.5244755704688 15.00011542510981 0  199.5244774618542 15.0001357910378 0  204.5244791706032 15.00015646350424 0  209.5244806998249 15.00017736170185 0  214.5244820580449 15.00019842514961 0  219.5244832566793 15.00021960802298 0  224.5244843084169 15.00024087518544 0  229.5244852262168 15.00026219938096 0  234.5244860227169 15.00028355922089 0  239.5244867099066 15.00030493772001 0  244.5244872989677 15.00032632121914 0  249.5244878002211 15.00034769858558 0  254.5244882231363 15.0003690606194 0  259.5244885763771 15.00039039961807 0  264.5244888678658 15.00041170906915 0  269.5244891048535 15.00043298345341 0  274.5244892939894 15.00045421815059 0  279.5244894413858 15.00047540944677 0  284.5244895526818 15.00049655464812 0  289.5244896331143 15.00051765230629 0  294.5244896876269 15.00053870255663 0  299.5244897210678 15.00055970755678 0  304.5244897385742 15.00058067199394 0  309.5244897463142 15.00060160362616 0  4.524464283232985 22.49932962309962 0  -0.4755357195770812 22.49930795502197 0  9.524464280378107 22.49935129913159 0  14.52446426844247 22.49937299331488 0  19.52446424444536 22.49939471486681 0  24.52446420547163 22.49941647240621 0  29.52446414843043 22.4994382741911 0  34.52446406987148 22.4994601282749 0  39.52446396584276 22.49948204262725 0  44.52446383177902 22.49950402523422 0  49.52446366241365 22.49952608417783 0  54.52446345170812 22.49954822768885 0  59.52446319279889 22.49957046416461 0  64.52446287796683 22.49959280214032 0  69.5244624986409 22.49961525019774 0  74.52446204545836 22.49963781678629 0  79.52446150841574 22.49966050991871 0  84.52446087716476 22.49968333668149 0  89.52446014153384 22.49970630246704 0  94.52445929239335 22.49972940978164 0  99.52445832303351 22.49975265640228 0  104.5244572312835 22.49977603253256 0  109.5244560226644 22.49979951642969 0  114.5244547148975 22.49982306773446 0  119.5244533440253 22.499846617462 0  124.5244519720827 22.49987005342946 0  129.5244506954257 22.49989320020599 0  134.5244496510677 22.49991579450935 0  139.524449015289 22.49993746284668 0  144.5244489847954 22.49995772349161 0  149.5244497298422 22.49997606850893 0  164.5244473548653 22.50000966455222 0  159.5244478605838 22.49999614146497 0  169.5244471641896 22.50002468271168 0  174.524447294225 22.50004109155108 0  179.5244476993189 22.50005867521853 0  184.5244483097674 22.50007719973663 0  189.5244490549082 22.50009645633015 0  194.5244498742857 22.50011627377258 0  199.5244507208936 22.50013651711973 0  204.524451560524 22.5001570819371 0  209.5244523696491 22.50017788793163 0  214.5244531330438 22.50019887337678 0  219.5244538416536 22.50021999064728 0  224.5244544908616 22.50024120278326 0  229.5244550791557 22.5002624808927 0  234.5244556071366 22.50028380219954 0  239.5244560767958 22.50030514857677 0  244.5244564909996 22.5003265054413 0  249.5244568531236 22.50034786091927 0  254.5244571667982 22.50036920521606 0  259.5244574357322 22.5003905301441 0  264.5244576635928 22.50041182877563 0  269.5244578539254 22.50043309519724 0  274.5244580101046 22.50045432435013 0  279.5244581353153 22.50047551194278 0  284.5244582325656 22.50049665442288 0  289.5244583047491 22.50051774898919 0  294.5244583547839 22.500538793
[...]
<PointData  Scalars="p"> 
<DataArray  type="Float64"  Name="p"  format="ascii">1.0000000000000001e-01  1.0000000000000003e-01  1.0000017920593934e-01  1.0000000000000003e-01  1.0000000000000003e-01  1.0000134130233400e-01  1.0000000000000003e-01  1.0000203706328084e-01  1.0000000000000003e-01  1.0000288982602373e-01  1.0000000000000003e-01  1.0000348686353744e-01  1.0000000000000003e-01  1.0000366414893343e-01  1.0000000000000003e-01  1.0000432485349306e-01  1.0000000000000003e-01  1.0000444977636125e-01  1.0000000000000003e-01  1.0000456551959191e-01  1.0000000000000003e-01  1.0000608994162649e-01  1.0000000000000003e-01  1.0000352231496062e-01  1.0000000000000003e-01  1.0000467220196471e-01  1.0000000000000003e-01  1.0000413578900169e-01  1.0000000000000003e-01  1.0000438536248525e-01  1.0000000000000003e-01  1.0000269886965994e-01  1.0000000000000003e-01  1.0000254211104448e-01  1.0000000000000003e-01  1.0000056354112355e-01  1.0000000000000003e-01  9.9997833516425660e-02  1.0000000000000003e-01  9.9996384533890856e-02  1.0000000000000003e-01  9.9992161098700669e-02  1.0000000000000003e-01  9.9989114393047779e-02  1.0000000000000003e-01  9.9983824249236283e-02  1.0000000000000003e-01  9.9981961766122729e-02  1.0000000000000003e-01  9.9971008082734514e-02  1.0000000000000003e-01  9.9975787779974234e-02  1.0000000000000003e-01  9.9954650338673706e-02  1.0000000000000003e-01  9.9972164584571713e-02  1.0000000000000003e-01  9.9934538708958354e-02  1.0000000000000003e-01  9.9973644079366167e-02  1.0000000000000001e-01  9.9905276679163144e-02  1.0000000000000001e-01  1.0000000000000003e-01  1.0002490953957684e-01  1.0010902884740246e-01  1.0000000000000003e-01  9.9983558157898431e-02  1.0000000000000003e-01  1.0001549764538301e-01  1.0000000000000003e-01  9.9993242121668588e-02  1.0000000000000003e-01  9.9997263869532824e-02  1.0000000000000003e-01  9.9990865032390464e-02  1.0000000000000003e-01  9.9990637330703236e-02  1.0000000000000003e-01  9.9985117489979888e-02  1.0000000000000003e-01  9.9984559091304090e-02  1.0000000000000003e-01  9.9981881450523988e-02  1.0000000000000003e-01  9.9979863074174738e-02  1.0000000000000003e-01  9.9978488938304064e-02  1.0000000000000003e-01  9.9977379338225966e-02  1.0000000000000003e-01  9.9975944879807654e-02  1.0000000000000003e-01  9.9975318163117319e-02  1.0000000000000003e-01  9.9974679888285470e-02  1.0000000000000003e-01  9.9973948454592468e-02  1.0000000000000003e-01  9.9973686358713926e-02  1.0000000000000003e-01  9.9973329483936252e-02  1.0000000000000003e-01  9.9973174869549930e-02  1.0000000000000003e-01  9.9972818362558391e-02  1.0000000000000003e-01  9.9973218958887652e-02  1.0000000000000003e-01  9.9972352370503684e-02  1.0000000000000003e-01  9.9973762702128446e-02  1.0000000000000003e-01  9.9971384248277825e-02  1.0000000000000003e-01  9.9975538294065289e-02  1.0000000000000003e-01  9.9968665701685999e-02  1.0000000000000003e-01  9.9980223496062129e-02  1.0000000000000003e-01  9.9959889071730729e-02  1.0000000000000001e-01  1.0000000000000003e-01  9.9999066382159649e-02  1.0000000000000003e-01  9.9999782584968888e-02  9.9999878795300243e-02  9.9999861488822062e-02  9.9999339076937116e-02  9.9999542812172562e-02  9.9999226250628542e-02  9.9998228468186706e-02  9.9999070469036166e-02  9.9998384250844910e-02  9.9999181903991124e-02  9.9995130238583710e-02  9.9998396922126628e-02  9.9995422122968733e-02  9.9997435559592229e-02  9.9995045591077317e-02  9.9992851413010453e-02  9.9992635860794113e-02  9.9990203595209021e-02  9.9985953800702701e-02  9.9986664058406088e-02  9.9981097311513750e-02  9.9980115357891017e-02  9.9974498717136762e-02  9.9978793576960462e-02  9.9961157658279592e-02  9.9987444700081946e-02  9.9937706289355319e-02  1.0001398877307797e-01  9.9904984848301556e-02  9.9934156078590741e-02  1.0012804632091600e-01  1.0006762980233977e-01  1.0000147169299650e-01  1.0001503855691719e-01  1.0001177393613737e-01  1.0001494762078023e-01  1.0000499832605257e-01  1.0000843397186675e-01  1.0000487372994202e-01  1.0000197536899395e-01  1.0000129594307872e-01  1.0000030623571562e-01  9.9997883401138452e-02  9.9997646279321770e-02  9.9996894150420401e-02  9.9995595385714189e-02  9.9995244202826988e-02  9.9994836250404326e-02  9.9993881955748085e-02  9.9993708385052893e-02  9.9993111428960196e-02  9.9992891110056520e-02  9.9991947421304267e-02  9.9992648635099046e-02  9.9990406116326994e-02  9.9993285774294352e-02  9.9987124400002750e-02  9.9996790481049078e-02  9.9980825843011836e-02  1.0000000000000003e-01  9.9998040197628674e-02  1.0000000000000003e-01  9.9999336155873697e-02  9.9999257785463966e-02  9.9998884593442555e-02  9.9999273251024257e-02  9.9998916030193813e-02  9.9997605218958313e-02  9.9998097005101746e-02  9.9997486183533060e-02  9.9996535768207162e-02  9.9995799541686414e-02  9.9999502520467035e-02  9.9989776558374377e-02  9.9996447215112083e-02  9.9993499448788686e-02  9.9991250573125925e-02  9.9992059721687954e-02  9.9988660836450985e-02  9.9983582730820156e-02  9.9983811316576965e-02  9.9979234231608816e-02  9.9971568669139227e-02  9.9974093753929474e-02  9.9962917701770307e-02  9.9965167798998500e-02  9.9951642364161486e-02  9.9968184784118966e-02  9.9924656309041598e-02  1.0000451231711606e-01  9.9853925459234619e-02  9.9995020548964988e-02  1.0005940164141613e-01  1.0005843570604388e-01  1.0000527994000717e-01  1.0001724232920110e-01  1.0002435577481832e-01  1.0000164702484153e-01  1.0001426486570381e-01  1.0000632140765066e-01  1.0000095631210151e-01  1.0000041286383238e-01  9.9998769371589968e-02  9.9993876198913270e-02  9.9993840491285860e-02  9.9992355844161357e-02  9.9989717588642821e-02  9.9989361459178458e-02  9.9988614232616319e-02  9.9986933649088588e-02  9.9986524090701037e-02  9.9986041561368574e-02  9.9984740796835642e-02  9.9984650618408527e-02  9.9983547674448017e-02  9.9983776112125500e-02  9.9981643858142483e-02  9.9983858870039688e-02  9.9978603986345005e-02  9.9986703289500212e-02  9.9969672213124527e-02  1.0000000000000003e-01  9.9997291737967481e-02  1.0000000000000003e-01  9.9998581719345780e-02  9.9997304135157353e-02  9.9997882367641719e-02  9.9997345983323868e-02  9.9995741700445742e-02  9.9996043089139314e-02  9.9994969811469325e-02  9.9992936730493739e-02  9.9993581728830716e-02  9.9993084190890383e-02  9.9988287833234976e-02  9.9996309330081204e-02  9.9984916391751416e-02  9.9987917942767665e-02  9.9988254221155606e-02  9.9987004646257580e-02  9.9980843413711565e-02  9.9983225117422289e-02  9.9977255254537198e-02  9.9971817771935145e-02  9.9971142542797362e-02  9.9967674904803988e-02  9.9955769398138924e-02  9.9966203067582082e-02  9.9942907713772816e-02  9.9968993166394876e-02  9.9919334331120768e-02  1.0000732269626710e-01  9.9848495974292892e-02  1.0001572919247020e-01  1.0009028238081331e-01  1.0002530660930053e-01  1.0001421255981040e-01  1.0006289717107666e-01  9.9996115779383013e-02  1.0003442207216795e-01  1.0001838491444924e-01  1.0001469015442374e-01  1.0001344451290052e-01  1.0001292025140869e-01  1.0000499330085358e-01  1.0000602321365222e-01  1.0000397051835920e-01  1.0000022787073978e-01  9.9999790131565500e-02  9.9998922994784342e-02  9.9996405225106458e-02  9.9996149109455007e-02  9.9995311238066736e-02  9.9993811695397700e-02  9.9993083896989243e-02  9.9992720787849917e-02  9.9990924647835530e-02  9.9991351472504694e-02  9.9988710853017498e-02  9.9991120519691404e-02  9.9984761224081717e-02  9.9993389941206434e-02  9.9977425197233516e-02  1.0000000000000003e-01  9.9996539636412043e-02  1.0000000000000003e-01  9.9997456155789977e-02  9.9996752319589682e-02  9.9996696513272712e-02  9.9995200447229510e-02  9.9995529649240356e-02  9.9994493405843946e-02  9.9991957941673357e-02  9.9992576764717678e-02  9.9991595442092782e-02  9.9987319033903441e-02  9.9990417066963225e-02  9.9986206291887050e-02  9.9990265305182069e-02  9.9980453032749786e-02  9.9985473046828671e-02  9.9978577307431107e-02  9.9983021611214001e-02  9.9977463930845334e-02  9.9970313615785136e-02  9.9972905585911848e-02  9.9964662596774084e-02  9.9958765534830296e-02  9.9956158687220492e-02  9.9956315787505412e-02  9.9935240937067599e-02  9.9964570483712087e-02  9.9907987122785827e-02  1.0000456266269495e-01  9.9829386009165119e-02  9.9991754894517448e-02  1.0009047457381641e-01  1.0004966983625847e-01  1.0003744949619321e-01  1.0001479198309522e-01  1.0004353308551533e-01  1.0002279816180887e-01  1.0001968146065518e-01  1.0001784747353118e-01  1.0002133731616157e-01  1.0000744505626452e-01  1.0001080820264177e-01  1.0000755879140487e-01  1.0000198076213324e-01  1.0000176869741501e-01  1.0000064613064999e-01  9.9996664276845518e-02  9.9996492024533562e-02  9.9995626633760645e-02  9.9993208011899162e-02  9.9992822615196292e-02  9.9991858774948442e-02  9.9990464253390698e-02  9.9989245499311791e-02  9.9989277032617119e-02  9.9986487529034371e-02  9.9988300770947516e-02  9.9982650006549920e-02  9.9990325692662155e-02  9.9973881391981809e-02  1.0000000000000003e-01  9.9995686680666593e-02  1.0000000000000003e-01  9.9997170248392095e-02  9.9995736165477772e-02  9.9994737521916982e-02  9.9994620923632344e-02  9.9993949837958312e-02  9.9991431948462703e-02  9.9991740423517078e-02  9.9990471214616738e-02  9.9986876716882292e-02  9.9987957643576611e-02  9.9985411204941324e-02  9.9983038829879162e-02  9.9982377431059977e-02  9.9989626765337777e-02  9.9969009370848683e-02  9.9982088066325095e-02  9.9975521731688222e-02  9.9970715678162347e-02  9.9973025576083049e-02  9.9967517741277920e-02  9.9956348919087751e-02  9.9962690641249338e-02  9.9949421685781470e-02  9.9948714601884814e-02  9.9937392474003753e-02  9.9957693474454754e-02  9.9901420889041026e-02  1.0000727595635359e-01  9.9816546666391337e-02  1.0002090456628650e-01  1.0006380885853600e-01  1.0006561943987047e-01  1.0001247587711319e-01  1.0004190948893005e-01  1.0003511435767926e-01  1.0003750096449537e-01  1.0001710793352267e-01  1.0003758396484672e-01  1.0001163969450509e-01  1.0002237389967629e-01  1.0001660555376950e-01  1.0000956770186688e-01  1.0000926567189036e-01  1.0000838913274250e-01  1.0000261713990996e-01  1.0000286320352536e-01  1.0000160188641702e-01  9.9998309438459138e-02  9.9997932633215339e-02  9.9997274716309259e-02  9.9994746878284857e-02  9.9994479493960148e-02  9.9992982036037514e-02  9.9992256178969771e-02  9.9989683226518009e-02  9.9991530413279947e-02  9.9985325111473108e-02  9.9992818488393267e-02  9.9977220064006347e-02  1.0000000000000003e-01  9.9995232781414117e-02  1.0000000000000003e-01  9.9996639989845620e-02  9.9994176772062640e-02  9.9994508862885995e-02  9.9993455478063417e-02  9.9991232772632957e-02  9.9991581649914632e-02  9.9990307306266984e-02  9.9986816835010831e-02  9.9987917768472753e-02  9.9985394540711925e-02  9.9981178272991578e-02  9.9982474360642379e-02  9.9982449121617883e-02  9.9972930925206274e-02  9.9987799957498666e-02  9.9966686089848669e-02  9.9969985104974568e-02  9.9972551613222951e-02  9.9968656761497299e-02  9.9958892681776892e-02  9.9962788329343452e-02  9.9956101912923701e-02  9.9941454483377878e-02  9.9953370866856517e-02  9.9931022211181747e-02  9.9948540454815840e-02  9.9905548651218840e-02  9.9997370558417870e-02  9.9811138224131235e-02  1.0003432892368715e-01  1.0007695594073017e-01  1.0004199556196559e-01  1.0003652023948162e-01  1.0005257700069051e-01  1.0002276555254644e-01  1.0002893004129391e-01  1.0005202458183042e-01  1.0000939287511479e-01  1.0003070062287116e-01  1.0002173208394571e-01  1.0001565739693528e-01  1.0001383000621605e-01  1.0001412502285843e-01  1.0000563118408247e-01  1.0000637874892365e-01  1.0000505273219498e-01  1.0000054969132818e-01  1.0000010221122221e-01  9.9999265098529216e-02  9.9996344175767291e-02  9.9995711125889328e-02  9.9995048184656959e-02  9.9992447009765839e-02  9.9992417414823107e-02  9.9989827935740211e-02  9.9990825745833331e-02  9.9985140712174306e-02  9.9992153624774857e-02  9.9976538013215877e-02  1.0000000000000003e-01  9.9994704180375038e-02  1.0000000000000003e-01  9.9995820507068373e-02  9.9994084024223953e-02  9.9993729049593028e-02  9.9991302641091698e-02  9.9991462985993179e-02  9.9990177106162315e-02  9.9987074833597617e-02  9.9987875981702723e-02  9.9986183398654685e-02  9.9981324227104110e-02  9.9982673673641762e-02  9.9980832673556633e-02  9.9974026904482385e-02  9.9980084028379365e-02  9.9971991936530960e-02  9.9978058007502577e-02  9.9962600637545085e-02  9.9969674772797015e-02  9.9957601683797997e-02  9.9967178864865086e-02  9.9956632336221055e-02  9.9948102473635808e-02  9.9949703944366669e-02  9.9947597253072257e-02  9.9923051162995144e-02  9.9954758175666319e-02  9.9900614615188454e-02  9.9988870122949991e-02  9.9818190581693431e-02  1.0001782040966520e-01  1.0008831941686183e-01  1.0005913068275916e-01  1.0005007197687969e-01  1.0003757123450262e-01  1.0003605681864546e-01  1.0004643009587559e-01  1.0001831266903427e-01  1.0004474757294642e-01  1.0002207553774821e-01  1.0002464082703239e-01  1.0001795779567084e-01  1.0002366759406131e-01  1.0001027129098256e-01  1.0001266468717840e-01  1.0001062504244433e-01  1.0000482338231806e-01  1.0000462108172410e-01  1.0000392363151636e-01  9.9999534098470358e-02  9.9999378923828222e-02  9.9998340573556374e-02  9.9995965921575503e-02  9.9994704994721254e-02  9.9994543795623170e-02  9.9991022866800477e-02  9.9992513199170144e-02  9.9986822063500291e-02  9.9993196979592844e-02  9.9978274243585116e-02  1.0000000000000003e-01  9.9994114003490731e-02  1.0000000000000003e-01  9.9995843597243367e-02  9.9993555004685195e-02  9.9992226274875654e-02  9.9991568087130250e-02  9.9990568238202987e-02  9.9987529679370732e-02  9.9987868427329055e-02  9.9986628827624810e-02  9.9982651381618132e-02  9.9983356252093716e-02  9.9981371041693648e-02  9.9975366880590749e-02  9.9978565892087756e-02  9.9974407913431915e-02  9.9970106159439118e-02  9.9969633513141601e-02  9.9979759464897386e-02  9.9947955028727400e-02  9.9967785891699634e-02  9.9958692113882183e-02  9.9949019174964598e-02  9.9957849266517365e-02  9.9944918688785384e-02  9.9937784394610416e-02  9.9934535248551531e-02  9.9948029672322011e-02  9.9894477133163906e-02  9.9992754373810624e-02  9.9819011998629747e-02  1.0002734470229446e-01  1.0007655419380294e-01  1.0007068632515975e-01  1.0003447362292556e-01  1.0005018365937388e-01  1.0005126402512265e-01  1.0002954902530377e-01  1.0003371687679771e-01  1.0003304825142419e-01  1.0003477291532921e-01  1.0001546101474963e-01  1.0003275471857458e-01  1.0001228985320816e-01  1.0001905343788321e-01  1.0001547300670667e-01  1.0000871746229280e-01  1.0000799522269786e-01  1.0000767606240298e-01  1.0000222469884910e-01  1.0000207031645715e-01  1.0000107346571092e-01  9.9997496413869902e-02  9.9997191416935929e-02  9.9995855018209068e-02  9.9994153861588012e-02  9.9991823590000445e-02  9.9993025082559847e-02  9.9986940822026207e-02  9.9993275994394309e-02  9.9978679361795331e-02  1.0000000000000003e-01  9.9993858064539684e-02  1.0000000000000003e-01  9.9995613124728516e-02  9.9992425727825893e-02  9.9992552377789271e-02  9.9990988104337486e-02  9.9988438988471637e-02  9.9988326205406167e-02  9.9986990063343481e-02  9.9983258871307240e-02  9.9984415967742948e-02  9.9982414648474349e-02  9.9976992980431861e-02  9.9979156851733045e-02  9.9976245351068624e-02  9.9969765216899931e-02  9.9972051990260116e-02  9.9971974540415579e-02  9.9956716396607109e-02  9.9979852753895385e-02  9.9948097360001251e-02  9.9952167080990015e-02  9.9956868354775602e-02  9.9953459292505403e-02  9.9934521213020169e-02  9.9952051248755031e-02  9.9929402496746061e-02  9.9937892372569420e-02  9.9908444926333051e-02  9.9984344526946031e-02  9.9818491362564876e-02  1.0003700582467497e-01  1.0008817346914678e-01  1.0005797021187873e-01  1.0004394893938005e-01  1.0006311160666327e-01  1.0003678744023341e-01  1.0004216952724375e-01  1.0004265511260779e-01  1.0002663659301814e-01  1.0002259671861796e-01  1.0004461292802877e-01  1.0000950194339218e-01  1.0002645083743393e-01  1.0001920842284749e-01  1.0001474853038531e-01  1.0001193040001079e-01  1.0001300315648523e-01  1.0000535522109308e-01  1.0000560444209908e-01  1.0000480426998191e-01  1.0000055505525614e-01  9.9999578527624450e-02  9.9999106298721441e-02  9.9995658728821296e-02  9.9995659220229238e-02  9.9993185597033934e-02  9.9993395852334618e-02  9.9988119140245871e-02  9.9994034667905421e-02  9.9979797159747016e-02  1.0000000000000003e-01  9.9993615859013146e-02  1.0000000000000003e-01  9.9995140023853984e-02  9.9992751905623331e-02  9.9992343555148092e-02  9.9989553647755747e-02  9.9989369068831366e-02  9.9987892014443511e-02  9.9984503969814578e-02  9.9985028238235574e-02  9.9983639342336311e-02  9.9978797228175237e-02  9.9980473023919381e-02  9.9978253598641223e-02  9.9971848676038116e-02  9.9974437398088117e-02  9.9971773682840145e-02  9.9961525838128437e-02  9.9970841692455903e-02  9.9959471055288004e-02  9.9966179029573610e-02  9.9947453187490362e-02  9.9954557976161179e-02  9.9939600534343226e-02  9.9951650255434774e-02  9.9945622340634616e-02  9.9919597851466868e-02  9.9953439361365817e-02  9.9905906020429966e-02  9.9971404944169562e-02  9.9838715348308793e-02  1.0002088724650922e-01  1.0011242879799306e-01  1.0006392965907461e-01  1.0005534252613714e-01  1.0004965595934603e-01  1.0004463373783966e-01  1.0005287997173991e-01  1.0003288054141353e-01  1.0003147624198840e-01  1.0003589022451953e-01  1.0001596974205325e-01  1.0003482085425287e-01  1.0001721652021058e-01  1.0002065087008871e-01  1.0001376537633523e-01  1.0001920721139242e-01  1.0000811501505458e-01  1.0000934701453677e-01  1.0000813078356223e-01  1.0000284334252221e-01  1.0000251966947954e-01  1.0000175627777341e-01  9.9997880818091550e-02  9.9996882587057787e-02  9.9996659538801019e-02  9.9992873464744100e-02  9.9994018491543518e-02  9.9988945063781573e-02  9.9994009006522319e-02  9.9980558489414131e-02  1.0000000000000003e-01  9.9993236892767012e-02  1.0000000000000003e-01  9.9995343431313610e-02  9.9992605519927905e-02  9.9991368736803837e-02  9.9990275191873798e-02  9.9989192444409541e-02  9.9985982398737003e-02  9.9985996832066604e-02  9.9984657282968070e-02  9.9980659245907683e-02  9.9981363135024634e-02  9.9979931439136097e-02  9.9974358911327166e-02  9.9976467458446017e-02  9.9974132792379225e-02  9.9965311100846874e-02  9.9970503545291078e-02  9.9964678005759658e-02  9.9958389679744186e-02  9.9958626685561006e-02  9.9972731326743378e-02  9.9926971038471701e-02  9.9958477695077014e-02  9.9941654787810558e-02  9.9935246230591426e-02  9.9939038792313459e-02  9.9948770797141803e-02  9.9894819220595052e-02  9.9987378226866791e-02  9.9840501269733928e-02  1.0001251776349006e-01  1.0012040877692471e-01  1.0007972169627603e-01  1.0004270987170222e-01  1.0005375025965393e-01  1.0005566960775254e-01  1.0004117194180083e-01  1.0003791451504121e-01  1.0004372950031858e-01  1.0002372464721226e-01  1.0002539393313492e-01  1.0002371002292158e-01  1.0002830589776843e-01  1.0001024608223318e-01  1.0002595171209010e-01  1.0000950089141132e-01  1.0001430257949047e-01  1.0001172248829938e-01  1.0000618298383607e-01  1.0000497429771008e-01  1.0000495560732144e-01  1.0000018231362748e-01  9.9999849096135560e-02  9.9998310605279861e-02  9.9995936429758264e-02  9.9993837672852123e-02  9.9994931829155073e-02  9.9989090901951141e-02  9.9994539782696609e-02  9.9981606923804214e-02  1.0000000000000003e-01  9.9993326654798861e-02  1.0000000000000003e-01  9.9995497090749230e-02  9.9992080703545941e-02  9.9992190489846186e-02  9.9990456494671476e-02  9.9988023916967858e-02  9.9987547580108610e-02  9.9986204678547935e-02  9.9982584502790253e-02  9.9983241643965548e-02  9.9981555886767770e-02  9.9976654653761834e-02  9.9978563996156927e-02  9.9976910958162163e-02  9.9969598046592917e-02  9.9972766698631421e-02  9.9969409280729574e-02  9.9960007916318358e-02  9.9964390137641690e-02  9.9964243728730168e-02  9.9943481230497302e-02  9.9974949442453387e-02  9.9934846481173512e-02  9