<?xml version="1.0"?>
<VTKFile type="UnstructuredGrid"  version="0.1"  >
<UnstructuredGrid>
<Piece  NumberOfPoints="1933" NumberOfCells="3640">
<Points>
<DataArray  type="Float64"  NumberOfComponents="3"  format="ascii">-0.4752688402190514 -0.002032339793693457 0  4.524731176137005 -0.00196655120419373 0  4.524632451747675 7.498033467677824 0  -0.4753675559862859 7.497967696302579 0  9.524731215257871 -0.001900764343550455 0  9.524632456357008 7.498099243315647 0  14.52473127811061 -0.001834936698745223 0  14.52463245086794 7.498165063807972 0  19.52473135528009 -0.001769032952321172 0  19.52463242581493 7.498230962894424 0  24.52473143142082 -0.001703024308323204 0  24.52463236899717 7.498296968223523 0  29.52473148760327 -0.001636887042751498 0  29.52463226551367 7.498363102734642 0  34.52473150232997 -0.001570601029816708 0  34.52463209777556 7.49842938602053 0  39.52473145173194 -0.001504148499289675 0  39.52463184537853 7.498495835472188 0  44.52473130925215 -0.00143751307546743 0  44.52463148479886 7.498562467166928 0  49.52473104498429 -0.001370679075830228 0  49.52463098890622 7.498629296516778 0  54.5247306247452 -0.001303631029707396 0  54.52463032629196 7.4986963387089 0  59.5247300089006 -0.001236353380349132 0  59.52462946040454 7.498763608966852 0  64.52472915092089 -0.001168830343808488 0  64.52462834847293 7.498831122651787 0  69.52472799560672 -0.00110104590978762 0  69.52462694018404 7.498898895209938 0  74.5247264768862 -0.001032983981728553 0  74.52462517606487 7.498966941957304 0  79.52472451503257 -0.0009646286665067483 0  79.52462298550171 7.49903527767249 0  84.52472201308099 -0.0008959647402137239 0  84.5246202843108 7.49910391593945 0  89.52471885210782 -0.0008269783401374666 0  89.5246169717569 7.499172868134208 0  94.52471488485729 -0.0007576579734626001 0  94.52461292691176 7.499242141865484 0  99.52470992690399 -0.0006879960103374858 0  99.52460800426739 7.499311738523454 0  104.5247037440467 -0.0006179909867922424 0  104.5246020286231 7.499381649293686 0  109.5246960337902 -0.0005476513800287981 0  109.5245947895412 7.499451848416052 0  114.524686397343 -0.0004770022582468651 0  114.524586036328 7.499522281335242 0  119.5246742961057 -0.0004060978615656883 0  119.5245754759525 7.499592843153558 0  124.5246589824451 -0.0003350469265702512 0  124.5245627793733 7.499663338380737 0  129.5246393875548 -0.0002640662002339418 0  129.5245476079152 7.499733404276028 0  134.5246139379572 -0.0001935976054978286 0  134.5245296831893 7.499802362997392 0  139.5245802557673 -0.0001245708431130472 0  139.5245089452854 7.499868934088697 0  144.5245346801065 -5.899679302955746e-05 0  144.524485876638 7.499930669564495 0  149.5244715569301 -1.277217152112806e-06 0  149.5244620967817 7.499982807940903 0  159.5244717418524 5.110460521394274e-19 0  164.5245244403401 4.423116136163649e-05 0  164.5244812174791 7.50004667332585 0  159.5244607046731 7.500005603983427 0  169.5245642860867 9.709194115937566e-05 0  169.5245016108125 7.500098629793632 0  174.5245950915587 0.0001553655309905543 0  174.5245202036689 7.500156454227661 0  179.5246193198913 0.0002169667645654091 0  179.5245365471432 7.50021775953542 0  184.5246386447541 0.0002806441161323959 0  184.5245506550829 7.500281229439851 0  189.5246542329207 0.0003456401479848033 0  189.524562716663 7.50034607909467 0  194.524666916327 0.0004114815049781 0  194.5245729744962 7.500411816715943 0  199.5246773020402 0.0004778613542263444 0  199.5245816719292 7.500478122236545 0  204.5246858433284 0.0005445740602320909 0  204.5245890318649 7.500544780798259 0  209.5246928859755 0.0006114780226481654 0  209.5245952501085 7.500611644547615 0  214.5246986988672 0.0006784737540792921 0  214.5246004951574 7.500678609812025 0  219.524703494564 0.0007454904022713942 0  219.5246049105821 7.500745602941076 0  224.5247074434499 0.0008124771107864253 0  224.5246086182115 7.500812571194316 0  229.5247106837015 0.0008793972621465311 0  229.524611721337 7.500879476670717 0  234.5247133284916 0.0009462245111535373 0  234.5246143076256 7.500946292138608 0  239.5247154713243 0.001012939978191216 0  239.5246164516548 7.501012998098294 0  244.5247171900843 0.001079530226831632 0  244.5246182170733 7.501079580675676 0  249.5247185501822 0.001145985795469714 0  249.5246196584283 7.501146030099399 0  254.5247196070562 0.001212300139767974 0  254.5246208227086 7.501212339607063 0  259.524720408205 0.001278468898221564 0  259.5246217506485 7.501278504685082 0  264.5247209948789 0.001344489431857158 0  264.5246224778307 7.501344522587104 0  269.5247214035107 0.001410360619501715 0  269.5246230356152 7.501410392106227 0  274.5247216669438 0.001476082917543388 0  274.5246234519118 7.501476113601517 0  279.5247218154751 0.001541658721180301 0  279.524623751803 7.501541689302471 0  284.5247218776938 0.001607093094385229 0  284.5246239580114 7.501607123936366 0  289.5247218810308 0.001672394965555014 0  289.524624091206 7.501672425740087 0  294.5247218518173 0.001737578899702568 0  294.5246241701442 7.501737607921648 0  299.5247218144661 0.001802667500018536 0  299.5246242116825 7.501802690611388 0  304.5247217890372 0.001867694166110534 0  304.5246242307829 7.501867703279738 0  309.5247217858341 0.001932704623478959 0  309.5246242408361 7.501932687608933 0  4.524533785072482 14.99803349204595 0  -0.4754662171433152 14.99796778363057 0  9.524533770860325 14.99809922670524 0  14.52453373001162 14.99816502117534 0  19.52453365252368 14.998230903008 0  24.52453352777904 14.99829689542949 0  29.52453334385276 14.99836301839868 0  34.52453308701695 14.99842928949447 0  39.52453274136256 14.9984957246719 0  44.52453228845865 14.99856233886912 0  49.5245317069956 14.998629146455 0  54.52453097238126 14.99869616151678 0  59.52453005627468 14.9987633979884 0  64.52452892605298 14.99883086961356 0  69.52452754421732 14.99889858972542 0  74.52452586775644 14.99896657080369 0  79.5245238475072 14.99903482373916 0  84.52452142758696 14.9991033566868 0  89.52451854503485 14.99917217330901 0  94.52451512990241 14.99924127007899 0  99.52451110620908 14.99931063209093 0  104.5245063944616 14.99938022644635 0  109.5245009168795 14.99944999164701 0  114.5244946071273 14.99951982036324 0  119.5244874272315 14.9995895312398 0  124.5244793952972 14.99965882283717 0  129.5244706279662 14.99972719950422 0  134.5244613993714 14.99979385654813 0  139.524452209023 14.99985751746421 0  144.524443825046 14.99991625461429 0  149.5244372123853 14.99996748848403 0  164.5244416691853 15.00005392476811 0  159.5244358404132 15.00001050404705 0  169.5244487614127 15.00010487088248 0  174.5244566587318 15.00016130839981 0  179.5244647283964 15.00022143996617 0  184.524472524472 15.00028401684819 0  189.5244797892293 15.00034820882421 0  194.5244863990252 15.0004134649675 0  199.5244923152159 15.00047941576584 0  204.5244975491713 15.00054580973984 0  209.5245021394766 15.00061247316446 0  214.5245061378118 15.0006792844118 0  219.52450960054 15.00074615740461 0  224.5245125839029 15.0008130307524 0  229.5245151414276 15.00087986046936 0  234.5245173226653 15.00094661498807 0  239.5245191727111 15.00101327167747 0  244.5245207321709 15.0010798143723 0  249.5245220373718 15.00114623160358 0  254.5245231206942 15.0012125153331 0  259.5245240109523 15.0012786600665 0  264.5245247337796 15.00134466226741 0  269.5245253119949 15.00141052002766 0  274.524525765935 15.00147623297244 0  279.5245261137535 15.00154180239582 0  284.5245263716975 15.00160723163278 0  289.5245265543917 15.00167252667617 0  294.5245266751983 15.00173769703946 0  299.5245267467715 15.00180275685209 0  304.5245267820068 15.00186772618894 0  309.5245267957309 15.00193263281402 0  4.524435293477262 22.49803349134903 0  -0.4755647055781733 22.49796789157179 0  9.524435272831102 22.49809915411754 0  14.52443522058892 22.49816489946632 0  19.52443512718751 22.49823074529585 0  24.52443498391859 22.4982967079658 0  29.52443478199096 22.49836280252461 0  34.52443451190223 22.49842904296138 0  39.52443416301865 22.49849544245842 0  44.52443372329431 22.4985620136073 0  49.52443317908366 22.49862876855104 0  54.52443251502132 22.49869571902018 0  59.5244317139636 22.49876287623233 0  64.52443075700511 22.49883025061983 0  69.52442962360449 22.49889785133657 0  74.52442829187973 22.49896568547158 0  79.52442673916634 22.49903375685981 0  84.52442494297961 22.49910206432288 0  89.52442288258656 22.49917059908539 0  94.52442054148086 22.49923934098036 0  99.52441791116685 22.49930825286031 0  104.5244149967853 22.49937727234489 0  109.5244118252286 22.49944629964126 0  114.5244084564034 22.49951517968559 0  119.5244049980328 22.49958367639171 0  124.5244016234822 22.49965143676648 0  129.5243985899312 22.49971794418071 0  134.5243962499445 22.49978246589559 0  139.5243950425031 22.49984401612928 0  144.5243954416165 22.4999013944414 0  149.5243978424569 22.49995343621525 0  164.5243942493882 22.50006113931858 0  159.5243963403663 22.50001456751103 0  169.5243935488708 22.50011265392198 0  174.5243941611802 22.50016842709996 0  179.5243958047884 22.50022751904437 0  184.5243981412999 22.50028905411542 0  189.5244008718693 22.50035233275369 0  194.524403766983 22.50041683128949 0  199.5244066646605 22.50048216854293 0  204.524409458039 22.50054807001784 0  209.5244120815514 22.50061433850355 0  214.5244144990106 22.5006808320872 0  219.5244166943581 22.50074744833526 0  224.5244186648708 22.50081411308162 0  229.5244204163397 22.500880772501 0  234.5244219597278 22.50094738748241 0  239.524423308895 22.50101392960659 0  244.5244244790761 22.50108037824835 0  249.5244254858801 22.5011467184776 0  254.5244263446471 22.50121293953778 0  259.5244270700471 22.50127903375247 0  264.5244276758434 22.50134499575859 0  269.5244281747674 22.50141082199774 0  274.5244285784763 22.50147651041831 0  279.5244288975846 22.50154206035219 0  284.5244291417769 22.50160747253265 0  289.5244293200372 22.50167274921187 0  294.5244294410589 22.50173789431741 0  299.5244295139331 22.5018029135
[...]
<PointData  Scalars="p"> 
<DataArray  type="Float64"  Name="p"  format="ascii">1.0000000000000001e-01  1.0000000000000003e-01  9.9997810222017633e-02  1.0000000000000003e-01  1.0000000000000003e-01  9.9998578139581740e-02  1.0000000000000003e-01  9.9997856850742625e-02  1.0000000000000003e-01  9.9997987707256222e-02  1.0000000000000003e-01  9.9997561101777738e-02  1.0000000000000003e-01  9.9996055875275713e-02  1.0000000000000003e-01  9.9995965011232577e-02  1.0000000000000003e-01  9.9994935646101818e-02  1.0000000000000003e-01  9.9993157983570571e-02  1.0000000000000003e-01  9.9994408406083160e-02  1.0000000000000003e-01  9.9987127237594037e-02  1.0000000000000003e-01  9.9985694167881348e-02  1.0000000000000003e-01  9.9982386576860080e-02  1.0000000000000003e-01  9.9980408206391952e-02  1.0000000000000003e-01  9.9974197123533060e-02  1.0000000000000003e-01  9.9972214346239319e-02  1.0000000000000003e-01  9.9966899232053083e-02  1.0000000000000003e-01  9.9959051777179758e-02  1.0000000000000003e-01  9.9956081504513031e-02  1.0000000000000003e-01  9.9946745148546595e-02  1.0000000000000003e-01  9.9940582490458701e-02  1.0000000000000003e-01  9.9929705717027098e-02  1.0000000000000003e-01  9.9929136182475245e-02  1.0000000000000003e-01  9.9904225516839931e-02  1.0000000000000003e-01  9.9921760089128939e-02  1.0000000000000003e-01  9.9872142881900230e-02  1.0000000000000003e-01  9.9921988848704207e-02  1.0000000000000003e-01  9.9830319556671918e-02  1.0000000000000003e-01  9.9934052033298928e-02  1.0000000000000001e-01  9.9764268401893841e-02  1.0000000000000001e-01  1.0000000000000003e-01  1.0013926881602937e-01  1.0034411510716983e-01  1.0000000000000003e-01  1.0001683932895487e-01  1.0000000000000003e-01  1.0010582007004826e-01  1.0000000000000003e-01  1.0005288880788103e-01  1.0000000000000003e-01  1.0006611644026946e-01  1.0000000000000003e-01  1.0005180060949063e-01  1.0000000000000003e-01  1.0005530977199850e-01  1.0000000000000003e-01  1.0004309717305968e-01  1.0000000000000003e-01  1.0004353885975115e-01  1.0000000000000003e-01  1.0003860143042113e-01  1.0000000000000003e-01  1.0003462591952875e-01  1.0000000000000003e-01  1.0003181742441800e-01  1.0000000000000003e-01  1.0002975661029903e-01  1.0000000000000003e-01  1.0002634557543430e-01  1.0000000000000003e-01  1.0002478957603961e-01  1.0000000000000003e-01  1.0002313693841516e-01  1.0000000000000003e-01  1.0002114674826364e-01  1.0000000000000003e-01  1.0001996269106611e-01  1.0000000000000003e-01  1.0001899716106981e-01  1.0000000000000003e-01  1.0001764934012526e-01  1.0000000000000003e-01  1.0001703893851545e-01  1.0000000000000003e-01  1.0001615096116913e-01  1.0000000000000003e-01  1.0001577309228131e-01  1.0000000000000003e-01  1.0001461523626311e-01  1.0000000000000003e-01  1.0001532239400239e-01  1.0000000000000003e-01  1.0001289072822737e-01  1.0000000000000003e-01  1.0001583456414609e-01  1.0000000000000003e-01  1.0001001049377141e-01  1.0000000000000003e-01  1.0001938903802435e-01  1.0000000000000001e-01  1.0000000000000003e-01  9.9995174088499214e-02  1.0000000000000003e-01  9.9995911008942062e-02  9.9995727612740989e-02  9.9995163766281689e-02  9.9993215963201598e-02  9.9993521207879785e-02  9.9992931462017043e-02  9.9989874117847752e-02  9.9991668752281507e-02  9.9990153880282207e-02  9.9989082302078050e-02  9.9980161447441290e-02  9.9984849202116768e-02  9.9976634270813020e-02  9.9980957248907307e-02  9.9976535242514805e-02  9.9970218336348809e-02  9.9971167349439866e-02  9.9967362044525387e-02  9.9956925124829427e-02  9.9961497926463860e-02  9.9950480029121963e-02  9.9949981606862040e-02  9.9938055196918660e-02  9.9954097579969356e-02  9.9908208435366769e-02  9.9980660076010766e-02  9.9850490104202716e-02  1.0004951764883076e-01  9.9761946680733113e-02  9.9834801600208717e-02  1.0048811637109320e-01  1.0017584484912480e-01  1.0001863765076183e-01  1.0004686926629551e-01  1.0003737387964221e-01  1.0005295482328674e-01  1.0002840420495644e-01  1.0003903019776691e-01  1.0003363900919954e-01  1.0002783105643091e-01  1.0002700806136396e-01  1.0002637489626326e-01  1.0002093995821774e-01  1.0002064678420239e-01  1.0001955758308267e-01  1.0001651096710423e-01  1.0001582117568217e-01  1.0001507813547299e-01  1.0001303741185201e-01  1.0001232729821768e-01  1.0001173193231663e-01  1.0001015275497449e-01  1.0000980057848764e-01  1.0000861761916412e-01  1.0000850607756200e-01  1.0000632600373863e-01  1.0000847124582296e-01  1.0000299563384095e-01  1.0000984011083229e-01  1.0000000000000003e-01  9.9992290947581552e-02  1.0000000000000003e-01  9.9995436877074712e-02  9.9993453041742772e-02  9.9991602991973697e-02  9.9991713548886321e-02  9.9991052586503634e-02  9.9986739364769969e-02  9.9987935973373729e-02  9.9987151488375725e-02  9.9982783195499192e-02  9.9981314981070116e-02  9.9987285561552591e-02  9.9963466068518206e-02  9.9974986207820804e-02  9.9969092687355057e-02  9.9960472448471213e-02  9.9964203827217837e-02  9.9958144428481790e-02  9.9944996365702199e-02  9.9948313734630187e-02  9.9941728462046339e-02  9.9922722866006730e-02  9.9934663242542771e-02  9.9910872761804520e-02  9.9920617029629691e-02  9.9887529116708243e-02  9.9939495729710198e-02  9.9819681888741935e-02  1.0003736274019268e-01  9.9629501179744145e-02  9.9923474634238368e-02  1.0039247566199998e-01  1.0023192189837327e-01  1.0004139187652462e-01  1.0006273038691421e-01  1.0009843271998596e-01  1.0003673841553047e-01  1.0007129369823066e-01  1.0005853329308616e-01  1.0004732453409522e-01  1.0004751156042954e-01  1.0004753870245428e-01  1.0003646434188529e-01  1.0003720360468103e-01  1.0003530202002664e-01  1.0002920166919904e-01  1.0002843997770010e-01  1.0002746548404724e-01  1.0002336791132330e-01  1.0002262373918941e-01  1.0002158591593785e-01  1.0001902069048474e-01  1.0001796576311095e-01  1.0001728224295542e-01  1.0001498214893989e-01  1.0001487898566325e-01  1.0001257914002724e-01  1.0001361870064000e-01  1.0000857850707191e-01  1.0001559234476068e-01  1.0000000000000003e-01  9.9990405387450354e-02  1.0000000000000003e-01  9.9994156267003018e-02  9.9989607253421070e-02  9.9990515013447440e-02  9.9989644002827963e-02  9.9984919262933722e-02  9.9986041020692307e-02  9.9984959596959105e-02  9.9979076990430862e-02  9.9981316257436573e-02  9.9980980807953188e-02  9.9967945084726548e-02  9.9983365442038494e-02  9.9960526042041489e-02  9.9959875215971286e-02  9.9962547646571961e-02  9.9961217058779236e-02  9.9945326257879108e-02  9.9954232193532860e-02  9.9944177328815581e-02  9.9931040635686808e-02  9.9933527748605366e-02  9.9932320199538585e-02  9.9901600733293808e-02  9.9936828843881012e-02  9.9877904335198789e-02  9.9953504014121758e-02  9.9813972969019227e-02  1.0006206399930734e-01  9.9610260026345016e-02  9.9941814028922341e-02  1.0050141787829711e-01  1.0014051604881599e-01  1.0002521116624470e-01  1.0018019759063539e-01  9.9995299659411091e-02  1.0009113145099172e-01  1.0006001130132211e-01  1.0005320814997715e-01  1.0005149170333942e-01  1.0005673209664763e-01  1.0003868632881996e-01  1.0004269657927775e-01  1.0004056526113450e-01  1.0003228080825730e-01  1.0003168522738982e-01  1.0003091527624863e-01  1.0002514343115695e-01  1.0002460865505819e-01  1.0002363103720043e-01  1.0001991822868163e-01  1.0001908919561854e-01  1.0001784955852336e-01  1.0001561163664571e-01  1.0001399510269249e-01  1.0001374153886403e-01  1.0001034465360478e-01  1.0001196325705222e-01  1.0000622659244501e-01  1.0001235067368991e-01  1.0000000000000003e-01  9.9988483163852906e-02  1.0000000000000003e-01  9.9991807640487082e-02  9.9988839063945470e-02  9.9989283166513981e-02  9.9984047310339760e-02  9.9985308555788660e-02  9.9983804760249775e-02  9.9977083599370214e-02  9.9979514819829848e-02  9.9978856723875187e-02  9.9967409955836889e-02  9.9974507183173147e-02  9.9967055127423779e-02  9.9969080102609173e-02  9.9950739017101761e-02  9.9958702395110399e-02  9.9940069973527806e-02  9.9952288310131227e-02  9.9944231603576780e-02  9.9924958832744604e-02  9.9937098855619716e-02  9.9922463677210568e-02  9.9909859121548983e-02  9.9907044836118841e-02  9.9919783677220889e-02  9.9859470427999739e-02  9.9951968850700401e-02  9.9789006314653400e-02  1.0006862990944278e-01  9.9552351362646230e-02  9.9848744667604628e-02  1.0055657133389179e-01  1.0019860211608127e-01  1.0008606422293832e-01  1.0008134304113152e-01  1.0011193446069019e-01  1.0007299542304320e-01  1.0006714799192676e-01  1.0005968476902245e-01  1.0007923087649478e-01  1.0004657021584593e-01  1.0005685663565063e-01  1.0005378774241545e-01  1.0004174780081095e-01  1.0004188751079536e-01  1.0004173745090002e-01  1.0003257554361249e-01  1.0003242912134780e-01  1.0003145848543576e-01  1.0002606361438375e-01  1.0002513622281818e-01  1.0002423225670186e-01  1.0002035871460573e-01  1.0001948192583751e-01  1.0001774921935175e-01  1.0001595272636142e-01  1.0001330206808863e-01  1.0001429239761449e-01  1.0000824091314568e-01  1.0001455549995972e-01  1.0000000000000003e-01  9.9986236668116305e-02  1.0000000000000003e-01  9.9991477035939261e-02  9.9987483768699426e-02  9.9984793012756437e-02  9.9984349655657154e-02  9.9983608860268622e-02  9.9976795477302302e-02  9.9978311494312203e-02  9.9977660723228653e-02  9.9967954231032247e-02  9.9971593918712409e-02  9.9968352190150100e-02  9.9959058355491848e-02  9.9960099898906973e-02  9.9974700242217274e-02  9.9927033612082689e-02  9.9953140411230920e-02  9.9942415341986182e-02  9.9926632436214705e-02  9.9937609581479694e-02  9.9931354545904086e-02  9.9901966015714841e-02  9.9926334066634134e-02  9.9898734826485008e-02  9.9902991223631027e-02  9.9870713710722758e-02  9.9947463204880294e-02  9.9769702615288960e-02  1.0009409933832404e-01  9.9508017502556889e-02  9.9882816981178749e-02  1.0051566226149776e-01  1.0024741755117628e-01  1.0000214910418713e-01  1.0012311242020996e-01  1.0010006758756833e-01  1.0010787691510574e-01  1.0003955085251699e-01  1.0010587616220973e-01  1.0004109032660154e-01  1.0006960510747172e-01  1.0006258821870755e-01  1.0004767885551751e-01  1.0004789385380622e-01  1.0004999829748012e-01  1.0003676684404428e-01  1.0003790111649989e-01  1.0003693555340155e-01  1.0002918140182956e-01  1.0002867488417480e-01  1.0002798079231959e-01  1.0002284201490531e-01  1.0002177332312510e-01  1.0002086552837038e-01  1.0001686294263069e-01  1.0001638715550290e-01  1.0001344502787959e-01  1.0001354699092854e-01  1.0000780732217564e-01  1.0001352071840981e-01  1.0000000000000003e-01  9.9985025389622700e-02  1.0000000000000003e-01  9.9990849073233912e-02  9.9983580675187200e-02  9.9985135750816731e-02  9.9983182606933230e-02  9.9977281102465565e-02  9.9978041173877666e-02  9.9977383872110928e-02  9.9967821302393567e-02  9.9971615585344842e-02  9.9968909872197920e-02  9.9956398325453111e-02  9.9961309391372072e-02  9.9963666043429905e-02  9.9939428307444622e-02  9.9970438894017216e-02  9.9930340831706987e-02  9.9925407744128059e-02  9.9936421648581714e-02  9.9931354665109010e-02  9.9906533261727867e-02  9.9921355997179315e-02  9.9916144561589107e-02  9.9875137524670976e-02  9.9919853034606959e-02  9.9860145197267533e-02  9.9926116280928873e-02  9.9779349615269713e-02  1.0008869169126004e-01  9.9471246217763556e-02  9.9906513121830159e-02  1.0056495360105411e-01  1.0019041269123094e-01  1.0004078393155728e-01  1.0015679918806532e-01  1.0006039872457662e-01  1.0009031209381902e-01  1.0014048852946637e-01  1.0003254696694153e-01  1.0008517568250143e-01  1.0006963661153503e-01  1.0005880526059339e-01  1.0005501216678465e-01  1.0006182171067277e-01  1.0004263971735941e-01  1.0004551107290964e-01  1.0004510672852351e-01  1.0003511763765818e-01  1.0003429843695455e-01  1.0003396825219041e-01  1.0002703086245138e-01  1.0002636528435085e-01  1.0002514169517163e-01  1.0002094632228525e-01  1.0001915437514738e-01  1.0001843156562652e-01  1.0001403877000964e-01  1.0001481785481153e-01  1.0000889752371765e-01  1.0001423414218599e-01  1.0000000000000003e-01  9.9983834051821638e-02  1.0000000000000003e-01  9.9988792481363192e-02  9.9983702639992622e-02  9.9984488087648135e-02  9.9977916102521658e-02  9.9978841947580499e-02  9.9977480043249176e-02  9.9968819392047284e-02  9.9971794280230578e-02  9.9970455744602726e-02  9.9957368818700890e-02  9.9962160127105723e-02  9.9961166743845309e-02  9.9942849750159352e-02  9.9958389911056364e-02  9.9945817275795226e-02  9.9948714942066641e-02  9.9922204256829766e-02  9.9935042669861335e-02  9.9902203350852231e-02  9.9930037876934011e-02  9.9912789869137097e-02  9.9891207658786382e-02  9.9899758467896907e-02  9.9912646014434850e-02  9.9835049186746919e-02  9.9948932663593906e-02  9.9768079738989809e-02  1.0007752846315923e-01  9.9468823134491860e-02  9.9847319685942931e-02  1.0061480330442296e-01  1.0022512727038353e-01  1.0007122877856559e-01  1.0010988106391405e-01  1.0007439575456439e-01  1.0012950973897794e-01  1.0006228295753565e-01  1.0011805455776043e-01  1.0006055197038621e-01  1.0007302648379757e-01  1.0005377311338959e-01  1.0007629231631571e-01  1.0004565163825416e-01  1.0005279338858275e-01  1.0005208281859730e-01  1.0003951932614891e-01  1.0003943282584278e-01  1.0004015181861853e-01  1.0003035788257832e-01  1.0002992813928971e-01  1.0002931373674266e-01  1.0002328511512767e-01  1.0002237117989966e-01  1.0002073857139909e-01  1.0001750057288779e-01  1.0001460744762231e-01  1.0001526835295280e-01  1.0000852440923649e-01  1.0001393813518909e-01  1.0000000000000003e-01  9.9982234829909533e-02  1.0000000000000003e-01  9.9989006816392098e-02  9.9983208750223401e-02  9.9980616692670721e-02  9.9979077710480091e-02  9.9978709707787231e-02  9.9970446161944088e-02  9.9972130321633268e-02  9.9971398961014521e-02  9.9960470090431824e-02  9.9963201856823516e-02  9.9962150622226256e-02  9.9945605005734836e-02  9.9955031148753939e-02  9.9951134952202328e-02  9.9935845894874212e-02  9.9940381170572065e-02  9.9962145095107854e-02  9.9889058363751754e-02  9.9930076432208734e-02  9.9917508345552505e-02  9.9886072290021430e-02  9.9918968966536528e-02  9.9893461952098639e-02  9.9881225167155113e-02  9.9866034396329670e-02  9.9940398460127408e-02  9.9742042257392055e-02  1.0010125379967666e-01  9.9453610769632633e-02  9.9854760580041946e-02  1.0059448310925792e-01  1.0026059978159366e-01  1.0002435014466776e-01  1.0013150799379766e-01  1.0011097872291636e-01  1.0008236864617748e-01  1.0008621629984009e-01  1.0010350482840163e-01  1.0009921956326194e-01  1.0004240265744338e-01  1.0009406169927143e-01  1.0004440025462416e-01  1.0006277037342406e-01  1.0005940451194935e-01  1.0004535454122773e-01  1.0004416815563361e-01  1.0004711639747718e-01  1.0003467098946325e-01  1.0003499729922852e-01  1.0003432730288379e-01  1.0002662573998493e-01  1.0002553011432641e-01  1.0002503943923044e-01  1.0001938513645832e-01  1.0001880098373098e-01  1.0001595184287994e-01  1.0001488891100323e-01  1.0000913679643511e-01  1.0001430091622113e-01  1.0000000000000003e-01  9.9981589938095333e-02  1.0000000000000003e-01  9.9988887167689236e-02  9.9980078261468125e-02  9.9981652223575107e-02  9.9979031091257622e-02  9.9972836940888515e-02  9.9973118598695218e-02  9.9972418917150932e-02  9.9962358847659791e-02  9.9965461187118770e-02  9.9964219165856891e-02  9.9948771179344920e-02  9.9955392308379978e-02  9.9953959728264444e-02  9.9935183635433578e-02  9.9944533663306551e-02  9.9949501899350743e-02  9.9910910454218196e-02  9.9961150963355200e-02  9.9901788471595074e-02  9.9893451393214275e-02  9.9911553502224512e-02  9.9913143023674364e-02  9.9858910285014035e-02  9.9919419116952068e-02  9.9859114053416118e-02  9.9907078346214789e-02  9.9776639728079181e-02  1.0009378645852648e-01  9.9426545837654742e-02  9.9873961213210044e-02  1.0062080016916852e-01  1.0022718897168918e-01  1.0003669797421431e-01  1.0016458773779185e-01  1.0006881420818152e-01  1.0010044567134187e-01  1.0010616373889122e-01  1.0007903171640477e-01  1.0007166712882930e-01  1.0012412688129596e-01  1.0003148155839704e-01  1.0007500843775094e-01  1.0006067986151497e-01  1.0005375458141648e-01  1.0004737372572413e-01  1.0005469555429435e-01  1.0003775654382571e-01  1.0003914725926673e-01  1.0003981299427581e-01  1.0003035714263976e-01  1.0002894294652584e-01  1.0002855437799671e-01  1.0002224437870375e-01  1.0002064743668027e-01  1.0002007358983959e-01  1.0001475259810944e-01  1.0001528232186763e-01  1.0000948216246230e-01  1.0001392517908317e-01  1.0000000000000003e-01  9.9981043604570066e-02  1.0000000000000003e-01  9.9987481338993781e-02  9.9980828226335597e-02  9.9981976722126872e-02  9.9974826106350279e-02  9.9975331428973399e-02  9.9973793887636955e-02  9.9965237476472485e-02  9.9967106620571691e-02  9.9966766975393695e-02  9.9952978822624897e-02  9.9957778509504366e-02  9.9956582572038141e-02  9.9938688918793497e-02  9.9947782832759430e-02  9.9947723990852180e-02  9.9920351542598596e-02  9.9944827806213971e-02  9.9928774439159304e-02  9.9927754460115037e-02  9.9899728590350997e-02  9.9911721168683562e-02  9.9871274938207716e-02  9.9903192824163586e-02  9.9909688236802796e-02  9.9822683805947762e-02  9.9948277548691317e-02  9.9774594190709776e-02  1.0005545850531564e-01  9.9466349318192981e-02  9.9832183240348038e-02  1.0067089893048947e-01  1.0023729415173131e-01  1.0006383669990410e-01  1.0012927465062121e-01  1.0008000423089497e-01  1.0012797240476229e-01  1.0007636151092004e-01  1.0008143111596247e-01  1.0010114002261296e-01  1.0006205699243251e-01  1.0009782673013153e-01  1.0005169720655235e-01  1.0006449942301017e-01  1.0004560005434290e-01  1.0006506381230972e-01  1.0004006942640493e-01  1.0004420595308436e-01  1.0004456961873197e-01  1.0003354894965225e-01  1.0003291546746199e-01  1.0003378873232781e-01  1.0002466462973672e-01  1.0002392780256572e-01  1.0002269099071021e-01  1.0001817583846200e-01  1.0001541638180651e-01  1.0001610229588700e-01  1.0000900461057681e-01  1.0001400398920690e-01  1.0000000000000003e-01  9.9979963430637253e-02  1.0000000000000003e-01  9.9987922047694605e-02  9.9980969884050974e-02  9.9978994385921907e-02  9.9976520186129819e-02  9.9976190005566137e-02  9.9968006849158908e-02  9.9968933729389267e-02  9.9968568953765408e-02  9.9957548350196671e-02  9.9959860839728840e-02  9.9959596076723972e-02  9.9943638614216221e-02  9.9949941260245131e-02  9.9950581938331187e-02  9.9926728422904884e-02  9.9942040545292377e-02  9.9937645831431637e-02  9.9915167973747693e-02  9.9923901771761720e-02  9.9956552723231368e-02  9.9849228324656647e-02  9.9920157284810227e-02  9.9888540514221025e-02  9.9868814273983128e-02  9.9874627240110411e-02  9.9941681247602360e-02  9.9733837254225091e-02  1.0009742038709087e-01  9.9471096674050838e-02  9.9815205360310813e-02  1.0066817136783072e-01  1.0027192588764840e-01  1.0003061133580196e-01  1.0013423316395188e-01  1.0010724984515726e-01  1.0009668070965871e-01  1.0008134644523761e-01  1.0010938509156467e-01  1.0006651691225776e-01  1.0007451571925138e-01  1.0008080637480896e-01  1.0008627533413793e-01  1.0003257057331835e-01  1.0007760592586744e-01  1.0003756080566024e-01  1.0005095685771767e-01  1.0004865218015729e-01  1.0003738335323568e-01  1.0003522965683907e-01  1.0003803757510601e-01  1.0002790098555275e-01  1.0002721027508550e-01  1.0002657112715913e-01  1.0001955418627342e-01  1.0001877305856041e-01  1.0001656534732899e-01  1.0001454213099152e-01  1.0000920730258719e-01  1.0001394159176751e-01  1.0000000000000003e-01  9.9979922537552890e-02  1.0000000000000003e-01  9.9988357711679215e-02  9.9978927896854641e-02  9.9980622651302684e-02  9.9977511883109271e-02  9.9971980782447956e-02  9.9971362304068945e-02  9.9970794512213634e-02  9.9961323251773690e-02  9.9963489870392580e-02  9.9962634760086155e-02  9.9948657913151939e-02  9.9953281199566882e-02  9.9954308279004728e-02  9.9933800189970848e-02  9.9943582781896162e-02  9.9944188467972067e-02  9.9916799942116150e-02  9.9932600837422780e-02  9.9940141112676253e-02  9.9886801216644908e-02  9.9955622633508462e-02  9.9885840380269666e-02  9