<?xml version="1.0"?>
<VTKFile type="UnstructuredGrid"  version="0.1"  >
<UnstructuredGrid>
<Piece  NumberOfPoints="1933" NumberOfCells="3640">
<Points>
<DataArray  type="Float64"  NumberOfComponents="3"  format="ascii">-0.29399812198321 0.000529260983084165 0  4.706001898622542 0.0004988550137780534 0  4.706047542404284 7.500498927299547 0  -0.293952502508055 7.500529290619674 0  9.706001921789342 0.000468379050464721 0  9.706047626492607 7.500468467237448 0  14.70600198479845 0.0004377907459657503 0  14.70604777166987 7.500437884223664 0  19.70600213056697 0.0004070806624858034 0  19.70604799990067 7.500407175358053 0  24.70600240052912 0.0003762594276214572 0  24.70604833348456 7.500376354141728 0  29.70600283271936 0.0003453504502121685 0  29.70604879456619 7.500345445289014 0  34.70600346193593 0.0003143857696363621 0  34.70604940478103 7.500314481439275 0  39.70600432068009 0.0002834038535360419 0  39.70605018515591 7.500283501343564 0  44.7060054403227 0.0002524486810312947 0  44.70605115619434 7.500252549132035 0  49.70600685228121 0.0002215697304965018 0  49.70605233805179 7.500221674391169 0  54.70600858913306 0.0001908226652980079 0  54.70605375071696 7.500190932893747 0  59.70601068565093 0.0001602706287537159 0  59.70605541413119 7.500160387915233 0  64.70601317976794 0.0001299861481399238 0  64.70605734817683 7.500130112146199 0  69.70601611347489 0.0001000537248785761 0  69.7060595724613 7.500100190279869 0  74.70601953364483 7.057326839057841e-05 0  74.70606210579554 7.500070722426925 0  79.70602349274097 4.166462888895064e-05 0  79.70606496522369 7.500041828597864 0  84.70602804932027 1.34736171015997e-05 0  84.70606816439644 7.500013654606954 0  89.70603326813203 -1.381990876173983e-05 0  89.70607171097748 7.499986379907475 0  94.70603921944317 -3.999101921776363e-05 0  94.7060756026344 7.499960228081516 0  99.70604597686136 -6.47544388729975e-05 0  99.70607982097746 7.499935480997444 0  104.7060536122867 -8.774301704290056e-05 0  104.706084322586 7.499912498023189 0  109.7060621853531 -0.0001084768673257321 0  109.7060890260693 7.499891742112312 0  114.7060717222916 -0.0001263184499699663 0  114.7060937941646 7.499873814929291 0  119.7060821743941 -0.0001404064056351299 0  119.7060984107145 7.499859503032902 0  124.7060933369507 -0.0001495575160462529 0  124.7061025554031 7.499849835429667 0  129.7061046912101 -0.0001521222637840396 0  129.7061057875923 7.499846147049864 0  134.7061150955551 -0.0001457785968447277 0  134.7061075721001 7.499850127743877 0  139.7061221785734 -0.0001272677856027336 0  139.7061074320543 7.499863804618846 0  144.7061211300926 -9.219890712595655e-05 0  144.7061054415932 7.499889364007315 0  149.7061022055206 -3.570478502479239e-05 0  149.7061036043991 7.499928825807208 0  159.7061073738539 1.373886303180282e-18 0  164.7060249070874 -0.0001164641668220627 0  164.7060931771983 7.499865610504465 0  159.7061166641542 7.499957264571849 0  169.70598062888 -0.0002145401424232501 0  169.7060691656362 7.499776472128276 0  174.7059566480397 -0.0002994869144207164 0  174.7060495406627 7.499695578995172 0  179.7059439097918 -0.0003742507026838046 0  179.7060347934043 7.499622908179168 0  184.7059375732321 -0.0004410550126525341 0  184.7060242190974 7.499557256538715 0  189.7059349593714 -0.0005016348739463883 0  189.7060169076518 7.499497335725393 0  194.7059345425913 -0.0005573242181867507 0  194.706012044205 7.49944203439692 0  199.7059354294741 -0.000609138314520728 0  199.7060089775014 7.499390455271541 0  204.7059370817743 -0.0006578497029933052 0  204.7060072115875 7.499341890347015 0  209.7059391659774 -0.0007040503208635297 0  209.7060063768928 7.499295783747108 0  214.7059414698766 -0.0007481988435013167 0  214.7060062003673 7.499251697344429 0  219.705943855247 -0.0007906554807371873 0  219.7060064805884 7.499209282886265 0  224.705946230312 -0.0008317071716843813 0  224.7060070686561 7.49916826055593 0  229.7059485332886 -0.0008715857861062831 0  229.7060078540896 7.499128402836981 0  234.7059507222799 -0.000910481347300926 0  234.7060087545995 7.499089522442407 0  239.7059527688938 -0.0009485517389740742 0  239.7060097087263 7.499051463261303 0  244.705954654129 -0.0009859299263652952 0  244.7060106705461 7.499014093516479 0  249.7059563656693 -0.001022729407910755 0  249.7060116058616 7.498977300538082 0  254.7059578961075 -0.001059048393031931 0  254.7060124894651 7.498940986724893 0  259.7059592417915 -0.00109497304769356 0  259.7060133031687 7.498905066388923 0  264.7059604021368 -0.001130580040215522 0  264.7060140344063 7.498869463272118 0  269.7059613792911 -0.001165938538324653 0  269.7060146752609 7.49883410859551 0  274.7059621781212 -0.001201111740450804 0  274.7060152218022 7.498798939561661 0  279.7059628064938 -0.001236157956118487 0  279.7060156736638 7.498763898289424 0  284.7059632758719 -0.001271131165240267 0  284.7060160337801 7.498728931226195 0  289.7059636022076 -0.001306080858545424 0  289.70601630821 7.498693989167574 0  294.7059638071111 -0.00134105074720759 0  294.7060165059868 7.49865902812858 0  299.705963919068 -0.001376075547641202 0  299.7060166389437 7.498624011462832 0  304.7059639740846 -0.001411174347970155 0  304.706016721651 7.498588913805262 0  309.7059640140794 -0.00144633780625985 0  309.7060167721392 7.498553727587445 0  4.706092953094133 15.00049909784986 0  -0.2939070972120701 15.00052936504047 0  9.706093040775166 15.00046867099707 0  14.70609318540037 15.00043809318175 0  19.70609340071278 15.00040737887437 0  24.70609369822299 15.00037654986189 0  29.70609408860965 15.00034563462413 0  34.70609458210809 15.00031466736672 0  39.70609518848344 15.0002836873653 0  44.70609591684251 15.00025273879981 0  49.70609677537045 15.00022187109692 0  54.70609777099903 15.00019113976579 0  59.70609890897455 15.00016060772754 0  64.70610019227639 15.00013034717295 0  69.70610162081842 15.00010044202338 0  74.70610319035873 15.00007099111861 0  79.706104891024 15.00004211230911 0  84.70610670535314 15.00001394769099 0  89.70610860576947 14.99998667028635 0  94.70611055144116 14.99996049252491 0  99.70611248461444 14.99993567689107 0  104.7061143268113 14.99991254898203 0  109.7061159758861 14.99989151280249 0  114.7061173061356 14.99987306703889 0  119.7061181758057 14.9998578185842 0  124.706118450014 14.99984648431035 0  129.7061180527721 14.9998398613092 0  134.7061170690821 14.99983872439317 0  139.7061159230732 14.99984356700446 0  144.7061156447107 14.99985400994671 0  149.7061181474002 14.99986745070055 0  164.7061307611699 14.99981683889302 0  159.7061339557543 14.99988158358393 0  169.7061224737922 14.99974706594432 0  174.7061122740949 14.99967796588527 0  179.7061022876632 14.99961224098464 0  184.7060935071959 14.99955068070001 0  189.7060862492069 14.99949319820771 0  194.7060804914859 14.99943937532709 0  199.7060760667745 14.99938871128486 0  204.7060727630179 14.99934072571279 0  209.7060703708537 14.99929499465888 0  214.7060687032938 14.99925115748342 0  219.7060676015842 14.99920891220916 0  224.7060669346986 14.99916800719304 0  229.7060665962723 14.99912823244452 0  234.706066500836 14.99908941183792 0  239.7060665801701 14.99905139655408 0  244.7060667801067 14.99901405971572 0  249.7060670578642 14.998977292055 0  254.7060673798809 14.99894099842807 0  259.7060677200878 14.99890509501212 0  264.7060680585381 14.99886950705146 0  269.7060683803257 14.99883416705506 0  274.7060686747249 14.99879901338127 0  279.7060689344888 14.9987639891764 0  284.7060691552826 14.99872904166147 0  289.7060693352048 14.9986941217766 0  294.7060694744554 14.99865918417442 0  299.7060695752566 14.99862418744753 0  304.7060696423542 14.99858909413188 0  309.7060696847096 14.9985538690746 0  4.70613810056059 22.50049945076749 0  -0.2938619493102845 22.50052962588968 0  9.706138174849668 22.50046905473536 0  14.70613828821356 22.50043847607001 0  19.70613844912156 22.50040774756005 0  24.70613866253412 22.50037690135603 0  29.70613893148595 22.50034597133092 0  34.70613925781323 22.50031499417558 0  39.70613964233581 22.50028401001203 0  44.70614008471647 22.500253062948 0  49.70614058312864 22.50022220178687 0  54.70614113379055 22.5001914810019 0  59.70614173038755 22.5001609620411 0  64.70614236337973 22.50013071501877 0  69.70614301918314 22.50010082085362 0  74.70614367922408 22.50007137392419 0  79.70614431887702 22.50004248531864 0  84.70614490634971 22.50001428674839 0  89.706145401654 22.49998693515786 0  94.70614575594446 22.49996061796179 0  99.70614591173694 22.49993555862028 0  104.7061458048947 22.49991202182182 0  109.7061453698236 22.49989031670663 0  114.7061445500984 22.49987079504535 0  119.7061433176729 22.49985383863731 0  124.7061417046238 22.49983982577834 0  129.7061398511336 22.49982905973994 0  134.7061380699695 22.49982163250847 0  139.7061369164378 22.49981718658724 0  144.7061372249119 22.49981453777794 0  149.7061400155532 22.49981118287038 0  164.7061597081264 22.49976253821081 0  159.7061535967247 22.49981055724607 0  169.706160969513 22.49970798608611 0  174.7061588239447 22.49965079963225 0  179.7061547547891 22.49959362529741 0  184.7061499047491 22.49953795428594 0  189.7061450087593 22.49948445911776 0  194.70614047725 22.49943332504825 0  199.706136501866 22.49938448079048 0  204.7061331407714 22.4993377370709 0  209.7061303774373 22.49929286288374 0  214.7061281578604 22.49924962441482 0  219.706126412742 22.49920780304866 0  224.7061250699657 22.49916720223584 0  229.7061240611264 22.49912764873985 0  234.7061233245602 22.49908899125965 0  239.7061228063978 22.49905109799678 0  244.7061224605616 22.49901385395383 0  249.7061222482358 22.49897715833267 0  254.7061221371214 22.49894092218608 0  259.7061221006222 22.49890506636982 0  264.7061221170619 22.49886951979231 0  269.7061221689514 22.49883421794106 0  274.7061222423315 22.49879910165714 0  279.7061223261819 22.49876411612701 0  284.7061224119113 22.49872921004833 0  289.7061224929474 22.49869433489418 0  294.70612256449 22.49865944411925
[...]
<PointData  Scalars="p"> 
<DataArray  type="Float64"  Name="p"  format="ascii">1.0000000000000001e-01  1.0000000000000003e-01  1.0000258760509582e-01  1.0000000000000003e-01  1.0000000000000003e-01  1.0000370450014354e-01  1.0000000000000003e-01  1.0000559153087771e-01  1.0000000000000003e-01  1.0000685829550099e-01  1.0000000000000003e-01  1.0000827569645214e-01  1.0000000000000003e-01  1.0001010240357898e-01  1.0000000000000003e-01  1.0001128358264334e-01  1.0000000000000003e-01  1.0001253892798989e-01  1.0000000000000003e-01  1.0001455344963732e-01  1.0000000000000003e-01  1.0001579773770937e-01  1.0000000000000003e-01  1.0001899366135396e-01  1.0000000000000003e-01  1.0002237558949045e-01  1.0000000000000003e-01  1.0002488690545716e-01  1.0000000000000003e-01  1.0002734259473660e-01  1.0000000000000003e-01  1.0003093005066144e-01  1.0000000000000003e-01  1.0003271130861675e-01  1.0000000000000003e-01  1.0003487932751820e-01  1.0000000000000003e-01  1.0003839637435691e-01  1.0000000000000003e-01  1.0003902726323764e-01  1.0000000000000003e-01  1.0004157729821749e-01  1.0000000000000003e-01  1.0004283029342878e-01  1.0000000000000003e-01  1.0004519048625929e-01  1.0000000000000003e-01  1.0004266899036067e-01  1.0000000000000003e-01  1.0005003542751245e-01  1.0000000000000003e-01  1.0003998224638956e-01  1.0000000000000003e-01  1.0005578191143798e-01  1.0000000000000003e-01  1.0003375211254020e-01  1.0000000000000003e-01  1.0006529407592230e-01  1.0000000000000003e-01  1.0002385779865981e-01  1.0000000000000001e-01  1.0008442503593397e-01  1.0000000000000001e-01  1.0000000000000003e-01  9.9898410405582616e-02  9.9828271027923063e-02  1.0000000000000003e-01  9.9955295120897847e-02  1.0000000000000003e-01  9.9917108411195624e-02  1.0000000000000003e-01  9.9934426018417011e-02  1.0000000000000003e-01  9.9927543906876803e-02  1.0000000000000003e-01  9.9931599443016633e-02  1.0000000000000003e-01  9.9927616929259500e-02  1.0000000000000003e-01  9.9930964323484570e-02  1.0000000000000003e-01  9.9929576943857817e-02  1.0000000000000003e-01  9.9930184545511974e-02  1.0000000000000003e-01  9.9930901559022525e-02  1.0000000000000003e-01  9.9931495425743672e-02  1.0000000000000003e-01  9.9931762547661201e-02  1.0000000000000003e-01  9.9932876189851721e-02  1.0000000000000003e-01  9.9933431056471275e-02  1.0000000000000003e-01  9.9934065787613213e-02  1.0000000000000003e-01  9.9934891404526938e-02  1.0000000000000003e-01  9.9935670619344677e-02  1.0000000000000003e-01  9.9936066359992970e-02  1.0000000000000003e-01  9.9937191069326844e-02  1.0000000000000003e-01  9.9937221319404801e-02  1.0000000000000003e-01  9.9938797863152781e-02  1.0000000000000003e-01  9.9937738610521812e-02  1.0000000000000003e-01  9.9941275011923139e-02  1.0000000000000003e-01  9.9936582457663403e-02  1.0000000000000003e-01  9.9946000171887442e-02  1.0000000000000003e-01  9.9931522900700384e-02  1.0000000000000003e-01  9.9956763710178698e-02  1.0000000000000003e-01  9.9913246873125236e-02  1.0000000000000001e-01  1.0000000000000003e-01  1.0000350432338730e-01  1.0000000000000003e-01  1.0000389866102585e-01  1.0000424720572877e-01  1.0000479097100524e-01  1.0000591251219455e-01  1.0000592810207737e-01  1.0000599723084160e-01  1.0000747492713266e-01  1.0000702911460999e-01  1.0000744016976293e-01  1.0000986443135579e-01  1.0001227624501280e-01  1.0001289569963857e-01  1.0001640889208409e-01  1.0001532988240126e-01  1.0001590003983925e-01  1.0001874122276724e-01  1.0001739537275475e-01  1.0001723792140042e-01  1.0002087850169480e-01  1.0001734658361558e-01  1.0001938691398053e-01  1.0001827184060547e-01  1.0002118014386463e-01  1.0001185384898216e-01  1.0002967975773060e-01  9.9999009046588885e-02  1.0004996776170157e-01  9.9972487895038667e-02  1.0008642641700045e-01  1.0005991794735615e-01  9.9712213944347691e-02  9.9931977809332093e-02  9.9983254229458918e-02  9.9976845987706384e-02  9.9981187056708928e-02  9.9970480463630731e-02  9.9979126181374361e-02  9.9973932672918889e-02  9.9973536902184579e-02  9.9974667189370148e-02  9.9974379949116149e-02  9.9973382722351012e-02  9.9974932004736602e-02  9.9974844996894838e-02  9.9974718343464067e-02  9.9975690856152932e-02  9.9975821309415847e-02  9.9975909521107312e-02  9.9976418284784763e-02  9.9976859899781695e-02  9.9976476175278467e-02  9.9977729621833974e-02  9.9976516740996293e-02  9.9978898088707080e-02  9.9975273407208215e-02  9.9982310261227142e-02  9.9969838796811969e-02  9.9991571467013055e-02  9.9957939147896441e-02  1.0000000000000003e-01  1.0000481021483912e-01  1.0000000000000003e-01  1.0000365413965187e-01  1.0000559093328611e-01  1.0000684496555338e-01  1.0000737129238343e-01  1.0000743713403197e-01  1.0000967637454274e-01  1.0000925215438075e-01  1.0000903222067782e-01  1.0001193801077113e-01  1.0001221725492296e-01  1.0001223393632065e-01  1.0002051965270345e-01  1.0001978632309755e-01  1.0002095720000430e-01  1.0002609888980478e-01  1.0002361842917303e-01  1.0002417348739168e-01  1.0002922661575307e-01  1.0002617079747239e-01  1.0002528878108546e-01  1.0003205000943705e-01  1.0002397406926260e-01  1.0002980400321751e-01  1.0002357387283721e-01  1.0003507240194841e-01  1.0000923485363564e-01  1.0005993615348981e-01  9.9969188944968299e-02  1.0013754347314952e-01  1.0006999282043395e-01  9.9696473051590045e-02  9.9859154357535576e-02  9.9966173162029090e-02  9.9964206450069773e-02  9.9939407690692858e-02  9.9964957826365844e-02  9.9950492567099328e-02  9.9950371525083431e-02  9.9952934525511766e-02  9.9951833301734516e-02  9.9949063838494154e-02  9.9952284959362606e-02  9.9951472344729314e-02  9.9950960458599289e-02  9.9952839765588289e-02  9.9953041119280592e-02  9.9952807167615218e-02  9.9954223617802165e-02  9.9954311843174617e-02  9.9954576513048954e-02  9.9955043859772497e-02  9.9955975992019233e-02  9.9954836885368561e-02  9.9957576733688297e-02  9.9954125995635412e-02  9.9960177534490366e-02  9.9950351095624584e-02  9.9969026845061440e-02  9.9933442215950283e-02  1.0000000000000003e-01  1.0000554329801688e-01  1.0000000000000003e-01  1.0000373302627277e-01  1.0000632187992142e-01  1.0000632808039182e-01  1.0000632455984490e-01  1.0000849789081566e-01  1.0000783139158786e-01  1.0000713931410016e-01  1.0000979319989860e-01  1.0000855873979542e-01  1.0000806424873744e-01  1.0001348336027954e-01  1.0001098737323399e-01  1.0001548064886447e-01  1.0002115859500223e-01  1.0001900090457994e-01  1.0001829807022491e-01  1.0002438980262721e-01  1.0001918570710075e-01  1.0001954692788459e-01  1.0002398207695139e-01  1.0002026790848841e-01  1.0001571422394702e-01  1.0002746735969092e-01  1.0000865801447921e-01  1.0003042392836473e-01  9.9996246579958328e-02  1.0005695069349296e-01  9.9948525420614762e-02  1.0014834505431548e-01  1.0008549827487599e-01  9.9636558363367073e-02  9.9897850806473468e-02  9.9997667116919056e-02  9.9919611891793242e-02  9.9998269944903476e-02  9.9963655430361301e-02  9.9968930368674519e-02  9.9969752198326239e-02  9.9969440226905168e-02  9.9963175440639374e-02  9.9968496729273687e-02  9.9966094345660575e-02  9.9964869625416342e-02  9.9967151865422058e-02  9.9967049491888699e-02  9.9966410065499875e-02  9.9968157555222453e-02  9.9968293881712897e-02  9.9967911487469419e-02  9.9969232196451457e-02  9.9968874054291945e-02  9.9969541725055261e-02  9.9968844314807986e-02  9.9971212826701447e-02  9.9967068204817308e-02  9.9974570626905304e-02  9.9962308008459580e-02  9.9982582369586737e-02  9.9949686279112396e-02  1.0000000000000003e-01  1.0000630287422099e-01  1.0000000000000003e-01  1.0000428456555893e-01  1.0000621476378434e-01  1.0000562904947989e-01  1.0000853175621392e-01  1.0000775945430537e-01  1.0000756794660449e-01  1.0001023903526655e-01  1.0000875565031998e-01  1.0000777885877074e-01  1.0001242140992807e-01  1.0001027962742193e-01  1.0001092964611742e-01  1.0001561817978183e-01  1.0001812244208183e-01  1.0001828639498039e-01  1.0002600295254675e-01  1.0002085862656117e-01  1.0001988002146908e-01  1.0002778069836461e-01  1.0001958752042626e-01  1.0002085577864613e-01  1.0002399210206145e-01  1.0002251161750897e-01  1.0000969631256444e-01  1.0003660192383086e-01  9.9990458950567740e-02  1.0006366693484536e-01  9.9937249164164077e-02  1.0017595583459271e-01  1.0014081306066210e-01  9.9580985514632889e-02  9.9878928838383577e-02  9.9973774784815020e-02  9.9941061383820723e-02  9.9957449298942416e-02  9.9962930941902020e-02  9.9963731780492421e-02  9.9968353024228462e-02  9.9954087117441984e-02  9.9964478880327765e-02  9.9959509371271668e-02  9.9957247451563425e-02  9.9960321631733184e-02  9.9959837269318466e-02  9.9958135649978450e-02  9.9960927483449299e-02  9.9960809149229737e-02  9.9960379990271048e-02  9.9961903657955570e-02  9.9962224384272172e-02  9.9961551237340587e-02  9.9963206970123328e-02  9.9962074469627654e-02  9.9963902630448895e-02  9.9961093258330275e-02  9.9966834816326289e-02  9.9956395713601195e-02  9.9975406154602903e-02  9.9941511656139154e-02  1.0000000000000003e-01  1.0000722129827512e-01  1.0000000000000003e-01  1.0000415689921333e-01  1.0000593199717721e-01  1.0000699627254384e-01  1.0000726673580135e-01  1.0000689459471822e-01  1.0000969666449981e-01  1.0000863674735809e-01  1.0000717035728883e-01  1.0001115105908409e-01  1.0000919247182176e-01  1.0000827056667946e-01  1.0001388556126101e-01  1.0001172694534323e-01  1.0000878446757551e-01  1.0002345189113038e-01  1.0001838575780625e-01  1.0001849832543488e-01  1.0002675350216074e-01  1.0001931339394872e-01  1.0001653726599163e-01  1.0002813496541510e-01  1.0001361702362284e-01  1.0001983646976781e-01  1.0001433466970786e-01  1.0002861400094235e-01  9.9983639431714427e-02  1.0007255526024592e-01  9.9915647214435299e-02  1.0020000626556277e-01  1.0015399949587839e-01  9.9579188576096753e-02  9.9855589758206645e-02  1.0001830705262640e-01  9.9943312717796273e-02  9.9955665537826449e-02  9.9951599803827479e-02  9.9987798100525244e-02  9.9953779595111397e-02  9.9977097525356842e-02  9.9965683527524440e-02  9.9963279110728623e-02  9.9966856527061929e-02  9.9966139146521305e-02  9.9962525843965033e-02  9.9966511668920455e-02  9.9965776799224734e-02  9.9964685521375829e-02  9.9967180396103375e-02  9.9967090284723295e-02  9.9966718606172469e-02  9.9967791698160183e-02  9.9968447845553518e-02  9.9966882824755229e-02  9.9969780441485537e-02  9.9965974801943067e-02  9.9972071029311771e-02  9.9961617700663155e-02  9.9980004795945376e-02  9.9948132121714009e-02  1.0000000000000003e-01  1.0000773501425329e-01  1.0000000000000003e-01  1.0000392520207951e-01  1.0000736354055617e-01  1.0000626885617513e-01  1.0000653303246608e-01  1.0000888187286973e-01  1.0000868104366796e-01  1.0000721038990512e-01  1.0001122158461603e-01  1.0000913354237252e-01  1.0000768659934066e-01  1.0001351931570066e-01  1.0001062947378177e-01  1.0000816324440628e-01  1.0001725896376669e-01  1.0001014281135114e-01  1.0001617203613937e-01  1.0002674095616722e-01  1.0001972560569333e-01  1.0001844819258647e-01  1.0002773020289253e-01  1.0001894877496863e-01  1.0001313294279225e-01  1.0003087612166754e-01  1.0000476675934199e-01  1.0002885117944059e-01  9.9990377477837830e-02  1.0006946008985697e-01  9.9904755604371842e-02  1.0022865498814663e-01  1.0015173762689818e-01  9.9550840562253134e-02  9.9874956856048663e-02  1.0001859915485928e-01  9.9926602650813129e-02  9.9975765443308703e-02  9.9955431250496149e-02  9.9942314416111983e-02  9.9982143054835090e-02  9.9963567025642380e-02  9.9964589983138008e-02  9.9965579282287997e-02  9.9966433839009466e-02  9.9959929723646465e-02  9.9965485221501615e-02  9.9963796668235294e-02  9.9962019167067553e-02  9.9964793725250647e-02  9.9964910375100580e-02  9.9963870188053999e-02  9.9966142109524717e-02  9.9965781632907161e-02  9.9965938433093482e-02  9.9965912262759388e-02  9.9967701021289837e-02  9.9964119789113917e-02  9.9970290017873165e-02  9.9960005455671491e-02  9.9977777480552713e-02  9.9946256840346748e-02  1.0000000000000003e-01  1.0000809880854586e-01  1.0000000000000003e-01  1.0000468169746854e-01  1.0000709584931659e-01  1.0000564049884043e-01  1.0000837135155330e-01  1.0000766685754300e-01  1.0000691926705546e-01  1.0001065187652021e-01  1.0000891363930642e-01  1.0000744949864633e-01  1.0001279616778495e-01  1.0001009962906783e-01  1.0000803655540397e-01  1.0001554988726931e-01  1.0000967221723626e-01  1.0000912728405706e-01  1.0001626649886915e-01  1.0001775100720195e-01  1.0001629841256798e-01  1.0003000999841005e-01  1.0001735899792928e-01  1.0001750841804072e-01  1.0002550715598391e-01  1.0001933758097123e-01  1.0000257429753452e-01  1.0004142718027569e-01  9.9977291380280914e-02  1.0007278978885381e-01  9.9902154433401572e-02  1.0024273483998075e-01  1.0018486483891050e-01  9.9518626664537979e-02  9.9867933894205896e-02  1.0000986263094584e-01  9.9949866833459799e-02  9.9983567845412430e-02  9.9944316252022228e-02  9.9966527402051128e-02  9.9953247392032998e-02  9.9974514770479930e-02  9.9965946321204160e-02  9.9974595274638464e-02  9.9960972124033459e-02  9.9970125075678831e-02  9.9966783101589740e-02  9.9964125240568275e-02  9.9967375085922364e-02  9.9967147067634099e-02  9.9965263924242057e-02  9.9968025360332766e-02  9.9968223519300847e-02  9.9967134316357342e-02  9.9969375602713281e-02  9.9968215180656295e-02  9.9969620728863104e-02  9.9967070675192130e-02  9.9972521583535548e-02  9.9962344826875063e-02  9.9979900040382125e-02  9.9949447660568680e-02  1.0000000000000003e-01  1.0000877650233553e-01  1.0000000000000003e-01  1.0000450562615099e-01  1.0000673273641972e-01  1.0000712583120969e-01  1.0000762703771689e-01  1.0000631322305290e-01  1.0000975154801632e-01  1.0000857308744789e-01  1.0000725224670326e-01  1.0001185217049154e-01  1.0001020286867114e-01  1.0000794799999942e-01  1.0001495676276979e-01  1.0001058974278726e-01  1.0000766704207985e-01  1.0001624778522386e-01  1.0001081538970365e-01  1.0000528292799600e-01  1.0002744388732757e-01  1.0001827168385446e-01  1.0001606733058581e-01  1.0003232186396709e-01  1.0001321998822595e-01  1.0001785761092398e-01  1.0001860983710488e-01  1.0002873366824558e-01  9.9974866905460424e-02  1.0008937598753172e-01  9.9884264035510484e-02  1.0025962036989668e-01  1.0019312820541736e-01  9.9519629417759783e-02  9.9850744283244419e-02  1.0003196544342044e-01  9.9948725483290854e-02  9.9971354304120741e-02  9.9964680731229633e-02  9.9967579561398373e-02  9.9948771886357549e-02  9.9955971692932064e-02  9.9982138043620467e-02  9.9957868263194014e-02  9.9974782608484136e-02  9.9967186707832903e-02  9.9964685920149635e-02  9.9967863041669519e-02  9.9967894664000634e-02  9.9964347923381450e-02  9.9968062126813043e-02  9.9967488341737701e-02  9.9966528261192941e-02  9.9968486800575240e-02  9.9969112757342438e-02  9.9967390638401321e-02  9.9970362347477193e-02  9.9967071820898867e-02  9.9971995817684928e-02  9.9962932325623630e-02  9.9979403625569077e-02  9.9949743377423156e-02  1.0000000000000003e-01  1.0000902656622257e-01  1.0000000000000003e-01  1.0000425007830142e-01  1.0000808348174635e-01  1.0000661262324387e-01  1.0000671512810351e-01  1.0000881513908233e-01  1.0000833712509835e-01  1.0000681582326203e-01  1.0001094537446459e-01  1.0000967795920764e-01  1.0000759713581837e-01  1.0001444396790379e-01  1.0001122873028853e-01  1.0000783395441221e-01  1.0001635615826186e-01  1.0001056254527818e-01  1.0000532040685543e-01  1.0001961901578860e-01  1.0000649009653080e-01  1.0001457410013137e-01  1.0002992199748575e-01  1.0001917659782038e-01  1.0001187478983709e-01  1.0003613150655609e-01  1.0000314224784905e-01  1.0002732949232446e-01  9.9992321776229881e-02  1.0007710432541808e-01  9.9877941751227023e-02  1.0028657848139674e-01  1.0018967003142978e-01  9.9511527744434308e-02  9.9863757479428356e-02  1.0003507565581558e-01  9.9936278178046012e-02  9.9990549796688033e-02  9.9967196906889433e-02  9.9962041357405773e-02  9.9963193740807407e-02  9.9964050348699166e-02  9.9946794415942466e-02  9.9983422646321429e-02  9.9966944138338024e-02  9.9969605534549699e-02  9.9969286424688678e-02  9.9971160684627053e-02  9.9965432187818698e-02  9.9970097708956832e-02  9.9969100814974884e-02  9.9967095793360633e-02  9.9969739399738841e-02  9.9969576322381015e-02  9.9969192892410741e-02  9.9969930624305148e-02  9.9971572641688086e-02  9.9968031979688718e-02  9.9973844468897954e-02  9.9964490328809844e-02  9.9980312537956320e-02  9.9951984757421106e-02  1.0000000000000003e-01  1.0000919558520725e-01  1.0000000000000003e-01  1.0000491493654275e-01  1.0000786831975245e-01  1.0000593897063281e-01  1.0000866330819878e-01  1.0000780966751739e-01  1.0000692569302133e-01  1.0001007133673198e-01  1.0000902226500810e-01  1.0000704448331409e-01  1.0001315763329717e-01  1.0001100115235544e-01  1.0000851811973212e-01  1.0001624984016338e-01  1.0001120917605970e-01  1.0000681708082802e-01  1.0001791718542115e-01  1.0000827694117792e-01  1.0000583720561843e-01  1.0001806994612224e-01  1.0001565366026996e-01  1.0001509593088970e-01  1.0003186093032791e-01  1.0001913211317394e-01  1.0000244897984943e-01  1.0004855212912390e-01  9.9975909167074939e-02  1.0007501559467508e-01  9.9895870988985558e-02  1.0027936477243761e-01  1.0020595994789291e-01  9.9499896783735095e-02  9.9863191483094138e-02  1.0002619478168630e-01  9.9950063514055068e-02  9.9992134126892174e-02  9.9956785818285834e-02  9.9976386402878203e-02  9.9968860423411077e-02  9.9955889426817435e-02  9.9962870330623288e-02  9.9957491087609249e-02  9.9975520152496014e-02  9.9968077066910827e-02  9.9976039807239833e-02  9.9965117805794076e-02  9.9972317483314976e-02  9.9970131579149621e-02  9.9967740135433844e-02  9.9970258566052572e-02  9.9970382820869425e-02  9.9968220741670999e-02  9.9971139609847839e-02  9.9970234629080043e-02  9.9971132439784172e-02  9.9969453767037655e-02  9.9974195848117856e-02  9.9965018976478234e-02  9.9980757655159624e-02  9.9953164801316829e-02  1.0000000000000003e-01  1.0000968510379876e-01  1.0000000000000003e-01  1.0000480872953911e-01  1.0000749090494127e-01  1.0000739603052837e-01  1.0000813871040679e-01  1.0000664359420980e-01  1.0000971286389443e-01  1.0000877255104215e-01  1.0000690841161489e-01  1.0001158071332626e-01  1.0001037235872741e-01  1.0000824887011509e-01  1.0001537671364463e-01  1.0001240989945169e-01  1.0000784450050067e-01  1.0001768664047433e-01  1.0001059182492433e-01  1.0000539519341226e-01  1.0001806021844757e-01  1.0000948641414138e-01  9.9999368741288217e-02  1.0003348575953806e-01  1.0001300793395958e-01  1.0001751372584991e-01  1.0002724601944868e-01  1.0002757034848392e-01  9.9974939820191594e-02  1.0009858125004224e-01  9.9879376865508296e-02  1.0027750947829188e-01  1.0020979305235164e-01  9.9515372329153071e-02  9.9853742673246496e-02  1.0003928533762739e-01  9.9951746269563851e-02  9.9982502439683138e-02  9.9969369910612518e-02  9.9979680891497766e-02  9.9960578798188982e-02  9.9971214252705942e-02  9.9965744490026612e-02  9.9956495968915191e-02  9.9958488134520254e-02  9.9983554367668051e-02  9.9963456655278879e-02  9.9977193230674610e-02  9.9971446850275397e-02  9.9969523498654234e-02  9.9971869967766303e-02  9.9972080352342008e-02  9.9969170797312989e-02  9.9971633620104319e-02  9.9971795457574258e-02  9.9969887449214395e-02  9.9973136643665014e-02  9.9970436593701681e-02  9.9974526975918993e-02  9.9966855342047772e-02  9.9981428841391454e-02  9.9954967527479871e-02  1.0000000000000003e-01  1.0000988533848007e-01  1.0000000000000003e-01  1.0000462425523922e-01  1.0000873195707974e-01  1.0000710561061837e-01  1.0000743596200212e-01  1.0000904518812449e-01  1.0000888916238908e-01  1.0000721858735197e-01  1.0001092912370244e-01  1.0000979183267009e-01  1.0000785404417253e-01  1.0001406578023449e-01  1.0001250054861315e-01  1.0000867945956016e-01  1.0001759816282943e-01  1.0001281697596866e-01  1.0000658101632134e-01  1.0001909506517542e-01  1.0001015626804617e-01  1.0000213860254543e-01  1.0002243836224618e-01  1.0000407396159509e-01  1.0000896122023470e-01  1