<?xml version="1.0"?>
<VTKFile type="UnstructuredGrid"  version="0.1"  >
<UnstructuredGrid>
<Piece  NumberOfPoints="1933" NumberOfCells="3640">
<Points>
<DataArray  type="Float64"  NumberOfComponents="3"  format="ascii">0.2940237752782978 -0.00118211349110708 0  5.294023794962648 -0.00114938761219938 0  5.293974693319011 7.498850655586435 0  0.2939746691179012 7.498817923157053 0  10.29402383079518 -0.001116692329479032 0  10.29397473193099 7.498883350135595 0  15.29402389910745 -0.001084017319679096 0  15.29397478955758 7.498916022642512 0  20.29402401173381 -0.001051343170591967 0  20.29397486917469 7.498948694223626 0  25.29402417596125 -0.001018646332393632 0  25.29397497208606 7.498981388876898 0  30.29402439527256 -0.0009859012177510251 0  30.29397509773683 7.499014132218409 0  35.29402467008304 -0.000953080968255751 0  35.29397524356911 7.499046951004853 0  40.29402499826009 -0.0009201575541889469 0  40.29397540489024 7.499079873132449 0  45.29402537539723 -0.0008871015195523014 0  45.29397557470138 7.499112927920794 0  50.29402579486248 -0.0008538815178023763 0  50.29397574344024 7.499146146579407 0  55.29402624764052 -0.000820463698705641 0  55.29397589860204 7.499179562811968 0  60.29402672197472 -0.0007868109592660663 0  60.29397602420356 7.499213213549517 0  65.29402720279502 -0.0007528820411047865 0  65.2939761000473 7.499247139829278 0  70.29402767089084 -0.0007186304320256504 0  70.29397610073137 7.499281387856331 0  75.29402810175783 -0.000684003003868696 0  75.2939759943276 7.499316010305826 0  80.29402846399742 -0.0006489382865294883 0  80.29397574062176 7.499351067946461 0  85.29402871707549 -0.0006133642332841266 0  85.29397528876801 7.499386631694117 0  90.29402880812655 -0.0005771952681150449 0  90.29397457415553 7.499422785236576 0  95.29402866728955 -0.0005403283122858201 0  95.29397351422473 7.499459628402068 0  100.2940282007091 -0.0005026373544613431 0  100.2939720029055 7.499497281458098 0  105.2940272797229 -0.0004639659489018193 0  105.293969903329 7.499535890478902 0  110.2940257236476 -0.0004241168106973806 0  110.2939670385737 7.499575633700302 0  115.2940232715657 -0.0003828374995009133 0  115.2939631806866 7.499616728143892 0  120.2940195348288 -0.0003398013014437644 0  120.293958039576 7.499659434185829 0  125.2940139152052 -0.0002945836014115128 0  125.2939512567533 7.499704051983271 0  130.2940054610895 -0.0002466384596035373 0  130.2939424167011 7.499750895275702 0  135.293992611169 -0.0001952939456301601 0  135.2939311058145 7.499800210162722 0  140.293972732641 -0.0001398265431651695 0  140.2939170854204 7.499851970669248 0  145.2939412821527 -7.980607273290301e-05 0  145.2939007217306 7.499905421888004 0  150.2938902582888 -1.635816618573661e-05 0  150.293883977412 7.499958194522508 0  160.2938926261462 8.035263982911343e-19 0  165.2938944898062 -1.781322468777903e-05 0  165.2938928837068 7.499976386928343 0  160.2938888735956 7.499985815767555 0  170.2939033249643 -2.191133363070238e-05 0  170.293896636371 7.499975421458243 0  175.2939143366302 -1.681675340858745e-05 0  175.2939010123631 7.499981893922129 0  180.2939254802902 -5.220949952934763e-06 0  180.2939058955693 7.49999415258337 0  185.293935911784 1.108356375262759e-05 0  185.2939109960492 7.500010790305005 0  190.2939453298355 3.08549559987577e-05 0  190.2939160627036 7.50003073273383 0  195.2939536776855 5.321598792146996e-05 0  195.2939209224412 7.500053182263711 0  200.2939610039328 7.753704840509561e-05 0  200.2939254712759 7.50007754895809 0  205.2939673974101 0.0001033589861822081 0  205.2939296558285 7.500103393957464 0  210.2939729571889 0.0001303414848066436 0  210.2939334565569 7.500130387511736 0  215.2939777793437 0.000158228236505228 0  215.2939368751587 7.500158278899761 0  220.2939819516729 0.0001868232073485963 0  220.2939399258773 7.500186875085741 0  225.2939855521316 0.0002159742485237345 0  225.2939426297805 7.500216025555206 0  230.2939886489376 0.0002455616065670242 0  230.29394501113 7.500245611461341 0  235.2939913013778 0.0002754897360306609 0  235.2939470951579 7.500275537772555 0  240.2939935608574 0.0003056813698108924 0  240.2939489067673 7.500305727522274 0  245.2939954719905 0.0003360731589367841 0  245.2939504698284 7.500336117546905 0  250.2939970736461 0.0003666124249393897 0  250.2939518068583 7.500366655293523 0  255.2939983999294 0.000397254719850407 0  255.2939529389467 7.500397296412133 0  260.2939994810952 0.0004279619911032261 0  260.2939538858321 7.500428002940039 0  265.2940003444161 0.0004587012204727528 0  265.2939546660776 7.500458741952007 0  270.2940010150136 0.0004894434606922462 0  270.2939552973006 7.500489484600335 0  275.2940015166839 0.0005201632400727772 0  275.2939557964222 7.500520205511235 0  280.2940018727169 0.0005508383523761021 0  280.2939561799196 7.500550882543417 0  285.294002106706 0.0005814501043523738 0  285.2939564640304 7.500581496956284 0  290.2940022432877 0.0006119841655557209 0  290.2939566648948 7.500612034081266 0  295.2940023086697 0.0006424322623545492 0  295.293956798592 7.500642484639235 0  300.2940023306001 0.0006727950769017004 0  300.2939568810831 7.50067284689305 0  305.2940023370389 0.0007030867848160183 0  305.2939569281949 7.500703129856761 0  310.2940023519495 0.0007333413168457079 0  310.293956956135 7.50073335786126 0  5.293925531816017 14.99885074376102 0  0.2939255090024498 14.99881801255509 0  10.29392555947383 14.99888342517002 0  15.2939255934518 14.9989160826463 0  20.2939256329108 14.99894874051201 0  25.29392567566266 14.9989814233191 0  30.29392571829847 14.99901415629031 0  35.29392575602146 14.99904696550238 0  40.29392578238249 14.99907987811378 0  45.29392578897164 14.99911292269986 0  50.29392576506728 14.999146129697 0  55.29392569722373 14.99917953194862 0  60.29392556877484 14.99921316535364 0  65.29392535922945 14.99924706962789 0  70.29392504353396 14.9992812891969 0  75.29392459118473 14.99931587424553 0  80.29392396517564 14.99935088195054 0  85.293923120795 14.99938637791441 0  90.29392200432621 14.99942243779081 0  95.29392055180131 14.99945914902376 0  100.293918688131 14.99949661247131 0  105.2939163272556 14.99953494337475 0  110.2939133745251 14.99957427051655 0  115.2939097334696 14.99961473122429 0  120.2939053206335 14.99965645766515 0  125.2939000943318 14.99969954590271 0  130.2938941057984 14.9997439924162 0  135.2938875827646 14.99978957218763 0  140.2938810512613 14.99983561843248 0  145.2938754781405 14.99988065208537 0  150.2938723404577 14.99992181274274 0  165.2938807107778 14.9999612275967 0  160.293878345374 14.99995801321883 0  170.293881882203 14.99996756793265 0  175.2938828459412 14.99997796044258 0  180.2938840436392 14.99999228007507 0  185.2938855765987 15.00000999161987 0  190.2938873956319 15.00003048706623 0  195.2938894039433 15.00005321478833 0  200.2938915036179 15.00007771461988 0  205.2938936129813 15.00010361644641 0  210.2938956704743 15.00013062711803 0  215.2938976330072 15.00015851549022 0  220.2938994725443 15.00018709903236 0  225.293901172551 15.00021623287103 0  230.29390272492 15.00024580117818 0  235.2939041275299 15.00027571052359 0  240.2939053823962 15.00030588477826 0  245.2939064943175 15.00033626121085 0  250.293907469912 15.00036678749369 0  255.2939083169446 15.00039741940476 0  260.2939090438694 15.00042811907018 0  265.2939096595231 15.00045885363759 0  270.2939101729278 15.00048959430837 0  275.2939105931582 15.00052031568678 0  280.2939109292556 15.00055099542794 0  285.2939111901812 15.00058161418596 0  290.2939113848087 15.00061215587072 0  295.2939115220296 15.00064260821029 0  300.2939116110877 15.00067296356312 0  305.2939116624125 15.00070321979287 0  310.2939116894303 15.0007333807463 0  5.293876375464628 22.49885089206232 0  0.293876354928123 22.49881819400113 0  10.29387639323453 22.49888353887765 0  15.2938764065367 22.49891616348593 0  20.2938764126115 22.49894879151665 0  25.29387640778851 22.49898144732747 0  30.29387638753072 22.49901415514941 0  35.29387634632418 22.49904693971546 0  40.29387627747646 22.49907982668682 0  45.29387617287198 22.49911284303067 0  50.29387602270897 22.49914601741441 0  55.29387581522583 22.49917938064049 0  60.29387553642258 22.49921296612931 0  65.29387516978589 22.49924681044964 0  70.29387469603719 22.49928095388793 0  75.29387409294365 22.49931544103692 0  80.29387333526408 22.49935032136022 0  85.29387239495023 22.49938564964719 0  90.29387124180691 22.49942148619644 0  95.29386984492965 22.4994578964326 0  100.2938681754165 22.49949494943269 0  105.2938662110942 22.49953271445583 0  110.2938639443107 22.4995712539472 0  115.2938613941826 22.49961061051317 0  120.2938586248914 22.49965078393524 0  125.2938557713354 22.49969169242249 0  130.2938530718541 22.49973311046067 0  135.2938509033617 22.49977457554885 0  140.2938498046979 22.49981526281493 0  145.2938504568369 22.49985385274923 0  150.2938535655404 22.49988849495798 0  165.2938594116824 22.49994367375556 0  160.2938585438797 22.49993127894869 0  170.2938592409529 22.4999567315024 0  175.2938585837132 22.49997160760885 0  180.2938578601535 22.49998875321279 0  185.2938573089263 22.50000818451105 0  190.2938570267033 22.50002969994389 0  195.2938570235249 22.50005301744067 0  200.2938572655127 22.50007784694765 0  205.2938577016997 22.50010392306266 0  210.2938582788456 22.50013101627655 0  215.2938589486113 22.50015893388225 0  220.2938596703337 22.50018751649872 0  225.2938604114851 22.50021663317758 0  230.2938611470302 22.50024617646046 0  235.2938618583615 22.50027605794326 0  240.2938625321546 22.50030620451332 0  245.2938631593097 22.50033655525179 0  250.2938637340341 22.50036705892763 0  255.293864253087 22.50039767199269 0  260.293864715161 22.50042835699398 0  265.2938651203922 22.5004590813314 0  270.2938654699681 22.50048981630453 0  275.2938657658241 22.50052053640405 0  280.2938660104167 22.50055121880974 0  285.2938662065867 22.50058184305448 0  290.2938663575395 22.5006123907954 0  295.2938664670125 22.50064284558716 0  
[...]
<PointData  Scalars="p"> 
<DataArray  type="Float64"  Name="p"  format="ascii">1.0000000000000001e-01  1.0000000000000003e-01  9.9997412512422792e-02  1.0000000000000003e-01  1.0000000000000003e-01  9.9996295474058000e-02  1.0000000000000003e-01  9.9994408417064404e-02  1.0000000000000003e-01  9.9993141549637635e-02  1.0000000000000003e-01  9.9991724051354133e-02  1.0000000000000003e-01  9.9989897325203830e-02  1.0000000000000003e-01  9.9988716012563178e-02  1.0000000000000003e-01  9.9987460546294371e-02  1.0000000000000003e-01  9.9985445990978722e-02  1.0000000000000003e-01  9.9984201531269384e-02  1.0000000000000003e-01  9.9981005867225539e-02  1.0000000000000003e-01  9.9977624000683690e-02  1.0000000000000003e-01  9.9975112708029737e-02  1.0000000000000003e-01  9.9972656949801619e-02  1.0000000000000003e-01  9.9969069693088414e-02  1.0000000000000003e-01  9.9967288316829467e-02  1.0000000000000003e-01  9.9965120321048123e-02  1.0000000000000003e-01  9.9961603472123947e-02  1.0000000000000003e-01  9.9960972484645305e-02  1.0000000000000003e-01  9.9958422484590609e-02  1.0000000000000003e-01  9.9957169708014576e-02  1.0000000000000003e-01  9.9954809420964338e-02  1.0000000000000003e-01  9.9957330949264969e-02  1.0000000000000003e-01  9.9949964709711667e-02  1.0000000000000003e-01  9.9960017810172525e-02  1.0000000000000003e-01  9.9944218147352423e-02  1.0000000000000003e-01  9.9966248070461519e-02  1.0000000000000003e-01  9.9934706060608530e-02  1.0000000000000003e-01  9.9976142225126144e-02  1.0000000000000001e-01  9.9915575239811621e-02  1.0000000000000001e-01  1.0000000000000003e-01  1.0010158750139221e-01  1.0017173062643145e-01  1.0000000000000003e-01  1.0004470217353160e-01  1.0000000000000003e-01  1.0008288996780844e-01  1.0000000000000003e-01  1.0006557167649863e-01  1.0000000000000003e-01  1.0007245402690569e-01  1.0000000000000003e-01  1.0006839843814867e-01  1.0000000000000003e-01  1.0007238104314575e-01  1.0000000000000003e-01  1.0006903354045504e-01  1.0000000000000003e-01  1.0007042104851699e-01  1.0000000000000003e-01  1.0006981341515057e-01  1.0000000000000003e-01  1.0006909640136805e-01  1.0000000000000003e-01  1.0006850258427091e-01  1.0000000000000003e-01  1.0006823547306795e-01  1.0000000000000003e-01  1.0006712182601099e-01  1.0000000000000003e-01  1.0006656699746777e-01  1.0000000000000003e-01  1.0006593227201453e-01  1.0000000000000003e-01  1.0006510665468793e-01  1.0000000000000003e-01  1.0006432746833048e-01  1.0000000000000003e-01  1.0006393172863150e-01  1.0000000000000003e-01  1.0006280703619920e-01  1.0000000000000003e-01  1.0006277678908110e-01  1.0000000000000003e-01  1.0006120028643761e-01  1.0000000000000003e-01  1.0006225950108057e-01  1.0000000000000003e-01  1.0005872320842389e-01  1.0000000000000003e-01  1.0006341562384875e-01  1.0000000000000003e-01  1.0005399819338286e-01  1.0000000000000003e-01  1.0006847503600766e-01  1.0000000000000003e-01  1.0004323498899130e-01  1.0000000000000003e-01  1.0008675051443015e-01  1.0000000000000001e-01  1.0000000000000003e-01  9.9996495991878431e-02  1.0000000000000003e-01  9.9996101501244425e-02  9.9995752925863560e-02  9.9995209087513678e-02  9.9994087606360485e-02  9.9994071901405773e-02  9.9994002656512732e-02  9.9992525065478316e-02  9.9992970658663471e-02  9.9992559510585596e-02  9.9990135420702078e-02  9.9987724039985529e-02  9.9987104289481682e-02  9.9983591483277637e-02  9.9984670104616161e-02  9.9984099899057044e-02  9.9981259064479383e-02  9.9982604600548239e-02  9.9982762000409856e-02  9.9979121871194940e-02  9.9982653395311552e-02  9.9980613038960733e-02  9.9981728486697313e-02  9.9978819802964178e-02  9.9988146008697876e-02  9.9970320308704799e-02  1.0000099083626902e-01  9.9950031746265738e-02  1.0002751211458945e-01  9.9913573327795491e-02  9.9940077703932026e-02  1.0028778733654059e-01  1.0006802377560960e-01  1.0001674457165079e-01  1.0002315320619641e-01  1.0001881221781639e-01  1.0002951890027977e-01  1.0002087283942890e-01  1.0002606666871762e-01  1.0002646233833284e-01  1.0002533198965685e-01  1.0002561933789779e-01  1.0002661655877340e-01  1.0002506722940388e-01  1.0002515432704777e-01  1.0002528096388742e-01  1.0002430842247773e-01  1.0002417801493799e-01  1.0002408979379056e-01  1.0002358100894936e-01  1.0002313943146791e-01  1.0002352313748694e-01  1.0002226971158547e-01  1.0002348257137118e-01  1.0002110129344104e-01  1.0002472586423290e-01  1.0001768922696622e-01  1.0003016032416977e-01  1.0000842829853017e-01  1.0004205961466613e-01  1.0000000000000003e-01  9.9995190329868727e-02  1.0000000000000003e-01  9.9996346051396845e-02  9.9994409281052229e-02  9.9993155278241319e-02  9.9992628858800420e-02  9.9992562852756026e-02  9.9990323792618130e-02  9.9990747788492776e-02  9.9990967486522947e-02  9.9988061927286431e-02  9.9987782596697147e-02  9.9987765501470746e-02  9.9979481173759474e-02  9.9980213880195332e-02  9.9979042920924854e-02  9.9973901737504159e-02  9.9976381661755695e-02  9.9975826477003357e-02  9.9970774108563018e-02  9.9973829293614536e-02  9.9974711228246457e-02  9.9967950816396617e-02  9.9976026007941088e-02  9.9970196046327828e-02  9.9976426752329178e-02  9.9964927657698030e-02  9.9990765082565727e-02  9.9940064097217646e-02  1.0003081143259689e-01  9.9862456238443378e-02  9.9930004881699203e-02  1.0030352244563040e-01  1.0014084543372602e-01  1.0003382438824328e-01  1.0003579234013751e-01  1.0006059092188553e-01  1.0003503995536882e-01  1.0004950601908336e-01  1.0004962676830591e-01  1.0004706363467618e-01  1.0004816513117330e-01  1.0005093456395707e-01  1.0004771330203106e-01  1.0004852613032729e-01  1.0004903799775722e-01  1.0004715863922010e-01  1.0004695741282942e-01  1.0004719134734048e-01  1.0004577486771248e-01  1.0004568671593275e-01  1.0004542204726526e-01  1.0004495468062648e-01  1.0004402262213204e-01  1.0004516169872268e-01  1.0004242192532289e-01  1.0004587259308760e-01  1.0003982124418657e-01  1.0004964740479459e-01  1.0003097222233409e-01  1.0006655581428436e-01  1.0000000000000003e-01  9.9994457419063376e-02  1.0000000000000003e-01  9.9996267225147983e-02  9.9993678623108151e-02  9.9993672246667636e-02  9.9993675660204756e-02  9.9991502551494998e-02  9.9992168860510211e-02  9.9992860727045954e-02  9.9990207142375220e-02  9.9991441300980033e-02  9.9991935562724954e-02  9.9986517215446075e-02  9.9989012403282104e-02  9.9984520075849140e-02  9.9978842531627241e-02  9.9980999714298927e-02  9.9981702211579038e-02  9.9975611350758511e-02  9.9980814640663829e-02  9.9980453342697395e-02  9.9976019117803544e-02  9.9979732476984676e-02  9.9984285965134909e-02  9.9972533852384790e-02  9.9991342138765260e-02  9.9969576278071001e-02  1.0000375409636993e-01  9.9943049498144559e-02  1.0005147468429175e-01  9.9851655296639655e-02  9.9914501217769874e-02  1.0036343471565309e-01  1.0010214657581423e-01  1.0000233119848610e-01  1.0008038819366787e-01  1.0000172752188642e-01  1.0003634375831617e-01  1.0003106812971525e-01  1.0003024614179454e-01  1.0003055847422108e-01  1.0003682325321658e-01  1.0003150172586606e-01  1.0003390443905157e-01  1.0003512908280235e-01  1.0003284676515656e-01  1.0003294934141249e-01  1.0003358875796613e-01  1.0003184122122978e-01  1.0003170501798053e-01  1.0003208739645554e-01  1.0003076667622396e-01  1.0003112488214473e-01  1.0003045723866875e-01  1.0003115461569957e-01  1.0002878622625677e-01  1.0003293074382688e-01  1.0002542855456449e-01  1.0003769084994198e-01  1.0001741710192008e-01  1.0005031225619473e-01  1.0000000000000003e-01  9.9993698005176587e-02  1.0000000000000003e-01  9.9995715864477405e-02  9.9993785822468817e-02  9.9994371288126258e-02  9.9991468848159029e-02  9.9992240952595846e-02  9.9992432312320759e-02  9.9989761559494808e-02  9.9991244621574799e-02  9.9992221137384582e-02  9.9987579251713102e-02  9.9989720512292102e-02  9.9989070503451530e-02  9.9984382227315136e-02  9.9981878754746178e-02  9.9981714255214099e-02  9.9973998769629868e-02  9.9979142044833616e-02  9.9980120475943526e-02  9.9972220947776289e-02  9.9980413049970476e-02  9.9979144709297127e-02  9.9976009533986651e-02  9.9977489033745037e-02  9.9990303872988476e-02  9.9963399785532592e-02  1.0000954109619647e-01  9.9936333754510651e-02  1.0006275142028276e-01  9.9824045388808541e-02  9.9859186455496296e-02  1.0041900278620164e-01  1.0012106829638129e-01  1.0002622383146126e-01  1.0005893578549220e-01  1.0004254964472817e-01  1.0003706735260014e-01  1.0003626598905771e-01  1.0003164522873730e-01  1.0004591122024495e-01  1.0003551899762285e-01  1.0004048903958709e-01  1.0004275085901741e-01  1.0003967653789889e-01  1.0004016115735560e-01  1.0004186276420801e-01  1.0003907087101634e-01  1.0003918940714908e-01  1.0003961856129849e-01  1.0003809485615379e-01  1.0003777425888519e-01  1.0003844739511439e-01  1.0003679168061635e-01  1.0003792422915370e-01  1.0003609614518619e-01  1.0003890544254708e-01  1.0003316411030241e-01  1.0004360294151246e-01  1.0002459307876346e-01  1.0005848663704553e-01  1.0000000000000003e-01  9.9992779786396049e-02  1.0000000000000003e-01  9.9995843572353235e-02  9.9994068643182749e-02  9.9993004401142643e-02  9.9992733879844350e-02  9.9993105803031002e-02  9.9990304114150066e-02  9.9991363805104885e-02  9.9992829891383819e-02  9.9988849752707470e-02  9.9990807994600708e-02  9.9991729678431604e-02  9.9986115381237070e-02  9.9988273642912240e-02  9.9991215139724143e-02  9.9976550573169481e-02  9.9981615371978930e-02  9.9981502651697252e-02  9.9973248649344162e-02  9.9980687525645748e-02  9.9983463352070076e-02  9.9971867340661338e-02  9.9986383669084217e-02  9.9980164252179246e-02  9.9985667231238695e-02  9.9971387042692678e-02  1.0001636034289341e-01  9.9927447441751027e-02  1.0008435195282357e-01  9.9799996447001257e-02  9.9846003579184411e-02  1.0042079318942007e-01  1.0014440624664069e-01  9.9981690389741792e-02  1.0005668539119961e-01  1.0004433269427970e-01  1.0004839825162523e-01  1.0001220005849076e-01  1.0004621896260299e-01  1.0002290006106487e-01  1.0003431498574894e-01  1.0003671917908336e-01  1.0003314154400093e-01  1.0003385933429189e-01  1.0003747260360597e-01  1.0003348658833071e-01  1.0003422177313351e-01  1.0003531304693204e-01  1.0003281811916603e-01  1.0003290842770833e-01  1.0003328010656393e-01  1.0003220697804754e-01  1.0003155097743668e-01  1.0003311597217998e-01  1.0003021843016931e-01  1.0003402404526504e-01  1.0002792803087197e-01  1.0003838108082345e-01  1.0001999457508066e-01  1.0005186637590288e-01  1.0000000000000003e-01  9.9992266206733224e-02  1.0000000000000003e-01  9.9996075289354516e-02  9.9992637413595264e-02  9.9993731830316290e-02  9.9993467579485212e-02  9.9991119008424237e-02  9.9991319680089966e-02  9.9992790058464731e-02  9.9988779424372232e-02  9.9990867097388123e-02  9.9992313798086457e-02  9.9986481926516879e-02  9.9989371268964469e-02  9.9991836915110405e-02  9.9982742655956316e-02  9.9989857150942593e-02  9.9983829575416655e-02  9.9973261704140323e-02  9.9980275910107108e-02  9.9981552830368484e-02  9.9972272500760198e-02  9.9981052359686129e-02  9.9986867828442183e-02  9.9969126776623604e-02  9.9995233890053048e-02  9.9971150068193806e-02  1.0000962400768020e-01  9.9930542259749622e-02  1.0009524255988385e-01  9.9771351301316591e-02  9.9848267594494389e-02  1.0044913734957270e-01  1.0012503613944243e-01  9.9981399995067582e-02  1.0007339483669761e-01  1.0002423159835799e-01  1.0004456662278850e-01  1.0005768426020079e-01  1.0001785413653889e-01  1.0003643134988224e-01  1.0003540804770870e-01  1.0003441848833304e-01  1.0003356441365001e-01  1.0004006852801281e-01  1.0003451277448304e-01  1.0003620173474752e-01  1.0003797915608091e-01  1.0003520450961120e-01  1.0003508815203153e-01  1.0003612834077230e-01  1.0003385639516536e-01  1.0003421703282506e-01  1.0003406025781766e-01  1.0003408639548136e-01  1.0003229780425112e-01  1.0003587896499327e-01  1.0002970893500410e-01  1.0003999327693890e-01  1.0002222180898807e-01  1.0005374159228984e-01  1.0000000000000003e-01  9.9991902528925730e-02  1.0000000000000003e-01  9.9995318960302129e-02  9.9992905145690203e-02  9.9994360170421265e-02  9.9991629678310961e-02  9.9992333977090703e-02  9.9993081369244355e-02  9.9989349233235908e-02  9.9991087171930407e-02  9.9992551032042090e-02  9.9987205204307483e-02  9.9989901307457982e-02  9.9991963990690325e-02  9.9984451814399217e-02  9.9990328404181386e-02  9.9990873328303254e-02  9.9983734676519526e-02  9.9982251252182880e-02  9.9983703023745152e-02  9.9969993465060913e-02  9.9982642455083995e-02  9.9982492848307278e-02  9.9974495993744403e-02  9.9980663883995124e-02  9.9997426262093736e-02  9.9958576637727989e-02  1.0002270847722670e-01  9.9927213122737293e-02  1.0009784463925027e-01  9.9757272767132255e-02  9.9815141380994551e-02  1.0048134556296544e-01  1.0013205915475137e-01  9.9990136932779097e-02  1.0005012898349699e-01  1.0001643031579990e-01  1.0005568159120572e-01  1.0003346949131765e-01  1.0004675120498441e-01  1.0002548315924914e-01  1.0003405136291821e-01  1.0002540284511705e-01  1.0003902611951737e-01  1.0002987273290756e-01  1.0003321527907270e-01  1.0003587305421548e-01  1.0003262305887067e-01  1.0003285137098089e-01  1.0003473451261739e-01  1.0003197303638836e-01  1.0003177513477203e-01  1.0003286433867697e-01  1.0003062305683785e-01  1.0003178359560322e-01  1.0003037812236140e-01  1.0003292809759128e-01  1.0002747745142004e-01  1.0003765395760279e-01  1.0002009929092474e-01  1.0005055086601432e-01  1.0000000000000003e-01  9.9991224997117129e-02  1.0000000000000003e-01  9.9995495047055294e-02  9.9993268263444970e-02  9.9992875152078262e-02  9.9992373976459645e-02  9.9993687519457392e-02  9.9990249660632968e-02  9.9991427884430523e-02  9.9992748405682438e-02  9.9988149180905123e-02  9.9989798233811669e-02  9.9992052728468200e-02  9.9985045055866237e-02  9.9989411354997823e-02  9.9992333605067735e-02  9.9983754054742344e-02  9.9989185764918928e-02  9.9994716714828916e-02  9.9972560309309524e-02  9.9981730355943071e-02  9.9983934416190912e-02  9.9967682090964141e-02  9.9986781498391852e-02  9.9982143846073609e-02  9.9981393569922333e-02  9.9971268477773920e-02  1.0002513255939194e-01  9.9910630209363790e-02  1.0011573242245958e-01  9.9740389528307993e-02  9.9806882224828697e-02  1.0048033563158357e-01  1.0014924708857648e-01  9.9968033237490747e-02  1.0005127118145689e-01  1.0002864386059843e-01  1.0003531569828296e-01  1.0003241839412878e-01  1.0005122575448103e-01  1.0004402594226697e-01  1.0001785994044075e-01  1.0004212994745683e-01  1.0002521487477696e-01  1.0003281160826209e-01  1.0003531223582225e-01  1.0003213490552926e-01  1.0003210371622846e-01  1.0003565042420641e-01  1.0003193603701922e-01  1.0003251015588795e-01  1.0003347027017696e-01  1.0003151169290490e-01  1.0003088598012989e-01  1.0003260807969595e-01  1.0002963642329050e-01  1.0003292699001792e-01  1.0002800318046359e-01  1.0003706642767232e-01  1.0002059569611731e-01  1.0005025514372763e-01  1.0000000000000003e-01  9.9990975026677059e-02  1.0000000000000003e-01  9.9995750587871149e-02  9.9991917790144741e-02  9.9993388343724593e-02  9.9993285822677372e-02  9.9991186090305564e-02  9.9991663995900676e-02  9.9993185000981130e-02  9.9989056038765664e-02  9.9990323168910947e-02  9.9992403685677411e-02  9.9985557910651252e-02  9.9988772645332846e-02  9.9992166901333349e-02  9.9983646018178468e-02  9.9989438778853384e-02  9.9994679965571695e-02  9.9980383791394234e-02  9.9993510041502739e-02  9.9985428421331984e-02  9.9970082382518838e-02  9.9980825861950853e-02  9.9988126737378100e-02  9.9963873274530698e-02  9.9996858866015850e-02  9.9972672737623322e-02  1.0000768068211478e-01  9.9922900403843939e-02  1.0012205349630282e-01  9.9713436511462791e-02  9.9810342873571378e-02  1.0048843344089781e-01  1.0013623097311333e-01  9.9964925165766494e-02  1.0006371790042091e-01  1.0000944718997612e-01  1.0003280065684905e-01  1.0003795640768479e-01  1.0003680305047268e-01  1.0003594744085977e-01  1.0005320394293418e-01  1.0001657462147785e-01  1.0003305420066311e-01  1.0003039249055888e-01  1.0003071141145609e-01  1.0002883762552799e-01  1.0003456612303120e-01  1.0002990037864154e-01  1.0003089767269387e-01  1.0003290260680754e-01  1.0003025894350738e-01  1.0003042232310091e-01  1.0003080579662676e-01  1.0003006803509965e-01  1.0002842624386347e-01  1.0003196683696229e-01  1.0002615452333095e-01  1.0003550849508303e-01  1.0001968679911556e-01  1.0004801380771043e-01  1.0000000000000003e-01  9.9990806076777503e-02  1.0000000000000003e-01  9.9995085859835284e-02  9.9992132964326380e-02  9.9994061936703127e-02  9.9991338009184860e-02  9.9992191484302606e-02  9.9993075290396957e-02  9.9989930111673911e-02  9.9990978971895114e-02  9.9992956395599908e-02  9.9986844149458312e-02  9.9989000300166095e-02  9.9991482937839049e-02  9.9983752438462137e-02  9.9988792367645865e-02  9.9993183781829115e-02  9.9982085514852159e-02  9.9991724112622526e-02  9.9994163760252747e-02  9.9981932198644666e-02  9.9984349549571333e-02  9.9984906291143080e-02  9.9968144300914802e-02  9.9980870275054035e-02  9.9997552167603324e-02  9.9951453933763160e-02  1.0002409053712800e-01  9.9924989416387458e-02  1.0010412669079469e-01  9.9720650337923905e-02  9.9794054174672714e-02  1.0050005865002662e-01  1.0013679723946234e-01  9.9973806431214188e-02  1.0004993077937213e-01  1.0000786436877279e-01  1.0004321138541258e-01  1.0002361034878013e-01  1.0003113730396143e-01  1.0004410833198148e-01  1.0003712657023046e-01  1.0004250737911426e-01  1.0002447775197441e-01  1.0003192066340415e-01  1.0002395837757887e-01  1.0003488045827312e-01  1.0002768044581081e-01  1.0002986687376511e-01  1.0003225824191274e-01  1.0002973968382724e-01  1.0002961570074823e-01  1.0003177777702819e-01  1.0002885893543322e-01  1.0002976413385110e-01  1.0002886640453744e-01  1.0003054500273251e-01  1.0002580320341134e-01  1.0003497984431622e-01  1.0001924166503960e-01  1.0004683378637928e-01  1.0000000000000003e-01  9.9990316672083787e-02  1.0000000000000003e-01  9.9995192070055652e-02  9.9992510354490291e-02  9.9992605141442911e-02  9.9991862575941268e-02  9.9993357425879073e-02  9.9990288626812571e-02  9.9991228778559621e-02  9.9993092598950006e-02  9.9988420985908447e-02  9.9989629146889109e-02  9.9991752231924982e-02  9.9984625509573419e-02  9.9987591879777585e-02  9.9992156604041274e-02  9.9982316079258782e-02  9.9989409835498227e-02  9.9994605760658356e-02  9.9981942638327465e-02  9.9990515369495672e-02  1.0000063081138218e-01  9.9966520510968340e-02  9.9986994661845491e-02  9.9982489010952455e-02  9.9972759239607772e-02  9.9972432789371735e-02  1.0002505951471995e-01  9.9901428431976247e-02  1.0012061718761292e-01  9.9722507276036890e-02  9.9790225744960256e-02  1.0048457648273063e-01  1.0014624434545288e-01  9.9960715079702306e-02  1.0004824927281929e-01  1.0001749590928481e-01  1.0003062597184215e-01  1.0002031711012489e-01  1.0003941875442739e-01  1.0002878257730753e-01  1.0003425346797407e-01  1.0004350172402336e-01  1.0004150957714074e-01  1.0001644375900086e-01  1.0003654162053612e-01  1.0002280448918767e-01  1.0002855161213778e-01  1.0003047482234576e-01  1.0002812819695418e-01  1.0002791819384982e-01  1.0003082772080042e-01  1.0002836472956156e-01  1.0002820321244084e-01  1.0003011124894659e-01  1.0002686211299475e-01  1.0002956228245037e-01  1.0002547206895293e-01  1.0003314347217172e-01  1.0001857051907856e-01  1.0004503108939282e-01  1.0000000000000003e-01  9.9990116485832420e-02  1.0000000000000003e-01  9.9995376518015724e-02  9.9991269512368433e-02  9.9992895530422080e-02  9.9992565233010089e-02  9.9990956236240644e-02  9.9991112236113747e-02  9.9992782542448561e-02  9.9989072570367474e-02  9.9990209668661859e-02  9.9992147145338453e-02  9.9985936349193533e-02  9.9987501276581486e-02  9.9991321790663723e-02  9.9982404520886234e-02  9.9987185027973297e-02  9.9993420130120095e-02  9.9980908080612635e-02  9.9989845663591273e-02  9.9997861926557144e-02  9.9977565804116930e-02  9.9995926397678972e-02  9.9991041852877105e-02  9