<?xml version="1.0"?>
<VTKFile type="UnstructuredGrid"  version="0.1"  >
<UnstructuredGrid>
<Piece  NumberOfPoints="1933" NumberOfCells="3640">
<Points>
<DataArray  type="Float64"  NumberOfComponents="3"  format="ascii">0.2935710586107061 0.002328971754140117 0  5.293571058086151 0.002243174102072399 0  5.293699820977618 7.502243212709538 0  0.2936997935775784 7.50232895945304 0  10.29357103907563 0.002157320051723828 0  10.29369988363802 7.502157381980906 0  15.29357103158778 0.002071336068185545 0  15.29370000601762 7.502071408814319 0  20.29357107967534 0.001985182447784587 0  20.29370021484684 7.501985260343276 0  25.29357123147179 0.001898842073249181 0  25.29370053956256 7.50189892286817 0  30.29357153544315 0.001812313050837949 0  30.29370101185249 7.50181239628626 0  35.29357203957021 0.00172560390832452 0  35.29370166533454 7.50172569010297 0  40.29357279191705 0.001638730606691986 0  40.29370253557524 7.501638820853613 0  45.29357384185263 0.001551714862433373 0  45.29370366042313 7.501551810643985 0  50.29357524159194 0.00146458344327774 0  50.29370508058419 7.501464686568054 0  55.29357704792262 0.001377368226774491 0  55.29370684037288 7.501377480840149 0  60.29357932408703 0.001290106909798963 0  60.29370898859057 7.501290231555435 0  65.29358214184664 0.001202844337336928 0  65.29371157949538 7.501202984062061 0  70.29358558378543 0.001115634490740954 0  70.29371467383618 7.50111579299469 0  75.29358974593937 0.00102854324920025 0  75.2937183399188 7.501028725090187 0  80.29359474085702 0.0009416521252156877 0  80.29372265465754 7.500941862991763 0  85.29360070122556 0.0008550632908722125 0  85.29372770453132 7.500855310361731 0  90.29360778421929 0.0007689063795302937 0  90.29373358630367 7.500769198784432 0  95.29361617675795 0.0006833478042369905 0  95.29374040726583 7.50068369717983 0  100.293626101864 0.0005986037422067705 0  100.2937482845974 7.500599024809831 0  105.2936378262648 0.0005149586031808479 0  105.2937573431792 7.500515469513897 0  110.2936516691878 0.000432791923205948 0  110.2937677107946 7.500433413659874 0  115.2936680117498 0.0003526185589289157 0  115.2937795091085 7.500353371588063 0  120.2936873049515 0.0002751504583377753 0  120.2937928381407 7.500276044236221 0  125.2937100710089 0.0002013943879138168 0  125.2938077515139 7.500202399310811 0  130.2937368851628 0.0001328111213878223 0  130.2938242206747 7.500133788744624 0  135.2937683077236 7.158178861175163e-05 0  135.2938420920199 7.500072118646429 0  140.2938046957206 2.10608483312453e-05 0  140.2938610615225 7.500020090050453 0  145.2938457248448 -1.347214209861376e-05 0  145.2938807577227 7.499981542820578 0  150.2938891811362 -2.379924334017712e-05 0  150.2939012395328 7.499962073248211 0  160.2938926261462 1.043795123027981e-18 0  165.2937775500802 -0.0001333688070143058 0  165.2938715158018 7.499849987430109 0  160.2939091566422 7.499959319858345 0  170.2937047295752 -0.0002601932265292022 0  170.2938332939134 7.499731295839334 0  175.2936564211157 -0.000381974663992262 0  175.2938001713972 7.499613146784749 0  180.2936232045154 -0.0004990705227496867 0  180.293773007531 7.499497963901221 0  185.2935997116901 -0.000611995608512459 0  185.2937512500094 7.499386129762473 0  190.2935827386558 -0.0007213500286501712 0  190.2937340109903 7.499277424977437 0  195.2935702958287 -0.0008276992750638175 0  195.293720423178 7.499171475288863 0  200.2935610992924 -0.0009315267976771557 0  200.29370974472 7.49906790117064 0  205.29355428865 -0.001033229215278465 0  205.2937013735418 7.498966364568667 0  210.2935492663508 -0.001133127621370293 0  210.2936948315774 7.498866578131522 0  215.2935456037729 -0.001231482279018392 0  215.2936897419983 7.498768301419286 0  220.2935429847481 -0.001328505957525297 0  220.2936858077382 7.498671333553599 0  225.2935411705292 -0.001424374681180838 0  225.293682793681 7.498575505809693 0  230.2935399773415 -0.001519235977636446 0  230.2936805126683 7.498480675255171 0  235.2935392615107 -0.001613215093860908 0  235.2936788147675 7.498386719613661 0  240.2935389092881 -0.001706419675270594 0  240.293677579111 7.498293533213117 0  245.2935388296835 -0.001798943322666682 0  245.2936767076906 7.498201023800613 0  250.2935389492745 -0.001890868344773899 0  250.2936761206224 7.498109110015601 0  255.2935392083707 -0.001982267941377128 0  255.2936757525177 7.498017719348841 0  260.293539558125 -0.00207320798906746 0  260.2936755496804 7.497926786451137 0  265.2935399583501 -0.00216374855594413 0  265.2936754679463 7.497836251687591 0  270.2935403758677 -0.002253945238409835 0  270.2936754710231 7.49774605985876 0  275.293540783322 -0.002343850386712111 0  275.2936755292229 7.497656159032696 0  280.2935411584036 -0.002433514258675436 0  280.2936756185317 7.497566499455661 0  285.2935414835299 -0.002522986101329331 0  285.2936757199423 7.497477032541814 0  290.2935417460406 -0.002612315084653244 0  290.2936758190193 7.497387709994844 0  295.2935419390704 -0.002701550850213851 0  295.293675905625 7.497298483203624 0  300.2935420632795 -0.002790743071546386 0  300.2936759737537 7.497209303200764 0  305.2935421296112 -0.002879938548599928 0  305.2936760214529 7.497120121677364 0  310.2935421629508 -0.002969172110291979 0  310.2936760510999 7.497030893677316 0  5.293828338660096 15.00224332772234 0  0.2938283017828462 15.00232893779787 0  10.29382842141396 15.00215756154887 0  15.29382857554084 15.00207161606307 0  20.29382882150659 15.00198547838578 0  25.29382917845415 15.00189914569134 0  30.29382966598467 15.00181262370152 0  35.29383030492531 15.00172592504569 0  40.29383111764945 15.00163906799292 0  45.2938321282321 15.00155207571742 0  50.29383336256174 15.00146497611944 0  55.29383484844323 15.00137780218606 0  60.29383661568136 15.00129059288719 0  65.29383869611132 15.00120339463371 0  70.29384112351782 15.00111626336865 0  75.2938439333693 15.00102926741823 0  80.29384716225822 15.00094249129933 0  85.29385084690814 15.00085604077083 0  90.29385502255211 15.00077004953762 0  95.29385972043286 15.00068468817661 0  100.2938649641108 15.00060017606225 0  105.2938707642401 15.00051679732231 0  110.2938771115277 15.00043492211385 0  115.2938839678987 15.00035503464692 0  120.2938912567198 15.00027776904358 0  125.293898854848 15.00020395240832 0  130.2939065932159 15.00013464921024 0  135.2939142799929 15.00007118680583 0  140.2939217720513 15.00001510441045 0  145.2939291323233 14.99996786465916 0  150.2939368905005 14.99992984613034 0  165.2939382654213 14.9998054611904 0  160.2939464466565 14.99989714597319 0  170.2939250355985 14.99970258210872 0  175.2939095470404 14.99959485324599 0  180.293894054324 14.99948615485584 0  185.2938797625453 14.99937833575988 0  190.2938671687444 14.99927214668474 0  195.2938563760316 14.99916780419394 0  200.2938472919358 14.99906528138011 0  205.2938397403685 14.99896445044863 0  210.2938335207089 14.99886515038621 0  215.2938284368638 14.99876721765743 0  220.2938243100488 14.99867049899584 0  225.29382098312 14.99857485574639 0  230.2938183207557 14.99848016439129 0  235.2938162077928 14.99838631548738 0  240.2938145468842 14.99829321205502 0  245.2938132560612 14.99820076787972 0  250.293812266466 14.99810890591075 0  255.2938115203503 14.99801755681184 0  260.293810969362 14.99792665766393 0  265.2938105731039 14.99783615079655 0  270.2938102979348 14.99774598272037 0  275.2938101159702 14.9976561031362 0  280.2938100042417 14.99756646400332 0  285.2938099439813 14.99747701866165 0  290.2938099199648 14.99738772101083 0  295.2938099199073 14.99729852474126 0  300.2938099338794 14.99720938253613 0  305.2938099538328 14.99712024486819 0  310.2938099734116 14.99703105706534 0  5.293956479641043 22.50224361653612 0  0.2939564402185614 22.50232905180614 0  10.293956557294 22.50215794085636 0  15.29395669621607 22.5020720387128 0  20.29395691219298 22.50198592116156 0  25.29395721731255 22.50189960020548 0  30.29395762212901 22.50181309050242 0  35.29395813684096 22.50172641000764 0  40.29395877183188 22.50163958021398 0  45.29395953781972 22.50155262637148 0  50.29396044576638 22.50146557789497 0  55.29396150662017 22.50137846907536 0  60.29396273091422 22.50129134017401 0  65.29396412820822 22.50120423897415 0  70.2939657063332 22.50111722287795 0  75.29396747038255 22.50103036166787 0  80.29396942137346 22.5009437410894 0  85.29397155449564 22.50085746745907 0  90.29397385686592 22.50077167355322 0  95.2939763047316 22.50068652607587 0  100.2939788601436 22.50060223501694 0  105.293981467279 22.50051906513674 0  110.2939840489164 22.50043734953657 0  115.2939865041357 22.50035750456715 0  120.2939887092547 22.50028004373708 0  125.2939905254268 22.50020558496231 0  130.2939918180532 22.50013483889767 0  135.29399249436 22.50006855358728 0  140.2939925631975 22.50000736855281 0  145.2939922072704 22.49995149829371 0  150.2939918140199 22.49990014586196 0  165.2940063260473 22.49975696515132 0  160.2939998981356 22.49983928481354 0  170.2940078141018 22.49966501988489 0  175.2940054794888 22.49956701849361 0  180.2940007002527 22.49946587923841 0  185.2939946699532 22.49936359450963 0  190.2939882383049 22.49926136031092 0  195.2939819407225 22.49915982630126 0  200.2939760796015 22.49905930516332 0  205.2939708014635 22.49895991427067 0  210.2939661554483 22.49886166323947 0  215.2939621334797 22.49876450548135 0  220.2939586963053 22.49866836760043 0  225.2939557896977 22.49857316569326 0  230.2939533541622 22.49847881409493 0  235.2939513305161 22.49838522984242 0  240.2939496629075 22.49829233474605 0  245.2939483002868 22.49820005614477 0  250.2939471969652 22.49810832695084 0  255.2939463126573 22.49801708532044 0  260.293945612236 22.49792627413544 0  265.2939450653498 22.49783584039514 0  270.2939446459708 22.49774573457085 0  275.2939443319173 22.49765590995013 0  280.293944104362 22.49756632198239 0  285.2939439473225 22.49747692762611 0  290.2939438471238 22.49738768467634 0  295.2939437918245 22.4972985510038 0  300.2939437705788 22.4972094835
[...]
<PointData  Scalars="p"> 
<DataArray  type="Float64"  Name="p"  format="ascii">1.0000000000000001e-01  1.0000000000000003e-01  1.0000372063380920e-01  1.0000000000000003e-01  1.0000000000000003e-01  1.0000362868013755e-01  1.0000000000000003e-01  1.0000548245762317e-01  1.0000000000000003e-01  1.0000611493211320e-01  1.0000000000000003e-01  1.0000739381641589e-01  1.0000000000000003e-01  1.0000999642457750e-01  1.0000000000000003e-01  1.0001079628185479e-01  1.0000000000000003e-01  1.0001257670310598e-01  1.0000000000000003e-01  1.0001555738115800e-01  1.0000000000000003e-01  1.0001505061004692e-01  1.0000000000000003e-01  1.0002424584480343e-01  1.0000000000000003e-01  1.0002770191929763e-01  1.0000000000000003e-01  1.0003250475061609e-01  1.0000000000000003e-01  1.0003594361687798e-01  1.0000000000000003e-01  1.0004429282778640e-01  1.0000000000000003e-01  1.0004733768488032e-01  1.0000000000000003e-01  1.0005395065453949e-01  1.0000000000000003e-01  1.0006390897750113e-01  1.0000000000000003e-01  1.0006726730162398e-01  1.0000000000000003e-01  1.0007814228130152e-01  1.0000000000000003e-01  1.0008506898769633e-01  1.0000000000000003e-01  1.0009736932151482e-01  1.0000000000000003e-01  1.0009644157866437e-01  1.0000000000000003e-01  1.0012576339092220e-01  1.0000000000000003e-01  1.0010221728110628e-01  1.0000000000000003e-01  1.0016128864284968e-01  1.0000000000000003e-01  1.0009825005969111e-01  1.0000000000000003e-01  1.0020880921427489e-01  1.0000000000000003e-01  1.0008025220818639e-01  1.0000000000000001e-01  1.0028634604830898e-01  1.0000000000000001e-01  1.0000000000000003e-01  9.9800589112910981e-02  9.9552932951155956e-02  1.0000000000000003e-01  9.9956978249829548e-02  1.0000000000000003e-01  9.9845105678381924e-02  1.0000000000000003e-01  9.9908436296650971e-02  1.0000000000000003e-01  9.9891080085633674e-02  1.0000000000000003e-01  9.9907821132104557e-02  1.0000000000000003e-01  9.9901939203836679e-02  1.0000000000000003e-01  9.9916164780078073e-02  1.0000000000000003e-01  9.9914898658096052e-02  1.0000000000000003e-01  9.9920212852207854e-02  1.0000000000000003e-01  9.9924626833304428e-02  1.0000000000000003e-01  9.9927796972783714e-02  1.0000000000000003e-01  9.9930025031267522e-02  1.0000000000000003e-01  9.9934106358403885e-02  1.0000000000000003e-01  9.9935995589464685e-02  1.0000000000000003e-01  9.9938028807982984e-02  1.0000000000000003e-01  9.9940513012133886e-02  1.0000000000000003e-01  9.9942160234180039e-02  1.0000000000000003e-01  9.9943363370737670e-02  1.0000000000000003e-01  9.9945378814323235e-02  1.0000000000000003e-01  9.9946011445769034e-02  1.0000000000000003e-01  9.9947831196045070e-02  1.0000000000000003e-01  9.9947591295042673e-02  1.0000000000000003e-01  9.9950833002339409e-02  1.0000000000000003e-01  9.9947369889954382e-02  1.0000000000000003e-01  9.9955343613692210e-02  1.0000000000000003e-01  9.9943887751906171e-02  1.0000000000000003e-01  9.9964558335331952e-02  1.0000000000000003e-01  9.9929587241924842e-02  1.0000000000000001e-01  1.0000000000000003e-01  1.0000688225948542e-01  1.0000000000000003e-01  1.0000639290735099e-01  1.0000678498568545e-01  1.0000767567790825e-01  1.0001029990315624e-01  1.0001000855586152e-01  1.0001064258447902e-01  1.0001458436512779e-01  1.0001252178605426e-01  1.0001427953569489e-01  1.0001680336820380e-01  1.0002717241689944e-01  1.0002285203008586e-01  1.0003315553120987e-01  1.0002817785829363e-01  1.0003293585299426e-01  1.0004095715236669e-01  1.0003921307074372e-01  1.0004293844376769e-01  1.0005556957829621e-01  1.0004889717234910e-01  1.0006114497521286e-01  1.0006098063175140e-01  1.0007464091265186e-01  1.0005301618985156e-01  1.0010954529566758e-01  1.0001874356417065e-01  1.0017938320417587e-01  9.9933993171086935e-02  1.0028978062253946e-01  1.0020157246016659e-01  9.9339588844490720e-02  9.9783428700789975e-02  9.9971605288593224e-02  9.9939487843781608e-02  9.9951537339638449e-02  9.9929565857160479e-02  9.9959293020055726e-02  9.9945549688153598e-02  9.9950723286165236e-02  9.9957218358652095e-02  9.9957872766507763e-02  9.9957920611244144e-02  9.9964287549431929e-02  9.9964526362052733e-02  9.9965540803777703e-02  9.9969165852204833e-02  9.9969928409573583e-02  9.9970720797764243e-02  9.9973064428442143e-02  9.9974033321391528e-02  9.9974404280710305e-02  9.9976725747048786e-02  9.9976367877784120e-02  9.9978955320919147e-02  9.9976940688494942e-02  9.9983262519677069e-02  9.9973786017144656e-02  9.9992044856329093e-02  9.9965422942672869e-02  1.0000000000000003e-01  1.0001052842147905e-01  1.0000000000000003e-01  1.0000671741180701e-01  1.0000984671889954e-01  1.0001245568693981e-01  1.0001266472401162e-01  1.0001337166681104e-01  1.0001903118850673e-01  1.0001758572037843e-01  1.0001823744256988e-01  1.0002434245091742e-01  1.0002597555490633e-01  1.0002001367317846e-01  1.0004879333022937e-01  1.0003683096527223e-01  1.0004340510971040e-01  1.0005509011214506e-01  1.0004987040146766e-01  1.0005626990788413e-01  1.0007245861030438e-01  1.0006733561663546e-01  1.0007341463761496e-01  1.0009648548465655e-01  1.0007972184249979e-01  1.0010700305801205e-01  1.0009352152654608e-01  1.0013346668238958e-01  1.0006604099255512e-01  1.0021613328750179e-01  9.9944211781037101e-02  1.0045277075591991e-01  1.0011886718724426e-01  9.9425988539562263e-02  9.9684079838118653e-02  9.9938855680751226e-02  9.9916178665117025e-02  9.9865710950921685e-02  9.9942688864111770e-02  9.9899432496805149e-02  9.9912154982687476e-02  9.9924910165436628e-02  9.9924064635233900e-02  9.9922405455193847e-02  9.9935420194578337e-02  9.9934194579475277e-02  9.9935799282028767e-02  9.9943024323350296e-02  9.9943898338710743e-02  9.9944731125144695e-02  9.9949669701854399e-02  9.9950460812073247e-02  9.9951653109568661e-02  9.9954500482098196e-02  9.9956105504639528e-02  9.9956123850911210e-02  9.9960043913849467e-02  9.9958123552643260e-02  9.9963987547146152e-02  9.9957175494756717e-02  9.9973201194628811e-02  9.9945264363320352e-02  1.0000000000000003e-01  1.0001284032696504e-01  1.0000000000000003e-01  1.0000803972896392e-01  1.0001412244126795e-01  1.0001322507939849e-01  1.0001409685350680e-01  1.0002012913635869e-01  1.0001861828705187e-01  1.0001929167279061e-01  1.0002676667872541e-01  1.0002378975442329e-01  1.0002382751881854e-01  1.0004010095121069e-01  1.0002318386935985e-01  1.0004871230780286e-01  1.0005275771357484e-01  1.0004877495027178e-01  1.0004967431962217e-01  1.0006921113859243e-01  1.0005720653984311e-01  1.0006750100649130e-01  1.0008331833362367e-01  1.0007863473229600e-01  1.0007713041516707e-01  1.0011489008039483e-01  1.0006839342347483e-01  1.0014032565200474e-01  1.0004425056075587e-01  1.0022006081626157e-01  9.9907146398347690e-02  1.0047840957629657e-01  1.0010973380428680e-01  9.9281031584422266e-02  9.9798678369794142e-02  9.9973628597645706e-02  9.9771886863681256e-02  1.0000397793702889e-01  9.9887315886481878e-02  9.9921636727831845e-02  9.9928934598433189e-02  9.9930451432198308e-02  9.9921495420051826e-02  9.9942745117581264e-02  9.9937298507789984e-02  9.9938715869086370e-02  9.9948371105241268e-02  9.9948898841927397e-02  9.9949286782715502e-02  9.9956098207264338e-02  9.9956702076249085e-02  9.9957448391358422e-02  9.9961943549558049e-02  9.9962558852825817e-02  9.9964192423284859e-02  9.9966029682169305e-02  9.9969044115619313e-02  9.9966867701025294e-02  9.9974685048397668e-02  9.9965861693231448e-02  9.9983524581497507e-02  9.9958062229781028e-02  1.0000000000000003e-01  1.0001520783108196e-01  1.0000000000000003e-01  1.0001071846057195e-01  1.0001482462274977e-01  1.0001404011289415e-01  1.0002100991824470e-01  1.0001929845562614e-01  1.0002069440349139e-01  1.0002902426719695e-01  1.0002571468090961e-01  1.0002579317999943e-01  1.0004001925407816e-01  1.0003163876734329e-01  1.0003946801356470e-01  1.0004024153114201e-01  1.0006008515591905e-01  1.0005221900511599e-01  1.0007544927113803e-01  1.0006014629721763e-01  1.0006761989553387e-01  1.0009164224472629e-01  1.0007462634767784e-01  1.0009005327655562e-01  1.0010455341163330e-01  1.0010650309083663e-01  1.0008607919566696e-01  1.0016249140683200e-01  1.0004233674097049e-01  1.0024909301824488e-01  9.9893819419387103e-02  1.0055288974812683e-01  1.0023596536760873e-01  9.9192505216268198e-02  9.9729189847106214e-02  9.9898613683488069e-02  9.9883721752870469e-02  9.9862835801321409e-02  9.9905113908472856e-02  9.9911462098095719e-02  9.9921641354884613e-02  9.9893592034285411e-02  9.9932497682552024e-02  9.9919233642060304e-02  9.9920981695030303e-02  9.9934876498005268e-02  9.9934442773253668e-02  9.9933584250045657e-02  9.9944414808259163e-02  9.9944478341236515e-02  9.9945187662346530e-02  9.9951487375905326e-02  9.9952594388255045e-02  9.9953098563439993e-02  9.9957955286179886e-02  9.9958168368081302e-02  9.9960981971535329e-02  9.9961139169921928e-02  9.9967172868198978e-02  9.9960052732353297e-02  9.9977288728270941e-02  9.9951051961040205e-02  1.0000000000000003e-01  1.0001799891015228e-01  1.0000000000000003e-01  1.0001097490979251e-01  1.0001601166597884e-01  1.0001935181074433e-01  1.0001995726785770e-01  1.0002048031625060e-01  1.0002897946415154e-01  1.0002684076345006e-01  1.0002662387978416e-01  1.0003872188133027e-01  1.0003391986111081e-01  1.0003660834287709e-01  1.0004925441785499e-01  1.0004690823239801e-01  1.0003053782993515e-01  1.0008698841423602e-01  1.0005785762888064e-01  1.0006863117193709e-01  1.0008935033789018e-01  1.0007392975890220e-01  1.0007854441464535e-01  1.0011490704282769e-01  1.0008187379037783e-01  1.0011322601212636e-01  1.0010566006826593e-01  1.0014650591443681e-01  1.0004276759925322e-01  1.0027377691493496e-01  9.9855393710215068e-02  1.0061172816664816e-01  1.0020974676055858e-01  9.9232140960905352e-02  9.9666348133534630e-02  1.0000914779883111e-01  9.9843197563720704e-02  9.9873621373023386e-02  9.9863375427072160e-02  9.9953350196381796e-02  9.9866686979680541e-02  9.9945457481182789e-02  9.9910085081245756e-02  9.9915707578593610e-02  9.9932781031650000e-02  9.9932134315532925e-02  9.9927890034158001e-02  9.9943512204234419e-02  9.9941925963460118e-02  9.9942241475155028e-02  9.9951480604442228e-02  9.9951920212443326e-02  9.9952386088433293e-02  9.9958166154654304e-02  9.9959616042869862e-02  9.9959605416167399e-02  9.9965325124403454e-02  9.9963570228759485e-02  9.9970104871008381e-02  9.9963869633104066e-02  9.9980425369643647e-02  9.9955983491704314e-02  1.0000000000000003e-01  1.0001951535580565e-01  1.0000000000000003e-01  1.0001146689360987e-01  1.0002077432453159e-01  1.0001858190925056e-01  1.0002069141680231e-01  1.0002800658258908e-01  1.0002713153350373e-01  1.0002691977413540e-01  1.0003889192713736e-01  1.0003386271679657e-01  1.0003571302982675e-01  1.0005172133193263e-01  1.0004507792378733e-01  1.0004123236530595e-01  1.0007089639306017e-01  1.0003562350294248e-01  1.0007934023220842e-01  1.0009061130879614e-01  1.0007538489060548e-01  1.0007968465904775e-01  1.0011006783287113e-01  1.0009001840584887e-01  1.0009176823722253e-01  1.0014343334604953e-01  1.0008307809302534e-01  1.0015724418008881e-01  1.0006814799376815e-01  1.0026235426936846e-01  9.9854232736433832e-02  1.0066581870015566e-01  1.0018483445724145e-01  9.9165699527069676e-02  9.9734883049729106e-02  9.9970613877744863e-02  9.9799524231010614e-02  9.9925401197426988e-02  9.9883195543264927e-02  9.9825174549264484e-02  9.9957025272149044e-02  9.9893239558228916e-02  9.9909430289953055e-02  9.9920876999987598e-02  9.9925177569970713e-02  9.9914508906021895e-02  9.9937031767534198e-02  9.9933142311895942e-02  9.9932493333557956e-02  9.9944140560999054e-02  9.9945014958499681e-02  9.9944722484897164e-02  9.9953009903877607e-02  9.9953453674215390e-02  9.9954765683266236e-02  9.9958958449191518e-02  9.9961804815149907e-02  9.9960429913441701e-02  9.9968463848582212e-02  9.9961648498003888e-02  9.9978023603878821e-02  9.9954171005909767e-02  1.0000000000000003e-01  1.0002092403985781e-01  1.0000000000000003e-01  1.0001397850508759e-01  1.0002049647346006e-01  1.0001885919750184e-01  1.0002706559704705e-01  1.0002572849893487e-01  1.0002664758846498e-01  1.0003754721909054e-01  1.0003354480415316e-01  1.0003401717335543e-01  1.0005031692488969e-01  1.0004392463688017e-01  1.0004368436879536e-01  1.0006648820923390e-01  1.0004741997568492e-01  1.0005964848472246e-01  1.0006102098422923e-01  1.0008844121659792e-01  1.0007475125317071e-01  1.0011578253733708e-01  1.0008037550041328e-01  1.0009772034554963e-01  1.0012410339102663e-01  1.0011189787484071e-01  1.0008896326702540e-01  1.0018987451438637e-01  1.0003749518693843e-01  1.0027567351095158e-01  9.9863779126530314e-02  1.0067686727170093e-01  1.0026388754324694e-01  9.9096635890518800e-02  9.9695842637486626e-02  9.9934961254731905e-02  9.9860306281153235e-02  9.9915955834909989e-02  9.9837379594736472e-02  9.9917878659852119e-02  9.9854095919962221e-02  9.9924411016041728e-02  9.9906831061349691e-02  9.9931246207311503e-02  9.9900605761272132e-02  9.9936750161664686e-02  9.9927601835539018e-02  9.9926744484001226e-02  9.9941258376414432e-02  9.9941195736489810e-02  9.9939352462837069e-02  9.9950795604966919e-02  9.9951329373713260e-02  9.9951295598900397e-02  9.9958656249830191e-02  9.9958885417640753e-02  9.9961346444432261e-02  9.9963101523087197e-02  9.9969205353559590e-02  9.9962572981870557e-02  9.9979646175902021e-02  9.9956347594403056e-02  1.0000000000000003e-01  1.0002292972322140e-01  1.0000000000000003e-01  1.0001366062957850e-01  1.0002077484145723e-01  1.0002362338602537e-01  1.0002546523526860e-01  1.0002505767319381e-01  1.0003538280529584e-01  1.0003300247416465e-01  1.0003294667776057e-01  1.0004663875882314e-01  1.0004293409812000e-01  1.0004264661448986e-01  1.0006339145365335e-01  1.0005135384059599e-01  1.0005348842338048e-01  1.0007389931008769e-01  1.0006610230568545e-01  1.0004102769439961e-01  1.0012740173131018e-01  1.0008092220331968e-01  1.0009215256485017e-01  1.0013331426588264e-01  1.0008898180665286e-01  1.0011728848929798e-01  1.0012996092542889e-01  1.0015127895666388e-01  1.0004455862900090e-01  1.0031166553726063e-01  9.9829293118911838e-02  1.0070235589302569e-01  1.0026130399700792e-01  9.9117706396263924e-02  9.9650145673099613e-02  9.9995080883844331e-02  9.9837891723722816e-02  9.9872072378789742e-02  9.9896689818918055e-02  9.9894556199362203e-02  9.9866005752526146e-02  9.9874609920670321e-02  9.9947110908591943e-02  9.9880960252978976e-02  9.9940770302309329e-02  9.9917838216126931e-02  9.9919739796250656e-02  9.9935705310916015e-02  9.9936900531076692e-02  9.9931842552560463e-02  9.9946508995575431e-02  9.9945826708511640e-02  9.9945923398293557e-02  9.9954797921086705e-02  9.9956254986965198e-02  9.9955730898470443e-02  9.9963148731251034e-02  9.9961802163902283e-02  9.9967551464845761e-02  9.9963303682978247e-02  9.9978741959868930e-02  9.9956163170147674e-02  1.0000000000000003e-01  1.0002372621614973e-01  1.0000000000000003e-01  1.0001362684664757e-01  1.0002471332270074e-01  1.0002228223702647e-01  1.0002496747156718e-01  1.0003242988305558e-01  1.0003186983640501e-01  1.0003166474078697e-01  1.0004419957782562e-01  1.0004034545420568e-01  1.0004035211710260e-01  1.0005990543625806e-01  1.0005137026578356e-01  1.0005077175225581e-01  1.0007464434645609e-01  1.0006182041749585e-01  1.0005370243469711e-01  1.0010083968293233e-01  1.0004275270598412e-01  1.0010697976000692e-01  1.0012453056815933e-01  1.0009998134368965e-01  1.0009400423827698e-01  1.0016275596201279e-01  1.0008248468629324e-01  1.0015731903285377e-01  1.0008829822472928e-01  1.0026971119468744e-01  9.9832930771063366e-02  1.0074565763674673e-01  1.0024000027250854e-01  9.9086692554780809e-02  9.9691402499114290e-02  9.9984528277877682e-02  9.9797395642544112e-02  9.9925698117348583e-02  9.9880014095693664e-02  9.9871287964613420e-02  9.9899145574025378e-02  9.9906961554821289e-02  9.9844198707240692e-02  9.9958837440635426e-02  9.9905427732323124e-02  9.9921380834662246e-02  9.9928126746048299e-02  9.9935621405310676e-02  9.9924890997565671e-02  9.9944629008195576e-02  9.9942629013535095e-02  9.9940770801832793e-02  9.9951804920969584e-02  9.9953117029667110e-02  9.9953275585133214e-02  9.9960039609048257e-02  9.9962601124984146e-02  9.9961097666091722e-02  9.9969848829314686e-02  9.9963829746341548e-02  9.9978932870238582e-02  9.9957863409842695e-02  1.0000000000000003e-01  1.0002437590257973e-01  1.0000000000000003e-01  1.0001542826562956e-01  1.0002383266561855e-01  1.0002155107411694e-01  1.0003033471707490e-01  1.0002933295260437e-01  1.0003034756241128e-01  1.0004079272960657e-01  1.0003830089193982e-01  1.0003746008494879e-01  1.0005490860900500e-01  1.0004882922642847e-01  1.0004854137138471e-01  1.0007106358131822e-01  1.0005895749025848e-01  1.0005638369138589e-01  1.0009038988872544e-01  1.0006014127806372e-01  1.0007472450432309e-01  1.0008307465634178e-01  1.0010969017385679e-01  1.0009738841283333e-01  1.0014784097201805e-01  1.0010829048122234e-01  1.0009177213194556e-01  1.0020640284306745e-01  1.0003724201245412e-01  1.0027044854466358e-01  9.9881962754942696e-02  1.0070154787878710e-01  1.0029143902457961e-01  9.9029877235700961e-02  9.9680985153877411e-02  9.9952120017477428e-02  9.9840992161482622e-02  9.9915400774803848e-02  9.9846270887427452e-02  9.9909656890651441e-02  9.9900068571514455e-02  9.9872670279659945e-02  9.9915921058630577e-02  9.9876899692699320e-02  9.9933898449496406e-02  9.9916652998889452e-02  9.9940302711164414e-02  9.9914319899195747e-02  9.9943634597731826e-02  9.9938179256664539e-02  9.9936397089178466e-02  9.9948927874992141e-02  9.9949623258028045e-02  9.9947465799849880e-02  9.9958333823767148e-02  9.9958537507616491e-02  9.9960302485750246e-02  9.9963849766695326e-02  9.9969397743864555e-02  9.9963325741894399e-02  9.9979679237335833e-02  9.9958484311063758e-02  1.0000000000000003e-01  1.0002575138602922e-01  1.0000000000000003e-01  1.0001492060200096e-01  1.0002346003056657e-01  1.0002539782181906e-01  1.0002832015333389e-01  1.0002776817140042e-01  1.0003779418327019e-01  1.0003631378655360e-01  1.0003556590836310e-01  1.0004938327660509e-01  1.0004635279070810e-01  1.0004534551657787e-01  1.0006556875311841e-01  1.0005749385590380e-01  1.0005412012586927e-01  1.0008386295744975e-01  1.0006431018770821e-01  1.0006558674246419e-01  1.0009563940719728e-01  1.0008177325307069e-01  1.0004307546672436e-01  1.0017084724519355e-01  1.0008769185023746e-01  1.0012196413343200e-01  1.0014747831737464e-01  1.0014184972782507e-01  1.0004322163583283e-01  1.0032522321660195e-01  9.9830121091580307e-02  1.0069559487943695e-01  1.0031060395754950e-01  9.9041970723613856e-02  9.9640822164478976e-02  9.9993176771043302e-02  9.9837034631559476e-02  9.9882445382677959e-02  9.9885107267979029e-02  9.9906576660335714e-02  9.9867164468716005e-02  9.9916454333296781e-02  9.9905186215545810e-02  9.9893370517840002e-02  9.9889096620507253e-02  9.9957827073482081e-02  9.9900781607626124e-02  9.9949055478043072e-02  9.9932199560119700e-02  9.9933371928834572e-02  9.9946049866413159e-02  9.9948320562639900e-02  9.9943779511766084e-02  9.9955394882719831e-02  9.9956171957501894e-02  9.9955689429209252e-02  9.9964640501815402e-02  9.9963837639653760e-02  9.9968449780029764e-02  9.9965980584536984e-02  9.9979876184179445e-02  9.9959612831058711e-02  1.0000000000000003e-01  1.0002591508437798e-01  1.0000000000000003e-01  1.0001437005487537e-01  1.0002623818148099e-01  1.0002358722248536e-01  1.0002689684391480e-01  1.0003340209870651e-01  1.0003393530719672e-01  1.0003351066871302e-01  1.0004520468389221e-01  1.0004236226907859e-01  1.0004205712610713e-01  1.0005974810931581e-01  1.0005418571793095e-01  1.0005086809153595e-01  1.0007670863542585e-01  1.0006407100128227e-01  1.0005973428579218e-01  1.0009461344774176e-01  1.0007346717828863e-01  1.0006112221784746e-01  1.0012660592963822e-01  1.0004680625580656e-01  1.0011953704713025e-01  1