<?xml version="1.0"?>
<VTKFile type="UnstructuredGrid"  version="0.1"  >
<UnstructuredGrid>
<Piece  NumberOfPoints="1933" NumberOfCells="3640">
<Points>
<DataArray  type="Float64"  NumberOfComponents="3"  format="ascii">0.2940415056710616 -0.001794411242602017 0  5.294041561997178 -0.001758918503171389 0  5.293988329410045 7.49824122689017 0  0.293988243742423 7.498205685236069 0  10.29404165024173 -0.00172354256587875 0  10.29398847547705 7.498276615233191 0  15.29404183266238 -0.001688301084333229 0  15.29398870935772 7.498311856742059 0  20.29404216815111 -0.001653166641153777 0  20.29398905555928 7.498346987630337 0  25.29404270604762 -0.001618086964696812 0  25.29398953587789 7.49838206347998 0  30.29404348590698 -0.001582995061414568 0  30.29399016866095 7.498417152467214 0  35.29404453905023 -0.001547814166323946 0  35.29399096826094 7.498452331691784 0  40.29404589038184 -0.001512459768121463 0  40.29399194473016 7.49848768567063 0  45.29404755995278 -0.001476839856228683 0  45.29399310360037 7.498523306303592 0  50.29404956411804 -0.001440853983723836 0  50.29399444557745 7.498559293892283 0  55.29405191626569 -0.001404391430306155 0  55.29399596601412 7.49859575899898 0  60.29405462711476 -0.00136732855745989 0  60.29399765403185 7.498632825080771 0  65.29405770456572 -0.001329525311805343 0  65.29399949115169 7.498670631949392 0  70.29406115302899 -0.001290820716011711 0  70.2940014492622 7.498709340209293 0  75.29406497209314 -0.001251027063744923 0  75.29400348768641 7.498749136933073 0  80.29406915426614 -0.001209922382191774 0  80.29400554900909 7.498790242960383 0  85.29407368134466 -0.001167240515281178 0  85.29400755319418 7.498832922367469 0  90.29407851863699 -0.001122657875706192 0  90.2940093893164 7.498877494864755 0  95.29408360572717 -0.001075775461280564 0  95.29401090398001 7.498924352145145 0  100.2940888414737 -0.001026094055568296 0  100.2940118852087 7.498973979512393 0  105.2940940591792 -0.0009729795339290619 0  105.2940120403146 7.49902698439351 0  110.2940989845821 -0.000915613763961544 0  110.2940109662801 7.499084133351414 0  115.2941031632694 -0.0008529246773336578 0  115.2940081121057 7.499146398380114 0  120.2941058326878 -0.0007834869635036938 0  120.2940027358723 7.499215010171238 0  125.2941056924131 -0.000705383838639924 0  125.293993868396 7.499291507500876 0  130.2941004855064 -0.0006160252731808563 0  130.2939803178044 7.499377751057888 0  135.2940862260343 -0.0005119450921100973 0  135.2939608016053 7.499475823626914 0  140.294055757605 -0.0003887059561644714 0  140.293934410635 7.499587647340696 0  145.2939960233012 -0.0002414562641262224 0  145.2939018755805 7.499714025162652 0  150.2938827188191 -6.844412507169105e-05 0  150.2938687491326 7.499852988415517 0  160.2938926261448 9.98915103452089e-19 0  165.2938231841133 -0.0001383614452709755 0  165.2938819963705 7.499834884062103 0  160.2938955471547 7.499937826461317 0  170.2938012055744 -0.000234384307030035 0  170.2938679435723 7.499752419192686 0  175.2938015769861 -0.0003006892850771552 0  175.2938590805054 7.499692356024555 0  180.2938122051158 -0.0003450583734480471 0  180.2938555490974 7.49965115841646 0  185.2938270942481 -0.0003730171011773572 0  185.2938561411656 7.499624893088225 0  190.2938432564943 -0.0003885918156692092 0  190.293859550757 7.499610249522825 0  195.2938592233055 -0.0003947271419136427 0  195.2938647121965 7.499604637933017 0  200.2938743018637 -0.0003935866444092036 0  200.2938708427667 7.499606079222152 0  205.2938881966199 -0.0003867741170899842 0  205.2938773986359 7.499613068030331 0  210.2939008144439 -0.0003754927714918 0  210.2938840157175 7.499624454678218 0  215.2939121634782 -0.0003606577728133426 0  215.2938904579174 7.499639353641647 0  220.2939223003257 -0.0003429752752491263 0  220.2938965775592 7.499657075499933 0  225.2939313024273 -0.0003229980453263232 0  225.2939022869192 7.499677077140031 0  230.293939253707 -0.0003011649223588093 0  230.2939075384127 7.499698925428514 0  235.2939462372796 -0.0002778291408186337 0  235.2939123110615 7.499722270597197 0  240.2939523319644 -0.0002532789369857246 0  240.2939166013635 7.499746826583773 0  245.2939576108809 -0.0002277527563019955 0  245.2939204172058 7.499772356361449 0  250.2939621412002 -0.0002014506292764338 0  250.2939237738629 7.499798660875765 0  255.2939659845683 -0.0001745427790559995 0  255.2939266914339 7.49982557062599 0  260.2939691979382 -0.0001471761795135382 0  260.293929193268 7.49985293922631 0  265.2939718347006 -0.0001194795405191199 0  265.293931305082 7.499880638498422 0  270.2939739460494 -9.156701542642769e-05 0  270.293933054562 7.499908554812278 0  275.2939755825877 -6.354077328983999e-05 0  275.2939344712831 7.499936586528507 0  280.2939767961787 -3.549242692934824e-05 0  280.2939355868274 7.499964642525056 0  285.2939776420345 -7.503127675891194e-06 0  285.2939364349788 7.499992641928709 0  290.2939781809277 2.035811068347979e-05 0  290.2939370518487 7.500020515333984 0  295.2939784812363 4.803866579366849e-05 0  295.2939374758442 7.500048207985516 0  300.2939786199656 7.551049935289626e-05 0  300.293937747431 7.500075685619458 0  305.2939786808404 0.0001027843876196767 0  305.2939379090806 7.500102943876098 0  310.2939787449973 0.0001299327033876985 0  310.2939380068952 7.500130022496488 0  5.293934785064067 14.99824153999313 0  0.2939346973045747 14.99820591757981 0  10.29393491396258 14.9982769329417 0  15.29393510355531 14.9983121515789 0  20.29393536413203 14.99834725303395 0  25.29393570162003 14.99838230105837 0  30.29393611903985 14.9984173663482 0  35.29393661653859 14.99845252610107 0  40.29393719087975 14.99848786393192 0  45.2939378347095 14.99852347042191 0  50.29393853567257 14.9985594443224 0  55.29393927534847 14.99859589439379 0  60.29394002793479 14.99863294188891 0  65.29394075858607 14.99867072373908 0  70.29394142130134 14.99870939655581 0  75.29394195625183 14.99874914161808 0  80.2939422864391 14.99879017106916 0  85.29394231361285 14.99883273559015 0  90.29394191346299 14.99887713382843 0  95.29394093032739 14.9989237237834 0  100.2939391720899 14.9989729360831 0  105.2939364068454 14.99902528839645 0  110.2939323645307 14.99908139868353 0  115.293926749648 14.99914199175339 0  120.2939192760964 14.99920788714133 0  125.2939097427626 14.99927994393216 0  130.2938981789275 14.99935891536623 0  135.2938850988365 14.99944512609449 0  140.2938719026992 14.99953781815793 0  145.2938614079835 14.99963389822899 0  150.293858271888 14.99972554956888 0  165.2938925761784 14.99976077606972 0  160.2938905370848 14.9998127205357 0  170.2938874647495 14.99971042313207 0  175.2938802293831 14.99966876420776 0  180.2938736510836 14.99963790571275 0  185.2938688074409 14.99961744989549 0  190.2938658785594 14.99960609282021 0  195.2938646514669 14.99960235721254 0  200.2938647834277 14.99960487922892 0  205.2938659248974 14.99961249544928 0  210.2938677691113 14.99962424790234 0  215.2938700660987 14.99963935977809 0  220.2938726209542 14.9996572041512 0  225.2938752862217 14.99967727439694 0  230.2938779529812 14.99969915905774 0  235.2938805425985 14.99972252149333 0  240.2938829997796 14.9997470837727 0  245.2938852870267 14.99977261404794 0  250.2938873803486 14.99979891668988 0  255.2938892660008 14.99982582458444 0  260.2938909380516 14.99985319312542 0  265.2938923965625 14.99988089555954 0  270.2938936462468 14.99990881944699 0  275.2938946954539 14.99993686408948 0  280.2938955553936 14.99996493885451 0  285.2938962395469 14.99999296238474 0  290.2938967632434 15.0000208627125 0  295.2938971435785 15.00004857826183 0  300.2938973999789 15.00007605953143 0  305.2938975562225 15.00010327071188 0  310.2938976453269 15.00013018916012 0  5.293881022969414 22.49824212125739 0  0.2938809398390135 22.49820648055859 0  10.29388112184179 22.49827747738575 0  15.2938812457858 22.49831263549054 0  20.29388139686372 22.49834767089965 0  25.29388157245763 22.49838265592077 0  30.29388176671289 22.49841766405034 0  35.29388197095285 22.49845277213521 0  40.2938821734507 22.49848806174871 0  45.29388235883967 22.49852362043493 0  50.29388250731729 22.49855954312928 0  55.29388259370918 22.49859593390029 0  60.29388258641946 22.4986329080883 0  65.29388244627795 22.49867059489542 0  70.29388212531252 22.4987091404717 0  75.29388156551585 22.49874871153108 0  80.29388069775528 22.49878949949286 0  85.29387944111113 22.49883172506047 0  90.29387770315256 22.49887564296996 0  95.29387538202037 22.49892154629763 0  100.2938723717346 22.49896976907798 0  105.2938685729598 22.4990206848503 0  110.2938639125847 22.4990746967883 0  115.2938583768542 22.49913221179612 0  120.2938520640967 22.4991935857426 0  125.2938452633673 22.49925901926478 0  130.293838562217 22.4993283734229 0  135.2938329754981 22.49940086474689 0  140.2938300587223 22.49947460059729 0  145.2938319106079 22.49954596140906 0  150.2938408690229 22.49960903153966 0  165.2938766407201 22.4996767133853 0  160.2938689229666 22.49969482647492 0  170.2938777320224 22.49965372528898 0  175.293874678135 22.49963180482743 0  180.2938697041077 22.49961428256827 0  185.2938643333127 22.49960254184078 0  190.293859427188 22.49959678810703 0  195.2938553792198 22.4995966292925 0  200.2938522977823 22.49960142873796 0  205.2938501369603 22.49961049426354 0  210.2938487790264 22.49962316853888 0  215.2938480821649 22.49963886546194 0  220.2938479059004 22.49965707913101 0  225.293848123189 22.49967738007244 0  230.2938486249885 22.49969940638537 0  235.2938493208497 22.49972285358513 0  240.2938501375852 22.49974746487471 0  245.2938510171639 22.49977302252495 0  250.2938519144228 22.49979934054105 0  255.2938527949045 22.4998262585664 0  260.2938536329154 22.49985363689303 0  265.2938544098627 22.49988135243007 0  270.2938551128378 22.49990929549438 0  275.2938557334326 22.49993736730613 0  280.2938562667829 22.49996547808412 0  285.293856710845 22.4999935456208 0  290.2938570659927 22.50002149415669 0  295.2938573351041 22.50004925321684 0
[...]
<PointData  Scalars="p"> 
<DataArray  type="Float64"  Name="p"  format="ascii">1.0000000000000001e-01  1.0000000000000003e-01  9.9997412527313617e-02  1.0000000000000003e-01  1.0000000000000003e-01  9.9996295510018068e-02  1.0000000000000003e-01  9.9994408474389382e-02  1.0000000000000003e-01  9.9993141626908991e-02  1.0000000000000003e-01  9.9991724147075287e-02  1.0000000000000003e-01  9.9989897441371753e-02  1.0000000000000003e-01  9.9988716146916554e-02  1.0000000000000003e-01  9.9987460695462382e-02  1.0000000000000003e-01  9.9985446158696284e-02  1.0000000000000003e-01  9.9984201712952081e-02  1.0000000000000003e-01  9.9981006057132366e-02  1.0000000000000003e-01  9.9977624204105608e-02  1.0000000000000003e-01  9.9975112919741399e-02  1.0000000000000003e-01  9.9972657167794965e-02  1.0000000000000003e-01  9.9969069924706805e-02  1.0000000000000003e-01  9.9967288555332032e-02  1.0000000000000003e-01  9.9965120565789212e-02  1.0000000000000003e-01  9.9961603733088239e-02  1.0000000000000003e-01  9.9960972752569946e-02  1.0000000000000003e-01  9.9958422767163380e-02  1.0000000000000003e-01  9.9957170008493010e-02  1.0000000000000003e-01  9.9954809745545534e-02  1.0000000000000003e-01  9.9957331289232856e-02  1.0000000000000003e-01  9.9949965107883496e-02  1.0000000000000003e-01  9.9960018182477600e-02  1.0000000000000003e-01  9.9944218679850316e-02  1.0000000000000003e-01  9.9966248415028630e-02  1.0000000000000003e-01  9.9934706738558046e-02  1.0000000000000003e-01  9.9976142421644557e-02  1.0000000000000001e-01  9.9915575934337073e-02  1.0000000000000001e-01  1.0000000000000003e-01  1.0010158878146520e-01  1.0017172794612043e-01  1.0000000000000003e-01  1.0004470414616656e-01  1.0000000000000003e-01  1.0008289069060085e-01  1.0000000000000003e-01  1.0006557298125310e-01  1.0000000000000003e-01  1.0007245502352446e-01  1.0000000000000003e-01  1.0006839945378555e-01  1.0000000000000003e-01  1.0007238193876755e-01  1.0000000000000003e-01  1.0006903448859189e-01  1.0000000000000003e-01  1.0007042187617501e-01  1.0000000000000003e-01  1.0006981423838604e-01  1.0000000000000003e-01  1.0006909719576876e-01  1.0000000000000003e-01  1.0006850333017012e-01  1.0000000000000003e-01  1.0006823618948685e-01  1.0000000000000003e-01  1.0006712252510544e-01  1.0000000000000003e-01  1.0006656765548796e-01  1.0000000000000003e-01  1.0006593290766914e-01  1.0000000000000003e-01  1.0006510727160214e-01  1.0000000000000003e-01  1.0006432805554788e-01  1.0000000000000003e-01  1.0006393229792540e-01  1.0000000000000003e-01  1.0006280758701282e-01  1.0000000000000003e-01  1.0006277732243937e-01  1.0000000000000003e-01  1.0006120079782339e-01  1.0000000000000003e-01  1.0006226001014658e-01  1.0000000000000003e-01  1.0005872368138068e-01  1.0000000000000003e-01  1.0006341612070294e-01  1.0000000000000003e-01  1.0005399861490775e-01  1.0000000000000003e-01  1.0006847555483260e-01  1.0000000000000003e-01  1.0004323531611756e-01  1.0000000000000003e-01  1.0008675116435395e-01  1.0000000000000001e-01  1.0000000000000003e-01  9.9996495995924403e-02  1.0000000000000003e-01  9.9996101519944133e-02  9.9995752948373193e-02  9.9995209115919928e-02  9.9994087644599952e-02  9.9994071946637300e-02  9.9994002703906557e-02  9.9992525123864695e-02  9.9992970721333910e-02  9.9992559571956297e-02  9.9990135492271412e-02  9.9987724108930393e-02  9.9987104353235948e-02  9.9983591561133248e-02  9.9984670182433108e-02  9.9984099975369223e-02  9.9981259158831048e-02  9.9982604696891297e-02  9.9982762098005912e-02  9.9979121993254691e-02  9.9982653517172865e-02  9.9980613177100955e-02  9.9981728635747655e-02  9.9978819954352316e-02  9.9988146176003989e-02  9.9970320428806367e-02  1.0000099093857522e-01  9.9950031805534287e-02  1.0002751205821671e-01  9.9913573027206368e-02  9.9940080993774882e-02  1.0028778470890747e-01  1.0006802213012142e-01  1.0001674533690309e-01  1.0002315354140702e-01  1.0001881243324813e-01  1.0002951901015242e-01  1.0002087320499636e-01  1.0002606679061408e-01  1.0002646254505144e-01  1.0002533223258614e-01  1.0002561951953069e-01  1.0002661674677396e-01  1.0002506745325665e-01  1.0002515450408901e-01  1.0002528114788073e-01  1.0002430861976712e-01  1.0002417818675585e-01  1.0002408996615104e-01  1.0002358118913417e-01  1.0002313959452262e-01  1.0002352330376711e-01  1.0002226987494743e-01  1.0002348273517397e-01  1.0002110144129843e-01  1.0002472603709189e-01  1.0001768934814910e-01  1.0003016052939274e-01  1.0000842835123959e-01  1.0004205990623190e-01  1.0000000000000003e-01  9.9995190330448777e-02  1.0000000000000003e-01  9.9996346067028646e-02  9.9994409307685148e-02  9.9993155319573118e-02  9.9992628912085380e-02  9.9992562911933452e-02  9.9990323870124798e-02  9.9990747875994435e-02  9.9990967574959733e-02  9.9988062034512729e-02  9.9987782707239306e-02  9.9987765605780876e-02  9.9979481293517594e-02  9.9980213997807016e-02  9.9979043032119491e-02  9.9973901875336668e-02  9.9976381798259809e-02  9.9975826610609414e-02  9.9970774270991367e-02  9.9973829455890631e-02  9.9974711387864776e-02  9.9967951007054870e-02  9.9976026179858624e-02  9.9970196240566953e-02  9.9976426919661757e-02  9.9964927788239899e-02  9.9990765307890014e-02  9.9940064020908562e-02  1.0003081179457236e-01  9.9862456023269569e-02  9.9930006400391166e-02  1.0030352230972152e-01  1.0014084471439219e-01  1.0003382592785350e-01  1.0003579284087839e-01  1.0006059136906861e-01  1.0003504101525136e-01  1.0004950638467763e-01  1.0004962736257537e-01  1.0004706428407449e-01  1.0004816561780892e-01  1.0005093506042226e-01  1.0004771387495823e-01  1.0004852658410368e-01  1.0004903846481600e-01  1.0004715913138026e-01  1.0004695783846231e-01  1.0004719177126144e-01  1.0004577530197842e-01  1.0004568710838903e-01  1.0004542243393866e-01  1.0004495507116445e-01  1.0004402298200173e-01  1.0004516206045784e-01  1.0004242226867079e-01  1.0004587294287619e-01  1.0003982154765141e-01  1.0004964776509735e-01  1.0003097244958140e-01  1.0006655627589539e-01  1.0000000000000003e-01  9.9994457415322646e-02  1.0000000000000003e-01  9.9996267236671973e-02  9.9993678642327569e-02  9.9993672278714710e-02  9.9993675692456541e-02  9.9991502599043117e-02  9.9992168916612181e-02  9.9992860781732598e-02  9.9990207214894183e-02  9.9991441378370280e-02  9.9991935630157722e-02  9.9986517300909725e-02  9.9989012487412349e-02  9.9984520141015790e-02  9.9978842619737190e-02  9.9980999799879219e-02  9.9981702287741697e-02  9.9975611461718253e-02  9.9980814744964785e-02  9.9980453444888789e-02  9.9976019245713796e-02  9.9979732602643381e-02  9.9984286075262302e-02  9.9972533980847336e-02  9.9991342233785044e-02  9.9969576355050813e-02  1.0000375421736611e-01  9.9943049315548926e-02  1.0005147528212720e-01  9.9851654305874463e-02  9.9914502624678811e-02  1.0036343319105059e-01  1.0010214706862967e-01  1.0000233178888317e-01  1.0008038748531162e-01  1.0000172895835971e-01  1.0003634367140452e-01  1.0003106859420792e-01  1.0003024662347196e-01  1.0003055876407593e-01  1.0003682354298539e-01  1.0003150218031653e-01  1.0003390471008103e-01  1.0003512940206898e-01  1.0003284713629298e-01  1.0003294962628839e-01  1.0003358905213322e-01  1.0003184154622903e-01  1.0003170528557989e-01  1.0003208766892270e-01  1.0003076695885792e-01  1.0003112513409114e-01  1.0003045748448530e-01  1.0003115487214800e-01  1.0002878644725749e-01  1.0003293098621772e-01  1.0002542874490299e-01  1.0003769110503903e-01  1.0001741721896544e-01  1.0005031257412231e-01  1.0000000000000003e-01  9.9993697997612610e-02  1.0000000000000003e-01  9.9995715874915791e-02  9.9993785839578353e-02  9.9994371311085919e-02  9.9991468887985060e-02  9.9992241000578116e-02  9.9992432359781655e-02  9.9989761626931073e-02  9.9991244697333656e-02  9.9992221206116685e-02  9.9987579341902541e-02  9.9989720602214949e-02  9.9989070577860731e-02  9.9984382330078170e-02  9.9981878843481226e-02  9.9981714325522900e-02  9.9973998876373107e-02  9.9979142147401445e-02  9.9980120565385314e-02  9.9972221081051707e-02  9.9980413166328455e-02  9.9979144825786445e-02  9.9976009656520565e-02  9.9977489159928545e-02  9.9990303965777072e-02  9.9963399863732830e-02  1.0000954123444770e-01  9.9936333663295643e-02  1.0006275199658492e-01  9.9824044410374249e-02  9.9859189036494503e-02  1.0041900158442443e-01  1.0012106792406571e-01  1.0002622428455746e-01  1.0005893677274273e-01  1.0004254959128973e-01  1.0003706794119156e-01  1.0003626670368088e-01  1.0003164567462144e-01  1.0004591153735358e-01  1.0003551965592809e-01  1.0004048936940352e-01  1.0004275126914343e-01  1.0003967703587598e-01  1.0004016152427041e-01  1.0004186314197817e-01  1.0003907130607702e-01  1.0003918975257835e-01  1.0003961891264407e-01  1.0003809523167741e-01  1.0003777457941122e-01  1.0003844771684638e-01  1.0003679200605636e-01  1.0003792452891810e-01  1.0003609642748326e-01  1.0003890574153260e-01  1.0003316435332225e-01  1.0004360323623243e-01  1.0002459324885267e-01  1.0005848699796069e-01  1.0000000000000003e-01  9.9992779776559015e-02  1.0000000000000003e-01  9.9995843581597493e-02  9.9994068651580614e-02  9.9993004425143209e-02  9.9992733911485360e-02  9.9993105835918153e-02  9.9990304162637433e-02  9.9991363862367344e-02  9.9992829941370348e-02  9.9988849826367771e-02  9.9990808071057868e-02  9.9991729737782850e-02  9.9986115467974299e-02  9.9988273726042520e-02  9.9991215203494424e-02  9.9976550661241489e-02  9.9981615448798314e-02  9.9981502709836273e-02  9.9973248753770685e-02  9.9980687624837528e-02  9.9983463426521424e-02  9.9971867469154457e-02  9.9986383759513422e-02  9.9980164353809020e-02  9.9985667304454559e-02  9.9971387130316364e-02  1.0001636045969954e-01  9.9927447343302542e-02  1.0008435252926361e-01  9.9799995511979739e-02  9.9846005012899544e-02  1.0042079273723763e-01  1.0014440584576238e-01  9.9981691895593916e-02  1.0005668524506803e-01  1.0004433297496580e-01  1.0004839858375074e-01  1.0001220065113241e-01  1.0004621902223669e-01  1.0002290085479106e-01  1.0003431514114249e-01  1.0003671952554680e-01  1.0003314201510390e-01  1.0003385961862322e-01  1.0003747290736076e-01  1.0003348700463867e-01  1.0003422204954507e-01  1.0003531334698226e-01  1.0003281846608775e-01  1.0003290869601959e-01  1.0003328037934334e-01  1.0003220727669258e-01  1.0003155122246862e-01  1.0003311622481122e-01  1.0003021867501392e-01  1.0003402428334172e-01  1.0002792822386891e-01  1.0003838132982600e-01  1.0001999469801874e-01  1.0005186666684986e-01  1.0000000000000003e-01  9.9992266194865745e-02  1.0000000000000003e-01  9.9996075293220799e-02  9.9992637423051700e-02  9.9993731851338169e-02  9.9993467599292674e-02  9.9991119044367124e-02  9.9991319727286337e-02  9.9992790096980436e-02  9.9988779484495680e-02  9.9990867165504441e-02  9.9992313850786232e-02  9.9986482005681762e-02  9.9989371349535186e-02  9.9991836972925324e-02  9.9982742748091269e-02  9.9989857242111582e-02  9.9983829622562082e-02  9.9973261795188326e-02  9.9980275990216361e-02  9.9981552891550404e-02  9.9972272608740670e-02  9.9981052466324577e-02  9.9986867885613132e-02  9.9969126907759887e-02  9.9995233946860676e-02  9.9971150170609868e-02  1.0000962407630670e-01  9.9930542284832724e-02  1.0009524301073412e-01  9.9771350560875618e-02  9.9848269206946699e-02  1.0044913582232246e-01  1.0012503667050054e-01  9.9981400546179072e-02  1.0007339484431933e-01  1.0002423251719222e-01  1.0004456683225718e-01  1.0005768406037151e-01  1.0001785518126820e-01  1.0003643145252349e-01  1.0003540846316356e-01  1.0003441898220922e-01  1.0003356471937840e-01  1.0004006882050197e-01  1.0003451324250404e-01  1.0003620200969413e-01  1.0003797947114412e-01  1.0003520489178512e-01  1.0003508843079395e-01  1.0003612863082741e-01  1.0003385672090744e-01  1.0003421729466765e-01  1.0003406051937896e-01  1.0003408667699019e-01  1.0003229803515688e-01  1.0003587921107657e-01  1.0002970914530605e-01  1.0003999351945768e-01  1.0002222194168922e-01  1.0005374188182399e-01  1.0000000000000003e-01  9.9991902513602030e-02  1.0000000000000003e-01  9.9995318964619148e-02  9.9992905152840025e-02  9.9994360181589484e-02  9.9991629700639933e-02  9.9992334009487996e-02  9.9993081395506014e-02  9.9989349280577469e-02  9.9991087225321865e-02  9.9992551071751729e-02  9.9987205269394391e-02  9.9989901376836540e-02  9.9991964037417613e-02  9.9984451896590956e-02  9.9990328484760443e-02  9.9990873377263575e-02  9.9983734776432340e-02  9.9982251323233032e-02  9.9983703055575690e-02  9.9969993560588055e-02  9.9982642529327231e-02  9.9982492906881326e-02  9.9974496083198472e-02  9.9980663996104849e-02  9.9997426273444892e-02  9.9958576778415756e-02  1.0002270850689123e-01  9.9927213225244255e-02  1.0009784489408433e-01  9.9757272391499160e-02  9.9815143729949804e-02  1.0048134395451928e-01  1.0013205873775682e-01  9.9990137534309312e-02  1.0005012966721920e-01  1.0001643058279817e-01  1.0005568157186119e-01  1.0003347028657165e-01  1.0004675095397760e-01  1.0002548369139569e-01  1.0003405178856763e-01  1.0002540319229757e-01  1.0003902629344988e-01  1.0002987323186076e-01  1.0003321548909276e-01  1.0003587332694096e-01  1.0003262343053966e-01  1.0003285161395660e-01  1.0003473476596157e-01  1.0003197335590869e-01  1.0003177536324755e-01  1.0003286457806662e-01  1.0003062332004201e-01  1.0003178381325342e-01  1.0003037832775954e-01  1.0003292832916758e-01  1.0002747761934536e-01  1.0003765417073682e-01  1.0002009940368956e-01  1.0005055111294624e-01  1.0000000000000003e-01  9.9991224981025417e-02  1.0000000000000003e-01  9.9995495050258662e-02  9.9993268262307630e-02  9.9992875165045916e-02  9.9992373996977135e-02  9.9993687535954182e-02  9.9990249693406877e-02  9.9991427926790763e-02  9.9992748437220669e-02  9.9988149233296589e-02  9.9989798292196133e-02  9.9992052764952113e-02  9.9985045125775232e-02  9.9989411428720573e-02  9.9992333647764969e-02  9.9983754143695772e-02  9.9989185845089951e-02  9.9994716762456873e-02  9.9972560391846960e-02  9.9981730422562781e-02  9.9983934435394425e-02  9.9967682197019292e-02  9.9986781557322310e-02  9.9982143910025509e-02  9.9981393616572961e-02  9.9971268628963050e-02  1.0002513251152051e-01  9.9910630424754426e-02  1.0011573249697492e-01  9.9740389532455578e-02  9.9806883849034647e-02  1.0048033443024200e-01  1.0014924674885313e-01  9.9968034502992853e-02  1.0005127114069950e-01  1.0002864409288868e-01  1.0003531640370941e-01  1.0003241847453602e-01  1.0005122594617448e-01  1.0004402616643158e-01  1.0001786043007407e-01  1.0004213002133859e-01  1.0002521549775351e-01  1.0003281174418732e-01  1.0003531250536879e-01  1.0003213529211047e-01  1.0003210393885141e-01  1.0003565065797081e-01  1.0003193637736447e-01  1.0003251036897326e-01  1.0003347050086879e-01  1.0003151197361566e-01  1.0003088618313156e-01  1.0003260829373353e-01  1.0002963664726490e-01  1.0003292718698492e-01  1.0002800334394740e-01  1.0003706663922467e-01  1.0002059579807356e-01  1.0005025537462058e-01  1.0000000000000003e-01  9.9990975009574018e-02  1.0000000000000003e-01  9.9995750586569870e-02  9.9991917790652599e-02  9.9993388355866422e-02  9.9993285830592568e-02  9.9991186112706631e-02  9.9991664026991806e-02  9.9993185022557163e-02  9.9989056079723110e-02  9.9990323220358043e-02  9.9992403713899766e-02  9.9985557965330762e-02  9.9988772708355947e-02  9.9992166935849086e-02  9.9983646094079337e-02  9.9989438856981722e-02  9.9994680002439537e-02  9.9980383881365070e-02  9.9993510125366364e-02  9.9985428436860369e-02  9.9970082457247533e-02  9.9980825932895090e-02  9.9988126731359220e-02  9.9963873400497574e-02  9.9996858882243592e-02  9.9972672845514865e-02  1.0000768064774175e-01  9.9922900697444431e-02  1.0012205335173578e-01  9.9713436910984957e-02  9.9810344623739444e-02  1.0048843148351683e-01  1.0013623112769703e-01  9.9964925719022033e-02  1.0006371788518791e-01  1.0000944800572792e-01  1.0003280068916492e-01  1.0003795657516204e-01  1.0003680354472781e-01  1.0003594763912436e-01  1.0005320372058221e-01  1.0001657542199653e-01  1.0003305423540883e-01  1.0003039280329042e-01  1.0003071175375483e-01  1.0002883783680440e-01  1.0003456631076833e-01  1.0002990071993212e-01  1.0003089785062369e-01  1.0003290281734123e-01  1.0003025921569501e-01  1.0003042250808737e-01  1.0003080598698798e-01  1.0003006826503695e-01  1.0002842640717381e-01  1.0003196701833664e-01  1.0002615468355538e-01  1.0003550866902121e-01  1.0001968688731031e-01  1.0004801401207918e-01  1.0000000000000003e-01  9.9990806057667359e-02  1.0000000000000003e-01  9.9995085859648322e-02  9.9992132964703606e-02  9.9994061939995174e-02  9.9991338021354709e-02  9.9992191506401915e-02  9.9993075305304310e-02  9.9989930142663816e-02  9.9990979012462983e-02  9.9992956420110288e-02  9.9986844197010052e-02  9.9989000353458951e-02  9.9991482963395550e-02  9.9983752501056539e-02  9.9988792438281765e-02  9.9993183814219178e-02  9.9982085598210729e-02  9.9991724193415538e-02  9.9994163782285594e-02  9.9981932300077667e-02  9.9984349603184072e-02  9.9984906293359641e-02  9.9968144369327758e-02  9.9980870365718150e-02  9.9997552110255516e-02  9.9951454126645939e-02  1.0002409046214449e-01  9.9924989712682585e-02  1.0010412644680051e-01  9.9720651072614325e-02  9.9794056317581217e-02  1.0050005680195283e-01  1.0013679674968939e-01  9.9973807078412497e-02  1.0004993126525277e-01  1.0000786456232172e-01  1.0004321146589695e-01  1.0002361094365758e-01  1.0003113741478781e-01  1.0004410838865163e-01  1.0003712712219501e-01  1.0004250716701053e-01  1.0002447819563626e-01  1.0003192096196876e-01  1.0002395864593255e-01  1.0003488057597890e-01  1.0002768081818358e-01  1.0002986701982457e-01  1.0003225843253008e-01  1.0002973995940467e-01  1.0002961586972199e-01  1.0003177795511999e-01  1.0002885916550497e-01  1.0002976429647797e-01  1.0002886656257733e-01  1.0003054519577718e-01  1.0002580332911262e-01  1.0003498000646438e-01  1.0001924175276913e-01  1.0004683396813370e-01  1.0000000000000003e-01  9.9990316653007394e-02  1.0000000000000003e-01  9.9995192070175168e-02  9.9992510348551750e-02  9.9992605147848329e-02  9.9991862588631505e-02  9.9993357434697824e-02  9.9990288648579728e-02  9.9991228810978897e-02  9.9993092617706031e-02  9.9988421023653726e-02  9.9989629194422516e-02  9.9991752255204208e-02  9.9984625559035867e-02  9.9987591939773746e-02  9.9992156628901277e-02  9.9982316150841993e-02  9.9989409912936089e-02  9.9994605785032997e-02  9.9981942725474601e-02  9.9990515446534908e-02  1.0000063081653549e-01  9.9966520602238887e-02  9.9986994692159617e-02  9.9982489020939855e-02  9.9972759279102250e-02  9.9972432953253837e-02  1.0002505934322629e-01  9.9901428856379870e-02  1.0012061682053906e-01  9.9722508207377616e-02  9.9790227273146404e-02  1.0048457495171850e-01  1.0014624398934138e-01  9.9960716114270612e-02  1.0004824917179243e-01  1.0001749617357313e-01  1.0003062647274846e-01  1.0002031721253392e-01  1.0003941883116922e-01  1.0002878310510917e-01  1.0003425349300173e-01  1.0004350190693991e-01  1.0004150967037115e-01  1.0001644415569137e-01  1.0003654165218229e-01  1.0002280494821264e-01  1.0002855168910200e-01  1.0003047500636603e-01  1.0002812846732430e-01  1.0002791834061570e-01  1.0003082787165753e-01  1.0002836496924243e-01  1.0002820334852276e-01  1.0003011140333817e-01  1.0002686229455478e-01  1.0002956242187053e-01  1.0002547218381885e-01  1.0003314363357760e-01  1.0001857058460069e-01  1.0004503124928531e-01  1.0000000000000003e-01  9.9990116466823931e-02  1.0000000000000003e-01  9.9995376515257570e-02  9.9991269509124833e-02  9.9992895538027010e-02  9.9992565236288897e-02  9.9990956251044524e-02  9.9991112259997059e-02  9.9992782557288509e-02  9.9989072600745729e-02  9.9990209709573952e-02  9.9992147165421319e-02  9.9985936391214447e-02  9.9987501331596132e-02  9.9991321811364109e-02  9.9982404576346731e-02  9.9987185098871958e-02  9.9993420152662452e-02  9.9980908159361129e-02  9.9989845743910899e-02  9.9997861937673724e-02  9.9977565888436967e-02  9.9995926477427263e-02  9.9991041808453279e-02  9