<?xml version="1.0"?>
<VTKFile type="UnstructuredGrid"  version="0.1"  >
<UnstructuredGrid>
<Piece  NumberOfPoints="1933" NumberOfCells="3640">
<Points>
<DataArray  type="Float64"  NumberOfComponents="3"  format="ascii">0.294020251265167 -0.001059825054816337 0  5.294020263622071 -0.001027646889018928 0  5.293971979674915 7.498972375871086 0  0.2939719677671866 7.498940199629526 0  10.2940202889749 -0.0009954820775119337 0  10.2939719967951 7.499004537320101 0  15.2940203344696 -0.0009633146977614487 0  15.29397201916859 7.499036701690305 0  20.29402040252774 -0.0009311269356780175 0  20.29397204546399 7.499068887081426 0  25.29402049202409 -0.0008989009836502747 0  25.29397207288529 7.499101111176648 0  30.29402059922496 -0.0008666195340010796 0  30.29397209709579 7.499133391081531 0  35.29402071836244 -0.0008342657084414645 0  35.29397211215384 7.499165743485308 0  40.29402084189422 -0.0008018227726388023 0  40.29397211041597 7.49919818496094 0  45.29402096051999 -0.0007692737807537592 0  45.29397208237515 7.499230732312703 0  50.29402106300759 -0.0007366012056743269 0  50.29397201641304 7.499263402932317 0  55.29402113585806 -0.0007037865706122124 0  55.29397189845074 7.49929621515229 0  60.29402116281612 -0.0006708100791683279 0  60.29397171148101 7.499329188598916 0  65.29402112421367 -0.0006376502315176239 0  65.29397143495915 7.499362344554911 0  70.29402099611113 -0.0006042834081245409 0  70.29397104402076 7.499395706345791 0  75.29402074918018 -0.0005706833962142691 0  75.29397050848301 7.499429299767367 0  80.29402034723401 -0.0005368208261400562 0  80.29396979156586 7.499463153574119 0  85.29401974526426 -0.0005026624732072551 0  85.29396884825472 7.4994973000495 0  90.29401888676095 -0.0004681703641642739 0  90.29396762319377 7.49953177567599 0  95.29401769996188 -0.0004333006059629198 0  95.29396604798093 7.499566621907469 0  100.2940160924536 -0.0003980018299829606 0  100.2939640377159 7.499601886001877 0  105.2940139431619 -0.0003622131289517889 0  105.2939614866799 7.499637621759199 0  110.2940110900946 -0.0003258613915996283 0  110.2939582631538 7.499673889744078 0  115.2940073110013 -0.0002888581095321802 0  115.2939542037744 7.499710755974655 0  120.2940022919711 -0.0002510962981502592 0  120.293949108792 7.49974828674977 0  125.2939955751512 -0.0002124497922303724 0  125.2939427418314 7.499786534479797 0  130.2939864699177 -0.000172781497657089 0  130.2939348426193 7.499825503476024 0  135.2939738997568 -0.0001319783835970444 0  135.2939251713056 7.499865072435121 0  140.2939561363993 -9.005979545559562e-05 0  140.2939136233129 7.499904825643195 0  145.2939303389424 -4.748002716164887e-05 0  145.2939004920008 7.499943696401406 0  150.2938917662429 -5.940554904354582e-06 0  150.2938870221715 7.499979234857298 0  160.2938926261462 4.751208017964061e-19 0  165.2939087560676 6.301728383721542e-06 0  165.2938950620758 7.500004693280681 0  160.293887537924 7.499995415016856 0  170.2939237575804 2.059405072595994e-05 0  170.293902377675 7.500020032881829 0  175.2939368999873 3.997419013370534e-05 0  175.2939094031505 7.500039818015598 0  180.2939481488213 6.276873030425418e-05 0  180.2939159707383 7.500062773648555 0  185.293957690413 8.793171871458556e-05 0  185.2939219741495 7.500087997790117 0  190.2939657609234 0.000114778198648227 0  190.2939273732746 7.500114863277172 0  195.2939725860288 0.0001428443900885711 0  195.2939321735641 7.50014293091576 0  200.2939783626657 0.0001718074603562354 0  200.293936406802 7.500171888586799 0  205.2939832565836 0.000201437178386082 0  205.2939401177214 7.500201510721609 0  210.2939874053238 0.0002315658009983381 0  210.293943355707 7.50023163154981 0  215.2939909225705 0.0002620687879137621 0  215.2939461700312 7.500262127306727 0  220.2939939023793 0.0002928521265082141 0  220.2939486073348 7.50029290423074 0  225.2939964228224 0.0003238437896563769 0  225.2939507104545 7.500323890325251 0  230.2939985489883 0.0003549878398620227 0  230.2939525180307 7.50035502959954 0  235.2940003354077 0.0003862402687537541 0  235.2939540645459 7.500386277968623 0  240.2940018280111 0.0004175660026816774 0  240.2939553805905 7.50041760028469 0  245.2940030657178 0.0004489367118367405 0  245.2939564932372 7.50044896815667 0  250.2940040817423 0.0004803291882042157 0  250.2939574264564 7.500480358331984 0  255.2940049046861 0.0005117241390248234 0  255.2939582015397 7.500511751490965 0  260.2940055594684 0.0005431052962611889 0  260.2939588375076 7.500543131355813 0  265.2940060681412 0.0005744587803594508 0  265.2939593514953 7.50057448405224 0  270.2940064506151 0.0006057726856882817 0  270.2939597591089 7.500605797689433 0  275.2940067253277 0.0006370368805414643 0  275.293960074742 7.500637062147234 0  280.2940069098566 0.0006682430406391095 0  280.2939603118512 7.500668269081122 0  285.2940070214738 0.0006993849651864531 0  285.2939604831686 7.500699412177844 0  290.2940070775907 0.0007304592615425959 0  290.2939606008407 7.500730487717289 0  295.2940070959829 0.0007614665273955844 0  295.2939606764834 7.500761495517033 0  300.2940070945488 0.0007924131911789627 0  300.2939607211572 7.500792440347282 0  305.2940070900977 0.0008233141113730212 0  305.2939607453619 7.500823333899546 0  310.2940070951582 0.0008541955341326555 0  310.2939607593273 7.500854197426289 0  5.293923686255669 14.99897241905963 0  0.2939236764318813 14.99894026044423 0  10.29392369366301 14.99900456381568 0  15.29392369651292 14.99903671472134 0  20.2939236917395 14.99906888953933 0  25.29392367553051 14.99910110498329 0  30.29392364319009 14.99913337718247 0  35.29392358893149 14.99916572199045 0  40.29392350566161 14.99919815527513 0  45.29392338475787 14.99923069321136 0  50.29392321582346 14.99926335257307 0  55.2939229864057 14.99929615102069 0  60.29392268166342 14.99932910738276 0  65.2939222839736 14.99936224193226 0  70.29392177246928 14.99939557665767 0  75.29392112250834 14.99942913552496 0  80.2939203050793 14.99946294471722 0  85.29391928617397 14.99949703282043 0  90.29391802618944 14.99953143088818 0  95.29391647949129 14.99956617225115 0  100.2939145943897 14.9996012918099 0  105.2939123139882 14.99963682431477 0  110.2939095787132 14.99967280070453 0  115.2939063318955 14.99970924079798 0  120.2939025306054 14.99974613926967 0  125.293898165045 14.9997834395497 0  130.2938932908475 14.99982098671989 0  135.2938880784629 14.99985844575847 0  140.2938828791266 14.99989516800861 0  145.2938782896308 14.99992999709925 0  150.293875151085 14.99996106368616 0  165.2938783350683 15.00000132504337 0  160.2938759039893 14.99998707495567 0  170.2938807636668 15.00001900877845 0  175.293883367933 15.00003981680802 0  180.2938861215651 15.00006317758434 0  185.2938889305565 15.00008852828518 0  190.2938916998335 15.00011540001447 0  195.2938943558233 15.00014342623451 0  200.293896849572 15.00017232748919 0  205.2938991529801 15.00020189230949 0  210.2939012535344 15.00023196049979 0  215.2939031495271 15.00026241004215 0  220.2939048463016 15.00029314728066 0  225.2939063535138 15.00032409968937 0  230.2939076832238 15.00035521056432 0  235.2939088486178 15.00038643511614 0  240.2939098631773 15.00041773757566 0  245.2939107401641 15.00044908903447 0  250.2939114923215 15.00048046582512 0  255.2939121317195 15.00051184830409 0  260.2939126696918 15.00054321994416 0  265.2939131168331 15.00057456667339 0  270.2939134830283 15.00060587642182 0  275.2939137774991 15.00063713885458 0  280.2939140088557 15.00066834528494 0  285.2939141851558 15.00069948876995 0  290.2939143139833 15.00073056439589 0  295.2939144025902 15.00076156975282 0  300.2939144581847 15.00079250557263 0  305.2939144885278 15.00082337645566 0  310.2939145031289 15.00085419154924 0  5.293875442585145 22.49897248076376 0  0.2938754345682724 22.49894036558888 0  10.29387544413186 22.49900459136536 0  15.29387543529999 22.49903671493204 0  20.29387541236466 22.4990688671546 0  25.29387537144412 22.49910106280159 0  30.2938753082642 22.49913331625173 0  35.29387521794267 22.49916564181585 0  40.29387509479315 22.49919805397328 0  45.29387493214927 22.4992305675763 0  50.29387472220839 22.49926319803898 0  55.29387445589021 22.4992959615109 0  60.29387412271265 22.49932887502862 0  65.29387371069232 22.49936195663428 0  70.29387320628773 22.49939522544137 0  75.29387259441953 22.499428701618 0  80.29387185862292 22.49946240623575 0  85.29387098142259 22.49949636089978 0  90.29386994506891 22.49953058701895 0  95.29386873284719 22.49956510448423 0  100.2938673312708 22.49959992937614 0  105.2938657335994 22.49963507009052 0  110.2938639452752 22.49967052091633 0  115.2938619919938 22.49970625158518 0  120.2938599311159 22.49974219063935 0  125.2938578667219 22.49977819977121 0  130.2938559673291 22.49981403610776 0  135.2938544822916 22.4998493012816 0  140.2938537471506 22.49988338389474 0  145.2938541593702 22.49991542435353 0  150.2938560983254 22.49994438522305 0  165.2938559591397 22.49999707424845 0  160.29385646157 22.49997857381046 0  170.293855535901 22.50001734575267 0  175.2938553580302 22.50003958618789 0  180.2938554847135 22.50006367068318 0  185.2938558976211 22.50008934190954 0  190.2938565404391 22.5001163168315 0  195.293857346494 22.50014433533031 0  200.2938582534404 22.50017317664057 0  205.2938592092904 22.50020266069383 0  210.2938601736957 22.50023264353056 0  215.2938611170088 22.50026301111284 0  220.2938620185285 22.50029367335721 0  225.2938628646301 22.50032455901581 0  230.293863647081 22.50035561151584 0  235.2938643616433 22.50038678566728 0  240.2938650069669 22.50041804509308 0  245.2938655837393 22.50044936023569 0  250.2938660940441 22.50048070681638 0  255.293866540885 22.50051206464849 0  260.2938669278334 22.50054341673003 0  265.2938672587729 22.50057474855912 0  270.2938675377111 22.50060604763213 0  275.2938677686529 22.50063730309414 0  280.2938679555205 22.50066850551743 0  285.2938681021317 22.50069964678349 0  290.2938682122598 22.50073072003332 0  295.2938682898147 22.5007617196281
[...]
<PointData  Scalars="p"> 
<DataArray  type="Float64"  Name="p"  format="ascii">1.0000000000000001e-01  1.0000000000000003e-01  9.9997412642354261e-02  1.0000000000000003e-01  1.0000000000000003e-01  9.9996295199388463e-02  1.0000000000000003e-01  9.9994407837187105e-02  1.0000000000000003e-01  9.9993140691266580e-02  1.0000000000000003e-01  9.9991722982952988e-02  1.0000000000000003e-01  9.9989895958968122e-02  1.0000000000000003e-01  9.9988714468774095e-02  1.0000000000000003e-01  9.9987458847313304e-02  1.0000000000000003e-01  9.9985444042668126e-02  1.0000000000000003e-01  9.9984199489858677e-02  1.0000000000000003e-01  9.9981003634482396e-02  1.0000000000000003e-01  9.9977621539761072e-02  1.0000000000000003e-01  9.9975110171820064e-02  1.0000000000000003e-01  9.9972654349677392e-02  1.0000000000000003e-01  9.9969066847991242e-02  1.0000000000000003e-01  9.9967285502279429e-02  1.0000000000000003e-01  9.9965117475344548e-02  1.0000000000000003e-01  9.9961600377866541e-02  1.0000000000000003e-01  9.9960969530098032e-02  1.0000000000000003e-01  9.9958419436510598e-02  1.0000000000000003e-01  9.9957166564292960e-02  1.0000000000000003e-01  9.9954806216859551e-02  1.0000000000000003e-01  9.9957328033464465e-02  1.0000000000000003e-01  9.9949961113252092e-02  1.0000000000000003e-01  9.9960015125091464e-02  1.0000000000000003e-01  9.9944214220065178e-02  1.0000000000000003e-01  9.9966245779470844e-02  1.0000000000000003e-01  9.9934701454780506e-02  1.0000000000000003e-01  9.9976140736996247e-02  1.0000000000000001e-01  9.9915569422059133e-02  1.0000000000000001e-01  1.0000000000000003e-01  1.0010161288087795e-01  1.0017174905934076e-01  1.0000000000000003e-01  1.0004471897445290e-01  1.0000000000000003e-01  1.0008291090976441e-01  1.0000000000000003e-01  1.0006559086556317e-01  1.0000000000000003e-01  1.0007247391651836e-01  1.0000000000000003e-01  1.0006841767939077e-01  1.0000000000000003e-01  1.0007240062764707e-01  1.0000000000000003e-01  1.0006905268169300e-01  1.0000000000000003e-01  1.0007044021034915e-01  1.0000000000000003e-01  1.0006983237296922e-01  1.0000000000000003e-01  1.0006911521822774e-01  1.0000000000000003e-01  1.0006852122118329e-01  1.0000000000000003e-01  1.0006825396222145e-01  1.0000000000000003e-01  1.0006714011988944e-01  1.0000000000000003e-01  1.0006658512774363e-01  1.0000000000000003e-01  1.0006595020835930e-01  1.0000000000000003e-01  1.0006512442366487e-01  1.0000000000000003e-01  1.0006434502137339e-01  1.0000000000000003e-01  1.0006394915081895e-01  1.0000000000000003e-01  1.0006282417699175e-01  1.0000000000000003e-01  1.0006279390766440e-01  1.0000000000000003e-01  1.0006121695473319e-01  1.0000000000000003e-01  1.0006227645699839e-01  1.0000000000000003e-01  1.0005873918904189e-01  1.0000000000000003e-01  1.0006343285693381e-01  1.0000000000000003e-01  1.0005401286500168e-01  1.0000000000000003e-01  1.0006849361531112e-01  1.0000000000000003e-01  1.0004324671764953e-01  1.0000000000000003e-01  1.0008677401985495e-01  1.0000000000000001e-01  1.0000000000000003e-01  9.9996496636039239e-02  1.0000000000000003e-01  9.9996101621373026e-02  9.9995753028338366e-02  9.9995209116517131e-02  9.9994087435815823e-02  9.9994071694573375e-02  9.9994002433813983e-02  9.9992524603156274e-02  9.9992970232267150e-02  9.9992559078710644e-02  9.9990134714233667e-02  9.9987723265012471e-02  9.9987103609327582e-02  9.9983590393858748e-02  9.9984669234348150e-02  9.9984099036882323e-02  9.9981257799190926e-02  9.9982603594536409e-02  9.9982761058634725e-02  9.9979120387105727e-02  9.9982652381044174e-02  9.9980611834108835e-02  9.9981727134683257e-02  9.9978818279307768e-02  9.9988145333409939e-02  9.9970317796305982e-02  1.0000099109281002e-01  9.9950027868588739e-02  1.0002751434169060e-01  9.9913566967355857e-02  9.9940081577193182e-02  1.0028781999943212e-01  1.0006803297549802e-01  1.0001675203134401e-01  1.0002316093197290e-01  1.0001881881906613e-01  1.0002952669176504e-01  1.0002087959788492e-01  1.0002607374282292e-01  1.0002646927575594e-01  1.0002533883671054e-01  1.0002562610774419e-01  1.0002662334201086e-01  1.0002507391965250e-01  1.0002516100234815e-01  1.0002528761173968e-01  1.0002431502623572e-01  1.0002418460350791e-01  1.0002409632595870e-01  1.0002358754063315e-01  1.0002314585115811e-01  1.0002352963644003e-01  1.0002227593228311e-01  1.0002348910848241e-01  1.0002110715341488e-01  1.0002473271164973e-01  1.0001769413496647e-01  1.0003016857585580e-01  1.0000843063567821e-01  1.0004207103540844e-01  1.0000000000000003e-01  9.9995191366174560e-02  1.0000000000000003e-01  9.9996346275809750e-02  9.9994409641905244e-02  9.9993155206126047e-02  9.9992628718862428e-02  9.9992562666533835e-02  9.9990323271801893e-02  9.9990747240176980e-02  9.9990966983996857e-02  9.9988060994951694e-02  9.9987781701898856e-02  9.9987764755144704e-02  9.9979479615449410e-02  9.9980212659137965e-02  9.9979041744637856e-02  9.9973899879403791e-02  9.9976380252190661e-02  9.9975825124236764e-02  9.9970771988386775e-02  9.9973827716007935e-02  9.9974709805105991e-02  9.9967948347555610e-02  9.9976024553487655e-02  9.9970194016593503e-02  9.9976424907555692e-02  9.9964924867421950e-02  9.9990764834539711e-02  9.9940058805258108e-02  1.0003081455544684e-01  9.9862445312496911e-02  9.9930007977419633e-02  1.0030356222906542e-01  1.0014086794932478e-01  1.0003383867738501e-01  1.0003580418448382e-01  1.0006060648242296e-01  1.0003505254856195e-01  1.0004951962137325e-01  1.0004964012344307e-01  1.0004707676281871e-01  1.0004817811078602e-01  1.0005094763542559e-01  1.0004772613624861e-01  1.0004853897127698e-01  1.0004905078265333e-01  1.0004717135712295e-01  1.0004697008453477e-01  1.0004720398665526e-01  1.0004578742312227e-01  1.0004569925853660e-01  1.0004543445980391e-01  1.0004496712195290e-01  1.0004403479806005e-01  1.0004517412781244e-01  1.0004243365934901e-01  1.0004588522139062e-01  1.0003983217345322e-01  1.0004966097827719e-01  1.0003098068391325e-01  1.0006657388099921e-01  1.0000000000000003e-01  9.9994458839716138e-02  1.0000000000000003e-01  9.9996267676803322e-02  9.9993679186305834e-02  9.9993672519438359e-02  9.9993676023052785e-02  9.9991502553290673e-02  9.9992168870378192e-02  9.9992860854544063e-02  9.9990206830470343e-02  9.9991441088713329e-02  9.9991935509098823e-02  9.9986516483449833e-02  9.9989012051197604e-02  9.9984519566211724e-02  9.9978841372555319e-02  9.9980998961059303e-02  9.9981701640015783e-02  9.9975609821570083e-02  9.9980813853600609e-02  9.9980452557436372e-02  9.9976017444717943e-02  9.9979731389548007e-02  9.9984285337153769e-02  9.9972531453111926e-02  9.9991341856239410e-02  9.9969573755171445e-02  1.0000375448463401e-01  9.9943044221134827e-02  1.0005148000043208e-01  9.9851641900334867e-02  9.9914499320585312e-02  1.0036348722961669e-01  1.0010216552379915e-01  1.0000233837156346e-01  1.0008040234140009e-01  1.0000173483933449e-01  1.0003635364224937e-01  1.0003107715034865e-01  1.0003025518348906e-01  1.0003056706003984e-01  1.0003683221918325e-01  1.0003151024594922e-01  1.0003391307426962e-01  1.0003513768959754e-01  1.0003285532858990e-01  1.0003295792085753e-01  1.0003359735899782e-01  1.0003184982367480e-01  1.0003171362159848e-01  1.0003209604233793e-01  1.0003077523682405e-01  1.0003113355586879e-01  1.0003046567306638e-01  1.0003116335411576e-01  1.0002879429319537e-01  1.0003293986574641e-01  1.0002543564481309e-01  1.0003770120565622e-01  1.0001742189958893e-01  1.0005032593525241e-01  1.0000000000000003e-01  9.9993699804537622e-02  1.0000000000000003e-01  9.9995716390533909e-02  9.9993786671006016e-02  9.9994371823960912e-02  9.9991469181279491e-02  9.9992241171910495e-02  9.9992432648664031e-02  9.9989761433355931e-02  9.9991244628767476e-02  9.9992221291088590e-02  9.9987578751528847e-02  9.9989720300257809e-02  9.9989070387202367e-02  9.9984381428168817e-02  9.9981878058196402e-02  9.9981713863862440e-02  9.9973997285650623e-02  9.9979141325101550e-02  9.9980119936923142e-02  9.9972219099568882e-02  9.9980412334157262e-02  9.9979143849949173e-02  9.9976007754736931e-02  9.9977487587100858e-02  9.9990303828392801e-02  9.9963396071216348e-02  1.0000954266791182e-01  9.9936327596546318e-02  1.0006275797847641e-01  9.9824028612571114e-02  9.9859175667531941e-02  1.0041906819837282e-01  1.0012109168158508e-01  1.0002623493738384e-01  1.0005895044313767e-01  1.0004256162516706e-01  1.0003707815244371e-01  1.0003627752059792e-01  1.0003165528795298e-01  1.0004592239601025e-01  1.0003552922527023e-01  1.0004049948789639e-01  1.0004276124258367e-01  1.0003968685613999e-01  1.0004017145153749e-01  1.0004187313302171e-01  1.0003908120893512e-01  1.0003919980385938e-01  1.0003962896199858e-01  1.0003810530758751e-01  1.0003778466331689e-01  1.0003845789913568e-01  1.0003680197352322e-01  1.0003793480933394e-01  1.0003610614422122e-01  1.0003891626471577e-01  1.0003317331105629e-01  1.0004361488470317e-01  1.0002459984115043e-01  1.0005850252912961e-01  1.0000000000000003e-01  9.9992781879360004e-02  1.0000000000000003e-01  9.9995844257838071e-02  9.9994069843233419e-02  9.9993004964345378e-02  9.9992734505412392e-02  9.9993106443109728e-02  9.9990304365338789e-02  9.9991364086019260e-02  9.9992830403714247e-02  9.9988849681024172e-02  9.9990808113299870e-02  9.9991730043407570e-02  9.9986114929060205e-02  9.9988273529270408e-02  9.9991215525708305e-02  9.9976549322906824e-02  9.9981615078048022e-02  9.9981502527465932e-02  9.9973247155120515e-02  9.9980687081973940e-02  9.9983463270347170e-02  9.9971865279695829e-02  9.9986383532424838e-02  9.9980163316387177e-02  9.9985666192115491e-02  9.9971384508366082e-02  1.0001636301977247e-01  9.9927439331675527e-02  1.0008436176614348e-01  9.9799976041658744e-02  9.9845986964036806e-02  1.0042086552242634e-01  1.0014443328003630e-01  9.9981696012788016e-02  1.0005669960100938e-01  1.0004434366591022e-01  1.0004841006283437e-01  1.0001220750085771e-01  1.0004622944109784e-01  1.0002290833019757e-01  1.0003432395151657e-01  1.0003672787968061e-01  1.0003315019997898e-01  1.0003386787379327e-01  1.0003748129791888e-01  1.0003349520670558e-01  1.0003423048388255e-01  1.0003532181641878e-01  1.0003282692336304e-01  1.0003291732556782e-01  1.0003328897995131e-01  1.0003221598269300e-01  1.0003155981016004e-01  1.0003312512112106e-01  1.0003022696060949e-01  1.0003403354454286e-01  1.0002793577080819e-01  1.0003839165387896e-01  1.0002000009094672e-01  1.0005188046041844e-01  1.0000000000000003e-01  9.9992268606359458e-02  1.0000000000000003e-01  9.9996076170748904e-02  9.9992638701547509e-02  9.9993732609546360e-02  9.9993468578251601e-02  9.9991119494515543e-02  9.9991320213479409e-02  9.9992790768581766e-02  9.9988779588257581e-02  9.9990867397743613e-02  9.9992314445488395e-02  9.9986481728119414e-02  9.9989371397846361e-02  9.9991837493186270e-02  9.9982741960339697e-02  9.9989857360315099e-02  9.9983829642445496e-02  9.9973260417026213e-02  9.9980275707558505e-02  9.9981552873171814e-02  9.9972270871645161e-02  9.9981051968659806e-02  9.9986868143709190e-02  9.9969124113539101e-02  9.9995234689345375e-02  9.9971147724212159e-02  1.0000962568334766e-01  9.9930534604300889e-02  1.0009525472327772e-01  9.9771325780776868e-02  9.9848246846818298e-02  1.0044921710201640e-01  1.0012506361685210e-01  9.9981404709483870e-02  1.0007341143436313e-01  1.0002424228842446e-01  1.0004457840110909e-01  1.0005769608330557e-01  1.0001786249728416e-01  1.0003644131650374e-01  1.0003541698529092e-01  1.0003442775709794e-01  1.0003357322367719e-01  1.0004007763956453e-01  1.0003452166503890e-01  1.0003621076122408e-01  1.0003798821110121e-01  1.0003521364980270e-01  1.0003509734353880e-01  1.0003613763942641e-01  1.0003386568990538e-01  1.0003422648106437e-01  1.0003406955143128e-01  1.0003409598206527e-01  1.0003230687668847e-01  1.0003588888017720e-01  1.0002971723825349e-01  1.0004000427479334e-01  1.0002222790301502e-01  1.0005375617790095e-01  1.0000000000000003e-01  9.9991905229337846e-02  1.0000000000000003e-01  9.9995319884624762e-02  9.9992906687499092e-02  9.9994361260945769e-02  9.9991630630088077e-02  9.9992334746270770e-02  9.9993082335835190e-02  9.9989349673682351e-02  9.9991087728700676e-02  9.9992551874442503e-02  9.9987205301283452e-02  9.9989901723685298e-02  9.9991964800170099e-02  9.9984451506699934e-02  9.9990328787259775e-02  9.9990873997417740e-02  9.9983734140570615e-02  9.9982251123954577e-02  9.9983703537596363e-02  9.9969991888772938e-02  9.9982642665216920e-02  9.9982493005307649e-02  9.9974494485248505e-02  9.9980663242095522e-02  9.9997427805352368e-02  9.9958572143871494e-02  1.0002271265953117e-01  9.9927204943700457e-02  1.0009785752370784e-01  9.9757244485574520e-02  9.9815115839069546e-02  1.0048142885651797e-01  1.0013208808598470e-01  9.9990140150897286e-02  1.0005014433637763e-01  1.0001643957755239e-01  1.0005569426750870e-01  1.0003347950299583e-01  1.0004676188925726e-01  1.0002549074169964e-01  1.0003406062847618e-01  1.0002541059479264e-01  1.0003903467621675e-01  1.0002988075517873e-01  1.0003322348708225e-01  1.0003588122423931e-01  1.0003263133973145e-01  1.0003285969378312e-01  1.0003474293378720e-01  1.0003198157025786e-01  1.0003178369540522e-01  1.0003287304789003e-01  1.0003063164675845e-01  1.0003179250529486e-01  1.0003038650675139e-01  1.0003293734042384e-01  1.0002748513566818e-01  1.0003766425322329e-01  1.0002010483955648e-01  1.0005056456243455e-01  1.0000000000000003e-01  9.9991227920530779e-02  1.0000000000000003e-01  9.9995496103164203e-02  9.9993270129446837e-02  9.9992876226668165e-02  9.9992375180615448e-02  9.9993688690989652e-02  9.9990250445601003e-02  9.9991428620195139e-02  9.9992749466415995e-02  9.9988149574717397e-02  9.9989798781582734e-02  9.9992053721966109e-02  9.9985045103058931e-02  9.9989411833902156e-02  9.9992334615760889e-02  9.9983753711787263e-02  9.9989186161107649e-02  9.9994717955452950e-02  9.9972558945712720e-02  9.9981730620278056e-02  9.9983935213660419e-02  9.9967680135343101e-02  9.9986782272046257e-02  9.9982143792857622e-02  9.9981392803945870e-02  9.9971266165073000e-02  1.0002513790893129e-01  9.9910618868209414e-02  1.0011574940958649e-01  9.9740357634488519e-02  9.9806854926311042e-02  1.0048042073240260e-01  1.0014927611529147e-01  9.9968034608512849e-02  1.0005128675174564e-01  1.0002865312391881e-01  1.0003532782444206e-01  1.0003242885717752e-01  1.0005123636613045e-01  1.0004403627570038e-01  1.0001786722603498e-01  1.0004213906960160e-01  1.0002522264146309e-01  1.0003281991547427e-01  1.0003532022095751e-01  1.0003214309595171e-01  1.0003211182522645e-01  1.0003565869243644e-01  1.0003194435904926e-01  1.0003251862098873e-01  1.0003347874291715e-01  1.0003152035697950e-01  1.0003089453574229e-01  1.0003261692897311e-01  1.0002964480900016e-01  1.0003293619672007e-01  1.0002801089541702e-01  1.0003707663762290e-01  1.0002060136386969e-01  1.0005026871769847e-01  1.0000000000000003e-01  9.9990978186260071e-02  1.0000000000000003e-01  9.9995751817510969e-02  9.9991919715619576e-02  9.9993389611303746e-02  9.9993287403078904e-02  9.9991187127329267e-02  9.9991665049190673e-02  9.9993186240901019e-02  9.9989056723015016e-02  9.9990323914984469e-02  9.9992404869099216e-02  9.9985558207316874e-02  9.9988773229461508e-02  9.9992168152046132e-02  9.9983645971328652e-02  9.9989439338700831e-02  9.9994681377535866e-02  9.9980383118350474e-02  9.9993511025451856e-02  9.9985429202973652e-02  9.9970081089029883e-02  9.9980826182758914e-02  9.9988128189606451e-02  9.9963870467951910e-02  9.9996861058644249e-02  9.9972670906140926e-02  1.0000768373035042e-01  9.9922890755700294e-02  1.0012207320600588e-01  9.9713398324393784e-02  9.9810312812164459e-02  1.0048851856808398e-01  1.0013625993818605e-01  9.9964925707723515e-02  1.0006373255622580e-01  1.0000945524114006e-01  1.0003281240155611e-01  1.0003796623370775e-01  1.0003681383113443e-01  1.0003595683843677e-01  1.0005321380778405e-01  1.0001658151150447e-01  1.0003306270060679e-01  1.0003039977605607e-01  1.0003071932922809e-01  1.0002884515945024e-01  1.0003457387467009e-01  1.0002990813620977e-01  1.0003090555184517e-01  1.0003291055809833e-01  1.0003026699164781e-01  1.0003043052175437e-01  1.0003081389401947e-01  1.0003007645266855e-01  1.0002843421864094e-01  1.0003197559018503e-01  1.0002616185912032e-01  1.0003551824759653e-01  1.0001969216202500e-01  1.0004802676327551e-01  1.0000000000000003e-01  9.9990809472700379e-02  1.0000000000000003e-01  9.9995087123359402e-02  9.9992135099874563e-02  9.9994063497885102e-02  9.9991339551663394e-02  9.9992192758726783e-02  9.9993076799410122e-02  9.9989931092313009e-02  9.9990979983115957e-02  9.9992957720855105e-02  9.9986844759112237e-02  9.9989001073538072e-02  9.9991484252808127e-02  9.9983752662473432e-02  9.9988793120654257e-02  9.9993185271010934e-02  9.9982085308063920e-02  9.9991725010221133e-02  9.9994165311506331e-02  9.9981931635157090e-02  9.9984350166665306e-02  9.9984907468262080e-02  9.9968142881173450e-02  9.9980870471005942e-02  9.9997555096149854e-02  9.9951448646517296e-02  1.0002409716634339e-01  9.9924979797614111e-02  1.0010414523674667e-01  9.9720611060509987e-02  9.9794025175177492e-02  1.0050013870690484e-01  1.0013682615347079e-01  9.9973804820359280e-02  1.0004994519865568e-01  1.0000787196278679e-01  1.0004322220122841e-01  1.0002361997876590e-01  1.0003114766584061e-01  1.0004411807173917e-01  1.0003713598022221e-01  1.0004251678507468e-01  1.0002448438280676e-01  1.0003192901068510e-01  1.0002396549225186e-01  1.0003488812169484e-01  1.0002768789917932e-01  1.0002987450455079e-01  1.0003226580819238e-01  1.0002974749447482e-01  1.0002962349348457e-01  1.0003178573444094e-01  1.0002886684410678e-01  1.0002977233004709e-01  1.0002887416599079e-01  1.0003055353881257e-01  1.0002581039033759e-01  1.0003498931643925e-01  1.0001924695230044e-01  1.0004684638544709e-01  1.0000000000000003e-01  9.9990320236650679e-02  1.0000000000000003e-01  9.9995193436944380e-02  9.9992512773114911e-02  9.9992606696402184e-02  9.9991864330437330e-02  9.9993359102070606e-02  9.9990289992253456e-02  9.9991230021582250e-02  9.9993094160249762e-02  9.9988421926779564e-02  9.9989630105101618e-02  9.9991753697228167e-02  9.9984626075098532e-02  9.9987592660595592e-02  9.9992158186822347e-02  9.9982316291425330e-02  9.9989410714418275e-02  9.9994607558632723e-02  9.9981942428363141e-02  9.9990516279636441e-02  1.0000063327369529e-01  9.9966518591936213e-02  9.9986996285314114e-02  9.9982489868263053e-02  9.9972758622278862e-02  9.9972431133952627e-02  1.0002506737386475e-01  9.9901414274009656e-02  1.0012064074117882e-01  9.9722465607500810e-02  9.9790198501300970e-02  1.0048465457570752e-01  1.0014626959862988e-01  9.9960714016848279e-02  1.0004826336015521e-01  1.0001750148101349e-01  1.0003063661336319e-01  1.0002032606806906e-01  1.0003942827926712e-01  1.0002879207528227e-01  1.0003426311036255e-01  1.0004351028717913e-01  1.0004151874619617e-01  1.0001645017111348e-01  1.0003654946090484e-01  1.0002281144228056e-01  1.0002855904580224e-01  1.0003048192693996e-01  1.0002813562046697e-01  1.0002792557965620e-01  1.0003083515934133e-01  1.0002837236505246e-01  1.0002821077302311e-01  1.0003011905343012e-01  1.0002686956878259e-01  1.0002957044533932e-01  1.0002547893561534e-01  1.0003315254468557e-01  1.0001857558514721e-01  1.0004504314126020e-01  1.0000000000000003e-01  9.9990120230327884e-02  1.0000000000000003e-01  9.9995378030737450e-02  9.9991271989125968e-02  9.9992897247779516e-02  9.9992567335197902e-02  9.9990957824732718e-02  9.9991113833476225e-02  9.9992784282151664e-02  9.9989073854513652e-02  9.9990210891743425e-02  9.9992148786587229e-02  9.9985937217876117e-02  9.9987502224429620e-02  9.9991323465738774e-02  9.9982405026575558e-02  9.9987185876602977e-02  9.9993422120532846e-02  9.9980908184125292e-02  9.9989846688891021e-02  9.9997864279984264e-02  9.9977565187112913e-02  9.9995927982329633e-02  9.9991044118578551e-02  9