<?xml version="1.0"?>
<VTKFile type="UnstructuredGrid"  version="0.1"  >
<UnstructuredGrid>
<Piece  NumberOfPoints="1933" NumberOfCells="3640">
<Points>
<DataArray  type="Float64"  NumberOfComponents="3"  format="ascii">-0.4754269926387155 -0.001156688805764749 0  4.52457304378965 -0.001133585354472665 0  4.524538391313346 7.498866508012571 0  -0.4754616635614645 7.498843373908496 0  9.52457310142359 -0.001110556612546437 0  9.524538484680576 7.49888954428067 0  14.52457322008584 -0.001087612350544227 0  14.52453863381426 7.498912488294224 0  19.52457343707135 -0.001064733777855251 0  19.52453885403575 7.498935364409999 0  24.52457378334366 -0.001041886444711049 0  24.52453915882754 7.498958209153603 0  29.52457428346405 -0.001019026675251935 0  29.52453955936165 7.498981066929642 0  34.52457495661429 -0.0009961046901748377 0  34.52454006415027 7.499003987713049 0  39.52457581776279 -0.000973065869942721 0  39.52454067884741 7.499027026113988 0  44.52457687865084 -0.0009498508939264579 0  44.52454140609905 7.499050241372313 0  49.52457814850933 -0.0009263951350321116 0  49.52454224533593 7.49907369801355 0  54.52457963449353 -0.0009026274910473145 0  54.52454319241946 7.499097467030457 0  59.52458134183684 -0.0008784687117007838 0  59.52454423906122 7.499121627548371 0  64.52458327371257 -0.0008538291942026578 0  64.5245453719261 7.499146269005517 0  69.52458543075635 -0.0008286061464737154 0  69.52454657131054 7.499171493943959 0  74.52458781016118 -0.000802679939981564 0  74.52454780924482 7.499197421573563 0  79.52459040417297 -0.0007759093779450798 0  79.52454904680511 7.499224192351018 0  84.52459319770337 -0.0007481254723840769 0  84.52455023033667 7.49925197391713 0  89.52459616456377 -0.0007191231316712107 0  89.52455128616116 7.499280968866747 0  94.5245992614856 -0.0006886498756773623 0  94.52455211318215 7.499311424991408 0  99.52460241845512 -0.0006563902709085215 0  99.52455257262018 7.499343648824972 0  104.5246055227761 -0.0006219441507192096 0  104.52455247394 7.499378023489673 0  109.5246083921854 -0.000584795787505938 0  109.5245515560535 7.499415031835815 0  114.5246107284987 -0.0005442699880407863 0  114.5245494634775 7.499455285319206 0  119.5246120360097 -0.0004994697613808251 0  119.5245457192405 7.499499557060614 0  124.5246114752044 -0.0004491896109509257 0  124.5245397021658 7.499548812041346 0  129.5246075964429 -0.0003918016230644939 0  129.524530650478 7.499604214009156 0  134.5245978490048 -0.0003251283022334777 0  134.5245177469506 7.499667058733786 0  139.5245776660347 -0.0002463811729707417 0  139.5245004156385 7.499738523469465 0  144.5245387354606 -0.0001524926938215135 0  144.5244791284168 7.499819034945966 0  149.5244656328015 -4.220382250962777e-05 0  149.5244574196095 7.499907120756593 0  159.5244717418525 9.88426036471794e-19 0  164.524428052012 -8.781999247545901e-05 0  164.5244651795329 7.499895112967957 0  159.5244732858195 7.499960001606309 0  169.52441449658 -0.0001486026501375561 0  169.524456636858 7.499843013569815 0  174.5244150981368 -0.0001904839155906494 0  174.5244513401176 7.499805104685882 0  179.5244221805752 -0.0002184197685528465 0  179.5244493949644 7.499779181582705 0  184.5244319413088 -0.0002359162937745139 0  184.5244500398985 7.499762758732696 0  189.5244424858102 -0.0002455271414094434 0  189.5244524490517 7.499753738209255 0  194.5244528830582 -0.000249120939324672 0  194.5244559482288 7.499750476552722 0  199.5244626940866 -0.0002480719308802867 0  199.5244600423638 7.499751716419738 0  204.5244717320604 -0.0002433999148722559 0  204.5244643877107 7.49975650036405 0  209.5244799387121 -0.0002358708722431287 0  209.5244687544141 7.499764096315539 0  214.5244873201574 -0.0002260681218834182 0  214.5244729937296 7.499773939737547 0  219.5244939133534 -0.0002144423202197234 0  219.5244770129509 7.499785590582248 0  224.5244997685322 -0.0002013466729886965 0  224.5244807573679 7.49979870176811 0  229.5245049400598 -0.0001870619341960256 0  229.5244841977031 7.499812996164175 0  234.5245094817845 -0.0001718143639244498 0  234.5244873215311 7.499828249713843 0  239.524513444807 -0.0001557888057126743 0  239.5244901274855 7.499844278957567 0  244.5245168765815 -0.0001391383463144058 0  244.5244926214005 7.499860931713454 0  249.524519820753 -0.0001219915480871773 0  249.5244948137722 7.499878080043209 0  254.5245223174313 -0.0001044579254391722 0  254.5244967181382 7.499895614895666 0  259.524524403725 -8.663211910800027e-05 0  259.524498350082 7.499913442008212 0  264.5245261144736 -6.859706865306879e-05 0  264.52449972668 7.499931478783708 0  269.5245274831263 -5.042636818511186e-05 0  269.5245008662552 7.49994965196509 0  274.5245285427852 -3.218589303605798e-05 0  274.5245017883332 7.499967896017167 0  279.5245293273979 -1.393468799721471e-05 0  279.5245025137245 7.499986152207592 0  284.524529873109 4.275008270041751e-06 0  284.5245030646499 7.500004368467851 0  289.5245302196782 2.239888799252876e-05 0  289.5245034648192 7.500022500218693 0  294.5245304117823 4.040337111264349e-05 0  294.5245037394077 7.500040512469067 0  299.5245304996384 5.82709512679015e-05 0  299.5245039148919 7.500058383637088 0  304.5245305376891 7.60094333645666e-05 0  304.5245040190086 7.500076111678864 0  309.5245305784541 9.36666351618392e-05 0  309.5245040817971 7.500093723303666 0  4.524503541641555 14.99886670875611 0  -0.4754965143801611 14.99884352525915 0  9.524503623392997 14.99888974649487 0  14.5245037430227 14.99891267492004 0  19.52450390676017 14.99893553154241 0  24.52450411801983 14.99895835795828 0  29.52450437830781 14.99898120008286 0  34.52450468722705 14.99900410788803 0  39.52450504214042 14.99902713536301 0  44.52450543769332 14.9990503408728 0  49.52450586524115 14.99907378792665 0  54.52450631216239 14.99909754634349 0  59.52450676100992 14.99912169381896 0  64.52450718844378 14.99914631793007 0  69.52450756387609 14.99917151864745 0  74.52450784776214 14.99919741146106 0  79.52450798946778 14.9992241312582 0  84.52450792467029 14.99925183711917 0  89.5245075723065 14.99928071820103 0  94.52450683122287 14.99931100082944 0  99.52450557696375 14.99934295674418 0  104.5245036597067 14.99937691200148 0  109.5245009053841 14.99941325504993 0  114.5244971238927 14.9994524404331 0  119.5244921313926 14.99949498045817 0  124.5244857985207 14.99954140928616 0  129.5244781429037 14.99959218940831 0  134.5244694907215 14.99964750509446 0  139.5244607303537 14.99970684520197 0  144.5244536462523 14.99976820744177 0  149.5244511779345 14.9998265981189 0  164.524471951602 14.99984821917449 0  159.5244703987865 14.99988111652318 0  169.5244689884256 14.99981641450725 0  174.5244646554798 14.99979015733947 0  179.5244607148495 14.99977078351558 0  184.5244578528381 14.99975804195399 0  189.5244561862884 14.99975110475736 0  194.5244555821338 14.99974903283531 0  199.5244558245495 14.99975095843698 0  204.5244566930793 14.99975614068439 0  209.5244579941843 14.9997639689647 0  214.5244595702008 14.99977394764811 0  219.5244612982912 14.99978567632152 0  224.5244630856437 14.99979883106139 0  229.5244648638389 14.99981314850628 0  234.5244665836308 14.9998284129485 0  239.5244682105506 14.99984444610711 0  244.524469721395 14.99986109910432 0  249.5244711015104 14.99987824619176 0  254.5244723427278 14.99989577984768 0  259.524473441822 14.99991360695208 0  264.5244743993603 14.9999316458232 0  269.5244752188508 14.9999498239666 0  274.5244759061051 14.99996807644468 0  279.524476468739 14.99998634482286 0  284.5244769158068 15.00000457668782 0  289.5244772575322 15.00002272575174 0  294.5244775052608 15.00004075253224 0  299.5244776718391 15.00005862547532 0  304.5244777729349 15.00007632204077 0  309.524477830224 15.00009382841829 0  4.524468558947603 22.49886708002247 0  -0.4755314940134315 22.49884388866387 0  9.524468621313872 22.49889009163293 0  14.5244686986536 22.49891297952586 0  19.52446879196718 22.49893579251719 0  24.5244688992901 22.49895857744318 0  29.5244690165841 22.49898138184932 0  34.52446913798196 22.49900425537123 0  39.52446925562924 22.49902725061324 0  44.52446935929949 22.49905042393922 0  49.524469435882 22.49907383637252 0  54.5244694687823 22.49909755469444 0  59.5244694372517 22.49912165278896 0  64.52446931565414 22.4991462132668 0  69.5244690726862 22.4991713293949 0  74.52446867059797 22.49919710735122 0  79.52446806450747 22.49922366879883 0  84.52446720199275 22.49925115371964 0  89.52446602328686 22.49927972333316 0  94.52446446262854 22.49930956270667 0  99.52446245167107 22.49934088225636 0  104.5244599263671 22.4993739166192 0  109.5244568394575 22.49940891812789 0  114.5244531815614 22.49944614004861 0  119.524449014679 22.49948580144387 0  124.5244445220656 22.49952802064052 0  129.5244400764156 22.49957269792218 0  134.5244363210391 22.49961932208856 0  139.5244342406267 22.49966667694853 0  144.5244351608932 22.49971245418565 0  149.5244405535929 22.49975290582718 0  164.5244621453652 22.499795058424 0  159.5244571397365 22.49980660625667 0  169.5244629706089 22.4997805306331 0  174.5244611751915 22.49976675471181 0  179.5244581594281 22.49975582222714 0  184.5244548849003 22.49974860058026 0  189.5244518964126 22.49974521414465 0  194.5244494432373 22.49974540974064 0  199.5244475943136 22.4997487796587 0  204.5244463209018 22.49975488131482 0  209.5244455487617 22.49976329449179 0  214.5244451883704 22.4997736443925 0  219.524445151031 22.49978560732476 0  224.524445356541 22.49979890830306 0  229.5244457360936 22.49981331542267 0  234.524446232657 22.4998286334041 0  239.5244468001356 22.4998446974058 0  244.5244474020365 22.49986136753878 0  249.5244480100216 22.49987852419662 0  254.5244486025374 22.49989606417127 0  259.5244491635831 22.49991389747302 0  264.5244496816568 22.49993194476067 0  269.5244501488556 22.49995013529701 0  274.524450560127 22.49996840535556 0  279.5244509126593 22.49998669701215 0  284.5244512054285 22.50000495724526 0  289.5244514389466 22.50002313722851 0  294.5244516153375 22.500041191
[...]
<PointData  Scalars="p"> 
<DataArray  type="Float64"  Name="p"  format="ascii">1.0000000000000001e-01  1.0000000000000003e-01  1.0000028806916506e-01  1.0000000000000003e-01  1.0000000000000003e-01  1.0000146188705096e-01  1.0000000000000003e-01  1.0000220322649678e-01  1.0000000000000003e-01  1.0000307917006007e-01  1.0000000000000003e-01  1.0000370624185671e-01  1.0000000000000003e-01  1.0000392442195895e-01  1.0000000000000003e-01  1.0000461136026115e-01  1.0000000000000003e-01  1.0000476641772504e-01  1.0000000000000003e-01  1.0000493876147111e-01  1.0000000000000003e-01  1.0000649646758619e-01  1.0000000000000003e-01  1.0000400914315545e-01  1.0000000000000003e-01  1.0000525504692248e-01  1.0000000000000003e-01  1.0000479800982826e-01  1.0000000000000003e-01  1.0000512842137435e-01  1.0000000000000003e-01  1.0000355553842663e-01  1.0000000000000003e-01  1.0000345511041074e-01  1.0000000000000003e-01  1.0000153603387550e-01  1.0000000000000003e-01  9.9998898281890805e-02  1.0000000000000003e-01  9.9997453720589102e-02  1.0000000000000003e-01  9.9993282607701156e-02  1.0000000000000003e-01  9.9990254391136679e-02  1.0000000000000003e-01  9.9985012713796076e-02  1.0000000000000003e-01  9.9983064493994647e-02  1.0000000000000003e-01  9.9972308911255178e-02  1.0000000000000003e-01  9.9976807999830081e-02  1.0000000000000003e-01  9.9956099754298242e-02  1.0000000000000003e-01  9.9973029479486206e-02  1.0000000000000003e-01  9.9936242541702885e-02  1.0000000000000003e-01  9.9974258573502187e-02  1.0000000000000001e-01  9.9907452694296239e-02  1.0000000000000001e-01  1.0000000000000003e-01  1.0002165323847377e-01  1.0010457873206184e-01  1.0000000000000003e-01  9.9981883371535657e-02  1.0000000000000003e-01  1.0001283851986680e-01  1.0000000000000003e-01  9.9991015268244207e-02  1.0000000000000003e-01  9.9994860131801519e-02  1.0000000000000003e-01  9.9988569047438275e-02  1.0000000000000003e-01  9.9988221907597527e-02  1.0000000000000003e-01  9.9982777435706896e-02  1.0000000000000003e-01  9.9982172628746299e-02  1.0000000000000003e-01  9.9979495938034832e-02  1.0000000000000003e-01  9.9977485033454702e-02  1.0000000000000003e-01  9.9976119675893260e-02  1.0000000000000003e-01  9.9975009838609408e-02  1.0000000000000003e-01  9.9973601126666284e-02  1.0000000000000003e-01  9.9972988412502573e-02  1.0000000000000003e-01  9.9972366583842703e-02  1.0000000000000003e-01  9.9971656913104362e-02  1.0000000000000003e-01  9.9971418107017790e-02  1.0000000000000003e-01  9.9971070297521239e-02  1.0000000000000003e-01  9.9970949411775173e-02  1.0000000000000003e-01  9.9970588692675444e-02  1.0000000000000003e-01  9.9971040572338049e-02  1.0000000000000003e-01  9.9970129614884468e-02  1.0000000000000003e-01  9.9971662502155723e-02  1.0000000000000003e-01  9.9969110328242683e-02  1.0000000000000003e-01  9.9973599913114788e-02  1.0000000000000003e-01  9.9966202911873414e-02  1.0000000000000003e-01  9.9978668324880324e-02  1.0000000000000003e-01  9.9956765285744889e-02  1.0000000000000001e-01  1.0000000000000003e-01  9.9999250680402232e-02  1.0000000000000003e-01  9.9999947513906715e-02  1.0000005377651681e-01  1.0000004710963097e-01  9.9999546695148364e-02  9.9999742445229911e-02  9.9999419793982983e-02  9.9998461172890032e-02  9.9999290318127557e-02  9.9998615062415294e-02  9.9999479426923041e-02  9.9995482442717859e-02  9.9998772410621856e-02  9.9995917197557432e-02  9.9997914981739808e-02  9.9995544502240657e-02  9.9993427843524663e-02  9.9993160246721141e-02  9.9990700384912423e-02  9.9986533978094844e-02  9.9987126257840647e-02  9.9981597023677038e-02  9.9980582997115708e-02  9.9975049248972547e-02  9.9979087705699993e-02  9.9961976464375463e-02  9.9987424313487963e-02  9.9939102886727915e-02  1.0001328124613953e-01  9.9907332115889008e-02  9.9935335809621897e-02  1.0012038118084014e-01  1.0006582786647845e-01  1.0000080295781748e-01  1.0001424484611918e-01  1.0001113875011039e-01  1.0001401151267005e-01  1.0000428474883022e-01  1.0000758512690922e-01  1.0000399190842102e-01  1.0000110806443881e-01  1.0000041633888794e-01  9.9999389575921513e-02  9.9997003883966734e-02  9.9996769252728518e-02  9.9996015657033824e-02  9.9994747778266779e-02  9.9994406921660339e-02  9.9994005419714399e-02  9.9993065743749068e-02  9.9992908527884561e-02  9.9992295543295834e-02  9.9992114230240722e-02  9.9991122522813849e-02  9.9991904710232324e-02  9.9989525171904473e-02  9.9992654827771546e-02  9.9986040289877162e-02  9.9996488128606426e-02  9.9979309415127546e-02  1.0000000000000003e-01  9.9998302964576818e-02  1.0000000000000003e-01  9.9999502419968953e-02  9.9999505215288956e-02  9.9999146709772155e-02  9.9999543943210395e-02  9.9999172976872192e-02  9.9997914198407825e-02  9.9998383532253585e-02  9.9997760961222829e-02  9.9996893372314488e-02  9.9996163414106776e-02  9.9999865279353922e-02  9.9990362739040314e-02  9.9997023399818613e-02  9.9994131172954984e-02  9.9992050543352778e-02  9.9992796607505985e-02  9.9989396598121796e-02  9.9984443671913129e-02  9.9984554779037435e-02  9.9979915688306761e-02  9.9972417416307469e-02  9.9974702769591403e-02  9.9963671977004287e-02  9.9965773038510328e-02  9.9952584853490289e-02  9.9968418609914053e-02  9.9926357434115945e-02  1.0000366669044730e-01  9.9857716007258512e-02  9.9996523789363592e-02  1.0005124659548671e-01  1.0005440727263795e-01  1.0000396250614015e-01  1.0001601127825821e-01  1.0002240373036420e-01  1.0000037858344232e-01  1.0001264737991612e-01  1.0000466341628407e-01  9.9999343354300788e-02  9.9998764595787978e-02  9.9997020641042739e-02  9.9992198242628172e-02  9.9992143032271719e-02  9.9990639410547047e-02  9.9988053417722766e-02  9.9987714542385031e-02  9.9986965921852758e-02  9.9985330169960959e-02  9.9984929421979202e-02  9.9984457212810490e-02  9.9983164785465775e-02  9.9983104915717894e-02  9.9981954475211909e-02  9.9982271549932999e-02  9.9980007670581378e-02  9.9982434975496304e-02  9.9976818707366674e-02  9.9985589795934929e-02  9.9967271452516285e-02  1.0000000000000003e-01  9.9997607116377452e-02  1.0000000000000003e-01  9.9998764037979665e-02  9.9997593367622997e-02  9.9998154293456293e-02  9.9997612076856313e-02  9.9996056972904465e-02  9.9996324413642868e-02  9.9995216301295917e-02  9.9993249998912820e-02  9.9993855678666671e-02  9.9993338066012474e-02  9.9988698804839390e-02  9.9996659228204957e-02  9.9985374026254722e-02  9.9988551498757614e-02  9.9988855792283990e-02  9.9987597358486294e-02  9.9981613625491086e-02  9.9983829690199547e-02  9.9977828533499374e-02  9.9972486940443764e-02  9.9971668347547810e-02  9.9968044403990500e-02  9.9956459606890508e-02  9.9966387852120947e-02  9.9943697129306480e-02  9.9968896633421719e-02  9.9920944783391086e-02  1.0000591116259891e-01  9.9852670843397273e-02  1.0001767244405181e-01  1.0008092463981356e-01  1.0002227923468347e-01  1.0001396489142758e-01  1.0006059579442017e-01  9.9995811876166948e-02  1.0003329910182922e-01  1.0001736246361331e-01  1.0001367412203653e-01  1.0001242447407165e-01  1.0001169492947533e-01  1.0000388316849898e-01  1.0000484686970418e-01  1.0000274620388380e-01  9.9999061187675237e-02  9.9998632540780355e-02  9.9997753364238204e-02  9.9995291154634430e-02  9.9995054193663321e-02  9.9994210548322374e-02  9.9992753077888019e-02  9.9992014601422610e-02  9.9991672643116022e-02  9.9989839731766117e-02  9.9990345144252812e-02  9.9987545639111913e-02  9.9990216558056760e-02  9.9983407171843841e-02  9.9992765002764217e-02  9.9975605854320318e-02  1.0000000000000003e-01  9.9996903407265705e-02  1.0000000000000003e-01  9.9997659875672940e-02  9.9997052267670902e-02  9.9996951555117300e-02  9.9995546416554892e-02  9.9995832026610068e-02  9.9994777885434288e-02  9.9992300416851768e-02  9.9992862787574077e-02  9.9991837687104457e-02  9.9987687297476813e-02  9.9990725584633525e-02  9.9986536744440080e-02  9.9990747118868434e-02  9.9980986610357661e-02  9.9986012839331451e-02  9.9979370998244652e-02  9.9983685612927420e-02  9.9978088039920601e-02  9.9971140773000372e-02  9.9973465193642377e-02  9.9965199034728960e-02  9.9959372365729021e-02  9.9956688095607149e-02  9.9956495693137443e-02  9.9936174240030026e-02  9.9964292672793276e-02  9.9909717615968244e-02  1.0000287082859170e-01  9.9834249636432948e-02  9.9994970265311012e-02  1.0008006868412087e-01  1.0004630472587356e-01  1.0003643478135717e-01  1.0001292784888957e-01  1.0004222263754607e-01  1.0002157508493581e-01  1.0001845271581626e-01  1.0001678247169704e-01  1.0001985225770819e-01  1.0000619892976347e-01  1.0000942691970913e-01  1.0000608466738893e-01  1.0000057140757632e-01  1.0000035495921301e-01  9.9999183953542778e-02  9.9995282109418424e-02  9.9995124392690968e-02  9.9994256843362814e-02  9.9991887057536533e-02  9.9991523519754488e-02  9.9990538763139847e-02  9.9989192835254509e-02  9.9987928585216934e-02  9.9988017787325273e-02  9.9985111259079162e-02  9.9987123658794336e-02  9.9981085125763536e-02  9.9989442866119133e-02  9.9971763935991192e-02  1.0000000000000003e-01  9.9996096716649607e-02  1.0000000000000003e-01  9.9997373716374641e-02  9.9996035866551772e-02  9.9995035664822526e-02  9.9994932029973893e-02  9.9994236786334637e-02  9.9991785659727744e-02  9.9992047765939007e-02  9.9990715644288242e-02  9.9987218717643364e-02  9.9988228362836620e-02  9.9985645027259318e-02  9.9983443589004878e-02  9.9982735386628288e-02  9.9989911541417495e-02  9.9969687540114871e-02  9.9982627044375563e-02  9.9976081090191446e-02  9.9971529767515818e-02  9.9973621447771707e-02  9.9967993406855832e-02  9.9957115827132376e-02  9.9963015353110710e-02  9.9949857854846821e-02  9.9949030533673835e-02  9.9938066846045753e-02  9.9957207151367633e-02  9.9903348189492272e-02  1.0000501900748761e-01  9.9821934374637919e-02  1.0002435870030907e-01  1.0005378001530009e-01  1.0006180567484112e-01  1.0001265302923056e-01  1.0004022492438852e-01  1.0003377329020063e-01  1.0003604091959789e-01  1.0001663034270988e-01  1.0003617343500266e-01  1.0001080823906926e-01  1.0002125547566448e-01  1.0001537617226344e-01  1.0000840166723428e-01  1.0000808372507057e-01  1.0000709358031379e-01  1.0000142437905778e-01  1.0000166967901729e-01  1.0000038338709674e-01  9.9997168144012397e-02  9.9996806201330848e-02  9.9996146578249859e-02  9.9993647363384619e-02  9.9993407319204752e-02  9.9991848847138382e-02  9.9991211417265566e-02  9.9988490327160340e-02  9.9990547799747170e-02  9.9983948140736925e-02  9.9992102935576338e-02  9.9975336518209681e-02  1.0000000000000003e-01  9.9995673160425763e-02  1.0000000000000003e-01  9.9996837965354579e-02  9.9994523662398693e-02  9.9994784130077605e-02  9.9993744644687035e-02  9.9991572111150215e-02  9.9991912282628909e-02  9.9990572704942784e-02  9.9987184069179932e-02  9.9988204650272541e-02  9.9985614335456774e-02  9.9981552474292371e-02  9.9982769047146022e-02  9.9982680048209469e-02  9.9973440720393117e-02  9.9988126537149197e-02  9.9967135478222183e-02  9.9970737679140068e-02  9.9973133979862613e-02  9.9969199478875864e-02  9.9959701638325876e-02  9.9963313245236204e-02  9.9956416040489784e-02  9.9942226000052370e-02  9.9953420705019766e-02  9.9931667131627308e-02  9.9948257374349897e-02  9.9907313220893176e-02  9.9994846039304960e-02  9.9817149370309124e-02  1.0003749228032499e-01  1.0006649851091952e-01  1.0003881753411480e-01  1.0003675989151539e-01  1.0005050732920653e-01  1.0002187203431913e-01  1.0002762264658085e-01  1.0005036479202534e-01  1.0000870480999448e-01  1.0002955040627731e-01  1.0002056691000182e-01  1.0001448190491806e-01  1.0001267818559190e-01  1.0001276775887939e-01  1.0000440333614249e-01  1.0000511837950453e-01  1.0000374199184731e-01  9.9999318141678784e-02  9.9998894182641074e-02  9.9998034737483241e-02  9.9995184706761067e-02  9.9994549837994093e-02  9.9993895729815541e-02  9.9991278252026902e-02  9.9991307732870086e-02  9.9988576230666079e-02  9.9989781080177365e-02  9.9983708690328979e-02  9.9991360051951889e-02  9.9974581481113614e-02  1.0000000000000003e-01  9.9995166295226742e-02  1.0000000000000003e-01  9.9996042059560808e-02  9.9994427730047269e-02  9.9993984453685278e-02  9.9991643126092489e-02  9.9991765169011898e-02  9.9990449713420984e-02  9.9987445438794939e-02  9.9988181150606120e-02  9.9986425288341022e-02  9.9981697255472568e-02  9.9982951890808566e-02  9.9981037634861269e-02  9.9974456107337378e-02  9.9980364512386566e-02  9.9972261722252098e-02  9.9978552333025300e-02  9.9963089224802196e-02  9.9970098601970467e-02  9.9958449069674854e-02  9.9967683088834067e-02  9.9957112646052643e-02  9.9948803545650236e-02  9.9950179335715664e-02  9.9947591057155366e-02  9.9924073657347762e-02  9.9954117857060820e-02  9.9902410482990617e-02  9.9986343897455587e-02  9.9824399643465303e-02  1.0002176109537494e-01  1.0007697258071901e-01  1.0005592355055033e-01  1.0005005805810707e-01  1.0003620708132460e-01  1.0003551160324275e-01  1.0004482423147432e-01  1.0001728373855275e-01  1.0004342353209009e-01  1.0002123319853957e-01  1.0002353024846189e-01  1.0001708918363422e-01  1.0002240309755643e-01  1.0000921751197576e-01  1.0001152924404140e-01  1.0000940125773836e-01  1.0000368101810066e-01  1.0000349149778658e-01  1.0000274754545971e-01  9.9998436665502954e-02  9.9998304755891221e-02  9.9997236395042072e-02  9.9994928488902748e-02  9.9993626316325523e-02  9.9993510794765997e-02  9.9989876022861218e-02  9.9991554381768405e-02  9.9985476732090572e-02  9.9992479823297176e-02  9.9976427107899432e-02  1.0000000000000003e-01  9.9994604317185223e-02  1.0000000000000003e-01  9.9996062471958164e-02  9.9993892621437527e-02  9.9992525075834796e-02  9.9991887994384188e-02  9.9990826254518397e-02  9.9987882794819155e-02  9.9988175699596171e-02  9.9986889610667720e-02  9.9983026586356827e-02  9.9983667231610923e-02  9.9981590358895311e-02  9.9975776915754391e-02  9.9978850387408488e-02  9.9974608719021779e-02  9.9970573555418482e-02  9.9969960716647946e-02  9.9979926966812890e-02  9.9948700974390237e-02  9.9968257645247457e-02  9.9959112442286946e-02  9.9949925137067394e-02  9.9958224922002431e-02  9.9945367721502837e-02  9.9938285612922867e-02  9.9935235669177461e-02  9.9947328335830338e-02  9.9896748713892147e-02  9.9989770339055845e-02  9.9825529652564179e-02  1.0003161879159511e-01  1.0006495792282966e-01  1.0006697776141764e-01  1.0003500539622918e-01  1.0004891858986865e-01  1.0005042004923435e-01  1.0002853361114120e-01  1.0003274981776451e-01  1.0003158766853372e-01  1.0003346997604574e-01  1.0001482715865243e-01  1.0003144118122742e-01  1.0001139076486429e-01  1.0001796737099446e-01  1.0001429132739237e-01  1.0000760125569774e-01  1.0000689385566093e-01  1.0000647313825443e-01  1.0000112297476775e-01  1.0000097062611966e-01  9.9999950732592990e-02  9.9996424466266942e-02  9.9996149719242311e-02  9.9994751477475691e-02  9.9993138626733175e-02  9.9990680243123312e-02  9.9992050840918181e-02  9.9985612690146788e-02  9.9992542273832544e-02  9.9976836854451176e-02  1.0000000000000003e-01  9.9994362101155823e-02  1.0000000000000003e-01  9.9995827834190018e-02  9.9992809027469626e-02  9.9992840825727528e-02  9.9991283823517782e-02  9.9988771440620822e-02  9.9988639698143630e-02  9.9987245378571704e-02  9.9983627318817422e-02  9.9984742221125564e-02  9.9982657546743167e-02  9.9977418653596800e-02  9.9979479046917855e-02  9.9976454581903643e-02  9.9970221258937481e-02  9.9972354201721875e-02  9.9972130119753755e-02  9.9957293548140577e-02  9.9980067705310066e-02  9.9948454496957440e-02  9.9952953845749815e-02  9.9957382792859401e-02  9.9953775669860204e-02  9.9935537665135729e-02  9.9952162933954120e-02  9.9930098288985650e-02  9.9937747482424524e-02  9.9910408140183510e-02  9.9981201303302111e-02  9.9825719979124927e-02  1.0004132576547807e-01  1.0007602657030208e-01  1.0005449496297243e-01  1.0004463645620261e-01  1.0006150007406281e-01  1.0003647373874361e-01  1.0004135563513009e-01  1.0004159258753388e-01  1.0002552868345352e-01  1.0002155374583448e-01  1.0004308777146631e-01  1.0000886488403282e-01  1.0002539520810605e-01  1.0001819693573175e-01  1.0001370877331044e-01  1.0001095061725476e-01  1.0001185393210610e-01  1.0000432065242980e-01  1.0000455954720069e-01  1.0000370297562948e-01  9.9999527061733207e-02  9.9998552815119990e-02  9.9998071339359632e-02  9.9994628615951306e-02  9.9994687352600545e-02  9.9992075866236707e-02  9.9992479690255986e-02  9.9986845577955438e-02  9.9993333224554018e-02  9.9978027458919455e-02  1.0000000000000003e-01  9.9994129590045666e-02  1.0000000000000003e-01  9.9995379249433053e-02  9.9993138202138052e-02  9.9992619149598574e-02  9.9989914537645566e-02  9.9989680146246998e-02  9.9988169258245552e-02  9.9984858894343415e-02  9.9985350105813275e-02  9.9983892268110983e-02  9.9979220701284677e-02  9.9980821914265439e-02  9.9978517123577498e-02  9.9972328025051196e-02  9.9974770167727947e-02  9.9971969319850321e-02  9.9962050359793317e-02  9.9971106701209816e-02  9.9959653792156669e-02  9.9966724896154505e-02  9.9947858470876491e-02  9.9954904947763282e-02  9.9940485041837515e-02  9.9952202984900429e-02  9.9945729593363716e-02  9.9920981351029572e-02  9.9952892905956936e-02  9.9907863152643814e-02  9.9968824749267438e-02  9.9845767447313716e-02  1.0002582449654632e-01  1.0009951325856062e-01  1.0006036729824873e-01  1.0005578507043510e-01  1.0004834261229358e-01  1.0004442150156967e-01  1.0005179957677757e-01  1.0003222506544626e-01  1.0003062443462631e-01  1.0003458652272319e-01  1.0001483715813687e-01  1.0003357390096627e-01  1.0001637537871547e-01  1.0001959094332447e-01  1.0001293670631918e-01  1.0001807311828076e-01  1.0000715525088764e-01  1.0000834060541561e-01  1.0000705058447454e-01  1.0000182453716160e-01  1.0000151878720417e-01  1.0000069005387068e-01  9.9996892005560584e-02  9.9995860958315003e-02  9.9995667868680471e-02  9.9991796826434734e-02  9.9993109857827958e-02  9.9987685766918910e-02  9.9993317094841896e-02  9.9978823798099803e-02  1.0000000000000003e-01  9.9993768962758051e-02  1.0000000000000003e-01  9.9995586827634833e-02  9.9992991157497518e-02  9.9991698555379149e-02  9.9990635118957713e-02  9.9989481322279805e-02  9.9986353693513538e-02  9.9986328477287681e-02  9.9984926821277506e-02  9.9981058769872330e-02  9.9981723634834554e-02  9.9980223050963976e-02  9.9974851059500144e-02  9.9976875359000281e-02  9.9974395604617974e-02  9.9965853880333078e-02  9.9970844562483188e-02  9.9964859442237264e-02  9.9958948856158261e-02  9.9958946009138641e-02  9.9972747353799837e-02  9.9927889896570282e-02  9.9958809751905867e-02  9.9942133294200139e-02  9.9936094136817186e-02  9.9939899316966729e-02  9.9948228337213021e-02  9.9897571006122843e-02  9.9984375302642037e-02  9.9847588870119172e-02  1.0001781014096736e-01  1.0010751957673023e-01  1.0007574190729368e-01  1.0004350211283669e-01  1.0005247064217079e-01  1.0005515777402307e-01  1.0004038250262259e-01  1.0003742260720738e-01  1.0004267916018618e-01  1.0002285184952339e-01  1.0002434547307758e-01  1.0002239945199884e-01  1.0002703334687689e-01  1.0000962068148339e-01  1.0002477937861545e-01  1.0000868094729246e-01  1.0001335174426489e-01  1.0001070378739771e-01  1.0000521487611147e-01  1.0000402154531529e-01  1.0000391850845694e-01  9.9999202626233519e-02  9.9998883944419165e-02  9.9997274085723106e-02  9.9994991112072884e-02  9.9992787122790874e-02  9.9994026909554057e-02  9.9987881388469688e-02  9.9993866564621142e-02  9.9979929091979933e-02  1.0000000000000003e-01  9.9993868050635995e-02  1.0000000000000003e-01  9.9995742665572013e-02  9.9992515062241077e-02  9.9992527246341806e-02  9.9990812162275039e-02  9.9988400599480859e-02  9.9987915107270092e-02  9.9986507180218287e-02  9.9982989810240119e-02  9.9983609459236789e-02  9.9981860544047452e-02  9.9977137672985120e-02  9.9979010600741464e-02  9.9977240419271599e-02  9.9970187252821960e-02  9.9973217350207810e-02  9.9969662328836029e-02  9.9960617694134904e-02  9.9964749363805561e-02  9.9964362578716340e-02  9.9944187117816108e-02  9.9975146298744585e-02  9.9935080319855943e-02  9