<?xml version="1.0"?>
<VTKFile type="UnstructuredGrid"  version="0.1"  >
<UnstructuredGrid>
<Piece  NumberOfPoints="1933" NumberOfCells="3640">
<Points>
<DataArray  type="Float64"  NumberOfComponents="3"  format="ascii">0.4752928793830583 0.001854240928697006 0  5.475292867555999 0.001792118431519102 0  5.475386093311854 7.501792114729253 0  0.4753860925612616 7.501854213403933 0  10.47529283759384 0.00172998150517101 0  10.4753861054871 7.501729990625438 0  15.47529279716275 0.001667785633334764 0  15.47538613978339 7.501667801777951 0  20.47529276370958 0.001605499766989826 0  20.47538620891689 7.50160551990703 0  25.47529275913176 0.001543102865786822 0  25.47538632785666 7.501543125564803 0  30.47529280735803 0.001480581030104614 0  30.47538651365715 7.501480605791223 0  35.47529293349861 0.001417925304421122 0  35.47538678534249 7.501417952201693 0  40.47529316384764 0.00135513009831539 0  40.47538716396574 7.501355159575533 0  45.4752935263592 0.001292192116831845 0  45.47538767285755 7.501292224887639 0  50.47529405140666 0.001229109693165357 0  50.47538833804845 7.501229146704714 0  55.4752947727418 0.00116588243892901 0  55.47538918884874 7.501165924878985 0  60.47529572863287 0.001102511153831738 0  60.47539025857834 7.501102560492773 0  65.47529696320122 0.001038997961664481 0  65.47539158545199 7.501039056029322 0  70.4752985280068 0.0009753466623569477 0  70.47539321363556 7.500975415767487 0  75.4753004839645 0.0009115633119862284 0  75.47539519450154 7.500911646421517 0  80.47530290371014 0.0008476570667201214 0  80.47539758812087 7.500847758075605 0  85.47530587458975 0.0007836413569553696 0  85.47540046503666 7.50078376550151 0  90.47530950252496 0.0007195355012654861 0  90.47540390836693 7.50071969000606 0  95.47531391713468 0.000655366938579869 0  95.47540801627257 7.500655562050575 0  100.4753192786932 0.0005911743750436562 0  100.4754129047843 7.500591425047347 0  105.4753257878334 0.0005270123569623327 0  105.4754187108741 7.500527341027348 0  110.475333699435 0.0004629581921576112 0  110.4754255954074 7.500463399398138 0  115.4753433430179 0.0003991229603032493 0  115.4754337450912 7.500399730979106 0  120.4753551533852 0.0003356700415015726 0  120.4754433714559 7.500336531304161 0  125.475369717537 0.0002728481956728366 0  125.4754547028256 7.500274100546522 0  130.4753878473532 0.0002110541783951075 0  130.4754679613161 7.500212913652992 0  135.4754106923531 0.0001509581048522254 0  135.4754833100365 7.500153745567312 0  140.475439912048 9.376845767782615e-05 0  140.4755007449179 7.500097895850971 0  145.4754779282624 4.182421500998587e-05 0  145.4755198930355 7.500047586474557 0  150.4755282581476 -1.019618894604309e-19 0  150.4755396811544 7.500006635540241 0  160.4755282581476 3.168678342803539e-19 0  165.4754680607863 -5.734262719442e-05 0  165.475516006899 7.499937336425057 0  160.4755375433477 7.499985935740902 0  170.4754253934021 -0.0001190666580001915 0  170.4754941042471 7.499878160323603 0  175.4753939479584 -0.0001836933805286296 0  175.4754744133609 7.499814602133884 0  180.475370145579 -0.0002498632631899215 0  180.4754574785946 7.499749010162123 0  185.4753517653929 -0.0003167575387385174 0  185.4754431979845 7.49968246719251 0  190.4753373583221 -0.0003839195802874798 0  190.4754312695399 7.49961552995226 0  195.4753259423833 -0.0004510961440849997 0  195.4754213534265 7.499548501843128 0  200.4753168292767 -0.000518145144481066 0  200.4754131314924 7.499481553635211 0  205.4753095213795 -0.0005849864059878274 0  205.4754063259575 7.499414782728657 0  210.4753036488175 -0.000651575523624075 0  210.4754007016876 7.499348244088929 0  215.4752989300124 -0.0007178896302462805 0  215.4753960623592 7.499281967157067 0  220.4752951462614 -0.0007839193160714925 0  220.4753922448902 7.499215965503154 0  225.4752921248744 -0.0008496638077660512 0  225.4753891138972 7.499150242584158 0  230.4752897276488 -0.0009151279448663511 0  230.4753865568012 7.499084795328662 0  235.4752878427568 -0.0009803201989611512 0  235.4753844797173 7.499019616455892 0  240.4752863788697 -0.001045251334137456 0  240.4753828040792 7.498954696021093 0  245.47528526079 -0.001109933487168149 0  245.47538146389 7.498890022462362 0  250.4752844261236 -0.001174379540935466 0  250.475380403486 7.498825583307196 0  255.4752838226883 -0.001238602717496592 0  255.475379575712 7.498761365631458 0  260.4752834064553 -0.00130261634910247 0  260.4753789404299 7.498697356324404 0  265.4752831398862 -0.001366433806999306 0  265.4753784632952 7.498633542188172 0  270.475282990574 -0.001430068584486145 0  270.4753781147581 7.498569909882243 0  275.4752829301337 -0.00149353454530167 0  275.4753778692565 7.498506445709249 0  280.4752829333187 -0.001556846361897065 0  280.4753777045816 7.498443135227516 0  285.4752829773834 -0.001620020178896634 0  285.4753776014057 7.498379962668714 0  290.4752830417626 -0.001683074537781242 0  290.4753775429664 7.498316910140447 0  295.4752831082266 -0.001746031567352741 0  295.4753775148927 7.498253956613015 0  300.4752831618002 -0.001808918315816706 0  300.4753775051366 7.498191076741414 0  305.4752831929415 -0.001871767675021851 0  305.4753775039291 7.498128239663698 0  310.4752832017819 -0.001934616956734426 0  310.4753775036277 7.498065407941357 0  5.475479218930287 15.00179212875841 0  0.4754792124023345 15.00185415379577 0  10.47547924751174 15.00173004580882 0  15.47547931104671 15.00166787926552 0  20.47547942091739 15.00160560986939 0  25.47547958845885 15.00154322369709 0  30.47547982583659 15.00148071110255 0  35.47548014653744 15.00141806571582 0  40.47548056567383 15.00135528361252 0  45.47548110022484 15.0012923627063 0  50.47548176927909 15.00122930237263 0  55.47548259430855 15.00116610329587 0  60.47548359948186 15.00110276753195 0  65.47548481201319 15.00103929878929 0  70.4754862625325 15.00097570294763 0  75.4754879854512 15.00091198885833 0  80.4754900192784 15.00084816950232 0  85.47549240681305 15.00078426363036 0  90.4754951950884 15.00072029808364 0  95.4754984348637 15.00065631110741 0  100.4755021793317 15.00059235715456 0  105.4755064815125 15.0005285139707 0  110.4755113895123 15.00046489322351 0  115.4755169384269 15.00040165667252 0  120.4755231371976 15.00033904095888 0  125.4755299483743 15.00027739551421 0  130.475537259071 15.00021723937517 0  135.4755448438154 15.00015934183862 0  140.4755523274817 15.00010482204606 0  145.4755591741329 15.0000552220062 0  150.4755647590576 15.00001236791987 0  165.4755564301358 14.99992406715729 0  160.4755623543503 14.99997211623175 0  170.4755487920201 14.9998683833212 0  175.4755401584461 14.99980770952414 0  180.4755314035806 14.99974414314626 0  185.47552308097 14.99967897725853 0  190.4755154731385 14.99961297693682 0  195.4755086896194 14.99954659471984 0  200.4755027404874 14.99948010025978 0  205.475497583191 14.99941365500659 0  210.4754931504494 14.99934735524612 0  215.4754893661389 14.99928125723236 0  220.4754861539336 14.99921539214443 0  225.4754834417071 14.99914977519081 0  230.475481163519 14.99908441128917 0  235.4754792602629 14.99901929869815 0  240.4754776796018 14.99895443139122 0  245.4754763755462 14.99888980063304 0  250.4754753078788 14.99882539603111 0  255.4754744415337 14.99876120622643 0  260.475473745992 14.99869721932205 0  265.4754731947212 14.99863342310852 0  270.4754727646742 14.99856980511951 0  275.4754724358476 14.99850635253397 0  280.4754721908951 14.99844305193087 0  285.4754720147783 14.99837988889657 0  290.4754718944263 14.99831684748478 0  295.4754718183559 14.99825390953018 0  300.4754717761769 14.99819105380488 0  305.4754717578768 14.99812825492046 0  310.4754717527185 14.99806548152117 0  5.475572140642002 22.50179220481525 0  0.4755721315512675 22.50185411934507 0  10.47557217172809 22.50173018779849 0  15.47557223811099 22.50166806081972 0  20.47557234974658 22.50160581674378 0  25.47557251506571 22.50154344968279 0  30.47557274211001 22.50148095528393 0  35.4755730392236 22.50141833071523 0  40.47557341545373 22.5013555745384 0  45.47557388076778 22.50129268659095 0  50.47557444615506 22.50122966795251 0  55.47557512364948 22.5011665210417 0  60.47557592628385 22.50110324987821 0  65.47557686796597 22.50103986054485 0  70.47557796324664 22.50097636189592 0  75.47557922692916 22.50091276657785 0  80.47558067344366 22.50084909246064 0  85.47558231587625 22.50078536462469 0  90.47558416449871 22.50072161811515 0  95.47558622458875 22.50065790177297 0  100.4755884932657 22.50059428358678 0  105.475590955004 22.50053085819232 0  110.4755935754572 22.50046775736872 0  115.4755962933027 22.50040516459981 0  120.475599010131 22.50034333483069 0  125.4756015792224 22.5002826200483 0  130.4756037957363 22.50022349927183 0  135.4756053938452 22.50016660578185 0  140.4756060606128 22.50011273055878 0  145.4756054797393 22.50006275158802 0  150.4756034116219 22.5000173883765 0  165.4756032328883 22.49991047110953 0  160.4756009896853 22.49995979325715 0  170.4756037590852 22.49985601845108 0  175.4756027318796 22.49979745661511 0  180.4756005577603 22.49973596562953 0  185.4755976810297 22.4996725441474 0  190.4755944661207 22.49960792382252 0  195.4755911737475 22.49954260768477 0  200.4755879743716 22.49947693145449 0  205.4755849703919 22.49941111567565 0  210.4755822165618 22.49934530352872 0  215.4755797358971 22.49927958664622 0  220.4755775311484 22.49921402232021 0  225.4755755927174 22.49914864489481 0  230.4755739039605 22.49908347332629 0  235.4755724446593 22.49901851623596 0  240.4755711932411 22.49895377531756 0  245.4755701281638 22.49888924765341 0  250.4755692287479 22.49882492729544 0  255.4755684756504 22.49876080634001 0  260.4755678511062 22.49869687564492 0  265.4755673390221 22.49863312528501 0  270.4755669249753 22.49856954480987 0  275.475566596145 22.49850612334628 0  280.4755663411902 22.49844284957623 0  285.4755661500654 22.49837971161528 0  290.4755660137545 22.49831669681524 0  295.4755659238793 22.49825379151391 0  300.4755658721197 22.4981909
[...]
<PointData  Scalars="p"> 
<DataArray  type="Float64"  Name="p"  format="ascii">1.0000000000000001e-01  1.0000000000000003e-01  1.0000147464605723e-01  1.0000000000000003e-01  1.0000000000000003e-01  1.0000063343319185e-01  1.0000000000000003e-01  1.0000100699873808e-01  1.0000000000000003e-01  1.0000068482913214e-01  1.0000000000000003e-01  1.0000085989276192e-01  1.0000000000000003e-01  1.0000204492032723e-01  1.0000000000000003e-01  1.0000194732059707e-01  1.0000000000000003e-01  1.0000280832137157e-01  1.0000000000000003e-01  1.0000423418458838e-01  1.0000000000000003e-01  1.0000275129892244e-01  1.0000000000000003e-01  1.0000943165900855e-01  1.0000000000000003e-01  1.0001009888273811e-01  1.0000000000000003e-01  1.0001291671747198e-01  1.0000000000000003e-01  1.0001442730800483e-01  1.0000000000000003e-01  1.0001993573210631e-01  1.0000000000000003e-01  1.0002153460381702e-01  1.0000000000000003e-01  1.0002638122980534e-01  1.0000000000000003e-01  1.0003341214196199e-01  1.0000000000000003e-01  1.0003611929118450e-01  1.0000000000000003e-01  1.0004485016954889e-01  1.0000000000000003e-01  1.0005060969263864e-01  1.0000000000000003e-01  1.0006095619134558e-01  1.0000000000000003e-01  1.0006195438001919e-01  1.0000000000000003e-01  1.0008544513523465e-01  1.0000000000000003e-01  1.0006984886286618e-01  1.0000000000000003e-01  1.0011644582584402e-01  1.0000000000000003e-01  1.0007096162574633e-01  1.0000000000000003e-01  1.0015630838393141e-01  1.0000000000000003e-01  1.0006089936624697e-01  1.0000000000000001e-01  1.0021824189493624e-01  1.0000000000000001e-01  1.0000000000000003e-01  9.9872012225144371e-02  9.9687563242897390e-02  1.0000000000000003e-01  9.9985313316437466e-02  1.0000000000000003e-01  9.9903324889091566e-02  1.0000000000000003e-01  9.9952967894834197e-02  1.0000000000000003e-01  9.9941077481311369e-02  1.0000000000000003e-01  9.9954773533290187e-02  1.0000000000000003e-01  9.9951974042294764e-02  1.0000000000000003e-01  9.9963571674252724e-02  1.0000000000000003e-01  9.9963371138518040e-02  1.0000000000000003e-01  9.9968147939509477e-02  1.0000000000000003e-01  9.9971938981127301e-02  1.0000000000000003e-01  9.9974602282797698e-02  1.0000000000000003e-01  9.9976574446208125e-02  1.0000000000000003e-01  9.9979756898703254e-02  1.0000000000000003e-01  9.9981204971078583e-02  1.0000000000000003e-01  9.9982751643371198e-02  1.0000000000000003e-01  9.9984600755388092e-02  1.0000000000000003e-01  9.9985682756159294e-02  1.0000000000000003e-01  9.9986589537069584e-02  1.0000000000000003e-01  9.9987801944611474e-02  1.0000000000000003e-01  9.9988388006703621e-02  1.0000000000000003e-01  9.9989124547956248e-02  1.0000000000000003e-01  9.9989566132676067e-02  1.0000000000000003e-01  9.9990408339805048e-02  1.0000000000000003e-01  9.9990084549857028e-02  1.0000000000000003e-01  9.9991705740355374e-02  1.0000000000000003e-01  9.9989979946471019e-02  1.0000000000000003e-01  9.9993662083310203e-02  1.0000000000000003e-01  9.9987965637483689e-02  1.0000000000000001e-01  1.0000000000000003e-01  1.0000363846239248e-01  1.0000000000000003e-01  1.0000308290550526e-01  1.0000317566454661e-01  1.0000365626682446e-01  1.0000538555374427e-01  1.0000508873011632e-01  1.0000571717857211e-01  1.0000853057226988e-01  1.0000688656316603e-01  1.0000839679565189e-01  1.0000892150402896e-01  1.0001737816049677e-01  1.0001248521923040e-01  1.0002007804881570e-01  1.0001603042239474e-01  1.0002045083801524e-01  1.0002613498564691e-01  1.0002536802622954e-01  1.0002914724120872e-01  1.0003871744836562e-01  1.0003474101935636e-01  1.0004541702888931e-01  1.0004608084175598e-01  1.0005760804817428e-01  1.0004342379025469e-01  1.0008615683274756e-01  1.0001948852145053e-01  1.0014003194538035e-01  9.9955779125490793e-02  1.0022097881768040e-01  1.0014948435586504e-01  9.9561051187635627e-02  9.9835900627268701e-02  9.9981422009658982e-02  9.9954710746902695e-02  9.9963920005986112e-02  9.9950272685238317e-02  9.9973371587937773e-02  9.9963819032561962e-02  9.9969237034093328e-02  9.9974767393473843e-02  9.9975604167014537e-02  9.9976341598397189e-02  9.9981420695640241e-02  9.9981702941096637e-02  9.9982795370364960e-02  9.9985660877654300e-02  9.9986342583971405e-02  9.9987100070373536e-02  9.9989050961859699e-02  9.9989728346818560e-02  9.9990362137241162e-02  9.9991799935233994e-02  9.9992242916559684e-02  9.9993214424085097e-02  9.9993605885859926e-02  9.9995182576860644e-02  9.9994087197154580e-02  9.9997721924411698e-02  9.9993717628965709e-02  1.0000000000000003e-01  1.0000598324073219e-01  1.0000000000000003e-01  1.0000356366125254e-01  1.0000501649760399e-01  1.0000675325628834e-01  1.0000650254566892e-01  1.0000721675038149e-01  1.0001108027527446e-01  1.0001003077479896e-01  1.0001098863706598e-01  1.0001483643686175e-01  1.0001631828415883e-01  1.0001031799883574e-01  1.0003252423266211e-01  1.0002098552850314e-01  1.0002685484593042e-01  1.0003448701391129e-01  1.0003128615929194e-01  1.0003727422595830e-01  1.0004921124606141e-01  1.0004631118278251e-01  1.0005302440000684e-01  1.0007053178385875e-01  1.0006014077162499e-01  1.0008303412706474e-01  1.0007449566329753e-01  1.0010576901613011e-01  1.0005860414831505e-01  1.0016933436929742e-01  9.9968004106436054e-02  1.0034428923126341e-01  1.0006015733326280e-01  9.9653043835021840e-02  9.9789617457020904e-02  9.9959202705294667e-02  9.9939810107796054e-02  9.9907952815356027e-02  9.9965312954643379e-02  9.9933827320473567e-02  9.9946586126555673e-02  9.9957300538634539e-02  9.9957334034908044e-02  9.9957685299253668e-02  9.9968046496998073e-02  9.9967395750145113e-02  9.9969315240323514e-02  9.9975009571391396e-02  9.9975738351320773e-02  9.9976763167506130e-02  9.9980627149327428e-02  9.9981381408248221e-02  9.9982426471115188e-02  9.9984889383483197e-02  9.9985862649886459e-02  9.9986640549525246e-02  9.9988660367309426e-02  9.9989038643513467e-02  9.9990819112952073e-02  9.9990588696710750e-02  9.9994051943142967e-02  9.9990034143835588e-02  1.0000000000000003e-01  1.0000745226615278e-01  1.0000000000000003e-01  1.0000471304387271e-01  1.0000852855253507e-01  1.0000777448825575e-01  1.0000863268817164e-01  1.0001292397195601e-01  1.0001193070809503e-01  1.0001322592561879e-01  1.0001860820497883e-01  1.0001669464590358e-01  1.0001727462453823e-01  1.0002926832230653e-01  1.0001423261840119e-01  1.0003641350627489e-01  1.0003568230380279e-01  1.0003356658164404e-01  1.0003524379462020e-01  1.0004988842389353e-01  1.0004189823601152e-01  1.0005186157073442e-01  1.0006383878601767e-01  1.0006194354723212e-01  1.0006413820110530e-01  1.0009258268077559e-01  1.0006113827995994e-01  1.0011639591902703e-01  1.0004718331188793e-01  1.0017586695806384e-01  9.9947119211648477e-02  1.0036269316981714e-01  1.0004239695396476e-01  9.9549391972067011e-02  9.9872054081463421e-02  9.9972233000625368e-02  9.9831499187961248e-02  1.0000138432306575e-01  9.9912771067536155e-02  9.9942961061188343e-02  9.9949717059021503e-02  9.9951711054724085e-02  9.9947500778091794e-02  9.9964438762581653e-02  9.9960801665007773e-02  9.9963027972667706e-02  9.9970778328754936e-02  9.9971348681675398e-02  9.9972199747288396e-02  9.9977628538272592e-02  9.9978179320127841e-02  9.9979245029385433e-02  9.9982768695049781e-02  9.9983648825204136e-02  9.9984857133412125e-02  9.9987094560825260e-02  9.9988500182184553e-02  9.9989094498948994e-02  9.9991823768370416e-02  9.9991230136264292e-02  9.9995257862244669e-02  9.9991886664626078e-02  1.0000000000000003e-01  1.0000894577913762e-01  1.0000000000000003e-01  1.0000682500834948e-01  1.0000910267874777e-01  1.0000904016835177e-01  1.0001358414490168e-01  1.0001254464131193e-01  1.0001408019097732e-01  1.0002027417450678e-01  1.0001814012513710e-01  1.0001911993379105e-01  1.0002968795834395e-01  1.0002307836862476e-01  1.0003063385295209e-01  1.0002751677950916e-01  1.0004551659848092e-01  1.0003739184422139e-01  1.0005452373858092e-01  1.0004337922362480e-01  1.0005181774182852e-01  1.0006928296098519e-01  1.0005855859244490e-01  1.0007293774207349e-01  1.0008470235682888e-01  1.0008781110180884e-01  1.0007791263734696e-01  1.0013322935962561e-01  1.0004967737944252e-01  1.0019942647131867e-01  9.9942533127783048e-02  1.0041553379722101e-01  1.0012831111188697e-01  9.9499581019976260e-02  9.9815392205018019e-02  9.9914774670284243e-02  9.9924742166344241e-02  9.9892333469080288e-02  9.9930328431085708e-02  9.9935823304518959e-02  9.9943078596663140e-02  9.9926129998034921e-02  9.9956801773427348e-02  9.9947441573148013e-02  9.9950770523706836e-02  9.9962063695053907e-02  9.9961945693720938e-02  9.9962314406325817e-02  9.9970878744304909e-02  9.9971035064380223e-02  9.9972098156265732e-02  9.9977212498143550e-02  9.9978149301087643e-02  9.9979173316845651e-02  9.9982826905436278e-02  9.9983807196678640e-02  9.9985396778637631e-02  9.9987370177442178e-02  9.9989529759517165e-02  9.9989413277850908e-02  9.9993849080703856e-02  9.9990365006627946e-02  1.0000000000000003e-01  1.0001073477174646e-01  1.0000000000000003e-01  1.0000704004265311e-01  1.0001030443955659e-01  1.0001304669742592e-01  1.0001333782857322e-01  1.0001424608448889e-01  1.0002044001091585e-01  1.0001911940481222e-01  1.0002013232403174e-01  1.0002900479119053e-01  1.0002577426300570e-01  1.0002939881114804e-01  1.0003761191258734e-01  1.0003716545196538e-01  1.0002318812264456e-01  1.0006802918901912e-01  1.0004253876004396e-01  1.0005354048237189e-01  1.0006759473502873e-01  1.0005807768885011e-01  1.0006498024611737e-01  1.0009173944513811e-01  1.0007007234630456e-01  1.0009663345711267e-01  1.0009344117145691e-01  1.0012312667344737e-01  1.0005556776803967e-01  1.0021642820575254e-01  9.9921279839616614e-02  1.0045492620140499e-01  1.0009451923053407e-01  9.9538230038639097e-02  9.9769872955698544e-02  9.9991323358362055e-02  9.9882050127412289e-02  9.9905092649010291e-02  9.9897774582767301e-02  9.9959960252481356e-02  9.9899922565248392e-02  9.9960436236225941e-02  9.9934246840599553e-02  9.9941611677957135e-02  9.9955666605919993e-02  9.9955524829697218e-02  9.9953940264173771e-02  9.9966291420390485e-02  9.9965253933977372e-02  9.9966367490846531e-02  9.9973623883148316e-02  9.9974159025389961e-02  9.9974976571017685e-02  9.9979898920720234e-02  9.9980950173814337e-02  9.9982039009413312e-02  9.9985721041906672e-02  9.9986517552487816e-02  9.9988957107091853e-02  9.9989694209578844e-02  9.9993893954741495e-02  9.9990828767708595e-02  1.0000000000000003e-01  1.0001157873950711e-01  1.0000000000000003e-01  1.0000759424459640e-01  1.0001367298582468e-01  1.0001265403381769e-01  1.0001445852755994e-01  1.0001996967577959e-01  1.0001917015692913e-01  1.0002021407085991e-01  1.0002888808651256e-01  1.0002548998670988e-01  1.0002857011535554e-01  1.0003988468714238e-01  1.0003565414391427e-01  1.0003409365161477e-01  1.0005664316278746e-01  1.0002686144058424e-01  1.0006614002266961e-01  1.0006837466467462e-01  1.0005878573163161e-01  1.0006439678776444e-01  1.0008721931810627e-01  1.0007398977702116e-01  1.0008050523137985e-01  1.0011771586035342e-01  1.0007820969716673e-01  1.0013353690108032e-01  1.0007527031879257e-01  1.0020666854115083e-01  9.9929214454348436e-02  1.0048484276774525e-01  1.0007245301354559e-01  9.9492878404402255e-02  9.9822724558688000e-02  9.9953381436389779e-02  9.9850554207854006e-02  9.9939926120776817e-02  9.9914491777976122e-02  9.9867387933064614e-02  9.9967738619863716e-02  9.9918718425378264e-02  9.9934200578276094e-02  9.9944703300908058e-02  9.9948382417113305e-02  9.9942624487739481e-02  9.9960593511019075e-02  9.9957959227780627e-02  9.9958603850979127e-02  9.9967981229463571e-02  9.9968768781040843e-02  9.9969263822968807e-02  9.9975794332654036e-02  9.9976526177000757e-02  9.9977815706429954e-02  9.9981920658527679e-02  9.9983583424667247e-02  9.9984637894527814e-02  9.9988466746148405e-02  9.9988552861776561e-02  9.9992996761687422e-02  9.9990256786491011e-02  1.0000000000000003e-01  1.0001245684582145e-01  1.0000000000000003e-01  1.0000936994326606e-01  1.0001338316373395e-01  1.0001326869737555e-01  1.0001911683480230e-01  1.0001842706272961e-01  1.0001995490976699e-01  1.0002784448638966e-01  1.0002517713958439e-01  1.0002686270597036e-01  1.0003879518352997e-01  1.0003449587524649e-01  1.0003610024875068e-01  1.0005301153952059e-01  1.0003878537491548e-01  1.0005189503984842e-01  1.0004721494547715e-01  1.0007356918370391e-01  1.0006070012718712e-01  1.0009069788166612e-01  1.0006536355234424e-01  1.0008296853252510e-01  1.0010267698222525e-01  1.0009525301595076e-01  1.0008603379989219e-01  1.0015577820031199e-01  1.0005477775617871e-01  1.0021701068919291e-01  9.9940916867839846e-02  1.0048301902306105e-01  1.0012614805694861e-01  9.9448920832836157e-02  9.9789359882463097e-02  9.9925174042607132e-02  9.9893276740533637e-02  9.9924830562271499e-02  9.9876565047863589e-02  9.9941098724243907e-02  9.9888022423128803e-02  9.9941668612490084e-02  9.9930479480293641e-02  9.9948363316284788e-02  9.9928330705044310e-02  9.9957105752905923e-02  9.9950531284261901e-02  9.9951620928297041e-02  9.9963424836600423e-02  9.9963514813321913e-02  9.9963108233469614e-02  9.9972312392987692e-02  9.9972727027672029e-02  9.9973517256822866e-02  9.9979199286212461e-02  9.9980246535847694e-02  9.9981833709844523e-02  9.9985215272924893e-02  9.9987680749445348e-02  9.9987900810098354e-02  9.9993163112323480e-02  9.9990265701819278e-02  1.0000000000000003e-01  1.0001368928666143e-01  1.0000000000000003e-01  1.0000908697000280e-01  1.0001378386997326e-01  1.0001666964205938e-01  1.0001789896594027e-01  1.0001870131585697e-01  1.0002618945390164e-01  1.0002478196891011e-01  1.0002582375285227e-01  1.0003577177350421e-01  1.0003328263894509e-01  1.0003488758907123e-01  1.0004995836465978e-01  1.0004147447270463e-01  1.0004635226547547e-01  1.0005997873921539e-01  1.0005669377788422e-01  1.0003600447264133e-01  1.0010464812967118e-01  1.0006475994788304e-01  1.0007813757351347e-01  1.0010622434627642e-01  1.0007714089303639e-01  1.0010220950679070e-01  1.0011400735711984e-01  1.0012722662669790e-01  1.0006399155035040e-01  1.0023932473385434e-01  9.9920611562809653e-02  1.0049404909877091e-01  1.0011704479253279e-01  9.9469834013826530e-02  9.9757120017718706e-02  9.9968153590811279e-02  9.9872126571014477e-02  9.9890718451820071e-02  9.9919493002199253e-02  9.9916224843099019e-02  9.9903242403292805e-02  9.9906308093770047e-02  9.9958243648444897e-02  9.9910975927691270e-02  9.9957455512958607e-02  9.9940532860208403e-02  9.9944320340241075e-02  9.9957592822572869e-02  9.9958728302752931e-02  9.9956359099978395e-02  9.9968021362542611e-02  9.9967776257594690e-02  9.9968620062274194e-02  9.9975877364030533e-02  9.9976928772167045e-02  9.9977656110161656e-02  9.9982950103428753e-02  9.9983854821577817e-02  9.9986363999283651e-02  9.9988154505484123e-02  9.9992573919802138e-02  9.9989861128986571e-02  1.0000000000000003e-01  1.0001407520781315e-01  1.0000000000000003e-01  1.0000919314416985e-01  1.0001647332750961e-01  1.0001560953308790e-01  1.0001801685914725e-01  1.0002389276197376e-01  1.0002363122810697e-01  1.0002476378780591e-01  1.0003395959391961e-01  1.0003107631939390e-01  1.0003281526433479e-01  1.0004677128241769e-01  1.0004075988617704e-01  1.0004309557806190e-01  1.0006018340503509e-01  1.0005215657183016e-01  1.0004862203383118e-01  1.0008440188978442e-01  1.0003633873210750e-01  1.0009461065885047e-01  1.0009890641129997e-01  1.0008302138972232e-01  1.0008336471356090e-01  1.0013285508449403e-01  1.0007876065416832e-01  1.0013506601170048e-01  1.0009346975696960e-01  1.0020723080153814e-01  9.9929365447887109e-02  1.0051526324184867e-01  1.0009800631418045e-01  9.9446989480695427e-02  9.9788246661235383e-02  9.9955303771328108e-02  9.9841678609966511e-02  9.9929591839008791e-02  9.9901315135194776e-02  9.9897244346981773e-02  9.9924072016030596e-02  9.9932398966500829e-02  9.9883212090152579e-02  9.9968825041694812e-02  9.9928247851365629e-02  9.9942212647991510e-02  9.9949073297238164e-02  9.9955116882971984e-02  9.9948793243707312e-02  9.9964729585378248e-02  9.9963494426961716e-02  9.9963160691592542e-02  9.9972078423596997e-02  9.9973473249935704e-02  9.9973972886954046e-02  9.9980023340373272e-02  9.9981513244648337e-02  9.9982471871752021e-02  9.9987275260953454e-02  9.9987579541115770e-02  9.9992134225765167e-02  9.9990011077747104e-02  1.0000000000000003e-01  1.0001440271508434e-01  1.0000000000000003e-01  1.0001040244380810e-01  1.0001563710973339e-01  1.0001537083547990e-01  1.0002170180785661e-01  1.0002149199010729e-01  1.0002318711349985e-01  1.0003114875117858e-01  1.0002947073116135e-01  1.0003034395518749e-01  1.0004282108931686e-01  1.0003840045251512e-01  1.0004022153870636e-01  1.0005652560112469e-01  1.0004846418603548e-01  1.0004974232862729e-01  1.0007494367565702e-01  1.0005245116958329e-01  1.0006946836065640e-01  1.0006742899169054e-01  1.0009602402601395e-01  1.0008388194098840e-01  1.0012073533216667e-01  1.0009172077447105e-01  1.0008906359514905e-01  1.0016728039375994e-01  1.0005530147529126e-01  1.0021074094104129e-01  9.9963242562443239e-02  1.0047753999909412e-01  1.0013512284395569e-01  9.9402822498331850e-02  9.9778537005042467e-02  9.9929818543916332e-02  9.9874402878855628e-02  9.9918279787276187e-02  9.9876077178758710e-02  9.9924406329237686e-02  9.9920439759474622e-02  9.9903602110825190e-02  9.9941946970065088e-02  9.9907316603352420e-02  9.9950019713902410e-02  9.9938328575335675e-02  9.9955908152628295e-02  9.9938511646085443e-02  9.9962068350248151e-02  9.9958308890234063e-02  9.9958367119848082e-02  9.9968807440985713e-02  9.9969428908605190e-02  9.9968913142936572e-02  9.9977486242014593e-02  9.9978280951631013e-02  9.9979523152798205e-02  9.9984070339762018e-02  9.9986506773574055e-02  9.9986685601685166e-02  9.9992503998816443e-02  9.9989801725994962e-02  1.0000000000000003e-01  1.0001520789921424e-01  1.0000000000000003e-01  1.0000994145745014e-01  1.0001549941689707e-01  1.0001799808069413e-01  1.0002003870011919e-01  1.0002086785150800e-01  1.0002832141290820e-01  1.0002763393990863e-01  1.0002846202919538e-01  1.0003854135290600e-01  1.0003646707496214e-01  1.0003727766440622e-01  1.0005173843731185e-01  1.0004601600232227e-01  1.0004654866367005e-01  1.0006837811374093e-01  1.0005451293849382e-01  1.0006040800553112e-01  1.0008022908189543e-01  1.0007331173976433e-01  1.0004259084824599e-01  1.0014316980187667e-01  1.0007533654846122e-01  1.0010711911725961e-01  1.0012443389176547e-01  1.0011965175322400e-01  1.0006252335785192e-01  1.0024737422763914e-01  9.9923509398526969e-02  1.0047549951517624e-01  1.0014887829485336e-01  9.9407105565448906e-02  9.9746817142311248e-02  9.9960054685241190e-02  9.9869139627576695e-02  9.9893079344949814e-02  9.9905106991327375e-02  9.9919091895064469e-02  9.9894328986072436e-02  9.9935011314706002e-02  9.9928113349924672e-02  9.9924411866481710e-02  9.9918455954630642e-02  9.9967446244980190e-02  9.9926085933331341e-02  9.9963607790180445e-02  9.9951339560984162e-02  9.9954046331515861e-02  9.9964773921235608e-02  9.9966870870730556e-02  9.9964609131720006e-02  9.9974194837966157e-02  9.9974901214304857e-02  9.9975786052095297e-02  9.9982312059444620e-02  9.9983335524561456e-02  9.9985319674912781e-02  9.9987963970109422e-02  9.9992201705648195e-02  9.9989685703955722e-02  1.0000000000000003e-01  1.0001504160627078e-01  1.0000000000000003e-01  1.0000952393224438e-01  1.0001719837456310e-01  1.0001639477412876e-01  1.0001918510033216e-01  1.0002454578079105e-01  1.0002509057228402e-01  1.0002613122599954e-01  1.0003481900271022e-01  1.0003291316258769e-01  1.0003428778114068e-01  1.0004700350748796e-01  1.0004268305058041e-01  1.0004263801987649e-01  1.0006130551641074e-01  1.0005248376013211e-01  1.0005341032802775e-01  1.0007820303098625e-01  1.0006423556326206e-01  1.0005873080465755e-01  1.0010790974387954e-01  1.0004226154903845e-01  1.0011181289563746e-01  1