<?xml version="1.0"?>
<VTKFile type="UnstructuredGrid"  version="0.1"  >
<UnstructuredGrid>
<Piece  NumberOfPoints="1933" NumberOfCells="3640">
<Points>
<DataArray  type="Float64"  NumberOfComponents="3"  format="ascii">0.2935801747938319 0.002014054328804589 0  5.293580193147735 0.001929680332515219 0  5.293706830505681 7.501929771548173 0  0.293706771459755 7.502014072849074 0  10.29358020112528 0.001845205603205296 0  10.29370694846178 7.501845326897149 0  15.29358025235398 0.001760542217764445 0  15.29370716151781 7.501760675629104 0  20.29358041508766 0.001675654589295087 0  20.29370750747761 7.501675792641886 0  25.29358075908705 0.001590540371581145 0  25.29370802631724 7.501590680479179 0  30.29358135137004 0.001505218965373229 0  30.29370875944593 7.501505360926372 0  35.29358225581215 0.001419724564586805 0  35.29370974917876 7.501419869379689 0  40.29358353438261 0.001334102177818166 0  40.2937110386659 7.50133425149374 0  45.29358524902901 0.001248405692462993 0  45.29371267220062 7.501248561558577 0  50.29358746378862 0.001162697413593783 0  50.2937146957702 7.501162862201408 0  55.29359024697133 0.00107704875196974 0  55.29371715773062 7.501077225164037 0  60.29359367337897 0.0009915419085052076 0  60.29372010950912 7.500991733041022 0  65.29359782658688 0.0009062725371243739 0  65.29372360624826 7.500906481979143 0  70.29360280132748 0.0008213534870641025 0  70.29372770730407 7.500821585447445 0  75.29360870602792 0.0007369198492654407 0  75.2937324764839 7.500737179301964 0  80.29361566553229 0.0006531356806158601 0  80.29373798185671 7.500653428508694 0  85.29362382401246 0.0005702029810086356 0  85.29374429489053 7.500570536070258 0  90.29363334798995 0.0004883737897527683 0  90.29375148853148 7.500488754954848 0  95.29364442924266 0.0004079667092181464 0  95.29375963364258 7.500408404185121 0  100.2936572870465 0.0003293898507373261 0  100.2937687929402 7.500329890756838 0  105.2936721685687 0.0002531732874531458 0  105.2937790111728 7.500253739777462 0  110.2936893449123 0.0001800158482270369 0  110.2937902998509 7.500180636183678 0  115.2937090976838 0.000110853912336847 0  115.2938026145076 7.500111482587363 0  120.2937316855938 4.696442003902145e-05 0  120.2938158228026 7.500047478944557 0  125.2937572697377 -9.878460686552399e-06 0  125.2938296642969 7.499990229962566 0  130.2937857540535 -5.716270668462455e-05 0  130.2938437111786 7.499941883141528 0  135.2938164519208 -9.127013711213454e-05 0  135.2938573629917 7.499905289159158 0  140.2938473939633 -0.0001069362996658208 0  140.2938699708688 7.499884150915028 0  145.2938738774118 -9.66077092248146e-05 0  145.293881350732 7.499883109440101 0  150.2938853036091 -5.058649797609616e-05 0  150.2938934076474 7.499907967043021 0  160.2938926261469 8.144171038522789e-19 0  165.2937408782742 -0.0001953644020043424 0  165.2938659164476 7.499777214783147 0  160.2939125886709 7.499934639525693 0  170.2936522105054 -0.0003694637549658083 0  170.2938185370526 7.499616609664084 0  175.2935984297602 -0.0005279643015355914 0  175.2937786054502 7.49946424288084 0  180.2935649479105 -0.0006738414308762078 0  180.2937471137064 7.499321568893532 0  185.2935437474821 -0.0008095297856977611 0  185.293723037284 7.499187671070057 0  190.2935302427953 -0.0009370615122758386 0  190.2937049458328 7.499061179963211 0  195.2935217181992 -0.001058065332617093 0  195.2936915129995 7.498940799606578 0  200.2935165084768 -0.001173813589505576 0  200.2936816478577 7.498825436040847 0  205.2935135555497 -0.001285291576872224 0  205.2936744960916 7.498714202722531 0  210.2935121630211 -0.001393264163870313 0  210.2936694024345 7.498606390621279 0  215.2935118570478 -0.001498330455008569 0  215.2936658677607 7.498501432827257 0  220.2935123054181 -0.001600965567268606 0  220.2936635117276 7.498398873179217 0  225.2935132691211 -0.001701551556803876 0  225.2936620432669 7.49829834104554 0  230.2935145724589 -0.001800400052340129 0  230.2936612382688 7.498199531861721 0  235.2935160840114 -0.001897768826357212 0  235.2936609230344 7.498102192344964 0  240.2935177041283 -0.001993874022420071 0  240.2936609620862 7.498006109289128 0  245.293519356479 -0.002088899290668292 0  245.2936612491957 7.497911101026681 0  250.2935209821956 -0.002183002720621855 0  250.2936617007532 7.497817010854072 0  255.2935225357517 -0.002276322196217289 0  255.2936622508599 7.497723701899391 0  260.2935239820294 -0.002368979610522742 0  260.2936628476758 7.497631053053426 0  265.2935252942736 -0.002461084244320586 0  265.2936634507158 7.497538955694385 0  270.2935264527141 -0.002552735514160319 0  270.2936640288648 7.497447311020785 0  275.2935274437804 -0.002644025214558858 0  275.2936645589419 7.497356027878658 0  280.2935282598578 -0.002735039298104125 0  280.2936650247007 7.497265021038633 0  285.2935288996252 -0.002825859133120478 0  285.2936654161579 7.497174209961135 0  290.2935293690048 -0.002916562012493878 0  290.2936657291478 7.49708351819958 0  295.2935296828188 -0.003007220385806652 0  295.2936659650169 7.496992873755187 0  300.2935298670597 -0.003097898697271118 0  300.2936661303589 7.496902210932673 0  305.2935299613497 -0.003188645495289614 0  305.2936662369265 7.496811474545343 0  310.2935300199784 -0.003279475838835687 0  310.2936663024706 7.496720627562423 0  5.293833093108414 15.00193000229249 0  0.2938330227949589 15.00201412476362 0  10.29383322796202 15.00184563132263 0  15.29383346215033 15.00176100370281 0  20.29383382186299 15.00167612342627 0  25.29383433041692 15.00159100782731 0  30.29383501072033 15.00150568601412 0  35.29383588614338 15.00142019690705 0  40.29383698071221 15.00133458781011 0  45.29383831904552 15.00124891378644 0  50.29383992619224 15.00116323786997 0  55.29384182739943 15.00107763209115 0  60.29384404777397 15.00099217931655 0  65.29384661176967 15.00090697595404 0  70.29384954239933 15.0008221356428 0  75.29385286005105 15.00073779412948 0  80.29385658075138 15.00065411562869 0  85.29386071369156 15.00057130108322 0  90.29386525780156 15.00048959888114 0  95.29387019717025 15.00040931874265 0  100.2938754951763 15.0003308496385 0  105.2938810874726 15.00025468265898 0  110.2938868745591 15.000181439537 0  115.2938927160105 15.00011190661323 0  120.2938984309828 15.00004707150818 0  125.2939038143474 14.99998815372865 0  130.2939086857492 14.99993660692213 0  135.2939130007002 14.99989404111426 0  140.2939170656259 14.99986194861053 0  145.2939218951516 14.99984096183928 0  150.2939296543867 14.99982891041189 0  165.2939443667995 14.99970237184468 0  160.2939527159856 14.99982242359881 0  170.2939279054648 14.99957033672828 0  175.2939081998062 14.99943583913668 0  180.2938887075929 14.99930390693875 0  185.2938711360537 14.99917645962968 0  190.2938561001618 14.99905389000889 0  195.2938436432754 14.99893593857394 0  200.2938335470078 14.99882211365707 0  205.2938254975004 14.99871187947062 0  210.2938191680183 14.99860473308936 0  215.2938142560662 14.99850023034818 0  220.2938104970358 14.99839798943436 0  225.2938076664481 14.99829768564962 0  230.2938055771319 14.9981990434388 0  235.2938040745723 14.99810182828011 0  240.2938030319465 14.99800583941086 0  245.2938023455324 14.99791090364315 0  250.2938019307288 14.99781687022907 0  255.2938017187244 14.99772360663141 0  260.2938016537675 14.9976309950408 0  265.2938016909476 14.99753892949535 0  270.2938017944062 14.99744731349072 0  275.2938019358863 14.9973560580011 0  280.2938020935328 14.99726507986675 0  285.2938022509021 14.99717430053626 0  290.29380239609 14.99708364517255 0  295.2938025210295 14.99699304210991 0  300.2938026210294 14.9969024225039 0  305.2938026949042 14.99681171950996 0  310.2938027463736 14.99672086483287 0  5.293958864379593 22.50193051382939 0  0.2939587927299912 22.50201443504632 0  10.29395898377535 22.50184623220764 0  15.29395917962945 22.50176163370265 0  20.29395947020801 22.50167675492987 0  25.29395986814061 22.50159163255236 0  30.2939603833044 22.50150630656468 0  35.29396102427198 22.50142082172372 0  40.29396179883832 22.50133522827742 0  45.29396271399288 22.50124958262992 0  50.293963775555 22.50116394827703 0  55.29396498757582 22.50107839718975 0  60.29396635154004 22.50099301176005 0  65.29396786535629 22.50090788741159 0  70.29396952210044 22.50082313599111 0  75.29397130846864 22.50073889008668 0  80.29397320290744 22.50065530844998 0  85.29397517341775 22.50057258272509 0  90.29397717511183 22.50049094568478 0  95.29397914774948 22.50041068111089 0  100.2939810137451 22.50033213525631 0  105.2939826775968 22.50025572936663 0  110.2939840284231 22.50018197177194 0  115.2939849484028 22.50011146617136 0  120.2939853314189 22.50004490919707 0  125.2939851179061 22.49998306400388 0  130.2939843528562 22.4999266857585 0  135.2939832715654 22.49987635742192 0  140.2939824057191 22.49983216936772 0  145.2939826671094 22.4997931532078 0  150.2939852824998 22.49975642130653 0  165.2940151848575 22.49961967118928 0  160.2940052342784 22.49971768009975 0  170.2940173216758 22.4995091886123 0  175.2940137541497 22.4993922638616 0  180.2940067885865 22.49927329605697 0  185.2939982792964 22.49915498068408 0  190.293989469322 22.49903872306238 0  195.293981091286 22.49892511626543 0  200.2939735207418 22.49881429471096 0  205.2939669068049 22.49870615627875 0  210.2939612654447 22.498600490557 0  215.2939565405059 22.49849704863651 0  220.2939526413989 22.49839557890882 0  225.2939494652839 22.49829584394233 0  230.2939469094588 22.49819762721574 0  235.2939448777912 22.49810073463915 0  240.2939432836399 22.49800499355702 0  245.2939420507888 22.49791025066358 0  250.2939411132998 22.49781636956459 0  255.2939404148319 22.49772322834391 0  260.2939399077154 22.49763071729565 0  265.2939395519661 22.49753873688153 0  270.2939393143049 22.49744719592507 0  275.293939167231 22.49735601003231 0  280.2939390881509 22.49726510021596 0  285.2939390585698 22.4971743916826 0  290.2939390633553 22.49708381269911 0  295.2939390901236 22.49699329334982 0  300.293939
[...]
<PointData  Scalars="p"> 
<DataArray  type="Float64"  Name="p"  format="ascii">1.0000000000000001e-01  1.0000000000000003e-01  1.0000372062331794e-01  1.0000000000000003e-01  1.0000000000000003e-01  1.0000362866322138e-01  1.0000000000000003e-01  1.0000548242987542e-01  1.0000000000000003e-01  1.0000611489713890e-01  1.0000000000000003e-01  1.0000739377484565e-01  1.0000000000000003e-01  1.0000999637193722e-01  1.0000000000000003e-01  1.0001079622206185e-01  1.0000000000000003e-01  1.0001257663798853e-01  1.0000000000000003e-01  1.0001555730204927e-01  1.0000000000000003e-01  1.0001505052491119e-01  1.0000000000000003e-01  1.0002424576197544e-01  1.0000000000000003e-01  1.0002770182208909e-01  1.0000000000000003e-01  1.0003250465325920e-01  1.0000000000000003e-01  1.0003594351742863e-01  1.0000000000000003e-01  1.0004429271715982e-01  1.0000000000000003e-01  1.0004733757478407e-01  1.0000000000000003e-01  1.0005395054904476e-01  1.0000000000000003e-01  1.0006390885977683e-01  1.0000000000000003e-01  1.0006726719557192e-01  1.0000000000000003e-01  1.0007814217570954e-01  1.0000000000000003e-01  1.0008506888693239e-01  1.0000000000000003e-01  1.0009736921662551e-01  1.0000000000000003e-01  1.0009644150644360e-01  1.0000000000000003e-01  1.0012576327271867e-01  1.0000000000000003e-01  1.0010221724674291e-01  1.0000000000000003e-01  1.0016128849943315e-01  1.0000000000000003e-01  1.0009825008326249e-01  1.0000000000000003e-01  1.0020880909877755e-01  1.0000000000000003e-01  1.0008025236943013e-01  1.0000000000000001e-01  1.0028634631734198e-01  1.0000000000000001e-01  1.0000000000000003e-01  9.9800589756637179e-02  9.9552933923793954e-02  1.0000000000000003e-01  9.9956978281904960e-02  1.0000000000000003e-01  9.9845106543448137e-02  1.0000000000000003e-01  9.9908436857649774e-02  1.0000000000000003e-01  9.9891080824639447e-02  1.0000000000000003e-01  9.9907821857320014e-02  1.0000000000000003e-01  9.9901940013348636e-02  1.0000000000000003e-01  9.9916165522199882e-02  1.0000000000000003e-01  9.9914899463469320e-02  1.0000000000000003e-01  9.9920213642083630e-02  1.0000000000000003e-01  9.9924627610190428e-02  1.0000000000000003e-01  9.9927797755565900e-02  1.0000000000000003e-01  9.9930025810198983e-02  1.0000000000000003e-01  9.9934107116889367e-02  1.0000000000000003e-01  9.9935996348550105e-02  1.0000000000000003e-01  9.9938029556602845e-02  1.0000000000000003e-01  9.9940513745552767e-02  1.0000000000000003e-01  9.9942160960356713e-02  1.0000000000000003e-01  9.9943364088906250e-02  1.0000000000000003e-01  9.9945379514730107e-02  1.0000000000000003e-01  9.9946012144935120e-02  1.0000000000000003e-01  9.9947831874099988e-02  1.0000000000000003e-01  9.9947591980873524e-02  1.0000000000000003e-01  9.9950833647187681e-02  1.0000000000000003e-01  9.9947370583971101e-02  1.0000000000000003e-01  9.9955344201922716e-02  1.0000000000000003e-01  9.9943888497944902e-02  1.0000000000000003e-01  9.9964558805287859e-02  1.0000000000000003e-01  9.9929588185972348e-02  1.0000000000000001e-01  1.0000000000000003e-01  1.0000688224864648e-01  1.0000000000000003e-01  1.0000639289222006e-01  1.0000678496846402e-01  1.0000767566035311e-01  1.0001029987605377e-01  1.0001000852803173e-01  1.0001064255922175e-01  1.0001458432619570e-01  1.0001252174696991e-01  1.0001427950090779e-01  1.0001680331632888e-01  1.0002717237918134e-01  1.0002285199329178e-01  1.0003315547572049e-01  1.0002817780774685e-01  1.0003293581215117e-01  1.0004095708739326e-01  1.0003921301537833e-01  1.0004293840121875e-01  1.0005556950449086e-01  1.0004889712142206e-01  1.0006114491204467e-01  1.0006098057053076e-01  1.0007464083028544e-01  1.0005301615138727e-01  1.0010954521239092e-01  1.0001874356871426e-01  1.0017938331930414e-01  9.9933993085421807e-02  1.0028978178538524e-01  1.0020157135233007e-01  9.9339589184622254e-02  9.9783429667436738e-02  9.9971605487865142e-02  9.9939488057745288e-02  9.9951537652332278e-02  9.9929566276922899e-02  9.9959293211719064e-02  9.9945550039770931e-02  9.9950723595395530e-02  9.9957218615656290e-02  9.9957873059966479e-02  9.9957920906666387e-02  9.9964287801645443e-02  9.9964526639933632e-02  9.9965541078092954e-02  9.9969166102742868e-02  9.9969928672010100e-02  9.9970721056753462e-02  9.9973064673868503e-02  9.9974033569059206e-02  9.9974404530918506e-02  9.9976725979007808e-02  9.9976368126696816e-02  9.9978955542545489e-02  9.9976940948884888e-02  9.9983262704207806e-02  9.9973786340647894e-02  9.9992044942255887e-02  9.9965423402172779e-02  1.0000000000000003e-01  1.0001052840486845e-01  1.0000000000000003e-01  1.0000671739635206e-01  1.0000984669807517e-01  1.0001245565442832e-01  1.0001266468738822e-01  1.0001337163380196e-01  1.0001903113504357e-01  1.0001758566728701e-01  1.0001823739511526e-01  1.0002434237534692e-01  1.0002597548638960e-01  1.0002001361151953e-01  1.0004879325199253e-01  1.0003683088759691e-01  1.0004340504985561e-01  1.0005509000907170e-01  1.0004987031626285e-01  1.0005626983856711e-01  1.0007245850278113e-01  1.0006733552612129e-01  1.0007341457560563e-01  1.0009648536943382e-01  1.0007972178382005e-01  1.0010700296674092e-01  1.0009352149287562e-01  1.0013346660631207e-01  1.0006604102565751e-01  1.0021613334674943e-01  9.9944211731122126e-02  1.0045277153986883e-01  1.0011886751598491e-01  9.9425987466226273e-02  9.9684080955562290e-02  9.9938855546027772e-02  9.9916179212336545e-02  9.9865711678257543e-02  9.9942689060357331e-02  9.9899433149426689e-02  9.9912155516044848e-02  9.9924910601867187e-02  9.9924065170805321e-02  9.9922406000079927e-02  9.9935420647655204e-02  9.9934195101743020e-02  9.9935799798705219e-02  9.9943024793323357e-02  9.9943898840455417e-02  9.9944731625880759e-02  9.9949670171094213e-02  9.9950461299761553e-02  9.9951653591857023e-02  9.9954500950320796e-02  9.9956105972670142e-02  9.9956124330326024e-02  9.9960044358823746e-02  9.9958124041132884e-02  9.9963987969110060e-02  9.9957176026374911e-02  9.9973201524458960e-02  9.9945265090803370e-02  1.0000000000000003e-01  1.0001284030730222e-01  1.0000000000000003e-01  1.0000803971442700e-01  1.0001412241265593e-01  1.0001322504937975e-01  1.0001409682730085e-01  1.0002012909172966e-01  1.0001861824253359e-01  1.0001929163709555e-01  1.0002676661608621e-01  1.0002378969572615e-01  1.0002382747425084e-01  1.0004010087401045e-01  1.0002318379440557e-01  1.0004871227475530e-01  1.0005275762337017e-01  1.0004877487989636e-01  1.0004967426609461e-01  1.0006921103441821e-01  1.0005720645994162e-01  1.0006750094415234e-01  1.0008331823014524e-01  1.0007863463769537e-01  1.0007713036960834e-01  1.0011488994960417e-01  1.0006839339840064e-01  1.0014032555251108e-01  1.0004425055820636e-01  1.0022006088246788e-01  9.9907146177979564e-02  1.0047841049256227e-01  1.0010973409100375e-01  9.9281031805857844e-02  9.9798678279912165e-02  9.9973628905536668e-02  9.9771887784352281e-02  1.0000397772842105e-01  9.9887316536288059e-02  9.9921637103818517e-02  9.9928934869592909e-02  9.9930451821022254e-02  9.9921495840989319e-02  9.9942745377738770e-02  9.9937298886242892e-02  9.9938716232914906e-02  9.9948371401404265e-02  9.9948899189399421e-02  9.9949287131093384e-02  9.9956098511919264e-02  9.9956702410568019e-02  9.9957448726270257e-02  9.9961943856276367e-02  9.9962559180348798e-02  9.9964192741345451e-02  9.9966030000943451e-02  9.9969044416795078e-02  9.9966868047426299e-02  9.9974685310418518e-02  9.9965862095863250e-02  9.9983524763407230e-02  9.9958062780717880e-02  1.0000000000000003e-01  1.0001520780859448e-01  1.0000000000000003e-01  1.0001071843996726e-01  1.0001482459288531e-01  1.0001404008909207e-01  1.0002100987399438e-01  1.0001929841273033e-01  1.0002069436789351e-01  1.0002902420438783e-01  1.0002571462068098e-01  1.0002579313430197e-01  1.0004001917314184e-01  1.0003163869382649e-01  1.0003946796288078e-01  1.0004024141897608e-01  1.0006008509515323e-01  1.0005221895089890e-01  1.0007544916288012e-01  1.0006014620488596e-01  1.0006761983728661e-01  1.0009164211406146e-01  1.0007462625795469e-01  1.0009005319748070e-01  1.0010455330776057e-01  1.0010650296860434e-01  1.0008607918306132e-01  1.0016249124844660e-01  1.0004233679487722e-01  1.0024909292847639e-01  9.9893819361356537e-02  1.0055289035808383e-01  1.0023596460046251e-01  9.9192505627288333e-02  9.9729190650032676e-02  9.9898614347352907e-02  9.9883721715469526e-02  9.9862836455967052e-02  9.9905114415972704e-02  9.9911462393141109e-02  9.9921641792224708e-02  9.9893592617349647e-02  9.9932497956567015e-02  9.9919234124847656e-02  9.9920982155177029e-02  9.9934876851217991e-02  9.9934443205732026e-02  9.9933584691407618e-02  9.9944415175927837e-02  9.9944478760715438e-02  9.9945188082149458e-02  9.9951487755965393e-02  9.9952594792915656e-02  9.9953098972794363e-02  9.9957955664067358e-02  9.9958168772962624e-02  9.9960982354390923e-02  9.9961139577859612e-02  9.9967173219776204e-02  9.9960053199922863e-02  9.9977288987772472e-02  9.9951052601295651e-02  1.0000000000000003e-01  1.0001799888132396e-01  1.0000000000000003e-01  1.0001097488900329e-01  1.0001601164117897e-01  1.0001935177306294e-01  1.0001995722801706e-01  1.0002048028648110e-01  1.0002897940738142e-01  1.0002684070927491e-01  1.0002662384104664e-01  1.0003872180345813e-01  1.0003391979482891e-01  1.0003660830160513e-01  1.0004925431976450e-01  1.0004690815454120e-01  1.0003053776506937e-01  1.0008698832807073e-01  1.0005785754406538e-01  1.0006863112921120e-01  1.0008935020978293e-01  1.0007392965972392e-01  1.0007854436312018e-01  1.0011490689432376e-01  1.0008187370729323e-01  1.0011322591715649e-01  1.0010566000028663e-01  1.0014650576055989e-01  1.0004276765458030e-01  1.0027377675809780e-01  9.9855393738767270e-02  1.0061172845278904e-01  1.0020974672772646e-01  9.9232140741720307e-02  9.9666349099704440e-02  1.0000914749224103e-01  9.9843198186675725e-02  9.9873621931322404e-02  9.9863375656338557e-02  9.9953350515004480e-02  9.9866687659064757e-02  9.9945457583006783e-02  9.9910085585057110e-02  9.9915708005561835e-02  9.9932781306260515e-02  9.9932134706786413e-02  9.9927890444986261e-02  9.9943512493997688e-02  9.9941926339224510e-02  9.9942241852057787e-02  9.9951480916211768e-02  9.9951920571222083e-02  9.9952386446929622e-02  9.9958166478650648e-02  9.9959616384800040e-02  9.9959605771521728e-02  9.9965325435667496e-02  9.9963570593470510e-02  9.9970105167132436e-02  9.9963870040358116e-02  9.9980425581525673e-02  9.9955984058341274e-02  1.0000000000000003e-01  1.0001951532311952e-01  1.0000000000000003e-01  1.0001146687615882e-01  1.0002077428668268e-01  1.0001858187407230e-01  1.0002069138634423e-01  1.0002800653114266e-01  1.0002713148185774e-01  1.0002691973861540e-01  1.0003889185409073e-01  1.0003386264958646e-01  1.0003571298876107e-01  1.0005172124152754e-01  1.0004507784737418e-01  1.0004123231498703e-01  1.0007089628218856e-01  1.0003562338962275e-01  1.0007934021872356e-01  1.0009061118105772e-01  1.0007538480436844e-01  1.0007968460355142e-01  1.0011006769675600e-01  1.0009001828579493e-01  1.0009176819953128e-01  1.0014343317214286e-01  1.0008307804653578e-01  1.0015724404375929e-01  1.0006814802646440e-01  1.0026235404636294e-01  9.9854232885212946e-02  1.0066581867242791e-01  1.0018483448993169e-01  9.9165700058522349e-02  9.9734883234629187e-02  9.9970614250901646e-02  9.9799525015526885e-02  9.9925401202427724e-02  9.9883195984092121e-02  9.9825175299687915e-02  9.9957025295113675e-02  9.9893240148837589e-02  9.9909430733413920e-02  9.9920877305141723e-02  9.9925177984148600e-02  9.9914509372059146e-02  9.9937032058148370e-02  9.9933142724403914e-02  9.9932493743853032e-02  9.9944140887031199e-02  9.9945015344235555e-02  9.9944722876853617e-02  9.9953010240103127e-02  9.9953454050584950e-02  9.9954766053272040e-02  9.9958958801701553e-02  9.9961805165573653e-02  9.9960430299099554e-02  9.9968464158767256e-02  9.9961648927905961e-02  9.9978023840070776e-02  9.9954171589741445e-02  1.0000000000000003e-01  1.0002092400460438e-01  1.0000000000000003e-01  1.0001397848046492e-01  1.0002049643603861e-01  1.0001885917055302e-01  1.0002706554841492e-01  1.0002572845206628e-01  1.0002664755484070e-01  1.0003754715336800e-01  1.0003354474234814e-01  1.0003401713338912e-01  1.0005031683935656e-01  1.0004392456385137e-01  1.0004368432807169e-01  1.0006648810375005e-01  1.0004741988365734e-01  1.0005964844338812e-01  1.0006102082725395e-01  1.0008844116061096e-01  1.0007475121565425e-01  1.0011578240113175e-01  1.0008037540072577e-01  1.0009772029032371e-01  1.0012410325627567e-01  1.0011189773293644e-01  1.0008896327240865e-01  1.0018987430316384e-01  1.0003749523523049e-01  1.0027567328045529e-01  9.9863779321259366e-02  1.0067686698210540e-01  1.0026388689412813e-01  9.9096636605941910e-02  9.9695843420469513e-02  9.9934961743201378e-02  9.9860306383937253e-02  9.9915956251924037e-02  9.9837380275245635e-02  9.9917878664180351e-02  9.9854096514201005e-02  9.9924411417401104e-02  9.9906831369992302e-02  9.9931246554864947e-02  9.9900606281471405e-02  9.9936750387361439e-02  9.9927602242925032e-02  9.9926744888877553e-02  9.9941258664267077e-02  9.9941196103413635e-02  9.9939352843827545e-02  9.9950795907279996e-02  9.9951329726540528e-02  9.9951295959525080e-02  9.9958656559465051e-02  9.9958885767060662e-02  9.9961346774454687e-02  9.9963101865828075e-02  9.9969205648764381e-02  9.9962573385015657e-02  9.9979646385538579e-02  9.9956348141208642e-02  1.0000000000000003e-01  1.0002292968114013e-01  1.0000000000000003e-01  1.0001366060522117e-01  1.0002077480966584e-01  1.0002362334449443e-01  1.0002546518925449e-01  1.0002505764208490e-01  1.0003538274377442e-01  1.0003300241674168e-01  1.0003294664084149e-01  1.0004663867769001e-01  1.0004293402716609e-01  1.0004264657630131e-01  1.0006339135266114e-01  1.0005135375657286e-01  1.0005348838587708e-01  1.0007389917767333e-01  1.0006610221457142e-01  1.0004102762315355e-01  1.0012740163214864e-01  1.0008092210203048e-01  1.0009215254795333e-01  1.0013331409637055e-01  1.0008898171363957e-01  1.0011728842398709e-01  1.0012996082572777e-01  1.0015127876638406e-01  1.0004455874049083e-01  1.0031166521128136e-01  9.9829293368979999e-02  1.0070235544405251e-01  1.0026130384571909e-01  9.9117706564719285e-02  9.9650146573343520e-02  9.9995080733932609e-02  9.9837892297277839e-02  9.9872072988352711e-02  9.9896689896153926e-02  9.9894556647935173e-02  9.9866006258044940e-02  9.9874610196964503e-02  9.9947111203949821e-02  9.9880960864660154e-02  9.9940770449588254e-02  9.9917838672049689e-02  9.9919740215249964e-02  9.9935705584552822e-02  9.9936900904452758e-02  9.9931842954903177e-02  9.9946509279562099e-02  9.9945827072024998e-02  9.9945923765343517e-02  9.9954798227696998e-02  9.9956255329761268e-02  9.9955731255447391e-02  9.9963149033029566e-02  9.9961802521313467e-02  9.9967551764869086e-02  9.9963304070255984e-02  9.9978742178264107e-02  9.9956163709519083e-02  1.0000000000000003e-01  1.0002372617028694e-01  1.0000000000000003e-01  1.0001362682541065e-01  1.0002471327762363e-01  1.0002228219734362e-01  1.0002496743686293e-01  1.0003242982741610e-01  1.0003186978089211e-01  1.0003166470398155e-01  1.0004419950283791e-01  1.0004034538475463e-01  1.0004035207888837e-01  1.0005990534231339e-01  1.0005137018357083e-01  1.0005077171307152e-01  1.0007464422863008e-01  1.0006182032526387e-01  1.0005370239049866e-01  1.0010083954623092e-01  1.0004275256994767e-01  1.0010697977365618e-01  1.0012453041909908e-01  1.0009998123654541e-01  1.0009400422998856e-01  1.0016275577081676e-01  1.0008248461822151e-01  1.0015731893617248e-01  1.0008829822011221e-01  1.0026971087604353e-01  9.9832931105719683e-02  1.0074565699644629e-01  1.0024000029035107e-01  9.9086693083137389e-02  9.9691402813471691e-02  9.9984528557739386e-02  9.9797396354584192e-02  9.9925698134453955e-02  9.9880014560056268e-02  9.9871288511026848e-02  9.9899145707046000e-02  9.9906961876043768e-02  9.9844199343629994e-02  9.9958837488382787e-02  9.9905428228729123e-02  9.9921381215397093e-02  9.9928127023661870e-02  9.9935621755528545e-02  9.9924891407901825e-02  9.9944629261693937e-02  9.9942629367961403e-02  9.9940771163367012e-02  9.9951805200943614e-02  9.9953117365481015e-02  9.9953275921749754e-02  9.9960039907930051e-02  9.9962601435990450e-02  9.9961098009738625e-02  9.9969849095547514e-02  9.9963830123741659e-02  9.9978933076790288e-02  9.9957863918318388e-02  1.0000000000000003e-01  1.0002437585421800e-01  1.0000000000000003e-01  1.0001542823740041e-01  1.0002383262015169e-01  1.0002155104269363e-01  1.0003033466327306e-01  1.0002933290110283e-01  1.0003034752394095e-01  1.0004079266067001e-01  1.0003830082493756e-01  1.0003746004422757e-01  1.0005490852129166e-01  1.0004882914816912e-01  1.0004854133136307e-01  1.0007106346919155e-01  1.0005895739797273e-01  1.0005638365341074e-01  1.0009038975620180e-01  1.0006014116733125e-01  1.0007472448164377e-01  1.0008307446220721e-01  1.0010969011553660e-01  1.0009738839196947e-01  1.0014784082445406e-01  1.0010829034054282e-01  1.0009177217161436e-01  1.0020640260517381e-01  1.0003724202493855e-01  1.0027044832744238e-01  9.9881962971435548e-02  1.0070154719596942e-01  1.0029143859744265e-01  9.9029877893950527e-02  9.9680985789167495e-02  9.9952120448895052e-02  9.9840992323087144e-02  9.9915401152914737e-02  9.9846271487857921e-02  9.9909656979873057e-02  9.9900068947310378e-02  9.9872670806494909e-02  9.9915921126015425e-02  9.9876900182553477e-02  9.9933898790670508e-02  9.9916653296288238e-02  9.9940303011595816e-02  9.9914320358287567e-02  9.9943634813983342e-02  9.9938179614173769e-02  9.9936397454562301e-02  9.9948928139033041e-02  9.9949623584010702e-02  9.9947466145827474e-02  9.9958334094632159e-02  9.9958537830857591e-02  9.9960302796481854e-02  9.9963850072189178e-02  9.9969398018008790e-02  9.9963326109594533e-02  9.9979679431439900e-02  9.9958484803701966e-02  1.0000000000000003e-01  1.0002575133155585e-01  1.0000000000000003e-01  1.0001492057340620e-01  1.0002345998991855e-01  1.0002539777579125e-01  1.0002832010113928e-01  1.0002776813448926e-01  1.0003779411757088e-01  1.0003631372299571e-01  1.0003556586680076e-01  1.0004938319208188e-01  1.0004635271429085e-01  1.0004534547671512e-01  1.0006556864899485e-01  1.0005749376466166e-01  1.0005412008620190e-01  1.0008386282792717e-01  1.0006431008500413e-01  1.0006558671569332e-01  1.0009563924683988e-01  1.0008177314555836e-01  1.0004307542814091e-01  1.0017084710208779e-01  1.0008769175477117e-01  1.0012196412448884e-01  1.0014747817106101e-01  1.0014184954311860e-01  1.0004322176612603e-01  1.0032522285588820e-01  9.9830121305901479e-02  1.0069559429499282e-01  1.0031060383727257e-01  9.9041970909675925e-02  9.9640822926990932e-02  9.9993176724575653e-02  9.9837035086668954e-02  9.9882445903305458e-02  9.9885107382778379e-02  9.9906577016305939e-02  9.9867165001094008e-02  9.9916454418330303e-02  9.9905186577039132e-02  9.9893370905120724e-02  9.9889096888009732e-02  9.9957827302012095e-02  9.9900782121063444e-02  9.9949055618812996e-02  9.9932199938822075e-02  9.9933372286129224e-02  9.9946050105491846e-02  9.9948320877445651e-02  9.9943779854592144e-02  9.9955395130927133e-02  9.9956172261252016e-02  9.9955689749020929e-02  9.9964640754558895e-02  9.9963837951926801e-02  9.9968450046039090e-02  9.9965980915227515e-02  9.9979876375102791e-02  9.9959613298482325e-02  1.0000000000000003e-01  1.0002591502664293e-01  1.0000000000000003e-01  1.0001437002883400e-01  1.0002623812852031e-01  1.0002358717737188e-01  1.0002689680137707e-01  1.0003340203889026e-01  1.0003393524537980e-01  1.0003351062526097e-01  1.0004520460442495e-01  1.0004236219348965e-01  1.0004205708123053e-01  1.0005974801250338e-01  1.0005418562990272e-01  1.0005086804826600e-01  1.0007670851440825e-01  1.0006407089651344e-01  1.0005973425070568e-01  1.0009461330129409e-01  1.0007346707050151e-01  1.0006112219164369e-01  1.0012660576399539e-01  1.0004680611103432e-01  1.0011953710255900e-01  1