<?xml version="1.0"?>
<VTKFile type="UnstructuredGrid"  version="0.1"  >
<UnstructuredGrid>
<Piece  NumberOfPoints="1933" NumberOfCells="3640">
<Points>
<DataArray  type="Float64"  NumberOfComponents="3"  format="ascii">0.2940404924442651 -0.001759422640912032 0  5.294040546676629 -0.001724088016136343 0  5.293987550155926 7.498276051537611 0  0.2939874680006076 7.498240670418968 0  10.29404063192627 -0.001688865267463922 0  10.29398769008272 7.498311285941199 0  15.29404080782651 -0.001653770449834641 0  15.29398791389182 7.498346380641566 0  20.29404113058034 -0.001618776603307152 0  20.29398824486008 7.498381370989587 0  25.29404164712446 -0.001583833097479734 0  25.29398870361269 7.498416310762421 0  30.29404239495267 -0.001548875304865099 0  30.29398930741693 7.498451265704298 0  35.29404340361997 -0.001513829312273322 0  35.29399006965894 7.498486310038226 0  40.29404469648588 -0.001478613835906238 0  40.2939909995485 7.498521525045695 0  45.29404629220379 -0.001443140439718249 0  45.29399210190132 7.498556999050542 0  50.29404820581517 -0.001407312625363879 0  50.29399337683652 7.498592828406278 0  55.29405044942787 -0.001371024065100281 0  55.29399481925781 7.49862911928328 0  60.29405303247664 -0.001334156065279728 0  60.29399641799499 7.498665990194312 0  65.29405596154928 -0.001296574217931138 0  65.2939981544709 7.498703575306875 0  70.29405923970653 -0.001258124086567192 0  70.29400000072891 7.498742028688339 0  75.29406286516011 -0.001218625655012701 0  75.29400191659201 7.498781529731471 0  80.29406682905199 -0.001177866122015074 0  80.29400384562778 7.498822290129045 0  85.29407111190272 -0.001135590423442921 0  85.29400570946831 7.498864562919612 0  90.29407567798212 -0.001091488572612312 0  90.29400739983478 7.498908654326619 0  95.29408046633444 -0.001045178477229153 0  95.29400876737917 7.498954939365032 0  100.2940853762345 -0.0009961822468513998 0  100.2940096061772 7.499003882479442 0  105.2940902431585 -0.0009438930527763268 0  105.2940096324446 7.499056064733896 0  110.2940947981919 -0.0008875282396260237 0  110.2940084560839 7.499112219072671 0  115.2940985979788 -0.0008260625750153696 0  115.2940055445555 7.499173274348551 0  120.294100901332 -0.0007581335254720524 0  120.2940001817593 7.499240405806607 0  125.294100447953 -0.0006819095741317605 0  125.2939914334085 7.499315081444748 0  130.2940950554938 -0.0005949174967928691 0  130.2939781519948 7.499399073554763 0  135.2940808765726 -0.0004938507897581119 0  135.2939591046771 7.499494359967941 0  140.2940510132906 -0.0003744843324121321 0  140.293933420606 7.499602751497036 0  145.2939928952201 -0.0002322191782137443 0  145.2939018096396 7.499724962086772 0  150.2938831496315 -6.546788462772017e-05 0  150.2938696193193 7.499859000180435 0  160.2938926261448 9.605631534688078e-19 0  165.2938272586977 -0.0001314731727099541 0  165.2938826185269 7.4998429697103 0  160.2938951658273 7.499940568579197 0  170.2938070409539 -0.0002222432891868036 0  170.2938695831927 7.499765161885025 0  175.2938080203982 -0.0002844683408917086 0  175.2938614766501 7.499708900713972 0  180.2938186780019 -0.0003256394586399886 0  180.2938584260812 7.499670757727513 0  185.2938333124224 -0.000351068868608287 0  185.2938592757749 7.499646943990121 0  190.2938490892924 -0.0003646238094988654 0  190.2938627800563 7.499634276761237 0  195.2938646207374 -0.0003691307733983446 0  195.2938679242551 7.499630268661182 0  200.2938792563071 -0.0003666656721671674 0  200.2938739644392 7.499633019972183 0  205.293892722418 -0.0003587668925594988 0  205.2938803848027 7.499641086276208 0  210.2939049369232 -0.0003465883383164815 0  210.2938868409479 7.499653364746451 0  215.2939159129905 -0.0003310075258721296 0  215.2938931103685 7.499669006132896 0  220.2939257090054 -0.0003127014597753164 0  220.2938990546407 7.499687349379567 0  225.2939344024388 -0.0002922000141150141 0  225.293904592258 7.49970787380758 0  230.2939420763172 -0.0002699237946872916 0  230.2939096797409 7.499730164242747 0  235.2939488123937 -0.0002462113108142586 0  235.293914298752 7.499753885473305 0  240.2939546879213 -0.0002213387433218444 0  240.2939184474123 7.49977876338533 0  245.2939597743907 -0.0001955345320637385 0  245.2939221345224 7.499804570887131 0  250.2939641373556 -0.0001689902873575329 0  250.2939253757706 7.49983111729583 0  255.2939678368885 -0.0001418690451253724 0  255.2939281913125 7.499858240262236 0  260.2939709284167 -0.0001143115550972602 0  260.293930604291 7.499885799596204 0  265.2939734638383 -8.644105898531406e-05 0  265.2939326400144 7.499913672562522 0  270.2939754928574 -5.836684116433514e-05 0  270.2939343255932 7.499941750375909 0  275.2939770645452 -3.018668792715347e-05 0  275.2939356898793 7.499969935755079 0  280.2939782291324 -1.988245953241791e-06 0  280.2939367635918 7.499998141519781 0  285.2939790400241 2.615090250365922e-05 0  285.293937579512 7.500026290347287 0  290.2939795559279 5.416486845469617e-05 0  290.2939381726098 7.500054315959965 0  295.2939798428123 8.200356378283507e-05 0  295.2939385800168 7.500082166201126 0  300.2939799748674 0.0001096405913645576 0  300.2939388407979 7.500109808665599 0  305.2939800326316 0.0001370869216926595 0  305.2939389959025 7.500137239757882 0  310.2939800939744 0.0001644127308229216 0  310.2939390897243 7.500164498338411 0  5.293934256270581 14.99827635178766 0  0.2939341722222119 14.99824089459449 0  10.29393437938399 14.99831158978276 0  15.29393456008453 14.99834666205951 0  20.29393480802606 14.99838162387247 0  25.29393512867209 14.99841653673317 0  30.29393552467582 14.99845146873919 0  35.29393599590181 14.99848649416698 0  40.29393653892999 14.99852169340541 0  45.2939371463462 14.99855715349248 0  50.2939378058885 14.99859296927584 0  55.29393849942069 14.9986292451778 0  60.29393920166237 14.99866609757385 0  65.2939398785884 14.99870365784016 0  70.29394048539483 14.99874207617765 0  75.29394096392851 14.99878152637421 0  80.29394123947634 14.99882221171795 0  85.29394121684734 14.99886437231407 0  90.29394077576534 14.99890829406749 0  95.29393976580798 14.99895431951736 0  100.2939380015463 14.99900286044776 0  105.2939352594094 14.9990544115318 0  110.2939312793577 14.9991095627766 0  115.2939257772668 14.99916900542089 0  120.2939184786155 14.99923351972179 0  125.293909191401 14.99930392116288 0  130.2938979461592 14.99938091974102 0  135.2938852407631 14.99946480869755 0  140.2938724254688 14.99955483528386 0  145.2938622119929 14.99964799841752 0  150.2938590758083 14.999736764583 0  165.2938918981821 14.99977223010141 0  160.2938898404123 14.99982102260674 0  170.2938871457873 14.99972511677647 0  175.2938803789477 14.99968643221103 0  180.2938742449935 14.99965815531524 0  185.2938697657283 14.9996398804843 0  190.2938671081554 14.9996303435494 0  195.2938660659416 14.99962812012971 0  200.2938663103412 14.99963189801971 0  205.2938675071173 14.99964055913056 0  210.2938693635166 14.99965318348042 0  215.2938716413902 14.99966902543995 0  220.2938741553683 14.99968748347769 0  225.2938767654762 14.99970807164037 0  230.2938793685545 14.99973039536353 0  235.2938818903411 14.99975413190465 0  240.2938842788169 14.99977901486429 0  245.2938864989011 14.99980482205843 0  250.2938885283515 14.99983136604658 0  255.2938903546529 14.99985848673715 0  260.2938919726953 14.99988604562297 0  265.2938933830422 14.99991392131659 0  270.2938945906525 14.99994200615775 0  275.2938956039177 14.99997020375122 0  280.2938964339231 14.9999984273667 0  285.2938970938914 15.00002659919038 0  290.2938975987838 15.00005465044765 0  295.2938979652266 15.00008252237996 0  300.2938982120646 15.000110167878 0  305.2938983623129 15.00013755305655 0  310.2938984478695 15.00016465678624 0  5.293880757373666 22.49827690831138 0  0.2938806778199856 22.49824143577158 0  10.29388085161169 22.4983121096135 0  15.29388096923338 22.49834712293866 0  20.29388111202549 22.49838202077486 0  25.29388127730997 22.49841687268981 0  30.29388145930745 22.49845174936476 0  35.293881649522 22.49848672466864 0  40.29388183651452 22.49852187697986 0  45.29388200533258 22.49855729038095 0  50.29388213674517 22.49859305602061 0  55.29388220634439 22.49862927378075 0  60.29388218353978 22.4986660543206 0  65.2938820304559 22.49870352154896 0  70.29388170076024 22.49874181556655 0  75.29388113848968 22.49878109610899 0  80.29388027701977 22.49882154648385 0  85.29387903845196 22.49886337791379 0  90.29387733391181 22.49890683402419 0  95.29387506559478 22.49895219488273 0  100.2938721319253 22.49899977938349 0  105.2938684379773 22.49904994367835 0  110.2938639143803 22.49910307147086 0  115.2938585492575 22.49915954884812 0  120.2938524389863 22.4992197113311 0  125.2938458638129 22.49928374341807 0  130.2938393913333 22.49935150122212 0  135.2938339999463 22.49942221961441 0  140.2938311870669 22.49949406697117 0  145.2938329703986 22.49956355516032 0  150.2938415945446 22.49962500084175 0  165.2938756562236 22.49969196783251 0  160.2938683298804 22.49970833755575 0  170.2938766754221 22.49967103953084 0  175.2938737584938 22.49965122174616 0  180.2938690273544 22.49963568051496 0  185.2938639319651 22.49962572104905 0  190.2938592900639 22.49962152555433 0  195.2938554732258 22.49962270824327 0  200.2938525816973 22.49962865226308 0  205.2938505692747 22.49963868982127 0  210.2938493219154 22.49965218803446 0  215.2938487031454 22.49966858328026 0  220.2938485781931 22.49968738945816 0  225.2938488254155 22.49970819415309 0  230.2938493405707 22.49973065000378 0  235.2938500373147 22.49975446487304 0  240.293850845881 22.49977939246016 0  245.2938517110344 22.49980522399664 0  250.293852589862 22.49983178118848 0  255.2938534496898 22.49985891035393 0  260.2938542662178 22.49988647762818 0  265.2938550219236 22.49991436509136 0  270.2938557047039 22.49994246768792 0  275.2938563067418 22.49997069082501 0  280.2938568235913 22.49999894854776 0  285.293857253488 22.50002716217673 0  290.2938575969673 22.50005525923341 0  295.2938578569561
[...]
<PointData  Scalars="p"> 
<DataArray  type="Float64"  Name="p"  format="ascii">1.0000000000000001e-01  1.0000000000000003e-01  9.9997412526353038e-02  1.0000000000000003e-01  1.0000000000000003e-01  9.9996295508228861e-02  1.0000000000000003e-01  9.9994408471657650e-02  1.0000000000000003e-01  9.9993141623315393e-02  1.0000000000000003e-01  9.9991724142637226e-02  1.0000000000000003e-01  9.9989897436054617e-02  1.0000000000000003e-01  9.9988716140766876e-02  1.0000000000000003e-01  9.9987460688635732e-02  1.0000000000000003e-01  9.9985446151060337e-02  1.0000000000000003e-01  9.9984201704664058e-02  1.0000000000000003e-01  9.9981006048517201e-02  1.0000000000000003e-01  9.9977624194929615e-02  1.0000000000000003e-01  9.9975112910161437e-02  1.0000000000000003e-01  9.9972657157917547e-02  1.0000000000000003e-01  9.9969069914250558e-02  1.0000000000000003e-01  9.9967288544467459e-02  1.0000000000000003e-01  9.9965120554587394e-02  1.0000000000000003e-01  9.9961603721175005e-02  1.0000000000000003e-01  9.9960972740132881e-02  1.0000000000000003e-01  9.9958422753978246e-02  1.0000000000000003e-01  9.9957169994351711e-02  1.0000000000000003e-01  9.9954809730100597e-02  1.0000000000000003e-01  9.9957331272617245e-02  1.0000000000000003e-01  9.9949965088593828e-02  1.0000000000000003e-01  9.9960018163775574e-02  1.0000000000000003e-01  9.9944218653201702e-02  1.0000000000000003e-01  9.9966248397518762e-02  1.0000000000000003e-01  9.9934706704234988e-02  1.0000000000000003e-01  9.9976142411844160e-02  1.0000000000000001e-01  9.9915575900257819e-02  1.0000000000000001e-01  1.0000000000000003e-01  1.0010158870960015e-01  1.0017172807988953e-01  1.0000000000000003e-01  1.0004470403797670e-01  1.0000000000000003e-01  1.0008289064967184e-01  1.0000000000000003e-01  1.0006557290938271e-01  1.0000000000000003e-01  1.0007245496825619e-01  1.0000000000000003e-01  1.0006839939765311e-01  1.0000000000000003e-01  1.0007238188933451e-01  1.0000000000000003e-01  1.0006903443628783e-01  1.0000000000000003e-01  1.0007042183048261e-01  1.0000000000000003e-01  1.0006981419309928e-01  1.0000000000000003e-01  1.0006909715202546e-01  1.0000000000000003e-01  1.0006850328913035e-01  1.0000000000000003e-01  1.0006823615016965e-01  1.0000000000000003e-01  1.0006712248673211e-01  1.0000000000000003e-01  1.0006656761940608e-01  1.0000000000000003e-01  1.0006593287289704e-01  1.0000000000000003e-01  1.0006510723786501e-01  1.0000000000000003e-01  1.0006432802347660e-01  1.0000000000000003e-01  1.0006393226690183e-01  1.0000000000000003e-01  1.0006280755701569e-01  1.0000000000000003e-01  1.0006277729344014e-01  1.0000000000000003e-01  1.0006120077006526e-01  1.0000000000000003e-01  1.0006225998255448e-01  1.0000000000000003e-01  1.0005872365577038e-01  1.0000000000000003e-01  1.0006341609386263e-01  1.0000000000000003e-01  1.0005399859214384e-01  1.0000000000000003e-01  1.0006847552688032e-01  1.0000000000000003e-01  1.0004323529849525e-01  1.0000000000000003e-01  1.0008675112938112e-01  1.0000000000000001e-01  1.0000000000000003e-01  9.9996495995119533e-02  1.0000000000000003e-01  9.9996101518780398e-02  9.9995752947026756e-02  9.9995209114315836e-02  9.9994087642612001e-02  9.9994071944329382e-02  9.9994002701512347e-02  9.9992525121053125e-02  9.9992970718298310e-02  9.9992559569002409e-02  9.9990135488979434e-02  9.9987724105786491e-02  9.9987104350313508e-02  9.9983591557713997e-02  9.9984670178852555e-02  9.9984099971850482e-02  9.9981259154616253e-02  9.9982604692352109e-02  9.9982762093333608e-02  9.9979121987662747e-02  9.9982653511174732e-02  9.9980613170366897e-02  9.9981728628486699e-02  9.9978819947177056e-02  9.9988146167069178e-02  9.9970320424384015e-02  1.0000099093243603e-01  9.9950031805992656e-02  1.0002751205920121e-01  9.9913573050753254e-02  9.9940080820203975e-02  1.0028778482583847e-01  1.0006802221692684e-01  1.0001674529553692e-01  1.0002315352287451e-01  1.0001881242144030e-01  1.0002951900435506e-01  1.0002087318509510e-01  1.0002606678393787e-01  1.0002646253405177e-01  1.0002533221936670e-01  1.0002561950965851e-01  1.0002661673674462e-01  1.0002506744110538e-01  1.0002515449449370e-01  1.0002528113803934e-01  1.0002430860908484e-01  1.0002417817747064e-01  1.0002408995691724e-01  1.0002358117940231e-01  1.0002313958572850e-01  1.0002352329484897e-01  1.0002226986614168e-01  1.0002348272636370e-01  1.0002110143336435e-01  1.0002472602781566e-01  1.0001768934164661e-01  1.0003016051841693e-01  1.0000842834843086e-01  1.0004205989063061e-01  1.0000000000000003e-01  9.9995190329474390e-02  1.0000000000000003e-01  9.9996346065956157e-02  9.9994409305874082e-02  9.9993155317299007e-02  9.9992628909243528e-02  9.9992562908824037e-02  9.9990323866257183e-02  9.9990747871671948e-02  9.9990967570566872e-02  9.9988062029415084e-02  9.9987782701962402e-02  9.9987765600776601e-02  9.9979481288162225e-02  9.9980213992348368e-02  9.9979043026941231e-02  9.9973901869197315e-02  9.9976381791830382e-02  9.9975826604289261e-02  9.9970774263669057e-02  9.9973829448133128e-02  9.9974711380110881e-02  9.9967950998475483e-02  9.9976026171423385e-02  9.9970196231445957e-02  9.9976426911811064e-02  9.9964927783533539e-02  9.9990765295190395e-02  9.9940064030518500e-02  1.0003081177066356e-01  9.9862456046504358e-02  9.9930006329893156e-02  1.0030352227611040e-01  1.0014084474604451e-01  1.0003382584326523e-01  1.0003579281269817e-01  1.0006059134416773e-01  1.0003504095693702e-01  1.0004950636409995e-01  1.0004962733021054e-01  1.0004706424825674e-01  1.0004816559091581e-01  1.0005093503342335e-01  1.0004771384347337e-01  1.0004852655914229e-01  1.0004903843944428e-01  1.0004715910441575e-01  1.0004695781515723e-01  1.0004719174825887e-01  1.0004577527826929e-01  1.0004568708699073e-01  1.0004542241298543e-01  1.0004495504992683e-01  1.0004402296245846e-01  1.0004516204090490e-01  1.0004242225007591e-01  1.0004587292399411e-01  1.0003982153129398e-01  1.0004964774574361e-01  1.0003097243735797e-01  1.0006655625120339e-01  1.0000000000000003e-01  9.9994457414246063e-02  1.0000000000000003e-01  9.9996267235623201e-02  9.9993678640719230e-02  9.9993672276694728e-02  9.9993675690352418e-02  9.9991502596368506e-02  9.9992168913531812e-02  9.9992860778647330e-02  9.9990207211167900e-02  9.9991441374378875e-02  9.9991935626588174e-02  9.9986517296815625e-02  9.9989012483213374e-02  9.9984520137831934e-02  9.9978842615774305e-02  9.9980999795728512e-02  9.9981702283948634e-02  9.9975611456729549e-02  9.9980814739739632e-02  9.9980453439785635e-02  9.9976019239897546e-02  9.9979732596490831e-02  9.9984286069549788e-02  9.9972533975764638e-02  9.9991342228584440e-02  9.9969576353167527e-02  1.0000375420992270e-01  9.9943049331320741e-02  1.0005147524246466e-01  9.9851654376087617e-02  9.9914502567850519e-02  1.0036343322207138e-01  1.0010214703008351e-01  1.0000233175817169e-01  1.0008038752146348e-01  1.0000172887988629e-01  1.0003634367528336e-01  1.0003106856913362e-01  1.0003024659676152e-01  1.0003055874793142e-01  1.0003682352740971e-01  1.0003150215530683e-01  1.0003390469507197e-01  1.0003512938486789e-01  1.0003284711591444e-01  1.0003294961063390e-01  1.0003358903625829e-01  1.0003184152844850e-01  1.0003170527094599e-01  1.0003208765420867e-01  1.0003076694345051e-01  1.0003112512038038e-01  1.0003045747121271e-01  1.0003115485824544e-01  1.0002878643529033e-01  1.0003293097319257e-01  1.0002542873464519e-01  1.0003769109139847e-01  1.0001741721271253e-01  1.0005031255725445e-01  1.0000000000000003e-01  9.9993697996397457e-02  1.0000000000000003e-01  9.9995715873836905e-02  9.9993785837853927e-02  9.9994371309336333e-02  9.9991468885426163e-02  9.9992240997736986e-02  9.9992432356881711e-02  9.9989761623274331e-02  9.9991244693201142e-02  9.9992221202286305e-02  9.9987579337359092e-02  9.9989720597548681e-02  9.9989070573925046e-02  9.9984382325151444e-02  9.9981878839129512e-02  9.9981714321945650e-02  9.9973998871565425e-02  9.9979142142232996e-02  9.9980120560771366e-02  9.9972221075064163e-02  9.9980413160326131e-02  9.9979144819946061e-02  9.9976009651093128e-02  9.9977489154121954e-02  9.9990303960468929e-02  9.9963399862868910e-02  1.0000954122488244e-01  9.9936333674760597e-02  1.0006275195676784e-01  9.9824044483422733e-02  9.9859188919161443e-02  1.0041900159048706e-01  1.0012106792944520e-01  1.0002622426395338e-01  1.0005893671381075e-01  1.0004254959295038e-01  1.0003706790908334e-01  1.0003626666374206e-01  1.0003164564967258e-01  1.0004591152020577e-01  1.0003551961957764e-01  1.0004048935095902e-01  1.0004275124700344e-01  1.0003967700841178e-01  1.0004016150399539e-01  1.0004186312156106e-01  1.0003907128217956e-01  1.0003918973360440e-01  1.0003961889364454e-01  1.0003809521113317e-01  1.0003777456189938e-01  1.0003844769945922e-01  1.0003679198833637e-01  1.0003792451264887e-01  1.0003609641226006e-01  1.0003890572539814e-01  1.0003316434022519e-01  1.0004360322050627e-01  1.0002459323974501e-01  1.0005848697886152e-01  1.0000000000000003e-01  9.9992779775179383e-02  1.0000000000000003e-01  9.9995843580458418e-02  9.9994068650023540e-02  9.9993004423247475e-02  9.9992733909175485e-02  9.9993105833550699e-02  9.9990304159666143e-02  9.9991363858990448e-02  9.9992829938224684e-02  9.9988849822327405e-02  9.9990808066843670e-02  9.9991729734303578e-02  9.9986115463571654e-02  9.9988273721622514e-02  9.9991215199826414e-02  9.9976550657263324e-02  9.9981615444750885e-02  9.9981502706628575e-02  9.9973248749052612e-02  9.9980687619560832e-02  9.9983463422312110e-02  9.9971867463620842e-02  9.9986383754418123e-02  9.9980164348925690e-02  9.9985667301083964e-02  9.9971387127862174e-02  1.0001636045024787e-01  9.9927447357064270e-02  1.0008435248617502e-01  9.9799995586352649e-02  9.9846004962298326e-02  1.0042079269285704e-01  1.0014440585276392e-01  9.9981691817330742e-02  1.0005668524731655e-01  1.0004433296002044e-01  1.0004839856281672e-01  1.0001220061830460e-01  1.0004621901905288e-01  1.0002290081091068e-01  1.0003431513200639e-01  1.0003671950704662e-01  1.0003314198898751e-01  1.0003385960274316e-01  1.0003747289109591e-01  1.0003348698168678e-01  1.0003422203424735e-01  1.0003531333085840e-01  1.0003281844703531e-01  1.0003290868129060e-01  1.0003328036465997e-01  1.0003220726038300e-01  1.0003155120911375e-01  1.0003311621123290e-01  1.0003021866173835e-01  1.0003402427052586e-01  1.0002792821355022e-01  1.0003838131657601e-01  1.0001999469148555e-01  1.0005186665161743e-01  1.0000000000000003e-01  9.9992266193314389e-02  1.0000000000000003e-01  9.9996075292200448e-02  9.9992637421294855e-02  9.9993731849461295e-02  9.9993467597293953e-02  9.9991119041869123e-02  9.9991319724221039e-02  9.9992790094256795e-02  9.9988779480951223e-02  9.9990867161551214e-02  9.9992313847388312e-02  9.9986482001445609e-02  9.9989371345087619e-02  9.9991836969360204e-02  9.9982742743513583e-02  9.9989857237090404e-02  9.9983829619817693e-02  9.9973261791066123e-02  9.9980275985809997e-02  9.9981552887998967e-02  9.9972272603898377e-02  9.9981052460567113e-02  9.9986867881981842e-02  9.9969126902697727e-02  9.9995233942724485e-02  9.9971150167156214e-02  1.0000962407039750e-01  9.9930542291253241e-02  1.0009524297237592e-01  9.9771350629309336e-02  9.9848269153266417e-02  1.0044913583048871e-01  1.0012503662249977e-01  9.9981400520794864e-02  1.0007339483980368e-01  1.0002423246604196e-01  1.0004456681728757e-01  1.0005768407103710e-01  1.0001785512330646e-01  1.0003643144585984e-01  1.0003540844096745e-01  1.0003441895461733e-01  1.0003356470217895e-01  1.0004006880489141e-01  1.0003451321662400e-01  1.0003620199436435e-01  1.0003797945424386e-01  1.0003520487073687e-01  1.0003508841541851e-01  1.0003612861523192e-01  1.0003385670306517e-01  1.0003421728034892e-01  1.0003406050531641e-01  1.0003408666169980e-01  1.0003229802265003e-01  1.0003587919793452e-01  1.0002970913400984e-01  1.0003999350660013e-01  1.0002222193468073e-01  1.0005374186674418e-01  1.0000000000000003e-01  9.9991902511951683e-02  1.0000000000000003e-01  9.9995318963499585e-02  9.9992905151012529e-02  9.9994360179976399e-02  9.9991629698458387e-02  9.9992334007004038e-02  9.9993081393215999e-02  9.9989349277481307e-02  9.9991087221917782e-02  9.9992551068875488e-02  9.9987205265625823e-02  9.9989901372720097e-02  9.9991964034242320e-02  9.9984451892248707e-02  9.9990328480114118e-02  9.9990873374042985e-02  9.9983734771415020e-02  9.9982251319314763e-02  9.9983703053306325e-02  9.9969993556389108e-02  9.9982642524843485e-02  9.9982492903360781e-02  9.9974496079271197e-02  9.9980663990311969e-02  9.9997426271186962e-02  9.9958576774724653e-02  1.0002270850081177e-01  9.9927213227871278e-02  1.0009784486590163e-01  9.9757272442208264e-02  9.9815143635649139e-02  1.0048134396787732e-01  1.0013205873953973e-01  9.9990137510428387e-02  1.0005012962326498e-01  1.0001643056719219e-01  1.0005568157158090e-01  1.0003347024100599e-01  1.0004675096516306e-01  1.0002548366319489e-01  1.0003405176422990e-01  1.0002540317264791e-01  1.0003902628437947e-01  1.0002987320414475e-01  1.0003321547715396e-01  1.0003587331244762e-01  1.0003262340994810e-01  1.0003285160044012e-01  1.0003473475242880e-01  1.0003197333832144e-01  1.0003177535067094e-01  1.0003286456525162e-01  1.0003062330566459e-01  1.0003178380142955e-01  1.0003037831679820e-01  1.0003292831671866e-01  1.0002747761036528e-01  1.0003765415956437e-01  1.0002009939775575e-01  1.0005055110024616e-01  1.0000000000000003e-01  9.9991224979180240e-02  1.0000000000000003e-01  9.9995495049099659e-02  9.9993268260642268e-02  9.9992875163267922e-02  9.9992373994726408e-02  9.9993687533995179e-02  9.9990249690775426e-02  9.9991427923815532e-02  9.9992748434583945e-02  9.9988149229933279e-02  9.9989798288536838e-02  9.9992052762131647e-02  9.9985045121734062e-02  9.9989411424343325e-02  9.9992333644634945e-02  9.9983754138996947e-02  9.9989185840379288e-02  9.9994716759001775e-02  9.9972560388154302e-02  9.9981730418562592e-02  9.9983934433497429e-02  9.9967682192578372e-02  9.9986781553110013e-02  9.9982143906464621e-02  9.9981393614284222e-02  9.9971268622723888e-02  1.0002513250868374e-01  9.9910630423959215e-02  1.0011573247496883e-01  9.9740389565421347e-02  9.9806883794798379e-02  1.0048033441547151e-01  1.0014924674994843e-01  9.9968034440659007e-02  1.0005127113537259e-01  1.0002864408265426e-01  1.0003531636154818e-01  1.0003241846775966e-01  1.0005122593497667e-01  1.0004402615211859e-01  1.0001786040230098e-01  1.0004213001771095e-01  1.0002521546304284e-01  1.0003281173600828e-01  1.0003531249116454e-01  1.0003213527053693e-01  1.0003210392628750e-01  1.0003565064557914e-01  1.0003193635852699e-01  1.0003251035712411e-01  1.0003347048856855e-01  1.0003151195819870e-01  1.0003088617200717e-01  1.0003260828233446e-01  1.0002963663511158e-01  1.0003292717642409e-01  1.0002800333532542e-01  1.0003706662809610e-01  1.0002059579275149e-01  1.0005025536287383e-01  1.0000000000000003e-01  9.9990975007556618e-02  1.0000000000000003e-01  9.9995750585499393e-02  9.9991917788768425e-02  9.9993388354007284e-02  9.9993285828695516e-02  9.9991186110410649e-02  9.9991664024311755e-02  9.9993185020266551e-02  9.9989056076715793e-02  9.9990323216890317e-02  9.9992403711329225e-02  9.9985557961867561e-02  9.9988772704411782e-02  9.9992166932894880e-02  9.9983646089775030e-02  9.9989438852287615e-02  9.9994679999308889e-02  9.9980383876793755e-02  9.9993510120140600e-02  9.9985428435223608e-02  9.9970082453948214e-02  9.9980825928518632e-02  9.9988126730248580e-02  9.9963873395783914e-02  9.9996858878980063e-02  9.9972672841352125e-02  1.0000768064606559e-01  9.9922900690815414e-02  1.0012205333932597e-01  9.9713436927831064e-02  9.9810344569220444e-02  1.0048843150754107e-01  1.0013623109761291e-01  9.9964925695036663e-02  1.0006371788256148e-01  1.0000944796108183e-01  1.0003280068325368e-01  1.0003795656663303e-01  1.0003680351492639e-01  1.0003594762562701e-01  1.0005320373238095e-01  1.0001657537744010e-01  1.0003305423227729e-01  1.0003039278680557e-01  1.0003071173436660e-01  1.0002883782468504e-01  1.0003456630090871e-01  1.0002990070091924e-01  1.0003089784055486e-01  1.0003290280615605e-01  1.0003025920063859e-01  1.0003042249784334e-01  1.0003080597685775e-01  1.0003006825249215e-01  1.0002842639830817e-01  1.0003196700878426e-01  1.0002615467499780e-01  1.0003550865995656e-01  1.0001968688279665e-01  1.0004801400181265e-01  1.0000000000000003e-01  9.9990806055523573e-02  1.0000000000000003e-01  9.9995085858444979e-02  9.9992132962663696e-02  9.9994061938359885e-02  9.9991338019150819e-02  9.9992191503986139e-02  9.9993075303106083e-02  9.9989930139919289e-02  9.9990979009306730e-02  9.9992956417609039e-02  9.9986844193657526e-02  9.9989000349841567e-02  9.9991482960836736e-02  9.9983752497162973e-02  9.9988792433762172e-02  9.9993183811209516e-02  9.9982085593589620e-02  9.9991724188332118e-02  9.9994163779777614e-02  9.9981932295010872e-02  9.9984349599523598e-02  9.9984906292190992e-02  9.9968144366379685e-02  9.9980870360399501e-02  9.9997552110505789e-02  9.9951454120769209e-02  1.0002409045936557e-01  9.9924989706077438e-02  1.0010412644065991e-01  9.9720651072111852e-02  9.9794056237308554e-02  1.0050005682740790e-01  1.0013679675301311e-01  9.9973807055027356e-02  1.0004993123164808e-01  1.0000786455096240e-01  1.0004321146124595e-01  1.0002361090929572e-01  1.0003113740545622e-01  1.0004410838554456e-01  1.0003712708945309e-01  1.0004250717627317e-01  1.0002447817214193e-01  1.0003192094452831e-01  1.0002395863044114e-01  1.0003488056996258e-01  1.0002768079727861e-01  1.0002986701130506e-01  1.0003225842246927e-01  1.0002973994400767e-01  1.0002961586021457e-01  1.0003177794567514e-01  1.0002885915281175e-01  1.0002976428755873e-01  1.0002886655423510e-01  1.0003054518539396e-01  1.0002580332242741e-01  1.0003497999815711e-01  1.0001924174823960e-01  1.0004683395914665e-01  1.0000000000000003e-01  9.9990316650668945e-02  1.0000000000000003e-01  9.9995192068873209e-02  9.9992510346597424e-02  9.9992605145957980e-02  9.9991862586260485e-02  9.9993357432658664e-02  9.9990288645969344e-02  9.9991228808024871e-02  9.9993092615266940e-02  9.9988421020518817e-02  9.9989629190936055e-02  9.9991752252629545e-02  9.9984625555515447e-02  9.9987591935757930e-02  9.9992156626139084e-02  9.9982316146384337e-02  9.9989409907984050e-02  9.9994605782208285e-02  9.9981942720656136e-02  9.9990515441577055e-02  1.0000063081444885e-01  9.9966520598490927e-02  9.9986994688874703e-02  9.9982489019648152e-02  9.9972759276897055e-02  9.9972432945762635e-02  1.0002505934471556e-01  9.9901428846808971e-02  1.0012061681632871e-01  9.9722508198699711e-02  9.9790227223839428e-02  1.0048457495549667e-01  1.0014624399241848e-01  9.9960716065338850e-02  1.0004824916889446e-01  1.0001749616349632e-01  1.0003062644183773e-01  1.0002031720448520e-01  1.0003941882722656e-01  1.0002878307384651e-01  1.0003425348868153e-01  1.0004350189660688e-01  1.0004150966308663e-01  1.0001644413287814e-01  1.0003654165076374e-01  1.0002280492233541e-01  1.0002855168403689e-01  1.0003047499671114e-01  1.0002812845200254e-01  1.0002791833212479e-01  1.0003082786369624e-01  1.0002836495586924e-01  1.0002820334087935e-01  1.0003011139518857e-01  1.0002686228460839e-01  1.0002956241437848e-01  1.0002547217787472e-01  1.0003314362519143e-01  1.0001857058128345e-01  1.0004503124154926e-01  1.0000000000000003e-01  9.9990116464301282e-02  1.0000000000000003e-01  9.9995376513979065e-02  9.9991269506893493e-02  9.9992895535963494e-02  9.9992565234122394e-02  9.9990956248614662e-02  9.9991112257151793e-02  9.9992782554856774e-02  9.9989072597693074e-02  9.9990209706171909e-02  9.9992147162820094e-02  9.9985936387837301e-02  9.9987501327679973e-02  9.9991321808696257e-02  9.9982404572449973e-02  9.9987185094200903e-02  9.9993420149655232e-02  9.9980908154602990e-02  9.9989845738697888e-02  9.9997861935176166e-02  9.9977565884010119e-02  9.9995926472061222e-02  9.9991041808747932e-02  9