<?xml version="1.0"?>
<VTKFile type="UnstructuredGrid"  version="0.1"  >
<UnstructuredGrid>
<Piece  NumberOfPoints="1933" NumberOfCells="3640">
<Points>
<DataArray  type="Float64"  NumberOfComponents="3"  format="ascii">0.2940247881518847 -0.00121710000453846 0  5.2940248099301 -0.001184216086082182 0  5.293975472332746 7.498815832952346 0  0.2939754446191977 7.498782940062571 0  10.29402484875764 -0.001151367689893732 0  10.29397551708509 7.498848681365804 0  15.29402492359041 -0.001118546091435644 0  15.29397558478345 7.498881500605966 0  20.29402504895181 -0.001085731421093556 0  20.29397567963411 7.498914312651942 0  25.29402523453185 -0.001052898487814315 0  25.29397580411182 7.498947143306474 0  30.29402548587465 -0.001020019338204749 0  30.29397595874189 7.498980020617647 0  35.29402580516157 -0.0009870642620537443 0  35.29397614193272 7.499012974218895 0  40.294026191805 -0.0009540020021205565 0  40.29397634983427 7.499046035241917 0  45.29402664279607 -0.0009207995278526705 0  45.29397657616375 7.499079236582328 0  50.2940271528164 -0.0008874215441047915 0  50.29397681194563 7.499112613397774 0  55.29402771413087 -0.0008538298080575508 0  55.29397704512423 7.499146203783871 0  60.29402831626719 -0.0008199822718151012 0  60.29397726000798 7.499180049616023 0  65.294028945468 -0.0007858320315557659 0  65.29397743649764 7.499214197575722 0  70.2940295838725 -0.0007513260342022409 0  70.29397754903654 7.499248700405181 0  75.29403020835313 -0.000716403461393937 0  75.29397756519661 7.499283618459425 0  80.29403078887749 -0.0006809936714213813 0  80.29397744378078 7.499319021654103 0  85.2940312861876 -0.0006450135255736722 0  85.2939771322752 7.499354991942859 0  90.29403164845655 -0.0006083638471601431 0  90.29397656342269 7.499391626500535 0  95.29403180636308 -0.0005709246475032116 0  95.29397565061595 7.499429041833396 0  100.2940316656356 -0.000532548589230568 0  100.2939742817332 7.499467379068236 0  105.2940310954386 -0.0004930519306353656 0  105.2939723110018 7.499506810642396 0  110.2940299097417 -0.0004522019097843887 0  110.2939695485808 7.499547548410501 0  115.2940278365707 -0.0004096992504342234 0  115.2939657480576 7.499589852535578 0  120.2940244659119 -0.0003651544617655143 0  120.2939605935223 7.499634038840577 0  125.2940191594091 -0.0003180576618801869 0  125.2939536915904 7.499680478261164 0  130.2940108908683 -0.0002677461057717341 0  130.293944582382 7.49972957293437 0  135.2939979604296 -0.0002133881915813288 0  135.2939328026423 7.499781673914004 0  140.2939774768036 -0.0001540481836968656 0  140.293918075385 7.499836866547088 0  145.2939444101509 -8.904324992698429e-05 0  145.2939007876471 7.499894484952178 0  150.2938898274476 -1.933460645732199e-05 0  150.293883107233 7.499952182742327 0  160.2938926261462 1.12264157142327e-18 0  165.2938904151206 -2.470192082546841e-05 0  165.293892261583 7.499968300791538 0  160.2938892549685 7.499983073391803 0  170.2938974894688 -3.405301286462445e-05 0  170.2938949967805 7.499962678105928 0  175.2939078931063 -3.303850712273952e-05 0  175.2938986162428 7.499965348442998 0  180.293919007297 -2.46407775907736e-05 0  180.2939030186015 7.499974552380858 0  185.2939296935034 -1.086566249338877e-05 0  185.2939078614459 7.499988738427387 0  190.293939496928 6.885886284208173e-06 0  190.2939128333997 7.500006704445685 0  195.2939482801379 2.761849100717511e-05 0  195.2939177103672 7.500027550417375 0  200.2939560493655 5.061488480009705e-05 0  200.2939223495774 7.500050607024151 0  205.2939628714789 7.535050759859642e-05 0  205.2939266696254 7.50007537446294 0  210.2939688345667 0.0001014357343545187 0  210.2939306312807 7.500101476130152 0  215.2939740296789 0.0001285766081654558 0  215.2939342226527 7.500128625029974 0  220.2939785428313 0.0001565479453336909 0  220.2939374487324 7.500156599761664 0  225.2939824519496 0.0001851747046169348 0  225.2939403243705 7.500185227376513 0  230.293985826149 0.0002143188991111398 0  230.2939428697237 7.50021437106848 0  235.2939887260781 0.0002438702583311231 0  235.2939451073829 7.500243921249628 0  240.2939912047084 0.0002737394598456115 0  240.2939470606283 7.500273789005091 0  245.2939933082829 0.0003038531492260945 0  245.2939487524167 7.500303901236277 0  250.293995077288 0.0003341502279405366 0  250.2939502048512 7.500334197018795 0  255.2939965474025 0.0003645790609182795 0  255.293951438965 7.500364624851225 0  260.2939977504067 0.000395095371566225 0  260.2939524747029 7.500395140575305 0  265.2939987150658 0.0004256606736098517 0  265.2939533310366 7.500425705822814 0  270.2939994679907 0.0004562411509041168 0  270.2939540261587 7.500456286901385 0  275.29400003451 0.0004868069490901362 0  275.2939545777135 7.500486854079226 0  280.2940004395456 0.0005173318958704269 0  280.2939550030417 7.500517381273321 0  285.2940007084983 0.0005477937289863767 0  285.2939553193828 7.500547846192663 0  290.2940008680691 0.000578174993244784 0  290.2939555440187 7.500578231040874 0  295.2940009468758 0.0006084648808024544 0  295.2939556943043 7.500608523940189 0  300.2940009754805 0.0006386624326251665 0  300.2939557876009 7.500638721294777 0  305.2940009850298 0.0006687816300358271 0  305.2939558412576 7.500668831354444 0  310.2940010027548 0.0006988586003875605 0  310.2939558731907 7.500698879330589 0  5.293926060481648 14.99881593398012 0  0.2939260339568094 14.99878303762899 0  10.29392609392474 14.9988487702675 0  15.29392613679512 14.99888157402899 0  20.29392618888961 14.99891437146141 0  25.29392624848379 14.99894718935668 0  30.29392631253616 14.99898005553601 0  35.29392637653248 14.99901299899734 0  40.29392643420719 14.99904605012521 0  45.29392647721076 14.99907924103819 0  50.29392649472821 14.99911260607639 0  55.29392647302962 14.99914618242133 0  60.29392639492676 14.99918001084934 0  65.29392623910832 14.99921413663143 0  70.2939259793236 14.99924861060379 0  75.29392558339346 14.99928349044238 0  80.29392501202638 14.99931884217926 0  85.29392421745149 14.99935474199283 0  90.29392314191827 14.99939127827937 0  95.2939217162192 14.99942855394324 0  100.2939198585778 14.99946668868657 0  105.2939174746006 14.99950582074664 0  110.2939144596141 14.99954610685906 0  115.2939107057756 14.99958771792194 0  120.29390611805 14.99963082538086 0  125.2939006456425 14.99967556890091 0  130.2938943385325 14.99972198820528 0  135.2938874408236 14.99976988968639 0  140.2938805284986 14.99981860135131 0  145.2938746741571 14.99986655189425 0  150.2938715365725 14.99991059769858 0  165.2938813888484 14.99994977285656 0  160.293879042071 14.99994971042024 0  170.2938822012583 14.99995287352775 0  175.2938826964743 14.9999602916079 0  180.2938834498243 14.99997202956744 0  185.2938846183995 14.99998756005414 0  190.2938861661157 15.00000623529101 0  195.2938879895393 15.0000274507581 0  200.2938899767661 15.00005069465018 0  205.2938920308144 15.00007555152081 0  210.293894076114 15.00010169023013 0  215.2938960577532 15.0001288484526 0  220.2938979381604 15.00015681826357 0  225.2938996933206 15.00018543411809 0  230.2939013093651 15.00021456329501 0  235.2939027798006 15.00024409846639 0  240.2939041033676 15.00027395197174 0  245.2939052824478 15.00030405141594 0  250.29390632191 15.00033433628271 0  255.2939072282904 15.00036475532767 0  260.2939080092208 15.00039526457798 0  265.2939086730364 15.00042582581557 0  270.2939092285132 15.00045640546235 0  275.2939096846843 15.00048697381962 0  280.2939100507148 15.00051750464036 0  285.2939103358244 15.00054797503521 0  290.2939105492554 15.00057836572105 0  295.2939107003685 15.00060866160862 0  300.2939107989888 15.00063885266434 0  305.2939108563089 15.0006689348277 0  310.2939108868746 15.00069891043174 0  5.293876641044767 22.49881610702239 0  0.2938766169313851 22.49878324087701 0  10.29387666344919 22.49884890858893 0  15.29387668307388 22.49888167790164 0  20.29387669743476 22.4989144434299 0  25.29387670292155 22.49894723227136 0  30.29387669492196 22.49898007147224 0  35.29387666774132 22.49901298874344 0  40.29387661439953 22.49904601294118 0  45.29387652636669 22.49907917449416 0  50.29387639326951 22.49911250585655 0  55.29387620258004 22.49914604201745 0  60.2938759392928 22.49917982107843 0  65.29387558559982 22.49921388490158 0  70.29387512058281 22.49924827982275 0  75.29387451996487 22.49928305741308 0  80.29387375599666 22.49931827524794 0  85.29387279760869 22.49935399759757 0  90.29387161104962 22.49939029587134 0  95.29387016136039 22.49942724850261 0  100.2938684152347 22.49946493970891 0  105.2938663460901 22.49950345613691 0  110.2938639425339 22.49954287970211 0  115.2938612218047 22.49958327382807 0  120.2938582500352 22.49962465864433 0  125.2938551709324 22.499666968499 0  130.2938522427909 22.49970998282541 0  135.2938498789775 22.49975322078222 0  140.2938486764272 22.49979579648337 0  145.2938493971258 22.49983625898956 0  150.293852840097 22.49987252561041 0  165.2938603962812 22.49992841842957 0  160.2938591370409 22.49991776692718 0  170.2938602976791 22.49993941639076 0  175.2938595034949 22.4999521897948 0  180.293858537054 22.49996735432624 0  185.2938577104229 22.49998500430855 0  190.2938571639752 22.50000496144304 0  195.293856929663 22.50002693737448 0  200.2938569817372 22.5000506222438 0  205.2938572695199 22.50007572626185 0  210.2938577360861 22.50010199547272 0  215.2938583277553 22.50012921468969 0  220.2938589981608 22.50015720473058 0  225.2938597093741 22.50018581758848 0  230.2938604315596 22.50021493126549 0  235.2938611420043 22.50024444501005 0  240.2938618239635 22.50027427521333 0  245.2938624655407 22.50030435199592 0  250.293863058694 22.50033461642602 0  255.2938635983984 22.50036501828077 0  260.2938640819532 22.50039551426407 0  265.2938645084243 22.50042606660497 0  270.2938648781935 22.50045664197548 0  275.2938651926053 22.50048721067944 0  280.2938654536978 22.5005177460703 0  285.2938656640327 22.500548224153 0  290.2938658266532 22.50057862330367 0  295.2938659452484 22.50060892398965 0  3
[...]
<PointData  Scalars="p"> 
<DataArray  type="Float64"  Name="p"  format="ascii">1.0000000000000001e-01  1.0000000000000003e-01  9.9997412512129250e-02  1.0000000000000003e-01  1.0000000000000003e-01  9.9996295479103103e-02  1.0000000000000003e-01  9.9994408426412912e-02  1.0000000000000003e-01  9.9993141563136018e-02  1.0000000000000003e-01  9.9991724068234741e-02  1.0000000000000003e-01  9.9989897346419984e-02  1.0000000000000003e-01  9.9988716037021280e-02  1.0000000000000003e-01  9.9987460573456088e-02  1.0000000000000003e-01  9.9985446021937763e-02  1.0000000000000003e-01  9.9984201564510836e-02  1.0000000000000003e-01  9.9981005902588876e-02  1.0000000000000003e-01  9.9977624039172833e-02  1.0000000000000003e-01  9.9975112747710440e-02  1.0000000000000003e-01  9.9972656990564651e-02  1.0000000000000003e-01  9.9969069736832519e-02  1.0000000000000003e-01  9.9967288360769763e-02  1.0000000000000003e-01  9.9965120365595683e-02  1.0000000000000003e-01  9.9961603519970313e-02  1.0000000000000003e-01  9.9960972531475401e-02  1.0000000000000003e-01  9.9958422533273777e-02  1.0000000000000003e-01  9.9957169758450704e-02  1.0000000000000003e-01  9.9954809473556019e-02  1.0000000000000003e-01  9.9957330999590782e-02  1.0000000000000003e-01  9.9949964770472216e-02  1.0000000000000003e-01  9.9960017859711758e-02  1.0000000000000003e-01  9.9944218219270672e-02  1.0000000000000003e-01  9.9966248114111242e-02  1.0000000000000003e-01  9.9934706147830288e-02  1.0000000000000003e-01  9.9976142252057518e-02  1.0000000000000001e-01  9.9915575341022259e-02  1.0000000000000001e-01  1.0000000000000003e-01  1.0010158757121475e-01  1.0017173030513493e-01  1.0000000000000003e-01  1.0004470231341256e-01  1.0000000000000003e-01  1.0008289000037854e-01  1.0000000000000003e-01  1.0006557176229898e-01  1.0000000000000003e-01  1.0007245408632406e-01  1.0000000000000003e-01  1.0006839850077215e-01  1.0000000000000003e-01  1.0007238109765909e-01  1.0000000000000003e-01  1.0006903359910896e-01  1.0000000000000003e-01  1.0007042109803810e-01  1.0000000000000003e-01  1.0006981346594505e-01  1.0000000000000003e-01  1.0006909644964329e-01  1.0000000000000003e-01  1.0006850262932378e-01  1.0000000000000003e-01  1.0006823551694191e-01  1.0000000000000003e-01  1.0006712186856601e-01  1.0000000000000003e-01  1.0006656703732406e-01  1.0000000000000003e-01  1.0006593231103585e-01  1.0000000000000003e-01  1.0006510669240781e-01  1.0000000000000003e-01  1.0006432750423076e-01  1.0000000000000003e-01  1.0006393176382138e-01  1.0000000000000003e-01  1.0006280707023088e-01  1.0000000000000003e-01  1.0006277682214362e-01  1.0000000000000003e-01  1.0006120031840286e-01  1.0000000000000003e-01  1.0006225953302121e-01  1.0000000000000003e-01  1.0005872323817989e-01  1.0000000000000003e-01  1.0006341565540362e-01  1.0000000000000003e-01  1.0005399822017590e-01  1.0000000000000003e-01  1.0006847506925001e-01  1.0000000000000003e-01  1.0004323500995749e-01  1.0000000000000003e-01  1.0008675055629758e-01  1.0000000000000001e-01  1.0000000000000003e-01  9.9996495985920447e-02  1.0000000000000003e-01  9.9996101501377874e-02  9.9995752926552869e-02  9.9995209089432310e-02  9.9994087610803598e-02  9.9994071907040918e-02  9.9994002662683268e-02  9.9992525074607735e-02  9.9992970668135686e-02  9.9992559520106800e-02  9.9990135433497565e-02  9.9987724052630525e-02  9.9987104301115515e-02  9.9983591499129193e-02  9.9984670118578090e-02  9.9984099912755989e-02  9.9981259082905283e-02  9.9982604616687815e-02  9.9982762016042434e-02  9.9979121893463210e-02  9.9982653412921368e-02  9.9980613059730855e-02  9.9981728509115825e-02  9.9978819827864981e-02  9.9988146025299263e-02  9.9970320342412322e-02  1.0000099083904072e-01  9.9950031791900693e-02  1.0002751208700758e-01  9.9913573380520176e-02  9.9940078006287986e-02  1.0028778689941870e-01  1.0006802361728702e-01  1.0001674463072996e-01  1.0002315322572744e-01  1.0001881223003874e-01  1.0002951890625528e-01  1.0002087286426663e-01  1.0002606667367843e-01  1.0002646235295966e-01  1.0002533200485418e-01  1.0002561934835830e-01  1.0002661657159700e-01  1.0002506724352131e-01  1.0002515433753462e-01  1.0002528097623541e-01  1.0002430843481383e-01  1.0002417802536284e-01  1.0002408980508731e-01  1.0002358102019508e-01  1.0002313944147466e-01  1.0002352314820136e-01  1.0002226972179352e-01  1.0002348258160672e-01  1.0002110130289149e-01  1.0002472587524242e-01  1.0001768923463111e-01  1.0003016033749812e-01  1.0000842830191008e-01  1.0004205963369152e-01  1.0000000000000003e-01  9.9995190319756941e-02  1.0000000000000003e-01  9.9996346050405430e-02  9.9994409279546240e-02  9.9993155281760254e-02  9.9992628864153887e-02  9.9992562859206990e-02  9.9990323803364894e-02  9.9990747800866892e-02  9.9990967498812131e-02  9.9988061944737194e-02  9.9987782614264734e-02  9.9987765517814173e-02  9.9979481197086079e-02  9.9980213900764600e-02  9.9979042940319063e-02  9.9973901764645864e-02  9.9976381684610316e-02  9.9975826499257389e-02  9.9970774139538074e-02  9.9973829319570245e-02  9.9974711252607165e-02  9.9967950852868928e-02  9.9976026033096924e-02  9.9970196079365775e-02  9.9976426780863520e-02  9.9964927695423339e-02  9.9990765097678388e-02  9.9940064150510474e-02  1.0003081141816141e-01  9.9862456346144240e-02  9.9930005097949068e-02  1.0030352207835024e-01  1.0014084530430035e-01  1.0003382449519573e-01  1.0003579236466831e-01  1.0006059094460951e-01  1.0003504002658493e-01  1.0004950603420690e-01  1.0004962680801142e-01  1.0004706367448409e-01  1.0004816515864956e-01  1.0005093459633850e-01  1.0004771333751374e-01  1.0004852615665312e-01  1.0004903802818278e-01  1.0004715866952200e-01  1.0004695743820978e-01  1.0004719137461013e-01  1.0004577489449193e-01  1.0004568673970722e-01  1.0004542207189634e-01  1.0004495470483103e-01  1.0004402264426922e-01  1.0004516172171476e-01  1.0004242194682035e-01  1.0004587261513484e-01  1.0003982126355491e-01  1.0004964742798782e-01  1.0003097223687271e-01  1.0006655584448529e-01  1.0000000000000003e-01  9.9994457404900677e-02  1.0000000000000003e-01  9.9996267221659607e-02  9.9993678618843382e-02  9.9993672246536006e-02  9.9993675659346817e-02  9.9991502554913278e-02  9.9992168865085593e-02  9.9992860730687597e-02  9.9990207151221991e-02  9.9991441309951051e-02  9.9991935569654050e-02  9.9986517229100930e-02  9.9989012414478551e-02  9.9984520085646025e-02  9.9978842548733238e-02  9.9980999727317610e-02  9.9981702222325025e-02  9.9975611372209852e-02  9.9980814654770128e-02  9.9980453356919130e-02  9.9976019141759950e-02  9.9979732495561704e-02  9.9984285978150261e-02  9.9972533884718634e-02  9.9991342146899392e-02  9.9969576310345878e-02  1.0000375409780748e-01  9.9943049546282206e-02  1.0005147465865831e-01  9.9851655389013264e-02  9.9914501492566032e-02  1.0036343414023259e-01  1.0010214650827513e-01  1.0000233125140297e-01  1.0008038811108422e-01  1.0000172762832252e-01  1.0003634373793215e-01  1.0003106816353760e-01  1.0003024617016039e-01  1.0003055848857048e-01  1.0003682327293881e-01  1.0003150175436167e-01  1.0003390445305585e-01  1.0003512910485893e-01  1.0003284678802452e-01  1.0003294935767451e-01  1.0003358877772950e-01  1.0003184124129974e-01  1.0003170503369896e-01  1.0003208741432425e-01  1.0003076669363434e-01  1.0003112489728735e-01  1.0003045725446637e-01  1.0003115463164962e-01  1.0002878623982424e-01  1.0003293075944535e-01  1.0002542856658499e-01  1.0003769086646680e-01  1.0001741710953234e-01  1.0005031227745763e-01  1.0000000000000003e-01  9.9993697986945088e-02  1.0000000000000003e-01  9.9995715859978171e-02  9.9993785815433694e-02  9.9994371284818279e-02  9.9991468847628454e-02  9.9992240954345557e-02  9.9992432313135426e-02  9.9989761565719371e-02  9.9991244628005238e-02  9.9992221142382709e-02  9.9987579263683415e-02  9.9989720522388081e-02  9.9989070511210629e-02  9.9984382243557879e-02  9.9981878767661930e-02  9.9981714264384625e-02  9.9973998790256910e-02  9.9979142058372231e-02  9.9980120486853147e-02  9.9972220973601561e-02  9.9980413063846543e-02  9.9979144725301575e-02  9.9976009558598214e-02  9.9977489056488386e-02  9.9990303878721737e-02  9.9963399829740229e-02  1.0000954108616844e-01  9.9936333818079162e-02  1.0006275137831314e-01  9.9824045520489846e-02  9.9859186853974102e-02  1.0041900217130392e-01  1.0012106813073533e-01  1.0002622389565552e-01  1.0005893581229565e-01  1.0004254962220986e-01  1.0003706739320530e-01  1.0003626602986651e-01  1.0003164525168046e-01  1.0004591124036126e-01  1.0003551903908052e-01  1.0004048905500813e-01  1.0004275088739879e-01  1.0003967656816003e-01  1.0004016117768876e-01  1.0004186278972828e-01  1.0003907089767425e-01  1.0003918942706004e-01  1.0003961858455003e-01  1.0003809487913387e-01  1.0003777427788189e-01  1.0003844741596236e-01  1.0003679170063420e-01  1.0003792424743395e-01  1.0003609616330983e-01  1.0003890546142183e-01  1.0003316412556512e-01  1.0004360296092883e-01  1.0002459308975380e-01  1.0005848666139519e-01  1.0000000000000003e-01  9.9992779764889891e-02  1.0000000000000003e-01  9.9995843566325737e-02  9.9994068632101293e-02  9.9993004397085167e-02  9.9992733876286669e-02  9.9993105799757773e-02  9.9990304115080017e-02  9.9991363807262271e-02  9.9992829891154572e-02  9.9988849759033160e-02  9.9990808000475925e-02  9.9991729680881880e-02  9.9986115392457983e-02  9.9988273651063733e-02  9.9991215142999412e-02  9.9976550590163346e-02  9.9981615380203920e-02  9.9981502656653884e-02  9.9973248669485967e-02  9.9980687535704132e-02  9.9983463357305083e-02  9.9971867368243136e-02  9.9986383675235366e-02  9.9980164268613031e-02  9.9985667244768109e-02  9.9971387075793006e-02  1.0001636031983610e-01  9.9927447525377619e-02  1.0008435187520427e-01  9.9799996622852508e-02  9.9846003924245252e-02  1.0042079254597476e-01  1.0014440608068267e-01  9.9981690535025619e-02  1.0005668532334251e-01  1.0004433271428312e-01  1.0004839824701967e-01  1.0001220009489128e-01  1.0004621896262356e-01  1.0002290011274211e-01  1.0003431498626275e-01  1.0003671920491847e-01  1.0003314157184272e-01  1.0003385934791338e-01  1.0003747262525423e-01  1.0003348661364761e-01  1.0003422178764411e-01  1.0003531306775104e-01  1.0003281814013434e-01  1.0003290844278874e-01  1.0003328012480592e-01  1.0003220699619492e-01  1.0003155099176031e-01  1.0003311598871528e-01  1.0003021844527375e-01  1.0003402406006359e-01  1.0002792804351265e-01  1.0003838109723663e-01  1.0001999458308956e-01  1.0005186639620244e-01  1.0000000000000003e-01  9.9992266181981107e-02  1.0000000000000003e-01  9.9996075281007180e-02  9.9992637401177253e-02  9.9993731824292845e-02  9.9993467571386621e-02  9.9991119005995888e-02  9.9991319678852289e-02  9.9992790055154684e-02  9.9988779427006486e-02  9.9990867100494527e-02  9.9992313796996010e-02  9.9986481934487337e-02  9.9989371275034378e-02  9.9991836915596433e-02  9.9982742669062652e-02  9.9989857157744430e-02  9.9983829577905331e-02  9.9973261721806400e-02  9.9980275916637371e-02  9.9981552833788817e-02  9.9972272522013170e-02  9.9981052369636392e-02  9.9986867828345247e-02  9.9969126811163392e-02  9.9995233883888063e-02  9.9971150100824080e-02  1.0000962399046695e-01  9.9930542347143075e-02  1.0009524244885877e-01  9.9771351544581041e-02  9.9848268016445987e-02  1.0044913656318855e-01  1.0012503600830894e-01  9.9981400071430845e-02  1.0007339479633275e-01  1.0002423165473548e-01  1.0004456660165825e-01  1.0005768423709109e-01  1.0001785420431755e-01  1.0003643134207184e-01  1.0003540807945754e-01  1.0003441851544663e-01  1.0003356442722473e-01  1.0004006854887131e-01  1.0003451280258401e-01  1.0003620174779793e-01  1.0003797917825599e-01  1.0003520453240831e-01  1.0003508816698038e-01  1.0003612836038478e-01  1.0003385641473762e-01  1.0003421704764959e-01  1.0003406027501763e-01  1.0003408641271609e-01  1.0003229781801290e-01  1.0003587898122218e-01  1.0002970894833406e-01  1.0003999329292994e-01  1.0002222181794905e-01  1.0005374161282689e-01  1.0000000000000003e-01  9.9991902500792776e-02  1.0000000000000003e-01  9.9995318951245721e-02  9.9992905130829854e-02  9.9994360160632956e-02  9.9991629670089580e-02  9.9992333972168973e-02  9.9993081362326569e-02  9.9989349232094418e-02  9.9991087171157386e-02  9.9992551027848472e-02  9.9987205207859767e-02  9.9989901309636905e-02  9.9991963987935611e-02  9.9984451823315293e-02  9.9990328408000484e-02  9.9990873326624943e-02  9.9983734689902182e-02  9.9982251257737922e-02  9.9983703021227735e-02  9.9969993484924746e-02  9.9982642456844989e-02  9.9982492850356222e-02  9.9974496012410416e-02  9.9980663897292751e-02  9.9997426245917675e-02  9.9958576693670642e-02  1.0002270843147357e-01  9.9927213221722225e-02  1.0009784450589471e-01  9.9757273064845831e-02  9.9815141857297063e-02  1.0048134477666043e-01  1.0013205893016403e-01  9.9990137053730846e-02  1.0005012897254963e-01  1.0001643032057153e-01  1.0005568157326296e-01  1.0003346952876323e-01  1.0004675115697574e-01  1.0002548320404189e-01  1.0003405138068809e-01  1.0002540286058112e-01  1.0003902613212266e-01  1.0002987276243507e-01  1.0003321528593763e-01  1.0003587307439760e-01  1.0003262308014342e-01  1.0003285138263168e-01  1.0003473453037169e-01  1.0003197305506480e-01  1.0003177514671602e-01  1.0003286435482157e-01  1.0003062307241475e-01  1.0003178360804402e-01  1.0003037813597943e-01  1.0003292811211814e-01  1.0002747746180624e-01  1.0003765397244971e-01  1.0002009929849132e-01  1.0005055088418062e-01  1.0000000000000003e-01  9.9991224966403294e-02  1.0000000000000003e-01  9.9995495036747747e-02  9.9993268244763803e-02  9.9992875141867596e-02  9.9992373966052636e-02  9.9993687509530277e-02  9.9990249654697522e-02  9.9991427880853287e-02  9.9992748398564063e-02  9.9988149180373062e-02  9.9989798233563312e-02  9.9992052722648911e-02  9.9985045059888492e-02  9.9989411357136210e-02  9.9992333600064279e-02  9.9983754064418881e-02  9.9989185767757935e-02  9.9994716709418036e-02  9.9972560325898491e-02  9.9981730357760493e-02  9.9983934409177661e-02  9.9967682115440035e-02  9.9986781492737820e-02  9.9982143851431574e-02  9.9981393577409886e-02  9.9971268512730166e-02  1.0002513249685673e-01  9.9910630347517182e-02  1.0011573223384861e-01  9.9740389890885933e-02  9.9806882649331269e-02  1.0048033481795708e-01  1.0014924690395983e-01  9.9968033389518443e-02  1.0005127110441656e-01  1.0002864389565477e-01  1.0003531571504759e-01  1.0003241837269651e-01  1.0005122575867723e-01  1.0004402593559281e-01  1.0001785996389911e-01  1.0004212995205265e-01  1.0002521491195011e-01  1.0003281160654336e-01  1.0003531225687251e-01  1.0003213492633765e-01  1.0003210372476572e-01  1.0003565044111876e-01  1.0003193605629772e-01  1.0003251016554733e-01  1.0003347028611288e-01  1.0003151170899025e-01  1.0003088599067597e-01  1.0003260809404246e-01  1.0002963643665036e-01  1.0003292700182646e-01  1.0002800319156972e-01  1.0003706644200480e-01  1.0002059570295017e-01  1.0005025516138696e-01  1.0000000000000003e-01  9.9990974993408435e-02  1.0000000000000003e-01  9.9995750575493175e-02  9.9991917770333588e-02  9.9993388331907268e-02  9.9993285807630478e-02  9.9991186080953587e-02  9.9991663987960361e-02  9.9993184990901207e-02  9.9989056034334944e-02  9.9990323166076533e-02  9.9992403677065120e-02  9.9985557910705514e-02  9.9988772644994839e-02  9.9992166892814149e-02  9.9983646023427519e-02  9.9989438780418119e-02  9.9994679956603646e-02  9.9980383803303069e-02  9.9993510040839673e-02  9.9985428414529537e-02  9.9970082398329635e-02  9.9980825862531070e-02  9.9988126721961182e-02  9.9963873309460230e-02  9.9996858841821926e-02  9.9972672766273155e-02  1.0000768064132028e-01  9.9922900531112940e-02  1.0012205326419543e-01  9.9713436966374455e-02  9.9810343373626237e-02  1.0048843253967504e-01  1.0013623078639297e-01  9.9964925256702516e-02  1.0006371786481594e-01  1.0000944724638351e-01  1.0003280061577645e-01  1.0003795642197677e-01  1.0003680305830180e-01  1.0003594742683337e-01  1.0005320391825404e-01  1.0001657467138179e-01  1.0003305418671506e-01  1.0003039251600952e-01  1.0003071142676784e-01  1.0002883763171778e-01  1.0003456613674364e-01  1.0002990039702525e-01  1.0003089767851268e-01  1.0003290262155742e-01  1.0003025895825589e-01  1.0003042233143378e-01  1.0003080580934595e-01  1.0003006804828901e-01  1.0002842625247189e-01  1.0003196684930669e-01  1.0002615453330359e-01  1.0003550850681675e-01  1.0001968680557849e-01  1.0004801382390820e-01  1.0000000000000003e-01  9.9990806040810440e-02  1.0000000000000003e-01  9.9995085846834350e-02  9.9992132942617107e-02  9.9994061921341360e-02  9.9991337993868223e-02  9.9992191473174979e-02  9.9993075276788787e-02  9.9989930103329641e-02  9.9990978965151106e-02  9.9992956385152681e-02  9.9986844145844841e-02  9.9989000296935013e-02  9.9991482927567238e-02  9.9983752439225637e-02  9.9988792366169824e-02  9.9993183771193955e-02  9.9982085521757677e-02  9.9991724111594210e-02  9.9994163748123588e-02  9.9981932212582197e-02  9.9984349546008308e-02  9.9984906280690219e-02  9.9968144316192165e-02  9.9980870278807962e-02  9.9997552132323780e-02  9.9951454001276793e-02  1.0002409045651207e-01  9.9924989546112869e-02  1.0010412645961438e-01  9.9720650830544488e-02  9.9794054666198520e-02  1.0050005782446207e-01  1.0013679698382519e-01  9.9973806585330893e-02  1.0004993074822026e-01  1.0000786436951421e-01  1.0004321138552477e-01  1.0002361037244017e-01  1.0003113727708557e-01  1.0004410833219693e-01  1.0003712658491071e-01  1.0004250733622547e-01  1.0002447778923772e-01  1.0003192067120692e-01  1.0002395838592500e-01  1.0003488046676670e-01  1.0002768046485598e-01  1.0002986687532274e-01  1.0003225825558852e-01  1.0002973969742007e-01  1.0002961570670087e-01  1.0003177778899927e-01  1.0002885894759483e-01  1.0002976414141676e-01  1.0002886641510317e-01  1.0003054501425863e-01  1.0002580321064136e-01  1.0003497985635823e-01  1.0001924167109880e-01  1.0004683380139726e-01  1.0000000000000003e-01  9.9990316634082824e-02  1.0000000000000003e-01  9.9995192056134455e-02  9.9992510329451417e-02  9.9992605125572384e-02  9.9991862558960545e-02  9.9993357409865230e-02  9.9990288613665074e-02  9.9991228768522150e-02  9.9993092585298801e-02  9.9988420978002160e-02  9.9989629141163647e-02  9.9991752219881214e-02  9.9984625505623662e-02  9.9987591876656068e-02  9.9992156591002079e-02  9.9982316080186220e-02  9.9989409833689813e-02  9.9994605746576606e-02  9.9981942645696653e-02  9.9990515367250107e-02  1.0000063079198812e-01  9.9966520533033537e-02  9.9986994646797570e-02  9.9982489004318775e-02  9.9972759243460524e-02  9.9972432818958373e-02  1.0002505941596040e-01  9.9901428615740986e-02  1.0012061689407845e-01  9.9722507812817288e-02  9.9790226165484802e-02  1.0048457563406943e-01  1.0014624416771646e-01  9.9960715222501106e-02  1.0004824918215874e-01  1.0001749596555512e-01  1.0003062597306671e-01  1.0002031708946428e-01  1.0003941875876778e-01  1.0002878259109609e-01  1.0003425343774308e-01  1.0004350173156536e-01  1.0004150955963723e-01  1.0001644377462930e-01  1.0003654162154897e-01  1.0002280451292717e-01  1.0002855160538754e-01  1.0003047483612466e-01  1.0002812820830879e-01  1.0002791819633036e-01  1.0003082773086094e-01  1.0002836474113612e-01  1.0002820321666044e-01  1.0003011125915172e-01  1.0002686212253027e-01  1.0002956228964346e-01  1.0002547207694523e-01  1.0003314348324205e-01  1.0001857052351647e-01  1.0004503110353903e-01  1.0000000000000003e-01  9.9990116445879004e-02  1.0000000000000003e-01  9.9995376502398661e-02  9.9991269486261330e-02  9.9992895513327198e-02  9.9992565211879200e-02  9.9990956220275276e-02  9.9991112221517936e-02  9.9992782526230783e-02  9.9989072558296851e-02  9.9990209659430410e-02  9.9992147130820261e-02  9.9985936341651246e-02  9.9987501271210116e-02  9.9991321775922862e-02  9.9982404517058879e-02  9.9987185024880673e-02  9.9993420112936840e-02  9.9980908083142042e-02  9.9989845660691565e-02  9.9997861907007934e-02  9.9977565814009101e-02  9.9995926392238685e-02  9.9991041826635055e-02  9