<?xml version="1.0"?>
<VTKFile type="UnstructuredGrid"  version="0.1"  >
<UnstructuredGrid>
<Piece  NumberOfPoints="1933" NumberOfCells="3640">
<Points>
<DataArray  type="Float64"  NumberOfComponents="3"  format="ascii">-0.4754229400033627 -0.001296643616065242 0  4.5245771048016 -0.001272907702067493 0  4.524541508053466 7.498727209025748 0  -0.475458560872176 7.498703432775754 0  9.52457717441674 -0.00124926620164008 0  9.524541625983128 7.498750861055578 0  14.52457731916216 -0.001225735280045596 0  14.52454181540466 7.498774392307021 0  19.52457758708881 -0.001202294316924169 0  19.52454209656084 7.49879783058763 0  24.5245780187723 -0.001178902297531925 0  24.52454248761818 7.498821219642188 0  29.52457864701897 -0.001155506081746826 0  29.52454300406919 7.498844613603345 0  34.52457949807483 -0.001132044483066238 0  34.52454365829133 7.498868073952991 0  39.52458059308811 -0.001108449971895476 0  39.52454445930884 7.498891668243169 0  44.52458194939045 -0.001084648929435154 0  44.52454541263195 7.498915470017764 0  49.52458358146688 -0.001060560934238603 0  49.52454652003838 7.498939559594771 0  54.5245855015935 -0.001036097313812404 0  54.52454777918555 7.498964025534612 0  59.52458772014103 -0.001011159038358532 0  59.52454918295186 7.498988966739993 0  64.5245902455331 -0.0009856339233937821 0  64.52455071839496 7.499014495226155 0  69.52459308380463 -0.000959393013403141 0  69.52455236519225 7.499040739683585 0  74.52459623765544 -0.0009322859191511021 0  74.52455409337406 7.499067850041529 0  79.52459970479599 -0.0009041347575476366 0  79.524555860085 7.49909600334432 0  84.52460347524188 -0.0008747261727854892 0  84.52455760499845 7.499125411383701 0  89.52460752695883 -0.0008438006706804976 0  89.52455924384994 7.499156330702531 0  94.52461181883704 -0.0008110381314789338 0  94.52456065935182 7.499189075804252 0  99.52461627919747 -0.0007760378176793717 0  99.52456168851784 7.499224036659575 0  104.5246207866503 -0.0007382903788919818 0  104.5245621051969 7.499261701842765 0  109.524625137543 -0.0006971381794987242 0  109.5245615966221 7.499302688678872 0  114.5246289894639 -0.0006517186826775639 0  114.5245597334709 7.499347781188767 0  119.5246317612428 -0.000600883789552466 0  119.5245559354973 7.499397974279526 0  124.5246324528643 -0.0005430869361739129 0  124.5245494419369 7.499454516045207 0  129.5246293163266 -0.0004762329879131122 0  129.5245393135614 7.499518923821707 0  134.5246192467089 -0.0003975057640502303 0  134.5245245345413 7.49959291319192 0  139.524596643191 -0.0003032679137671674 0  139.5245043756748 7.499678106690576 0  144.5245512477404 -0.0001894412801446507 0  144.5244793921454 7.499775287128251 0  149.5244639095071 -5.410907838535237e-05 0  149.5244539388533 7.499883073652406 0  159.5244717418526 1.09231146530611e-18 0  164.5244117535798 -0.0001153736514378847 0  164.5244626909709 7.499862769691437 0  159.5244748111821 7.499949032749755 0  169.5243911549958 -0.0001971675613481873 0  169.5244500784505 7.499792041935605 0  174.5243893244721 -0.0002553686534671293 0  174.5244417556164 7.499738924967654 0  179.5243962890579 -0.0002960964320412111 0  179.5244378871052 7.499700783338877 0  184.5244070686685 -0.0003237102306386058 0  184.5244375015324 7.499674554121136 0  189.5244191546921 -0.0003414001543417259 0  189.5244395319195 7.499657628267092 0  194.5244312934119 -0.0003515073736176787 0  194.5244431000508 7.499647952677281 0  199.5244428763937 -0.0003557567483882397 0  199.5244475557211 7.49964395248707 0  204.5244536289435 -0.0003554297094028729 0  204.5244524430805 7.499644426479353 0  209.5244634488613 -0.0003514894704539686 0  209.5244574535199 7.499648455172042 0  214.5244723221642 -0.0003446699462730332 0  214.5244623839424 7.499655328930904 0  219.5244802786784 -0.000335538392149891 0  219.5244671046312 7.499664494248866 0  224.5244873685184 -0.0003245395835764987 0  224.5244715360092 7.49967551430768 0  229.52449364964 -0.0003120272084852677 0  229.5244756323772 7.499688040139505 0  234.5244991813379 -0.0002982864273379182 0  234.5244793707469 7.499701789462255 0  239.524504020979 -0.0002835503052377569 0  239.5244827432595 7.499716531023068 0  244.5245082225326 -0.0002680119510309026 0  244.5244857520959 7.499732072899882 0  249.5245118361129 -0.0002518336075841936 0  249.5244884060966 7.499748253668328 0  254.5245149081248 -0.0002351535379627979 0  254.5244907185728 7.499764935671333 0  259.524517481779 -0.0002180912792458269 0  259.5244927059331 7.499781999863813 0  264.5245195978853 -0.000200751643411475 0  264.5244943868892 7.499799341876481 0  269.524521295852 -0.0001832277002882703 0  269.5244957820655 7.49981686907342 0  274.5245226149083 -0.0001656028560743275 0  274.52449691388 7.499834498487277 0  279.5245235955333 -0.0001479520199595471 0  279.5244978065957 7.499852155618645 0  284.5245242810986 -0.000130341706770859 0  284.5244984864435 7.499869774197229 0  289.5245247196232 -0.0001128287233603279 0  289.5244989816986 7.499887297132471 0  294.5245249654235 -9.545678665752997e-05 0  294.5244993226397 7.499904679038748 0  299.5245250799749 -7.824996770862294e-05 0  299.5244995413443 7.499921890899485 0  304.5245251304667 -6.120123859456868e-05 0  304.5244996716394 7.499938927613964 0  309.5245251824861 -4.425399476418461e-05 0  309.5244997503976 7.499955819413803 0  4.524505656532979 14.99872746118356 0  -0.4754944143348973 14.99870361680184 0  9.524505761426431 14.99875111874019 0  14.5245059166264 14.99877463261101 0  19.52450613090615 14.99879804780559 0  24.52450640953507 14.9988214148801 0  29.52450675548892 14.99884479014366 0  34.52450716950063 14.99886823525291 0  39.52450764966746 14.99889181710143 0  44.52450819087622 14.9989156082269 0  49.52450878410888 14.99893968775346 0  54.5245094156069 14.99896414285248 0  59.5245100658349 14.99898907072905 0  64.52451070817192 14.99901458118084 0  69.52451130724225 14.999040799821 0  74.52451181679827 14.99906787210382 0  79.52451217706474 14.99909596833754 0  84.52451231148174 14.99912528990609 0  89.52451212285041 14.99915607693651 0  94.52451148905872 14.99918861759568 0  99.52451025890207 14.9992232589993 0  104.5245082492221 14.99926041918704 0  109.5245052458567 14.99930059841937 0  114.5245010132109 14.99934438552121 0  119.5244953211255 14.99939244991226 0  124.524488003797 14.99944550015799 0  129.524479073834 14.99950417172317 0  134.5244689229046 14.99956877451541 0  139.5244586392007 14.99963877655084 0  144.5244504301719 14.99971180656371 0  149.5244479622246 14.99978173797793 0  164.5244746636359 14.99980240201638 0  159.524473185439 14.99984790712924 0  169.5244702643531 14.99975763890261 0  174.524464057303 14.99971948429478 0  179.5244583392827 14.99968978407769 0  184.524454019747 14.99966831858511 0  189.5244512679479 14.99965410084955 0  194.5244499242635 14.99964598020332 0  199.5244497169095 14.99964288234071 0  204.5244503642017 14.99964388505682 0  209.5244516165536 14.99964822577978 0  214.5244532690144 14.99965528415637 0  219.5244551606044 14.99966455819766 0  224.5244571685867 14.99967564129417 0  229.5244592014988 14.99968820251205 0  234.5244611926059 14.99970197055278 0  239.5244630943399 14.99971672100924 0  244.5244648738299 14.99973226634843 0  249.5244665094254 14.99974844806738 0  254.5244679880413 14.99976513055468 0  259.5244693031639 14.99978219629435 0  264.5244704533546 14.99979954214154 0  269.5244714411374 14.99981707648383 0  274.524472272157 14.99983471717156 0  279.5244729545253 14.99985239016155 0  284.5244734983301 14.9998700288664 0  289.5244739152699 14.99988757422625 0  294.5244742185661 14.99990497548923 0  299.5244744233931 14.9999221915334 0  304.5244745484686 14.99993919212184 0  309.5244746199473 14.99995595738945 0  4.524469621041948 22.49872793141498 0  -0.4755304462276616 22.49870406741624 0  9.524469701947204 22.49875156233437 0  14.52446980457766 22.49877502934966 0  19.5244699310359 22.49879839263642 0  24.52447007959796 22.49882170999094 0  29.52447024592445 22.49884504021932 0  34.5244704234253 22.49886844486898 0  39.52447060309532 22.4988919893241 0  44.52447077305074 22.49891574379472 0  49.52447091789492 22.49893978445113 0  54.52447101796769 22.49896419482118 0  59.5244710484985 22.4989890675134 0  64.52447097867248 22.49901450631181 0  69.5244707706281 22.49904062868075 0  74.52447037843804 22.49906756871159 0  79.52446974718826 22.49909548051437 0  84.52446881237194 22.49912454199419 0  89.5244674999969 22.49915495881339 0  94.52446572808387 22.49918696807385 0  99.5244634106682 22.49922084075343 0  104.5244604660657 22.49925688103872 0  109.5244568320551 22.49929541914311 0  114.5244524917422 22.49933679160062 0  119.524447514932 22.49938129886493 0  124.5244421201158 22.49942912381747 0  129.5244367598073 22.49948018652981 0  134.5244322231312 22.49953390243666 0  139.5244297271595 22.49958881128475 0  144.5244309216627 22.49964207902929 0  149.5244376514477 22.49968902849554 0  164.5244660833417 22.49973403931508 0  159.5244595120257 22.49975256043123 0  169.5244671970281 22.49971127246344 0  174.5244648537833 22.49968908590918 0  179.5244608664642 22.49967022936436 0  184.5244564903031 22.49965588271209 0  189.5244524449092 22.49964626335644 0  194.524449067199 22.49964109297244 0  199.5244464586263 22.49963988462558 0  204.5244445916055 22.49964209818222 0  209.5244433771562 22.49964721563721 0  214.5244427043888 22.49965477227452 0  219.5244424617919 22.49966436519718 0  224.5244425475597 22.4996756511853 0  229.5244428736826 22.49968834017588 0  234.5244433667086 22.49970218749957 0  239.5244439668585 22.49971698632984 0  244.5244446264553 22.49973256093533 0  249.5244453081619 22.49974876090644 0  254.5244459832892 22.49976545633607 0  259.5244466302624 22.49978253386191 0  264.5244472332995 22.49979989345914 0  269.5244477812743 22.49981744588016 0  274.5244482667709 22.49983511065095 0  279.5244486853043 22.499852814542 0  284.5244490347335 22.49987049041959 0  289.524449314924 22.49988807633358 0  294.5244495278021 22.
[...]
<PointData  Scalars="p"> 
<DataArray  type="Float64"  Name="p"  format="ascii">1.0000000000000001e-01  1.0000000000000003e-01  1.0000028806820650e-01  1.0000000000000003e-01  1.0000000000000003e-01  1.0000146188454111e-01  1.0000000000000003e-01  1.0000220322324924e-01  1.0000000000000003e-01  1.0000307916557109e-01  1.0000000000000003e-01  1.0000370623576971e-01  1.0000000000000003e-01  1.0000392441547923e-01  1.0000000000000003e-01  1.0000461135258784e-01  1.0000000000000003e-01  1.0000476640879327e-01  1.0000000000000003e-01  1.0000493875315820e-01  1.0000000000000003e-01  1.0000649645853470e-01  1.0000000000000003e-01  1.0000400913233864e-01  1.0000000000000003e-01  1.0000525503750374e-01  1.0000000000000003e-01  1.0000479799922971e-01  1.0000000000000003e-01  1.0000512840987401e-01  1.0000000000000003e-01  1.0000355552785108e-01  1.0000000000000003e-01  1.0000345509807325e-01  1.0000000000000003e-01  1.0000153601889381e-01  1.0000000000000003e-01  9.9998898267407973e-02  1.0000000000000003e-01  9.9997453700918865e-02  1.0000000000000003e-01  9.9993282584824289e-02  1.0000000000000003e-01  9.9990254363104020e-02  1.0000000000000003e-01  9.9985012681816629e-02  1.0000000000000003e-01  9.9983064448178616e-02  1.0000000000000003e-01  9.9972308867563253e-02  1.0000000000000003e-01  9.9976807935239512e-02  1.0000000000000003e-01  9.9956099688259734e-02  1.0000000000000003e-01  9.9973029403511243e-02  1.0000000000000003e-01  9.9936242437490511e-02  1.0000000000000003e-01  9.9974258490579074e-02  1.0000000000000001e-01  9.9907452485612433e-02  1.0000000000000001e-01  1.0000000000000003e-01  1.0002165277157979e-01  1.0010457897524624e-01  1.0000000000000003e-01  9.9981882938322525e-02  1.0000000000000003e-01  1.0001283811630289e-01  1.0000000000000003e-01  9.9991014830376451e-02  1.0000000000000003e-01  9.9994859708975620e-02  1.0000000000000003e-01  9.9988568625661189e-02  1.0000000000000003e-01  9.9988221489078599e-02  1.0000000000000003e-01  9.9982777024629765e-02  1.0000000000000003e-01  9.9982172226195737e-02  1.0000000000000003e-01  9.9979495541687793e-02  1.0000000000000003e-01  9.9977484646717532e-02  1.0000000000000003e-01  9.9976119298241739e-02  1.0000000000000003e-01  9.9975009468966314e-02  1.0000000000000003e-01  9.9973600766380802e-02  1.0000000000000003e-01  9.9972988061116541e-02  1.0000000000000003e-01  9.9972366240622154e-02  1.0000000000000003e-01  9.9971656578158166e-02  1.0000000000000003e-01  9.9971417780666080e-02  1.0000000000000003e-01  9.9971069977587410e-02  1.0000000000000003e-01  9.9970949100788395e-02  1.0000000000000003e-01  9.9970588386001730e-02  1.0000000000000003e-01  9.9971040276412571e-02  1.0000000000000003e-01  9.9970129317506706e-02  1.0000000000000003e-01  9.9971662223876018e-02  1.0000000000000003e-01  9.9969110031651459e-02  1.0000000000000003e-01  9.9973599661683427e-02  1.0000000000000003e-01  9.9966202596647583e-02  1.0000000000000003e-01  9.9978668126273526e-02  1.0000000000000003e-01  9.9956764888463917e-02  1.0000000000000001e-01  1.0000000000000003e-01  9.9999250680037247e-02  1.0000000000000003e-01  9.9999947513301934e-02  1.0000005377587987e-01  1.0000004710799819e-01  9.9999546694695712e-02  9.9999742443861575e-02  9.9999419791453117e-02  9.9998461172445180e-02  9.9999290317082795e-02  9.9998615060374718e-02  9.9999479428124746e-02  9.9995482441395028e-02  9.9998772408893780e-02  9.9995917199527357e-02  9.9997914981637737e-02  9.9995544499664885e-02  9.9993427844693963e-02  9.9993160244289864e-02  9.9990700378115888e-02  9.9986533976287498e-02  9.9987126248304706e-02  9.9981597014390508e-02  9.9980582985133307e-02  9.9975049243498079e-02  9.9979087680649850e-02  9.9961976470219815e-02  9.9987424287621030e-02  9.9939102858206688e-02  1.0001328127272686e-01  9.9907331892686524e-02  9.9935335444500242e-02  1.0012038152053844e-01  1.0006582793256721e-01  1.0000080274292904e-01  1.0001424471358973e-01  1.0001113861741442e-01  1.0001401137446896e-01  1.0000428461805629e-01  1.0000758500357300e-01  1.0000399178043255e-01  1.0000110794171219e-01  1.0000041621921581e-01  9.9999389455381560e-02  9.9997003766778447e-02  9.9996769138470970e-02  9.9996015542999750e-02  9.9994747667322692e-02  9.9994406812922002e-02  9.9994005312248946e-02  9.9993065637968892e-02  9.9992908425166935e-02  9.9992295439464585e-02  9.9992114131814483e-02  9.9991122419715625e-02  9.9991904618111707e-02  9.9989525063837750e-02  9.9992654751467194e-02  9.9986040157795608e-02  9.9996488093974947e-02  9.9979309227450464e-02  1.0000000000000003e-01  9.9998302965015218e-02  1.0000000000000003e-01  9.9999502419918937e-02  9.9999505213663700e-02  9.9999146709461750e-02  9.9999543942062910e-02  9.9999172973649825e-02  9.9997914197669707e-02  9.9998383530027726e-02  9.9997760956900897e-02  9.9996893372854723e-02  9.9996163412654604e-02  9.9999865276330729e-02  9.9990362740054878e-02  9.9997023399632845e-02  9.9994131169172260e-02  9.9992050547264788e-02  9.9992796606040074e-02  9.9989396592123109e-02  9.9984443672521545e-02  9.9984554773651160e-02  9.9979915674635031e-02  9.9972417414080167e-02  9.9974702752677599e-02  9.9963671966097803e-02  9.9965773016602338e-02  9.9952584856687246e-02  9.9968418549908442e-02  9.9926357457738674e-02  1.0000366660772605e-01  9.9857715888055976e-02  9.9996523427551331e-02  1.0005124672926526e-01  1.0005440708518647e-01  1.0000396220736912e-01  1.0001601101570827e-01  1.0002240343077747e-01  1.0000037829999889e-01  1.0001264711761090e-01  1.0000466314227380e-01  9.9999343092625897e-02  9.9998764341796637e-02  9.9997020384775995e-02  9.9992197993626769e-02  9.9992142789761138e-02  9.9990639168478002e-02  9.9988053181953890e-02  9.9987714312256226e-02  9.9986965693506374e-02  9.9985329947329893e-02  9.9984929203371598e-02  9.9984456997632407e-02  9.9983164572945482e-02  9.9983104709931589e-02  9.9981954266379194e-02  9.9982271354292801e-02  9.9980007461891812e-02  9.9982434795079983e-02  9.9976818485050953e-02  9.9985589657151944e-02  9.9967271155434023e-02  1.0000000000000003e-01  9.9997607117216752e-02  1.0000000000000003e-01  9.9998764037635510e-02  9.9997593368844132e-02  9.9998154293708535e-02  9.9997612075463524e-02  9.9996056974270345e-02  9.9996324413974103e-02  9.9995216298773948e-02  9.9993250001193912e-02  9.9993855679429464e-02  9.9993338064063728e-02  9.9988698809931095e-02  9.9996659232328616e-02  9.9985374023563445e-02  9.9988551507175019e-02  9.9988855795958620e-02  9.9987597357864347e-02  9.9981613634344532e-02  9.9983829691831200e-02  9.9977828530322110e-02  9.9972486945707054e-02  9.9971668349630727e-02  9.9968044393674044e-02  9.9956459622882771e-02  9.9966387838553397e-02  9.9943697149808358e-02  9.9968896603790852e-02  9.9920944830329123e-02  1.0000591106256196e-01  9.9852670876618962e-02  1.0001767215649518e-01  1.0008092465847700e-01  1.0002227910002148e-01  1.0001396468830519e-01  1.0006059567710102e-01  9.9995811627346165e-02  1.0003329893548124e-01  1.0001736226239138e-01  1.0001367394177822e-01  1.0001242430288936e-01  1.0001169475256935e-01  1.0000388299828082e-01  1.0000484670594281e-01  1.0000274603626860e-01  9.9999061025731709e-02  9.9998632383221098e-02  9.9997753206002085e-02  9.9995291000663386e-02  9.9995054043871823e-02  9.9994210398336641e-02  9.9992752932762524e-02  9.9992014457248382e-02  9.9991672503428178e-02  9.9989839589330498e-02  9.9990345014274548e-02  9.9987545492649862e-02  9.9990216445646887e-02  9.9983407007536482e-02  9.9992764928207911e-02  9.9975605636682355e-02  1.0000000000000003e-01  9.9996903408216986e-02  1.0000000000000003e-01  9.9997659876808767e-02  9.9997052268939485e-02  9.9996951554551766e-02  9.9995546418257086e-02  9.9995832027168191e-02  9.9994777883463476e-02  9.9992300419498858e-02  9.9992862788086279e-02  9.9991837684386312e-02  9.9987687301684766e-02  9.9990725586809451e-02  9.9986536742925194e-02  9.9990747129617849e-02  9.9980986611532568e-02  9.9986012839224397e-02  9.9979371009110293e-02  9.9983685618178331e-02  9.9978088037545654e-02  9.9971140784956170e-02  9.9973465195043937e-02  9.9965199033141203e-02  9.9959372372623853e-02  9.9956688106866129e-02  9.9956495675152551e-02  9.9936174280892229e-02  9.9964292619458550e-02  9.9909717688449792e-02  1.0000287068263392e-01  9.9834249766893840e-02  9.9994970032066130e-02  1.0008006855303477e-01  1.0004630451394353e-01  1.0003643451949928e-01  1.0001292762707428e-01  1.0004222245777949e-01  1.0002157482057183e-01  1.0001845247607138e-01  1.0001678225223633e-01  1.0001985202976134e-01  1.0000619871103342e-01  1.0000942671330874e-01  1.0000608445389075e-01  1.0000057120186984e-01  1.0000035475985039e-01  9.9999183751847590e-02  9.9995281913887568e-02  9.9995124202216526e-02  9.9994256653151620e-02  9.9991886871904759e-02  9.9991523339285682e-02  9.9990538582142574e-02  9.9989192661448956e-02  9.9987928409727769e-02  9.9988017622155534e-02  9.9985111083395917e-02  9.9987123510571013e-02  9.9981084935454406e-02  9.9989442758993130e-02  9.9971763685093265e-02  1.0000000000000003e-01  9.9996096718594885e-02  1.0000000000000003e-01  9.9997373717438984e-02  9.9996035866867006e-02  9.9995035667328605e-02  9.9994932031833017e-02  9.9994236784884394e-02  9.9991785663042732e-02  9.9992047767605133e-02  9.9990715642397671e-02  9.9987218722717180e-02  9.9988228364904896e-02  9.9985645024770531e-02  9.9983443598128122e-02  9.9982735391468638e-02  9.9989911543953411e-02  9.9969687549093217e-02  9.9982627051487846e-02  9.9976081089308222e-02  9.9971529783433655e-02  9.9973621454861716e-02  9.9967993403865321e-02  9.9957115845837149e-02  9.9963015356183599e-02  9.9949857861492533e-02  9.9949030538530936e-02  9.9938066879938919e-02  9.9957207097121054e-02  9.9903348289929680e-02  1.0000501882429244e-01  9.9821934600265491e-02  1.0002435852642123e-01  1.0005377985444075e-01  1.0006180542647869e-01  1.0001265281010298e-01  1.0004022475538296e-01  1.0003377308088318e-01  1.0003604076890693e-01  1.0001663012609509e-01  1.0003617323497266e-01  1.0001080803854703e-01  1.0002125529965734e-01  1.0001537598267177e-01  1.0000840148844296e-01  1.0000808355424512e-01  1.0000709340359824e-01  1.0000142420869353e-01  1.0000166951494380e-01  1.0000038322017032e-01  9.9997167983014640e-02  9.9996806044382977e-02  9.9996146421986107e-02  9.9993647209941305e-02  9.9993407172460094e-02  9.9991848696082519e-02  9.9991211279381514e-02  9.9988490176450839e-02  9.9990547677827529e-02  9.9983947976777857e-02  9.9992102851712686e-02  9.9975336302879095e-02  1.0000000000000003e-01  9.9995673162746934e-02  1.0000000000000003e-01  9.9996837965835986e-02  9.9994523665379045e-02  9.9994784132271947e-02  9.9993744644843063e-02  9.9991572115012944e-02  9.9991912284828788e-02  9.9990572703481717e-02  9.9987184074638094e-02  9.9988204653674653e-02  9.9985614333102560e-02  9.9981552481982261e-02  9.9982769051307194e-02  9.9982680047530872e-02  9.9973440732702645e-02  9.9988126548513592e-02  9.9967135472288929e-02  9.9970737696567794e-02  9.9973133987239893e-02  9.9969199479344156e-02  9.9959701656259323e-02  9.9963313255980610e-02  9.9956416035957590e-02  9.9942226027724596e-02  9.9953420701583195e-02  9.9931667155857773e-02  9.9948257340369731e-02  9.9907313311132492e-02  9.9994845840432861e-02  9.9817149660009541e-02  1.0003749208263324e-01  1.0006649834633644e-01  1.0003881728254484e-01  1.0003675969011505e-01  1.0005050709395505e-01  1.0002187183071723e-01  1.0002762246515196e-01  1.0005036462416078e-01  1.0000870457668191e-01  1.0002955021511856e-01  1.0002056670173283e-01  1.0001448171166104e-01  1.0001267800316568e-01  1.0001276756962829e-01  1.0000440315400751e-01  1.0000511820505423e-01  1.0000374181278375e-01  9.9999317968853446e-02  9.9998894015634568e-02  9.9998034568480401e-02  9.9995184543879720e-02  9.9994549677916433e-02  9.9993895572848268e-02  9.9991278094852490e-02  9.9991307587227865e-02  9.9988576073066632e-02  9.9989780950495252e-02  9.9983708521717299e-02  9.9991359959595433e-02  9.9974581261728396e-02  1.0000000000000003e-01  9.9995166297759008e-02  1.0000000000000003e-01  9.9996042061543028e-02  9.9994427732858215e-02  9.9993984454406215e-02  9.9991643130344254e-02  9.9991765172157895e-02  9.9990449713330182e-02  9.9987445444087095e-02  9.9988181154231096e-02  9.9986425287496059e-02  9.9981697263809177e-02  9.9982951895196681e-02  9.9981037633172815e-02  9.9974456118840274e-02  9.9980364519882819e-02  9.9972261720898778e-02  9.9978552355076203e-02  9.9963089227319821e-02  9.9970098601704360e-02  9.9958449090493035e-02  9.9967683098842047e-02  9.9957112646927998e-02  9.9948803566477340e-02  9.9950179352666563e-02  9.9947591045729575e-02  9.9924073701455202e-02  9.9954117818576993e-02  9.9902410559588276e-02  9.9986343725839283e-02  9.9824399936504216e-02  1.0002176092317494e-01  1.0007697239192749e-01  1.0005592332706403e-01  1.0005005783670709e-01  1.0003620687597707e-01  1.0003551142585010e-01  1.0004482404217423e-01  1.0001728355920704e-01  1.0004342340660076e-01  1.0002123297976327e-01  1.0002353006625908e-01  1.0001708901003863e-01  1.0002240291919406e-01  1.0000921734057028e-01  1.0001152908419898e-01  1.0000940108987877e-01  1.0000368085755043e-01  1.0000349134322369e-01  1.0000274738773049e-01  9.9998436512930194e-02  9.9998304609094313e-02  9.9997236245667656e-02  9.9994928347072409e-02  9.9993626173632708e-02  9.9993510661073481e-02  9.9989875879706605e-02  9.9991554265340871e-02  9.9985476577606397e-02  9.9992479742476173e-02  9.9976426908140265e-02  1.0000000000000003e-01  9.9994604320738673e-02  1.0000000000000003e-01  9.9996062473851136e-02  9.9993892623115893e-02  9.9992525079737229e-02  9.9991887998077664e-02  9.9990826254984039e-02  9.9987882800764941e-02  9.9988175703884546e-02  9.9986889609999088e-02  9.9983026594525667e-02  9.9983667237010063e-02  9.9981590358098102e-02  9.9975776926924137e-02  9.9978850393944010e-02  9.9974608716698846e-02  9.9970573572399010e-02  9.9969960724442669e-02  9.9979926971346500e-02  9.9948700988426273e-02  9.9968257656978268e-02  9.9959112439276326e-02  9.9949925165171496e-02  9.9958224931672862e-02  9.9945367724819489e-02  9.9938285630379195e-02  9.9935235698340993e-02  9.9947328291469836e-02  9.9896748803616875e-02  9.9989770176795292e-02  9.9825529919166364e-02  1.0003161863767723e-01  1.0006495776988092e-01  1.0006697750936766e-01  1.0003500519612708e-01  1.0004891840511669e-01  1.0005041984384987e-01  1.0002853342247520e-01  1.0003274966433109e-01  1.0003158748792948e-01  1.0003346983914584e-01  1.0001482696810685e-01  1.0003144099875232e-01  1.0001139058766136e-01  1.0001796721216051e-01  1.0001429115712752e-01  1.0000760109507760e-01  1.0000689370293676e-01  1.0000647297931854e-01  1.0000112282226443e-01  1.0000097047913241e-01  9.9999950583577843e-02  9.9996424321119215e-02  9.9996149581029870e-02  9.9994751334717941e-02  9.9993138495919301e-02  9.9990680103353630e-02  9.9992050724744513e-02  9.9985612540149232e-02  9.9992542193028347e-02  9.9976836660576621e-02  1.0000000000000003e-01  9.9994362105080364e-02  1.0000000000000003e-01  9.9995827835446069e-02  9.9992809031786631e-02  9.9992840829145530e-02  9.9991283825132768e-02  9.9988771446271232e-02  9.9988639702899618e-02  9.9987245379268966e-02  9.9983627326917068e-02  9.9984742226854037e-02  9.9982657546475687e-02  9.9977418664831993e-02  9.9979479054817660e-02  9.9976454580561328e-02  9.9970221273527032e-02  9.9972354209640027e-02  9.9972130118711505e-02  9.9957293567423514e-02  9.9980067722106492e-02  9.9948454488306818e-02  9.9952953871554159e-02  9.9957382806577011e-02  9.9953775666404523e-02  9.9935537698855867e-02  9.9952162939748401e-02  9.9930098299415182e-02  9.9937747474568836e-02  9.9910408205986415e-02  9.9981201153863664e-02  9.9825720235892965e-02  1.0004132557141247e-01  1.0007602647004656e-01  1.0005449474489304e-01  1.0004463628680983e-01  1.0006149986753339e-01  1.0003647355845699e-01  1.0004135548028829e-01  1.0004159240584316e-01  1.0002552852712504e-01  1.0002155360393056e-01  1.0004308764028447e-01  1.0000886469638073e-01  1.0002539505711827e-01  1.0001819676748011e-01  1.0001370861994467e-01  1.0001095047261481e-01  1.0001185378104747e-01  1.0000432050760992e-01  1.0000455940961736e-01  1.0000370283264902e-01  9.9999526925282925e-02  9.9998552682219188e-02  9.9998071207237263e-02  9.9994628484368991e-02  9.9994687232155308e-02  9.9992075734475272e-02  9.9992479583511054e-02  9.9986845438813671e-02  9.9993333150279348e-02  9.9978027279408341e-02  1.0000000000000003e-01  9.9994129594074430e-02  1.0000000000000003e-01  9.9995379252004191e-02  9.9993138206195334e-02  9.9992619151373155e-02  9.9989914543097774e-02  9.9989680150847596e-02  9.9988169259743145e-02  9.9984858901777759e-02  9.9985350112014579e-02  9.9983892269075850e-02  9.9979220711388997e-02  9.9980821921772184e-02  9.9978517123788593e-02  9.9972328039898833e-02  9.9974770176109409e-02  9.9971969317780712e-02  9.9962050377307016e-02  9.9971106712414298e-02  9.9959653788313563e-02  9.9966724927624026e-02  9.9947858476040152e-02  9.9954904946616227e-02  9.9940485070448198e-02  9.9952203003302639e-02  9.9945729582123596e-02  9.9920981393638697e-02  9.9952892889919182e-02  9.9907863189516513e-02  9.9968824656724950e-02  9.9845767649194533e-02  1.0002582431674217e-01  1.0009951313947819e-01  1.0006036712154674e-01  1.0005578486888266e-01  1.0004834243114576e-01  1.0004442135104209e-01  1.0005179939512306e-01  1.0003222490427559e-01  1.0003062429224185e-01  1.0003458636599245e-01  1.0001483701101463e-01  1.0003357379761095e-01  1.0001637519495313e-01  1.0001959079138673e-01  1.0001293656216247e-01  1.0001807296895401e-01  1.0000715510884156e-01  1.0000834047292483e-01  1.0000705044502346e-01  1.0000182440366796e-01  1.0000151865982818e-01  1.0000068992196012e-01  9.9996891881004746e-02  9.9995860834227429e-02  9.9995667750736997e-02  9.9991796701682178e-02  9.9993109756258927e-02  9.9987685633594364e-02  9.9993317023880202e-02  9.9978823628023600e-02  1.0000000000000003e-01  9.9993768967624894e-02  1.0000000000000003e-01  9.9995586830052469e-02  9.9992991160360117e-02  9.9991698559974307e-02  9.9990635123744828e-02  9.9989481323940838e-02  9.9986353700537739e-02  9.9986328483230483e-02  9.9984926822625608e-02  9.9981058779914575e-02  9.9981723642590933e-02  9.9980223051249012e-02  9.9974851072946985e-02  9.9976875368748594e-02  9.9974395604267574e-02  9.9965853897289222e-02  9.9970844572205619e-02  9.9964859437924367e-02  9.9958948879836002e-02  9.9958946021091941e-02  9.9972747354022617e-02  9.9927889922911364e-02  9.9958809764579715e-02  9.9942133291549731e-02  9.9936094166331577e-02  9.9939899340336119e-02  9.9948228303599992e-02  9.9897571071591681e-02  9.9984375218474378e-02  9.9847589012625956e-02  1.0001780999538337e-01  1.0010751949674211e-01  1.0007574170416141e-01  1.0004350193611683e-01  1.0005247049929963e-01  1.0005515759614315e-01  1.0004038234696142e-01  1.0003742247533982e-01  1.0004267899991995e-01  1.0002285170200918e-01  1.0002434535343546e-01  1.0002239930754354e-01  1.0002703324031574e-01  1.0000962052888587e-01  1.0002477923210194e-01  1.0000868080652062e-01  1.0001335161916546e-01  1.0001070365205482e-01  1.0000521474963224e-01  1.0000402142489000e-01  1.0000391838337704e-01  9.9999202505165641e-02  9.9998883830578367e-02  9.9997273966114172e-02  9.9994991003412942e-02  9.9992787007511505e-02  9.9994026813374173e-02  9.9987881264884546e-02  9.9993866499305639e-02  9.9979928933835380e-02  1.0000000000000003e-01  9.9993868055698223e-02  1.0000000000000003e-01  9.9995742667276039e-02  9.9992515067245769e-02  9.9992527250336805e-02  9.9990812164890419e-02  9.9988400605631994e-02  9.9987915112985978e-02  9.9986507182106305e-02  9.9982989819212872e-02  9.9983609466854764e-02  9.9981860545690540e-02  9.9977137685364703e-02  9.9979010610035016e-02  9.9977240419732008e-02  9.9970187269290300e-02  9.9973217361831263e-02  9.9969662325868264e-02  9.9960617714337119e-02  9.9964749374470294e-02  9.9964362574797599e-02  9.9944187145366403e-02  9.9975146317696897e-02  9.9935080307402377e-02  9