<?xml version="1.0"?>
<VTKFile type="UnstructuredGrid"  version="0.1"  >
<UnstructuredGrid>
<Piece  NumberOfPoints="1933" NumberOfCells="3640">
<Points>
<DataArray  type="Float64"  NumberOfComponents="3"  format="ascii">-0.2939879916067724 0.0001793641600353767 0  4.706012049957282 0.0001505396720426445 0  4.706055332572717 7.500150670384816 0  -0.2939447474837228 7.500179428015836 0  9.706012103093466 0.0001215959294320027 0  9.706055478083405 7.500121750051121 0  14.70601223132631 9.247459818773084e-05 0  14.7060557239958 7.500092635455949 0  19.70601250446295 6.317081477275662e-05 0  19.70605610457807 7.500063332326135 0  24.70601298796786 3.371161910868605e-05 0  24.70605665384 7.500033872210772 0  29.70601374048836 4.144080594190155e-06 0  29.7060574047276 7.500004304144269 0  34.70601481448335 -2.547124347098458e-05 0  34.70605838853979 7.499974689533411 0  39.70601625790401 -5.506361035824804e-05 0  39.70605963472919 7.499945099483946 0  44.70601811609725 -8.455329556277848e-05 0  44.70606117096015 7.499915613886142 0  49.7060204336162 -0.0001138513348563527 0  49.70606302325584 7.499886321807705 0  54.70602325584053 -0.0001428581391842258 0  54.70606521609538 7.499857322940636 0  59.70602663038652 -0.00017146111641549 0  59.70606777233742 7.499828730003913 0  64.70603060831355 -0.000199531285033656 0  64.7060707128468 7.499800672130795 0  69.7060352451107 -0.0002269187350060111 0  69.70607405568305 7.499773299385684 0  74.70604060141847 -0.0002534466551272536 0  74.70607781465844 7.499746788677979 0  79.70604674336175 -0.0002789034793736084 0  79.70608199698847 7.499721351487491 0  84.70605374225813 -0.0003030324774039222 0  84.70608659964465 7.499697244006111 0  89.70606167324264 -0.0003255177845639235 0  89.70609160382627 7.499674780557498 0  94.7060706119798 -0.0003459653722536473 0  94.70609696672403 7.499654351503902 0  99.70608062791443 -0.0003638767050121425 0  99.70610260943234 7.499636447306202 0  104.7060917712133 -0.0003786116727587112 0  104.7061083994928 7.499621690962792 0  109.7061040480377 -0.0003893356190344251 0  109.7061141263198 7.499610881614367 0  114.7061173740513 -0.0003949426450662003 0  114.7061194680558 7.499605052338101 0  119.7061314868883 -0.0003939436214964459 0  119.7061239503604 7.499605544158032 0  124.7061457805888 -0.0003843026608877873 0  124.7061269039529 7.49961409386109 0  129.7061589905008 -0.0003632021911722812 0  129.7061274445674 7.499632920344854 0  134.7061685895137 -0.0003267234411055584 0  134.7061245405133 7.499664762986995 0  139.7061696213042 -0.0002694854780825789 0  139.7061173317699 7.49971276208662 0  144.706152410773 -0.0001845708088568425 0  144.7061061007168 7.49977999416343 0  149.7060978972692 -6.546783356494141e-05 0  149.7060949024158 7.499868707971429 0  159.7061073738549 9.883806067188065e-19 0  164.7059841608667 -0.0001853476491046519 0  164.7060869556602 7.499784752852345 0  159.7061204774859 7.499929842608839 0  169.7059222746163 -0.0003359512752688807 0  169.706052769245 7.499649043897814 0  174.7058922134385 -0.0004616972281754917 0  174.7060255787959 7.499530130889101 0  179.7058791804514 -0.0005684404913739057 0  179.7060060229412 7.499426914105288 0  184.7058753909974 -0.0006605376674019066 0  184.7059928722083 7.499336746894348 0  189.7058766308704 -0.0007413149108963333 0  189.7059846137233 7.499257063100947 0  194.7058805677084 -0.0008132875041957557 0  194.7059799225646 7.499185727281296 0  199.7058858844216 -0.0008783472552180526 0  199.7059777596214 7.499121048350096 0  204.7058918231149 -0.0009379207827149376 0  204.7059773486758 7.499061708878354 0  209.7058979404422 -0.0009930931055519942 0  209.7059781232694 7.499006684460559 0  214.7059039739485 -0.001044699388476004 0  214.7059796744681 7.498955174226096 0  219.7059097675812 -0.001093391338384173 0  219.705981708321 7.498906546274774 0  224.7059152292694 -0.001139684818746605 0  224.7059840137603 7.498860296448663 0  229.7059203062047 -0.00118399403413848 0  229.7059864392481 7.498816017639569 0  234.7059249701049 -0.001226656258819857 0  234.7059888760887 7.498773376997129 0  239.7059292082431 -0.00126794993042993 0  239.7059912465899 7.498732098927473 0  244.7059330179058 -0.00130810806946827 0  244.7059934956939 7.498691952303203 0  249.7059364029495 -0.001347328375679992 0  249.7059955850646 7.49865274073945 0  254.705939371704 -0.001385780930168122 0  254.7059974889273 7.498614295120353 0  259.7059419357731 -0.001423614139798027 0  259.7059991911566 7.498576467801882 0  264.7059441094962 -0.001460959353988453 0  264.7060006832749 7.498539128095643 0  269.7059459099199 -0.001497934429821918 0  269.7060019631181 7.498502158775583 0  274.705947357228 -0.001534646392962927 0  274.7060030339859 7.498465453463873 0  279.705948475616 -0.00157119321401368 0  279.7060039041436 7.498428914861709 0  284.7059492946131 -0.001607664563395424 0  284.7060045865513 7.498392453912066 0  289.705949850821 -0.001644141179638857 0  289.7060050986798 7.498355990132231 0  294.7059501899478 -0.001680692116214279 0  294.7060054623217 7.498319453550787 0  299.7059503686245 -0.001717368501368012 0  299.7060057033122 7.498282788934673 0  304.7059504547252 -0.001754191365799839 0  304.7060058514472 7.498245963276751 0  309.7059505228373 -0.001791129400663958 0  309.7060059418404 7.49820897781461 0  4.706098238155121 15.00015096949739 0  -0.2939018492839504 15.00017958415212 0  9.706098383707486 15.00012209251322 0  14.70609861727364 15.00009297863593 0  19.70609895895617 15.00006366108297 0  24.70609942490329 15.00003418404111 0  29.7061000294679 15.00000460197498 0  34.70610078571067 14.99997497830216 0  39.70610170523285 14.99994538455921 0  44.70610279774503 14.99991590035799 0  49.70610407049932 14.99988661416242 0  54.7061055275851 14.99985762486282 0  59.70610716902845 14.99982904415417 0  64.70610898960682 14.9998009997791 0  69.70611097726476 14.99977363976541 0  74.70611311100399 14.99974713786401 0  79.70611535809924 14.99972170047792 0  84.70611767049712 14.9996975754627 0  89.70611998028309 14.99967506326564 0  94.70612219423033 14.99965453091967 0  99.70612418771479 14.99963642934918 0  104.7061257989206 14.9996213141097 0  109.7061268254689 14.99960986873513 0  114.7061270279295 14.99960292761397 0  119.7061261487541 14.99960149041795 0  124.7061239619608 14.9996067100263 0  129.7061203790167 14.99961981595842 0  134.7061156486415 14.99964189711283 0  139.7061106944825 14.99967339481864 0  144.706107603976 14.99971300742858 0  149.7061101077163 14.99975530021668 0  164.7061375407994 14.99970229662764 0  159.7061409220634 14.99979856057864 0  169.7061256629556 14.99960012778972 0  174.7061107777698 14.99950128439844 0  179.7060963476455 14.99940974381633 0  184.7060839231786 14.99932637402864 0  189.7060739519095 14.99925069052636 0  194.7060663452367 14.9991817461783 0  199.706060795998 14.99911852381952 0  204.7060569390642 14.99906008976204 0  209.7060544249499 14.99900564015506 0  214.7060529484453 14.99895450254995 0  219.7060522554391 14.99890612102988 0  224.70605214009 14.99886003723715 0  229.7060524384238 14.9988158722505 0  234.7060530212486 14.99877331096752 0  239.706053787595 14.99873208925392 0  244.7060546591248 14.99869198359471 0  249.7060555755645 14.9986528028357 0  254.7060564910606 14.99861438160918 0  259.7060573713231 14.99857657510256 0  264.7060581913903 14.99853925490256 0  269.7060589338938 14.99850230572324 0  274.7060595876926 14.99846562289297 0  279.7060601467788 14.99842911053655 0  284.7060606094003 14.99839268043991 0  289.7060609773439 14.99835625161313 0  294.7060612554977 14.99831975053516 0  299.7060614519028 14.99828311187879 0  304.7060615789318 14.99824627893832 0  309.7060616567412 14.99820920142395 0  4.706140753145265 22.50015156985544 0  -0.2938593325147814 22.50018006305375 0  9.706140873798057 22.50012272241934 0  14.70614105040385 22.50009359188384 0  19.70614129418763 22.50006423943667 0  24.70614161071156 22.5000347246285 0  29.70614200225775 22.50000510948398 0  34.70614246885548 22.49997546047343 0  39.7061430084481 22.49994584966871 0  44.70614361655535 22.49991635579303 0  49.70614428563636 22.49988706551726 0  54.70614500424539 22.49985807518116 0  59.7061457560136 22.49982949304426 0  64.70614651845477 22.49980144215434 0  69.70614726158982 22.49977406392371 0  74.70614794640292 22.49974752251462 0  79.7061485231889 22.49972201013287 0  84.70614892994446 22.49969775329793 0  89.70614909111987 22.4996750200613 0  94.70614891732571 22.49965412792408 0  99.70614830703538 22.49963545175008 0  104.7061471520216 22.49961943010105 0  109.7061453492872 22.49960656681752 0  114.7061428236255 22.49959742183754 0  119.7061395665038 22.49959258043498 0  124.7061356980888 22.49959258228769 0  129.70613155811 22.4995977801313 0  134.7061278238641 22.49960808253334 0  139.7061256315999 22.49962252183626 0  144.706126625814 22.49963859951817 0  149.706132759278 22.49965148936559 0  164.7061695521447 22.49960999121704 0  159.7061595266433 22.49967544334368 0  169.7061715344718 22.4995348416141 0  174.7061680191435 22.49945662879907 0  179.7061615209035 22.49937964457435 0  184.7061539165984 22.4993061613407 0  189.7061463781811 22.49923708418565 0  194.7061395351959 22.49917253549349 0  199.7061336605724 22.49911224590879 0  204.7061288153585 22.49905578227969 0  209.7061249461708 22.4990026691279 0  214.7061219455877 22.49895244784019 0  219.7061196872712 22.4989047017882 0  224.7061180450934 22.49885906383614 0  229.7061169026427 22.4988152153517 0  234.706116157201 22.49877288155916 0  239.7061157206899 22.49873182569778 0  244.7061155190701 22.49869184316434 0  249.7061154910276 22.49865275615303 0  254.7061155864242 22.4986144089691 0  259.706115764728 22.49857666403697 0  264.7061159935599 22.49853939855623 0  269.7061162473761 22.49850250173852 0  274.7061165063055 22.49846587255618 0  279.706116755144 22.49842941793232 0  284.7061169825091 22.49839305128434 0  289.7061171802107 22.4983566912759 0  294.7061173429564 22.49832026048764 
[...]
<PointData  Scalars="p"> 
<DataArray  type="Float64"  Name="p"  format="ascii">1.0000000000000001e-01  1.0000000000000003e-01  1.0000258759554977e-01  1.0000000000000003e-01  1.0000000000000003e-01  1.0000370448214567e-01  1.0000000000000003e-01  1.0000559150343492e-01  1.0000000000000003e-01  1.0000685825972121e-01  1.0000000000000003e-01  1.0000827565208445e-01  1.0000000000000003e-01  1.0001010235042983e-01  1.0000000000000003e-01  1.0001128352139323e-01  1.0000000000000003e-01  1.0001253885987414e-01  1.0000000000000003e-01  1.0001455337332758e-01  1.0000000000000003e-01  1.0001579765521894e-01  1.0000000000000003e-01  1.0001899357582658e-01  1.0000000000000003e-01  1.0002237549768406e-01  1.0000000000000003e-01  1.0002488681030754e-01  1.0000000000000003e-01  1.0002734249607485e-01  1.0000000000000003e-01  1.0003092994640141e-01  1.0000000000000003e-01  1.0003271120033518e-01  1.0000000000000003e-01  1.0003487921580280e-01  1.0000000000000003e-01  1.0003839625536784e-01  1.0000000000000003e-01  1.0003902713930278e-01  1.0000000000000003e-01  1.0004157716660377e-01  1.0000000000000003e-01  1.0004283015217438e-01  1.0000000000000003e-01  1.0004519033220854e-01  1.0000000000000003e-01  1.0004266882441290e-01  1.0000000000000003e-01  1.0005003523483033e-01  1.0000000000000003e-01  1.0003998205962225e-01  1.0000000000000003e-01  1.0005578164535797e-01  1.0000000000000003e-01  1.0003375193740444e-01  1.0000000000000003e-01  1.0006529373317048e-01  1.0000000000000003e-01  1.0002385770104492e-01  1.0000000000000001e-01  1.0008442469538588e-01  1.0000000000000001e-01  1.0000000000000003e-01  9.9898409677814534e-02  9.9828272339332669e-02  1.0000000000000003e-01  9.9955294047688742e-02  1.0000000000000003e-01  9.9917107994969931e-02  1.0000000000000003e-01  9.9934425301595867e-02  1.0000000000000003e-01  9.9927543352436338e-02  1.0000000000000003e-01  9.9931598881093500e-02  1.0000000000000003e-01  9.9927616433803934e-02  1.0000000000000003e-01  9.9930963799971101e-02  1.0000000000000003e-01  9.9929576485725410e-02  1.0000000000000003e-01  9.9930184091944249e-02  1.0000000000000003e-01  9.9930901120750482e-02  1.0000000000000003e-01  9.9931495014395411e-02  1.0000000000000003e-01  9.9931762153656886e-02  1.0000000000000003e-01  9.9932875805282761e-02  1.0000000000000003e-01  9.9933430694706782e-02  1.0000000000000003e-01  9.9934065439050729e-02  1.0000000000000003e-01  9.9934891066289860e-02  1.0000000000000003e-01  9.9935670297717757e-02  1.0000000000000003e-01  9.9936066048896363e-02  1.0000000000000003e-01  9.9937190768484715e-02  1.0000000000000003e-01  9.9937221028510881e-02  1.0000000000000003e-01  9.9938797584714287e-02  1.0000000000000003e-01  9.9937738333711015e-02  1.0000000000000003e-01  9.9941274754966516e-02  1.0000000000000003e-01  9.9936582188341311e-02  1.0000000000000003e-01  9.9945999943471545e-02  1.0000000000000003e-01  9.9931522620150287e-02  1.0000000000000003e-01  9.9956763533342957e-02  1.0000000000000003e-01  9.9913246522105675e-02  1.0000000000000001e-01  1.0000000000000003e-01  1.0000350431537781e-01  1.0000000000000003e-01  1.0000389864923998e-01  1.0000424719232512e-01  1.0000479095489435e-01  1.0000591249231873e-01  1.0000592807926879e-01  1.0000599720695920e-01  1.0000747489894861e-01  1.0000702908465806e-01  1.0000744014037344e-01  1.0000986439826987e-01  1.0001227621478802e-01  1.0001289566981653e-01  1.0001640885810037e-01  1.0001532984680811e-01  1.0001590000478862e-01  1.0001874118034948e-01  1.0001739532786315e-01  1.0001723787464718e-01  1.0002087844558372e-01  1.0001734652403689e-01  1.0001938684665823e-01  1.0001827176777421e-01  1.0002118007251805e-01  1.0001185375957526e-01  1.0002967971350286e-01  9.9999008985206986e-02  1.0004996776685057e-01  9.9972487904232091e-02  1.0008642665327643e-01  1.0005991624144442e-01  9.9712215083633038e-02  9.9931978655098952e-02  9.9983253822466159e-02  9.9976845801511685e-02  9.9981186938102096e-02  9.9970480404913784e-02  9.9979125983303052e-02  9.9973932604928900e-02  9.9973536792392348e-02  9.9974667057095234e-02  9.9974379849874687e-02  9.9973382621950935e-02  9.9974931883101775e-02  9.9974844900487567e-02  9.9974718244913580e-02  9.9975690749110002e-02  9.9975821216191224e-02  9.9975909428570570e-02  9.9976418187212646e-02  9.9976859811506780e-02  9.9976476085855595e-02  9.9977729533503021e-02  9.9976516652568417e-02  9.9978898009116052e-02  9.9975273314117610e-02  9.9982310195957824e-02  9.9969838686635490e-02  9.9991571438841631e-02  9.9957938991271450e-02  1.0000000000000003e-01  1.0000481020510933e-01  1.0000000000000003e-01  1.0000365412899992e-01  1.0000559091513801e-01  1.0000684494250453e-01  1.0000737126416429e-01  1.0000743710309888e-01  1.0000967633567720e-01  1.0000925211170626e-01  1.0000903217684631e-01  1.0001193795959974e-01  1.0001221720316733e-01  1.0001223388598070e-01  1.0002051960007159e-01  1.0001978626847176e-01  1.0002095714858301e-01  1.0002609882780272e-01  1.0002361836579172e-01  1.0002417342405169e-01  1.0002922654216306e-01  1.0002617072062117e-01  1.0002528870350332e-01  1.0003204992322262e-01  1.0002397398554930e-01  1.0002980391202612e-01  1.0002357379383527e-01  1.0003507235564323e-01  1.0000923472635753e-01  1.0005993624971261e-01  9.9969188705896106e-02  1.0013754370633725e-01  1.0006999211569297e-01  9.9696472708849765e-02  9.9859154669530228e-02  9.9966172315488752e-02  9.9964206167231895e-02  9.9939407439137762e-02  9.9964957246294853e-02  9.9950492358027054e-02  9.9950371202034413e-02  9.9952934167227461e-02  9.9951833031619725e-02  9.9949063568301508e-02  9.9952284644345149e-02  9.9951472094110830e-02  9.9950960204640643e-02  9.9952839495516421e-02  9.9953040885444613e-02  9.9952806937211133e-02  9.9954223380217103e-02  9.9954311628494580e-02  9.9954576303060913e-02  9.9955043646849720e-02  9.9955975795950489e-02  9.9954836689313084e-02  9.9957576547182264e-02  9.9954125806170815e-02  9.9960177370407577e-02  9.9950350901397603e-02  9.9969026722417684e-02  9.9933441968087108e-02  1.0000000000000003e-01  1.0000554328736978e-01  1.0000000000000003e-01  1.0000373301571128e-01  1.0000632186369074e-01  1.0000632806043061e-01  1.0000632453861263e-01  1.0000849786366706e-01  1.0000783136147622e-01  1.0000713928325557e-01  1.0000979316234598e-01  1.0000855870073701e-01  1.0000806421306681e-01  1.0001348331933736e-01  1.0001098733155460e-01  1.0001548061847526e-01  1.0002115855380346e-01  1.0001900086440890e-01  1.0001829803176165e-01  1.0002438975230554e-01  1.0001918565555111e-01  1.0001954687671781e-01  1.0002398201808511e-01  1.0002026784773940e-01  1.0001571416658105e-01  1.0002746730831087e-01  1.0000865796295490e-01  1.0003042390963063e-01  9.9996246504556074e-02  1.0005695085241587e-01  9.9948525023029117e-02  1.0014834575743413e-01  1.0008549771500522e-01  9.9636558647995532e-02  9.9897850421243634e-02  9.9997666813395308e-02  9.9919612240062225e-02  9.9998269169885828e-02  9.9963655462822418e-02  9.9968930119991889e-02  9.9969751931323916e-02  9.9969440064361245e-02  9.9963175284905337e-02  9.9968496479602389e-02  9.9966094194496383e-02  9.9964869453567154e-02  9.9967151661546363e-02  9.9967049334668906e-02  9.9966409906692852e-02  9.9968157377216524e-02  9.9968293734824187e-02  9.9967911340164306e-02  9.9969232042094500e-02  9.9968873916718978e-02  9.9969541592078978e-02  9.9968844175434016e-02  9.9971212706625803e-02  9.9967068074201387e-02  9.9974570524023004e-02  9.9962307871530334e-02  9.9982582306872125e-02  9.9949686109741032e-02  1.0000000000000003e-01  1.0000630286215367e-01  1.0000000000000003e-01  1.0000428455460600e-01  1.0000621474680943e-01  1.0000562903200168e-01  1.0000853173034113e-01  1.0000775942617014e-01  1.0000756791741923e-01  1.0001023899858823e-01  1.0000875560977165e-01  1.0000777882050174e-01  1.0001242136436747e-01  1.0001027958166095e-01  1.0001092960713469e-01  1.0001561812933182e-01  1.0001812240155003e-01  1.0001828635770796e-01  1.0002600290432243e-01  1.0002085857553619e-01  1.0001987997524142e-01  1.0002778063751691e-01  1.0001958746145369e-01  1.0002085571994225e-01  1.0002399204690055e-01  1.0002251156037401e-01  1.0000969625908138e-01  1.0003660191468723e-01  9.9990458855155076e-02  1.0006366705013341e-01  9.9937248764196976e-02  1.0017595656766441e-01  1.0014081190165336e-01  9.9580985560761962e-02  9.9878928883282078e-02  9.9973774577485797e-02  9.9941060802761356e-02  9.9957449303154311e-02  9.9962930624826710e-02  9.9963731380843551e-02  9.9968352773798869e-02  9.9954086945433215e-02  9.9964478517954286e-02  9.9959509185155920e-02  9.9957247230524585e-02  9.9960321357093332e-02  9.9959837065672338e-02  9.9958135445814097e-02  9.9960927244302736e-02  9.9960808958749384e-02  9.9960379800151086e-02  9.9961903452192691e-02  9.9962224208559256e-02  9.9961551063200205e-02  9.9963206792539103e-02  9.9962074306396517e-02  9.9963902477874580e-02  9.9961093096519182e-02  9.9966834684910744e-02  9.9956395555800256e-02  9.9975406063241234e-02  9.9941511464350291e-02  1.0000000000000003e-01  1.0000722128453202e-01  1.0000000000000003e-01  1.0000415688793160e-01  1.0000593198161599e-01  1.0000699625333442e-01  1.0000726671319408e-01  1.0000689457098361e-01  1.0000969663410705e-01  1.0000863671411636e-01  1.0000717032604639e-01  1.0001115101821927e-01  1.0000919243082848e-01  1.0000827053204772e-01  1.0001388551643842e-01  1.0001172690294065e-01  1.0000878442982769e-01  1.0002345185278202e-01  1.0001838571706849e-01  1.0001849829365062e-01  1.0002675345338100e-01  1.0001931334266866e-01  1.0001653722329869e-01  1.0002813490895987e-01  1.0001361697371376e-01  1.0001983642062687e-01  1.0001433463463420e-01  1.0002861397771633e-01  9.9983639336226865e-02  1.0007255539788400e-01  9.9915646782808246e-02  1.0020000701170088e-01  1.0015399899197010e-01  9.9579188122770626e-02  9.9855589823599045e-02  1.0001830627880891e-01  9.9943312732442655e-02  9.9955665393719362e-02  9.9951599587944126e-02  9.9987797774211601e-02  9.9953779561008455e-02  9.9977097089594444e-02  9.9965683433331773e-02  9.9963278926795560e-02  9.9966856266155257e-02  9.9966138986643943e-02  9.9962525681611999e-02  9.9966511439532224e-02  9.9965776645386181e-02  9.9964685360293057e-02  9.9967180205427400e-02  9.9967090136816442e-02  9.9966718459290144e-02  9.9967791534807629e-02  9.9968447711512406e-02  9.9966882688771089e-02  9.9969780308422754e-02  9.9965974673317262e-02  9.9972070925875012e-02  9.9961617567689690e-02  9.9980004730381683e-02  9.9948131968713799e-02  1.0000000000000003e-01  1.0000773499893158e-01  1.0000000000000003e-01  1.0000392519182356e-01  1.0000736352282144e-01  1.0000626883777076e-01  1.0000653301248982e-01  1.0000888184754868e-01  1.0000868101363972e-01  1.0000721036230194e-01  1.0001122154834656e-01  1.0000913350415772e-01  1.0000768656543112e-01  1.0001351927267715e-01  1.0001062943085035e-01  1.0000816320841027e-01  1.0001725891771891e-01  1.0001014276158961e-01  1.0001617201102832e-01  1.0002674091196161e-01  1.0001972556382289e-01  1.0001844815601260e-01  1.0002773015330457e-01  1.0001894871858899e-01  1.0001313290595079e-01  1.0003087606970540e-01  1.0000476671892143e-01  1.0002885114476937e-01  9.9990377416800266e-02  1.0006946015619733e-01  9.9904755218441263e-02  1.0022865567492784e-01  1.0015173709829717e-01  9.9550840628211346e-02  9.9874956376812013e-02  1.0001859889803645e-01  9.9926602606096926e-02  9.9975764933623326e-02  9.9955431101837341e-02  9.9942314514559497e-02  9.9982142481470068e-02  9.9963566954375374e-02  9.9964589763219175e-02  9.9965579006422417e-02  9.9966433665932442e-02  9.9959929567846439e-02  9.9965484963089365e-02  9.9963796513847292e-02  9.9962018998405025e-02  9.9964793514701847e-02  9.9964910220611547e-02  9.9963870032140995e-02  9.9966141930898852e-02  9.9965781489131850e-02  9.9965938292342765e-02  9.9965912109544364e-02  9.9967700895743195e-02  9.9964119657395586e-02  9.9970289904596138e-02  9.9960005326555246e-02  9.9977777410258498e-02  9.9946256688854651e-02  1.0000000000000003e-01  1.0000809879219755e-01  1.0000000000000003e-01  1.0000468168611040e-01  1.0000709583139088e-01  1.0000564048273680e-01  1.0000837132942725e-01  1.0000766683333345e-01  1.0000691924419977e-01  1.0001065184497461e-01  1.0000891360582580e-01  1.0000744946954719e-01  1.0001279612982017e-01  1.0001009958929480e-01  1.0000803652350634e-01  1.0001554984324607e-01  1.0000967217212439e-01  1.0000912725227599e-01  1.0001626644631814e-01  1.0001775097282582e-01  1.0001629838724946e-01  1.0003000995574976e-01  1.0001735895409261e-01  1.0001750838244702e-01  1.0002550711477314e-01  1.0001933752468002e-01  1.0000257427399763e-01  1.0004142714224466e-01  9.9977291319838485e-02  1.0007278981597564e-01  9.9902154147870875e-02  1.0024273535226072e-01  1.0018486390362674e-01  9.9518626793142079e-02  9.9867933904179959e-02  1.0000986239636805e-01  9.9949866395499798e-02  9.9983567687587593e-02  9.9944316247762843e-02  9.9966526953283688e-02  9.9953247492854599e-02  9.9974514493668079e-02  9.9965946076731163e-02  9.9974595077830672e-02  9.9960972033294501e-02  9.9970124799524274e-02  9.9966782980829852e-02  9.9964125096293446e-02  9.9967374880104820e-02  9.9967146931723067e-02  9.9965263789158071e-02  9.9968025184402884e-02  9.9968223392930086e-02  9.9967134188251330e-02  9.9969375458730594e-02  9.9968215061939342e-02  9.9969620619121138e-02  9.9967070550387824e-02  9.9972521493370534e-02  9.9962344714780549e-02  9.9979899980853548e-02  9.9949447532919775e-02  1.0000000000000003e-01  1.0000877648401213e-01  1.0000000000000003e-01  1.0000450561470325e-01  1.0000673271984366e-01  1.0000712581316336e-01  1.0000762701577470e-01  1.0000631320347368e-01  1.0000975152121146e-01  1.0000857305863112e-01  1.0000725222021212e-01  1.0001185213569082e-01  1.0001020283308923e-01  1.0000794797206734e-01  1.0001495672143083e-01  1.0001058970067346e-01  1.0000766701081823e-01  1.0001624773667833e-01  1.0001081534537615e-01  1.0000528289158274e-01  1.0002744385223192e-01  1.0001827164354765e-01  1.0001606731176439e-01  1.0003232181695151e-01  1.0001321994812727e-01  1.0001785757445802e-01  1.0001860981200811e-01  1.0002873360784337e-01  9.9974866875409130e-02  1.0008937597941539e-01  9.9884263813894966e-02  1.0025962070404493e-01  1.0019312766206871e-01  9.9519629265317683e-02  9.9850744295729335e-02  1.0003196482385825e-01  9.9948725425464111e-02  9.9971354203844343e-02  9.9964680312752394e-02  9.9967579488788483e-02  9.9948771779935108e-02  9.9955971543318298e-02  9.9982137767781989e-02  9.9957868225819063e-02  9.9974782263497805e-02  9.9967186623812224e-02  9.9964685779327170e-02  9.9967862826076503e-02  9.9967894537441926e-02  9.9964347799909731e-02  9.9968061938538036e-02  9.9967488222489201e-02  9.9966528138395405e-02  9.9968486646250992e-02  9.9969112645541924e-02  9.9967390524369079e-02  9.9970362225703158e-02  9.9967071714813255e-02  9.9971995731297808e-02  9.9962932213925770e-02  9.9979403572107592e-02  9.9949743259350118e-02  1.0000000000000003e-01  1.0000902654632514e-01  1.0000000000000003e-01  1.0000425006758076e-01  1.0000808346277702e-01  1.0000661260507548e-01  1.0000671510918521e-01  1.0000881511571696e-01  1.0000833709906033e-01  1.0000681580035578e-01  1.0001094534373874e-01  1.0000967792560747e-01  1.0000759710961134e-01  1.0001444393193173e-01  1.0001122869281728e-01  1.0000783392472552e-01  1.0001635611389868e-01  1.0001056250067809e-01  1.0000532037475547e-01  1.0001961896939418e-01  1.0000649004495893e-01  1.0001457408686905e-01  1.0002992195986836e-01  1.0001917655722534e-01  1.0001187477694985e-01  1.0003613145758264e-01  1.0000314221646397e-01  1.0002732945047559e-01  9.9992321756180183e-02  1.0007710426254117e-01  9.9877941622964386e-02  1.0028657865414992e-01  1.0018966949408591e-01  9.9511527976557435e-02  9.9863757178041510e-02  1.0003507541308744e-01  9.9936278154437397e-02  9.9990549352854924e-02  9.9967196843825004e-02  9.9962041275444294e-02  9.9963193442335174e-02  9.9964050215513939e-02  9.9946794527702290e-02  9.9983422205602079e-02  9.9966944103244845e-02  9.9969605372013617e-02  9.9969286230601195e-02  9.9971160562649833e-02  9.9965432089752240e-02  9.9970097519113094e-02  9.9969100713402467e-02  9.9967095681960175e-02  9.9969739249115647e-02  9.9969576219336276e-02  9.9969192791206141e-02  9.9969930498679083e-02  9.9971572552553248e-02  9.9968031884035594e-02  9.9973844383093438e-02  9.9964490237682252e-02  9.9980312492689336e-02  9.9951984654179191e-02  1.0000000000000003e-01  1.0000919556402710e-01  1.0000000000000003e-01  1.0000491492438239e-01  1.0000786829976877e-01  1.0000593895435658e-01  1.0000866328588227e-01  1.0000780964404760e-01  1.0000692567111905e-01  1.0001007130869105e-01  1.0000902223449848e-01  1.0000704445835548e-01  1.0001315759885501e-01  1.0001100111714091e-01  1.0000851809356356e-01  1.0001624980043972e-01  1.0001120913288732e-01  1.0000681705032068e-01  1.0001791713800691e-01  1.0000827689236491e-01  1.0000583718089436e-01  1.0001806989177538e-01  1.0001565363045316e-01  1.0001509591544915e-01  1.0003186089940071e-01  1.0001913206166094e-01  1.0000244898126293e-01  1.0004855206828653e-01  9.9975909139922672e-02  1.0007501552979589e-01  9.9895870921452037e-02  1.0027936477603246e-01  1.0020595914636139e-01  9.9499897044925817e-02  9.9863191510847826e-02  1.0002619455376563e-01  9.9950063178738918e-02  9.9992134009934092e-02  9.9956785775203075e-02  9.9976386060177808e-02  9.9968860328553288e-02  9.9955889396023609e-02  9.9962870008027879e-02  9.9957491171149340e-02  9.9975519922597803e-02  9.9968076891114366e-02  9.9976039652202447e-02  9.9965117745929283e-02  9.9972317274892517e-02  9.9970131492860825e-02  9.9967740035521002e-02  9.9970258412069662e-02  9.9970382725186074e-02  9.9968220647467354e-02  9.9971139482799315e-02  9.9970234539354774e-02  9.9971132356378889e-02  9.9969453662951471e-02  9.9974195780890410e-02  9.9965018893136859e-02  9.9980757609697143e-02  9.9953164710868250e-02  1.0000000000000003e-01  1.0000968508065103e-01  1.0000000000000003e-01  1.0000480871668703e-01  1.0000749088556354e-01  1.0000739601140780e-01  1.0000813868729014e-01  1.0000664357390526e-01  1.0000971283728835e-01  1.0000877252245731e-01  1.0000690838722610e-01  1.0001158068114485e-01  1.0001037232535000e-01  1.0000824884418638e-01  1.0001537667658783e-01  1.0001240986069040e-01  1.0000784447303378e-01  1.0001768659430584e-01  1.0001059177775343e-01  1.0000539516501000e-01  1.0001806016772261e-01  1.0000948636856281e-01  9.9999368717549039e-02  1.0003348572414987e-01  1.0001300790076945e-01  1.0001751371310350e-01  1.0002724599311437e-01  1.0002757027699619e-01  9.9974939832321030e-02  1.0009858115427571e-01  9.9879376820658311e-02  1.0027750939892256e-01  1.0020979255397813e-01  9.9515372368370381e-02  9.9853742710771215e-02  1.0003928484889184e-01  9.9951746236240868e-02  9.9982502344113031e-02  9.9969369602057864e-02  9.9979680808467794e-02  9.9960578761388239e-02  9.9971213942001466e-02  9.9965744442926177e-02  9.9956495871294612e-02  9.9958488055422012e-02  9.9983554141430120e-02  9.9963456640581219e-02  9.9977192973378884e-02  9.9971446797889690e-02  9.9969523403342767e-02  9.9971869814515280e-02  9.9972080266728672e-02  9.9969170718151534e-02  9.9971633486395498e-02  9.9971795380529069e-02  9.9969887367886048e-02  9.9973136544027438e-02  9.9970436518306435e-02  9.9974526916420003e-02  9.9966855257856896e-02  9.9981428807990547e-02  9.9954967449621498e-02  1.0000000000000003e-01  1.0000988531364911e-01  1.0000000000000003e-01  1.0000462424250085e-01  1.0000873193474018e-01  1.0000710559044138e-01  1.0000743594048844e-01  1.0000904516347474e-01  1.0000888913475030e-01  1.0000721856312152e-01  1.0001092909249513e-01  1.0000979179984104e-01  1.0000785401823400e-01  1.0001406574544995e-01  1.0001250051100810e-01  1.0000867943207517e-01  1.0001759812176421e-01  1.0001281693203173e-01  1.0000658098587906e-01  1.0001909501548155e-01  1.0001015621929552e-01  1.0000213857627226e-01  1.0002243831667289e-01  1.0000407390925710e-01  1.0000896122682879e-01  1