<?xml version="1.0"?>
<VTKFile type="UnstructuredGrid"  version="0.1"  >
<UnstructuredGrid>
<Piece  NumberOfPoints="1933" NumberOfCells="3640">
<Points>
<DataArray  type="Float64"  NumberOfComponents="3"  format="ascii">0.4752810519256696 0.001759159867984919 0  5.475281053682373 0.001693193327774399 0  5.475380056366942 7.501693229612607 0  0.4753800313168631 7.501759153863079 0  10.47528104207095 0.001627177434590814 0  10.47538011176381 7.501627232693242 0  15.47528104335976 0.00156105322819451 0  15.47538021798146 7.501561117053274 0  20.47528109480632 0.001494790367492697 0  20.4753803971722 7.50149485811831 0  25.47528123650869 0.001428377416229503 0  25.47538067351419 7.501428447291396 0  30.47528150841865 0.00136181560312953 0  30.47538107281648 7.501361887266883 0  35.47528194974776 0.001295114815570408 0  35.47538162223864 7.50129518871919 0  40.47528259948242 0.001228291145411159 0  40.47538235028843 7.501228368194005 0  45.47528349740573 0.001161365542711726 0  45.47538328707246 7.501161446943312 0  50.47528468535513 0.001094363286236639 0  50.47538446473443 7.501094450495636 0  55.47528620860825 0.001027314091988035 0  55.47538591802387 7.501027408823578 0  60.47528811737252 0.0009602527664756238 0  60.47538768495079 7.500960357036816 0  65.47529046839819 0.0008932203800694736 0  65.47538980749314 7.500893336588009 0  70.47529332675612 0.000826265996795237 0  70.47539233232854 7.500826397035224 0  75.47529676784296 0.0007594490593192804 0  75.47539531155569 7.500759598464175 0  80.47530087968507 0.0006928426017882486 0  80.47539880335624 7.500693014745352 0  85.47530576562839 0.0006265375617601646 0  85.47540287251609 7.500626737896065 0  90.47531154750772 0.0005606486049471968 0  90.47540759066975 7.50056088395127 0  95.47531836938987 0.0004953220937773721 0  95.47541303604559 7.500495600943234 0  100.4753264019498 0.0004307471744701893 0  100.4754192923492 7.500431079883423 0  105.4753358474363 0.0003671715162152759 0  105.4754264462094 7.500367570082022 0  110.4753469449062 0.000304924166250503 0  110.4754345823043 7.500305400801902 0  115.4753599747414 0.0002444495644733846 0  115.4754437748923 7.500245012217033 0  120.4753752599495 0.000186359494011087 0  120.4754540740825 7.500187000010817 0  125.4753931583563 0.000131514546788087 0  125.475465485195 7.500132179699366 0  130.4754140323215 8.115520243566482e-05 0  130.4754779411504 7.500081678565425 0  135.4754381660832 3.711750720349675e-05 0  135.4754912743406 7.500037063891255 0  140.475465563698 2.191505296491626e-06 0  140.4755052150782 7.500000514558797 0  145.4754954726509 -1.930499271336413e-05 0  145.4755195054184 7.499975046563307 0  150.4755252439907 -2.082282130729308e-05 0  150.4755344077951 7.499964902738422 0  160.4755282581475 1.049935841325887e-18 0  165.475435147758 -0.0001097720535045094 0  165.4755109093761 7.499876128458064 0  160.4755410848674 7.499965428327016 0  170.4753769811165 -0.0002127857695305698 0  170.4754802326655 7.499780048018592 0  175.4753388906111 -0.0003107718333191429 0  175.4754537599083 7.499685147987356 0  180.4753130413112 -0.0004043046040269102 0  180.4754321757782 7.499593231712561 0  185.4752950022676 -0.0004939845512932417 0  185.4754150023589 7.499504468503352 0  190.4752821491391 -0.000580422963687995 0  190.4754014940582 7.499418573091501 0  195.4752728649924 -0.0006641656727377873 0  195.4753909300392 7.499335162658943 0  200.4752661145444 -0.0007456670306326403 0  200.4753826981677 7.499253870996403 0  205.4752612093152 -0.0008252939823872559 0  205.475376304689 7.499174380599475 0  210.4752576746212 -0.0009033404643251262 0  210.4753713597376 7.499096425897029 0  215.4752551722626 -0.0009800428103155195 0  215.4753675576196 7.499019787154831 0  220.4752534542993 -0.001055592927106252 0  220.4753646585474 7.498944282387232 0  225.475252334547 -0.001130148631133205 0  225.4753624736385 7.498869759847136 0  230.4752516704173 -0.001203841468089471 0  230.475360853222 7.498796091797382 0  235.4752513509599 -0.001276782556258232 0  235.4753596779228 7.498723169574502 0  240.4752512887272 -0.001349066960415298 0  240.4753588519204 7.498650899740451 0  245.4752514140765 -0.001420777001270469 0  245.4753582978504 7.49857920108377 0  250.4752516710681 -0.001491984803589143 0  250.4753579529352 7.498508002259682 0  255.4752520144524 -0.001562754303773384 0  255.4753577660334 7.498437239900673 0  260.4752524074175 -0.001633142876406184 0  260.475357695375 7.498366857068389 0  265.4752528199039 -0.001703202695083387 0  265.4753577068261 7.498296801949781 0  270.4752532273465 -0.001772981910514051 0  270.475357772564 7.498227026726367 0  275.4752536097936 -0.001842525702738308 0  275.4753578700743 7.498157486567951 0  280.4752539513589 -0.001911877237543428 0  280.47535798142 7.498088138725529 0  285.4752542400424 -0.001981078519313428 0  285.4753580927202 7.498018941728561 0  290.4752544679654 -0.002050171063846227 0  290.4753581938116 7.497949854739399 0  295.4752546321358 -0.002119196173363315 0  295.4753582780303 7.497880837195177 0  300.4752547358551 -0.00218819428574936 0  300.4753583420697 7.497811848991705 0  305.4752547908348 -0.002257202149774924 0  305.4753583859179 7.497742851633816 0  310.4752548197585 -0.002326244779784011 0  310.4753584131316 7.497673810890404 0  5.475478852335018 15.00169333313413 0  0.4754788196926228 15.00175914586588 0  10.475478922976 15.0016273875396 0  15.47547905260629 15.00156129288453 0  20.47547925785709 15.00149504126327 0  25.47547955413015 15.00142863302009 0  30.47547995706529 15.00136207556417 0  35.47548048314835 15.00129538204718 0  40.47548114994346 15.00122857034903 0  45.47548197618599 15.00116166251031 0  50.47548298183543 15.00109468462924 0  55.4754841881146 15.00102766720939 0  60.47548561752452 15.00096064595401 0  65.47548729380473 15.00089366302905 0  70.4754892417896 15.00082676885406 0  75.47549148709932 15.00076002452565 0  80.47549405557506 15.00069350503487 0  85.47549697234859 15.00062730351237 0  90.47550026039305 15.00056153683039 0  95.47550393837058 15.00049635301224 0  100.4755080175578 15.00043194105205 0  105.4755124976446 15.00036854391809 0  110.4755173613069 15.0003064756545 0  115.475522567806 15.00024614347894 0  120.4755280466983 15.00018807525763 0  125.4755336945217 15.00013295092487 0  130.4755393807818 15.00008163141596 0  135.4755449756353 15.00003516600233 0  140.475550420591 14.99999472710286 0  145.475555870478 14.99996133721192 0  150.4755619101534 14.99993499549461 0  165.4755634749099 14.9998385622042 0  160.4755699864571 14.99991236834586 0  170.4755527797413 14.99975601245649 0  175.4755402479958 14.99966994189301 0  180.4755277478643 14.99958348166165 0  185.475516264197 14.99949807607039 0  190.4755061933445 14.99941427237852 0  195.4754976079541 14.99933219082253 0  200.4754904223107 14.99925176363817 0  205.4754844847438 14.99917285037618 0  210.475479625845 14.99909529136592 0  215.4754756818167 14.99901893106023 0  220.4754725044644 14.99894362704804 0  225.4754699643377 14.99886925247593 0  230.4754679505612 14.99879569561718 0  235.4754663692364 14.99872285835249 0  240.4754651413541 14.99865065436184 0  245.4754642006808 14.99857900736443 0  250.4754634918214 14.99850784952722 0  255.4754629685282 14.99843712006541 0  260.4754625922642 14.99836676401889 0  265.4754623310019 14.99829673117506 0  270.4754621582313 14.99822697510868 0  275.4754620521331 14.99815745231433 0  280.4754619948891 14.99808812141627 0  285.4754619720941 14.99801894245136 0  290.4754619722224 14.99794987622858 0  295.4754619861454 14.99788088376108 0  300.4754620066912 14.99781192569907 0  305.4754620283397 14.99774296143845 0  310.4754620472521 14.99767394677825 0  5.475577341116273 22.50169358508163 0  0.4755773066361667 22.50175925854161 0  10.47557740654744 22.50162770969774 0  15.47557752158212 22.50156164688349 0  20.47557769883326 22.50149540842452 0  25.47557794779342 22.50142900675701 0  30.47557827660764 22.50136245648223 0  35.47557869302431 22.5012957749554 0  40.47557920481609 22.50122898252421 0  45.47557981987705 22.50116210274494 0  50.47558054612243 22.50109516275304 0  55.4755813912514 22.50102819388514 0  60.47558236239271 22.50096123261735 0  65.47558346562394 22.50089432187962 0  70.47558470533447 22.50082751281687 0  75.47558608339003 22.50076086709024 0  80.47558759804592 22.50069445984061 0  85.47558924255424 22.50062838347004 0  90.47559100342211 22.50056275242916 0  95.47559285830802 22.50049770922029 0  100.475594773628 22.50043343180999 0  105.4755967020951 22.5003701425441 0  110.4755985807134 22.50030811836689 0  115.4756003302377 22.5002477014699 0  120.4756018578981 22.5001893080578 0  125.4756030662839 22.50013343003792 0  130.4756038725131 22.50008061891637 0  135.4756042422895 22.5000314310977 0  140.4756042405638 22.49998629670286 0  145.4756040874841 22.49994525024855 0  150.4756041704212 22.49990745468847 0  165.4756161338082 22.49979754097146 0  160.4756109570287 22.49986285496618 0  170.4756172262699 22.49972450906166 0  175.4756151901209 22.49964676105667 0  180.4756111798886 22.49956670337809 0  185.4756061838436 22.4994859506511 0  190.4756008982004 22.49940545115665 0  195.4755957562932 22.49932570275502 0  200.4755909985713 22.49924692963561 0  205.4755867377139 22.49916920028855 0  210.4755830074473 22.49909249951647 0  215.475579795765 22.4990167702641 0  220.4755770662712 22.49894193707177 0  225.4755747713313 22.49886791878545 0  230.4755728598555 22.49879463514734 0  235.4755712817017 22.49872200997046 0  240.4755699899978 22.49864997244433 0  245.4755689422212 22.49857845744089 0  250.4755681005554 22.49850740530392 0  255.4755674318443 22.49843676138489 0  260.4755669073291 22.49836647546685 0  265.4755665022868 22.49829650114936 0  270.4755661956212 22.4982267952314 0  275.4755659694458 22.4981573171099 0  280.4755658086581 22.49808802819948 0  285.4755657005135 22.49801889136945 0  290.4755656341835 22.49794987037532 0  295.4755656003064 22.49788092921786 0  300.4755655905115 2
[...]
<PointData  Scalars="p"> 
<DataArray  type="Float64"  Name="p"  format="ascii">1.0000000000000001e-01  1.0000000000000003e-01  1.0000212145235192e-01  1.0000000000000003e-01  1.0000000000000003e-01  1.0000133934211770e-01  1.0000000000000003e-01  1.0000202693967521e-01  1.0000000000000003e-01  1.0000187662420103e-01  1.0000000000000003e-01  1.0000227961763956e-01  1.0000000000000003e-01  1.0000375329418726e-01  1.0000000000000003e-01  1.0000382327955747e-01  1.0000000000000003e-01  1.0000482796241558e-01  1.0000000000000003e-01  1.0000656365034162e-01  1.0000000000000003e-01  1.0000528815265007e-01  1.0000000000000003e-01  1.0001250805789917e-01  1.0000000000000003e-01  1.0001387411432813e-01  1.0000000000000003e-01  1.0001712496955617e-01  1.0000000000000003e-01  1.0001904633455382e-01  1.0000000000000003e-01  1.0002517832054469e-01  1.0000000000000003e-01  1.0002712255561749e-01  1.0000000000000003e-01  1.0003239570451584e-01  1.0000000000000003e-01  1.0004018033821338e-01  1.0000000000000003e-01  1.0004314898102981e-01  1.0000000000000003e-01  1.0005244803094526e-01  1.0000000000000003e-01  1.0005860027794282e-01  1.0000000000000003e-01  1.0006944213556522e-01  1.0000000000000003e-01  1.0007007284500155e-01  1.0000000000000003e-01  1.0009484186149359e-01  1.0000000000000003e-01  1.0007750908986827e-01  1.0000000000000003e-01  1.0012681599224134e-01  1.0000000000000003e-01  1.0007739204239155e-01  1.0000000000000003e-01  1.0016845821993491e-01  1.0000000000000003e-01  1.0006550889783822e-01  1.0000000000000001e-01  1.0023417261911834e-01  1.0000000000000001e-01  1.0000000000000003e-01  9.9863375995852988e-02  9.9659073801671938e-02  1.0000000000000003e-01  9.9984607007208570e-02  1.0000000000000003e-01  9.9896336581190293e-02  1.0000000000000003e-01  9.9948963776333541e-02  1.0000000000000003e-01  9.9935861253326541e-02  1.0000000000000003e-01  9.9950095737675798e-02  1.0000000000000003e-01  9.9946675303115282e-02  1.0000000000000003e-01  9.9958832016249999e-02  1.0000000000000003e-01  9.9958423389801807e-02  1.0000000000000003e-01  9.9963362086042881e-02  1.0000000000000003e-01  9.9967332935557665e-02  1.0000000000000003e-01  9.9970136033320431e-02  1.0000000000000003e-01  9.9972199020503458e-02  1.0000000000000003e-01  9.9975592068098751e-02  1.0000000000000003e-01  9.9977138363916959e-02  1.0000000000000003e-01  9.9978779300950643e-02  1.0000000000000003e-01  9.9980753237905312e-02  1.0000000000000003e-01  9.9981918865590408e-02  1.0000000000000003e-01  9.9982877423232017e-02  1.0000000000000003e-01  9.9984197744040423e-02  1.0000000000000003e-01  9.9984811678077143e-02  1.0000000000000003e-01  9.9985657052866897e-02  1.0000000000000003e-01  9.9986071820983735e-02  1.0000000000000003e-01  9.9987127862354280e-02  1.0000000000000003e-01  9.9986564972550165e-02  1.0000000000000003e-01  9.9988718098410423e-02  1.0000000000000003e-01  9.9986209876615384e-02  1.0000000000000003e-01  9.9991280432010957e-02  1.0000000000000003e-01  9.9983204814536347e-02  1.0000000000000001e-01  1.0000000000000003e-01  1.0000471643424405e-01  1.0000000000000003e-01  1.0000398341002890e-01  1.0000416011687326e-01  1.0000471479594766e-01  1.0000664580388295e-01  1.0000634491021466e-01  1.0000693626690771e-01  1.0000996465369887e-01  1.0000817778535559e-01  1.0000968151952383e-01  1.0001070711109898e-01  1.0001958529988393e-01  1.0001488248211518e-01  1.0002301434489064e-01  1.0001870392622472e-01  1.0002310951413196e-01  1.0002937459114689e-01  1.0002846259269713e-01  1.0003228529794174e-01  1.0004266604054086e-01  1.0003817686487919e-01  1.0004916363398618e-01  1.0004968810382138e-01  1.0006155122942020e-01  1.0004569061715608e-01  1.0009120224172265e-01  1.0001935643206239e-01  1.0014850233780374e-01  9.9950996239038289e-02  1.0023636821750895e-01  1.0016453815727369e-01  9.9517461025225865e-02  9.9825471464422805e-02  9.9981955157431496e-02  9.9953798676331113e-02  9.9963165104955967e-02  9.9947810960722278e-02  9.9972194508300125e-02  9.9961661019426357e-02  9.9967079212414975e-02  9.9972875684890314e-02  9.9973707567868553e-02  9.9974371761505490e-02  9.9979781136718779e-02  9.9980073682890858e-02  9.9981166407795724e-02  9.9984190374992329e-02  9.9984872268138125e-02  9.9985610133354261e-02  9.9987639299907713e-02  9.9988335221419450e-02  9.9988943328879989e-02  9.9990490082032576e-02  9.9990881803868822e-02  9.9991997443109118e-02  9.9992223014004220e-02  9.9994195709014480e-02  9.9992427143889381e-02  9.9997254134904179e-02  9.9991418569281162e-02  1.0000000000000003e-01  1.0000755542691507e-01  1.0000000000000003e-01  1.0000445901998592e-01  1.0000639141141439e-01  1.0000822527195490e-01  1.0000810914265308e-01  1.0000877548888754e-01  1.0001305091614943e-01  1.0001186781575076e-01  1.0001265557631711e-01  1.0001696453618361e-01  1.0001842517725060e-01  1.0001245356064864e-01  1.0003611124428732e-01  1.0002460297809988e-01  1.0003045345584489e-01  1.0003896034094256e-01  1.0003527413150673e-01  1.0004133065408347e-01  1.0005439572132648e-01  1.0005116195629823e-01  1.0005778611013397e-01  1.0007667756145876e-01  1.0006490584606624e-01  1.0008858388036218e-01  1.0007895227571385e-01  1.0011179130564184e-01  1.0006033469618085e-01  1.0017909066240485e-01  9.9963255254257907e-02  1.0036776587876572e-01  1.0007560602098653e-01  9.9613589802634614e-02  9.9771132059774503e-02  9.9959762560328236e-02  9.9938301452123263e-02  9.9903160954138578e-02  9.9964347278017410e-02  9.9930031264025346e-02  9.9942828541615958e-02  9.9953999610921024e-02  9.9953834578514408e-02  9.9953887109186026e-02  9.9964910989663230e-02  9.9964187524199666e-02  9.9966108611629384e-02  9.9972172115529778e-02  9.9972921614784035e-02  9.9973899001173566e-02  9.9977962107188290e-02  9.9978698631881621e-02  9.9979727339124302e-02  9.9982285832621698e-02  9.9983314703667864e-02  9.9984037050697819e-02  9.9986263720222013e-02  9.9986476039633482e-02  9.9988599863452043e-02  9.9987860985062169e-02  9.9992344142962125e-02  9.9986400271981551e-02  1.0000000000000003e-01  1.0000941421883992e-01  1.0000000000000003e-01  1.0000573257376399e-01  1.0001021516986604e-01  1.0000931409453295e-01  1.0001018812384391e-01  1.0001487701210765e-01  1.0001377824543572e-01  1.0001487945032672e-01  1.0002071397270193e-01  1.0001850023711133e-01  1.0001884379389209e-01  1.0003176738556649e-01  1.0001639395916816e-01  1.0003914451361282e-01  1.0003968076213166e-01  1.0003703193256917e-01  1.0003836587723645e-01  1.0005413697623214e-01  1.0004534943266143e-01  1.0005542057488173e-01  1.0006849601057627e-01  1.0006610860648472e-01  1.0006741868153221e-01  1.0009791345010789e-01  1.0006304266666158e-01  1.0012152244376196e-01  1.0004657002412981e-01  1.0018486279263795e-01  9.9938960852361536e-02  1.0038672561248901e-01  1.0005689025736229e-01  9.9505663216595500e-02  9.9861814236460955e-02  9.9975070947558725e-02  9.9821572906308123e-02  1.0000504790029133e-01  9.9909779918409353e-02  9.9940840462230146e-02  9.9947630371415130e-02  9.9949339799573725e-02  9.9944255814713098e-02  9.9962216578908053e-02  9.9958254636106886e-02  9.9960428959835090e-02  9.9968673596132845e-02  9.9969264490793949e-02  9.9970047638608547e-02  9.9975778977414997e-02  9.9976298508065817e-02  9.9977281148650746e-02  9.9980959994201465e-02  9.9981796574986362e-02  9.9983017464874924e-02  9.9985285706606933e-02  9.9986836226155326e-02  9.9987221349390976e-02  9.9990401791758624e-02  9.9989157271860585e-02  9.9994289591398208e-02  9.9989158548364418e-02  1.0000000000000003e-01  1.0001131224505304e-01  1.0000000000000003e-01  1.0000807032332612e-01  1.0001098357836842e-01  1.0001056115647411e-01  1.0001573682757571e-01  1.0001450282185094e-01  1.0001601722106190e-01  1.0002269593992251e-01  1.0002030340592884e-01  1.0002098574423882e-01  1.0003234198834071e-01  1.0002528577543866e-01  1.0003271315057465e-01  1.0003058914563422e-01  1.0004888442475449e-01  1.0004091772202132e-01  1.0005937788985690e-01  1.0004725526482085e-01  1.0005533358710390e-01  1.0007447203651575e-01  1.0006252075963633e-01  1.0007716374903684e-01  1.0008972446846404e-01  1.0009258997676453e-01  1.0008008670846806e-01  1.0013986860682039e-01  1.0004823401792232e-01  1.0020974354750763e-01  9.9932602728793327e-02  1.0044414027978464e-01  1.0014893495046240e-01  9.9451484456750228e-02  9.9804020505220650e-02  9.9914823239682857e-02  9.9920150888544126e-02  9.9889135712555505e-02  9.9928025895013206e-02  9.9933879170036863e-02  9.9941201945672117e-02  9.9921969856938977e-02  9.9954452669570412e-02  9.9944259880066069e-02  9.9947405928643832e-02  9.9959400650208891e-02  9.9959266140250982e-02  9.9959459317041491e-02  9.9968564304334387e-02  9.9968700860929710e-02  9.9969675421557574e-02  9.9975033373409197e-02  9.9975942066095072e-02  9.9976862255113805e-02  9.9980695591192353e-02  9.9981608533859304e-02  9.9983292205088975e-02  9.9985185670896704e-02  9.9987670742997012e-02  9.9987002427375182e-02  9.9992489000238147e-02  9.9987200603154386e-02  1.0000000000000003e-01  1.0001353562984693e-01  1.0000000000000003e-01  1.0000840569493047e-01  1.0001234539124031e-01  1.0001502763931493e-01  1.0001546604614080e-01  1.0001621922032491e-01  1.0002298626156723e-01  1.0002150283777404e-01  1.0002219238536349e-01  1.0003182967568984e-01  1.0002823849629890e-01  1.0003149681762882e-01  1.0004067212327164e-01  1.0003966032873218e-01  1.0002510957655802e-01  1.0007249270843699e-01  1.0004649470005979e-01  1.0005719850258743e-01  1.0007281468747861e-01  1.0006199336015438e-01  1.0006832377537793e-01  1.0009751707250561e-01  1.0007345784048069e-01  1.0010096591239524e-01  1.0009679918429112e-01  1.0012882051770787e-01  1.0005287944585284e-01  1.0022893202079255e-01  9.9907529142532023e-02  1.0048811257912962e-01  1.0011456636992622e-01  9.9492231603839437e-02  9.9755604361539907e-02  9.9997834513259318e-02  9.9878235179531774e-02  9.9901024363225691e-02  9.9893291468911613e-02  9.9960892806453649e-02  9.9895255438935349e-02  9.9959613864354063e-02  9.9931295747910376e-02  9.9938404304680470e-02  9.9953266636274893e-02  9.9953063050162994e-02  9.9951052015107442e-02  9.9964210664252401e-02  9.9963078435168926e-02  9.9964068410880874e-02  9.9971765514239419e-02  9.9972260685592784e-02  9.9972956267663338e-02  9.9978073037792728e-02  9.9979117289974440e-02  9.9980073884181231e-02  9.9984002653177820e-02  9.9984599740459798e-02  9.9987366566320748e-02  9.9987591925064734e-02  9.9992783478947828e-02  9.9988040392816752e-02  1.0000000000000003e-01  1.0001473456440578e-01  1.0000000000000003e-01  1.0000904088555955e-01  1.0001622311893670e-01  1.0001470737019033e-01  1.0001665368861032e-01  1.0002251690811081e-01  1.0002176617745354e-01  1.0002246345876659e-01  1.0003195607786140e-01  1.0002821769953688e-01  1.0003096237933751e-01  1.0004336518812354e-01  1.0003850826162343e-01  1.0003618732406325e-01  1.0006022853502518e-01  1.0002935562570944e-01  1.0006934440943924e-01  1.0007408324363866e-01  1.0006319348569845e-01  1.0006828292747570e-01  1.0009292789325035e-01  1.0007830706372814e-01  1.0008365125435227e-01  1.0012434849900113e-01  1.0008013173824684e-01  1.0013941188712878e-01  1.0007409382287008e-01  1.0021942288375428e-01  9.9913100100533475e-02  1.0052449402055529e-01  1.0009105269311791e-01  9.9443310947014238e-02  9.9812170062339695e-02  9.9959120014567693e-02  9.9844890243894618e-02  9.9940381560376462e-02  9.9910743370860186e-02  9.9860829557637754e-02  9.9968063519528846e-02  9.9915758687960779e-02  9.9931317174725143e-02  9.9942152395867762e-02  9.9945924439739597e-02  9.9939275732290736e-02  9.9958364875268393e-02  9.9955518811493990e-02  9.9955968452450292e-02  9.9965900764639681e-02  9.9966702885953065e-02  9.9967053300594577e-02  9.9973936477889810e-02  9.9974602914838007e-02  9.9975817982128068e-02  9.9980026841460137e-02  9.9981767560360840e-02  9.9982605980877284e-02  9.9986826334955481e-02  9.9986367259514361e-02  9.9991758326343605e-02  9.9987386943473269e-02  1.0000000000000003e-01  1.0001591839197528e-01  1.0000000000000003e-01  1.0001108485233712e-01  1.0001611076025491e-01  1.0001537304347975e-01  1.0002189143395750e-01  1.0002098987826617e-01  1.0002237111344933e-01  1.0003096345581189e-01  1.0002803560739901e-01  1.0002941301521671e-01  1.0004240765349896e-01  1.0003768237059674e-01  1.0003871736201136e-01  1.0005687666161246e-01  1.0004144208029078e-01  1.0005400703458199e-01  1.0005096730542958e-01  1.0007746910989955e-01  1.0006467804560092e-01  1.0009723320772576e-01  1.0006964673292582e-01  1.0008689890795658e-01  1.0010833672892576e-01  1.0009994564757964e-01  1.0008737174866729e-01  1.0016426753564754e-01  1.0005153012127620e-01  1.0023068363539492e-01  9.9924252851866444e-02  1.0052684014205809e-01  1.0014963182712663e-01  9.9394158970780314e-02  9.9777470103698002e-02  9.9928867845291897e-02  9.9891294410562340e-02  9.9926113780947415e-02  9.9871797614294974e-02  9.9938568969223887e-02  9.9882993645069210e-02  9.9940164048772304e-02  9.9927880097579608e-02  9.9946949170300670e-02  9.9924728738539720e-02  9.9955215931217381e-02  9.9948132842540408e-02  9.9948918203414103e-02  9.9961423414684530e-02  9.9961501497621508e-02  9.9960822102651212e-02  9.9970558423511532e-02  9.9970969563953335e-02  9.9971608951705898e-02  9.9977584289659291e-02  9.9978530526713225e-02  9.9980122808423638e-02  9.9983453853675103e-02  9.9986188651615668e-02  9.9985845947088439e-02  9.9992069077920048e-02  9.9987591475268506e-02  1.0000000000000003e-01  1.0001750517890054e-01  1.0000000000000003e-01  1.0001087582286221e-01  1.0001661357700448e-01  1.0001921902558146e-01  1.0002075118573260e-01  1.0002115572234739e-01  1.0002935546479486e-01  1.0002770366771352e-01  1.0002846438961785e-01  1.0003931295766705e-01  1.0003662794581901e-01  1.0003773426150604e-01  1.0005414652301393e-01  1.0004480857436179e-01  1.0004874957436800e-01  1.0006385630836287e-01  1.0005941721980890e-01  1.0003776346276798e-01  1.0011043724011763e-01  1.0006962917980194e-01  1.0008222165326515e-01  1.0011333557336645e-01  1.0008081074311358e-01  1.0010625077229196e-01  1.0011845645713364e-01  1.0013351869883107e-01  1.0006009197724194e-01  1.0025642206822713e-01  9.9900825841160890e-02  1.0054189133808877e-01  1.0014194004215388e-01  9.9414611835902028e-02  9.9742398383722300e-02  9.9975327414928816e-02  9.9869585040435360e-02  9.9889779749037580e-02  9.9918521956437703e-02  9.9914595882008295e-02  9.9897670009634496e-02  9.9901824323256228e-02  9.9958152152068921e-02  9.9907002010479334e-02  9.9956357822732378e-02  9.9938120087300006e-02  9.9941567293559297e-02  9.9955569075375603e-02  9.9956744434152242e-02  9.9953878554379039e-02  9.9966249337811536e-02  9.9965921453417969e-02  9.9966611498651256e-02  9.9974275452691483e-02  9.9975345486443726e-02  9.9975885721570804e-02  9.9981466795245402e-02  9.9982153808106211e-02  9.9984859771175646e-02  9.9986213581706049e-02  9.9991471685065267e-02  9.9987224311522474e-02  1.0000000000000003e-01  1.0001814711720061e-01  1.0000000000000003e-01  1.0001099999433143e-01  1.0001971707579381e-01  1.0001819513145167e-01  1.0002081707370507e-01  1.0002698130261110e-01  1.0002671682667619e-01  1.0002745208518332e-01  1.0003743419983992e-01  1.0003436370676373e-01  1.0003565655307042e-01  1.0005097745770011e-01  1.0004442994522367e-01  1.0004592974489365e-01  1.0006453419287388e-01  1.0005529162430203e-01  1.0005041406533692e-01  1.0008871201544615e-01  1.0003874220127504e-01  1.0009797048984342e-01  1.0010603505653333e-01  1.0008812841645699e-01  1.0008666444928227e-01  1.0014042162264798e-01  1.0008054200544542e-01  1.0014042627834746e-01  1.0009304124256833e-01  1.0022205363102003e-01  9.9908371367899568e-02  1.0056852818172782e-01  1.0012277396196391e-01  9.9388606051956152e-02  9.9775613570506280e-02  9.9962851909092196e-02  9.9836783008060648e-02  9.9931542279662736e-02  9.9900290850086684e-02  9.9894751241434945e-02  9.9921896612192640e-02  9.9929182537252151e-02  9.9877085162110718e-02  9.9969085162302157e-02  9.9925859889394480e-02  9.9940168066731255e-02  9.9947111161585583e-02  9.9953446991013134e-02  9.9946257157559906e-02  9.9963111486755143e-02  9.9961727356357569e-02  9.9961108376609292e-02  9.9970508488202284e-02  9.9971921168508768e-02  9.9972316685234847e-02  9.9978624649753253e-02  9.9980171173471508e-02  9.9980855962121321e-02  9.9986014618671196e-02  9.9985776739326959e-02  9.9991100875594804e-02  9.9987539295398206e-02  1.0000000000000003e-01  1.0001869234397955e-01  1.0000000000000003e-01  1.0001239042252962e-01  1.0001896945363922e-01  1.0001788036348704e-01  1.0002498001536164e-01  1.0002450593438425e-01  1.0002606697130176e-01  1.0003456758534979e-01  1.0003272433043402e-01  1.0003310604995101e-01  1.0004677573033355e-01  1.0004202952084218e-01  1.0004327647941350e-01  1.0006101918606766e-01  1.0005202907394001e-01  1.0005217004946401e-01  1.0007931432154277e-01  1.0005502528893141e-01  1.0007111587269489e-01  1.0007190548874847e-01  1.0010001333048657e-01  1.0008805761679702e-01  1.0012814604636575e-01  1.0009646492414961e-01  1.0009025765472940e-01  1.0017639064070107e-01  1.0005213124116374e-01  1.0022408145592877e-01  9.9946320180631765e-02  1.0052887740804756e-01  1.0016414483982541e-01  9.9338982342589394e-02  9.9765545669037337e-02  9.9935933293581969e-02  9.9871860312100075e-02  9.9920265202960643e-02  9.9872983065770499e-02  9.9924254704799251e-02  9.9919316945826106e-02  9.9899935608408139e-02  9.9938871866898371e-02  9.9903174694308497e-02  9.9949030284420357e-02  9.9936385266525082e-02  9.9955112979402128e-02  9.9935880700537286e-02  9.9960745420143091e-02  9.9956640761426602e-02  9.9956336634375184e-02  9.9967310771899354e-02  9.9967929138934056e-02  9.9967107930045554e-02  9.9976171805635658e-02  9.9976934641153523e-02  9.9978144686011711e-02  9.9982729365742040e-02  9.9985346364848834e-02  9.9984946054740148e-02  9.9991572158198885e-02  9.9987430891396709e-02  1.0000000000000003e-01  1.0001976524516527e-01  1.0000000000000003e-01  1.0001194842378970e-01  1.0001883011355447e-01  1.0002082640442017e-01  1.0002328976572669e-01  1.0002366192002900e-01  1.0003179064158889e-01  1.0003089153662156e-01  1.0003129593178249e-01  1.0004222506483515e-01  1.0003994164963173e-01  1.0004024702949918e-01  1.0005606408907872e-01  1.0004982328240701e-01  1.0004927146140707e-01  1.0007293008715702e-01  1.0005776315570050e-01  1.0006225154462922e-01  1.0008447526252913e-01  1.0007590881854206e-01  1.0004346633993919e-01  1.0015014660831542e-01  1.0007965152899871e-01  1.0011113816422443e-01  1.0013063528383208e-01  1.0012480790847353e-01  1.0005871004844111e-01  1.0026428785426031e-01  9.9904675818867486e-02  1.0052406965768318e-01  1.0018093847882599e-01  9.9341514790740715e-02  9.9731224130382129e-02  9.9968900128602795e-02  9.9866862076017957e-02  9.9893263549639455e-02  9.9904042469337387e-02  9.9919137803681959e-02  9.9891532070820271e-02  9.9934248480690005e-02  9.9926360175691356e-02  9.9920260876166150e-02  9.9914755791381843e-02  9.9967993007330502e-02  9.9923369447155588e-02  9.9963153122920950e-02  9.9949848422603210e-02  9.9952209514636986e-02  9.9963437096130731e-02  9.9965577431149630e-02  9.9962834642398593e-02  9.9972927763678637e-02  9.9973604575328737e-02  9.9974301237150343e-02  9.9981244037643760e-02  9.9982109777646336e-02  9.9984193802500801e-02  9.9986465955551579e-02  9.9991354281938588e-02  9.9987445263506919e-02  1.0000000000000003e-01  1.0001980521044214e-01  1.0000000000000003e-01  1.0001151192491151e-01  1.0002084112672725e-01  1.0001919538214941e-01  1.0002230086790631e-01  1.0002781129163660e-01  1.0002844101931560e-01  1.0002904897784626e-01  1.0003844927075239e-01  1.0003630996151147e-01  1.0003720261644833e-01  1.0005105377284829e-01  1.0004645915501827e-01  1.0004550339798365e-01  1.0006583067274631e-01  1.0005614865417720e-01  1.0005566635324108e-01  1.0008280969388417e-01  1.0006718894348199e-01  1.0005980004046910e-01  1.0011273446957657e-01  1.0004428884485780e-01  1.0011399593133899e-01  1