<?xml version="1.0"?>
<VTKFile type="UnstructuredGrid"  version="0.1"  >
<UnstructuredGrid>
<Piece  NumberOfPoints="1933" NumberOfCells="3640">
<Points>
<DataArray  type="Float64"  NumberOfComponents="3"  format="ascii">0.0003027623340803309 -0.00294423782131654 0  5.000302822619782 -0.002868833678610102 0  5.000189694249799 7.497131305817745 0  0.0001896142700040238 7.497055870759026 0  10.00030292586711 -0.002793532075324867 0  10.00018982456647 7.497206610669341 0  15.00030312675578 -0.002718319850617163 0  15.00019002434031 7.497281818141978 0  20.00030347009667 -0.002643149578444908 0  20.00019030851181 7.497356982241576 0  25.00030398846486 -0.002567956664336075 0  25.00019068785898 7.49743216966719 0  30.0003047035891 -0.002492667159274402 0  30.00019116838947 7.497507454868747 0  35.00030562839538 -0.002417201053545175 0  35.00019175088306 7.497582917790189 0  40.00030676873207 -0.002341473181812221 0  40.00019243054865 7.497658643349493 0  45.00030812453011 -0.002265392769179741 0  45.00019319663551 7.497734722028438 0  50.00030969038075 -0.002188862118148103 0  50.00019403184727 7.497811251221239 0  55.00031145556435 -0.002111774654716779 0  55.00019491143777 7.497888337180018 0  60.00031340354153 -0.002034012386441569 0  60.00019580187124 7.497966097522894 0  65.00031551087665 -0.001955442712705242 0  65.00019665891007 7.498044664364884 0  70.00031774548944 -0.001875914432702169 0  70.00019742495722 7.49812418821331 0  75.00032006404628 -0.001795252696104832 0  75.00019802540947 7.498204842853316 0  80.00032240815861 -0.001713252514524233 0  80.00019836367765 7.498286831548582 0  85.00032469884738 -0.001629670275774086 0  85.00019831440105 7.49837039500616 0  90.00032682836989 -0.001544212447633166 0  90.00019771418825 7.498455821709925 0  95.00032864790884 -0.001456520282307324 0  95.00019634899191 7.498543461408439 0  100.0003299485516 -0.00136614878313424 0  100.0001939369818 7.498633742714325 0  105.0003304311063 -0.001272537410939626 0  105.0001901056011 7.498727195824276 0  110.0003296568456 -0.001174968955235773 0  110.0001843616949 7.498824481006966 0  115.0003269649713 -0.001072511779683965 0  115.0001760548341 7.498926422034816 0  120.0003213308717 -0.0009639398430517199 0  120.0001643378229 7.499034039549055 0  125.0003111174465 -0.0008476264731140257 0  125.0001481384389 7.499148568929376 0  130.0002936310223 -0.0007214179557631437 0  130.000126180335 7.49927142319516 0  135.0002643170916 -0.0005825304858795269 0  135.000097144985 7.49940400952419 0  140.0002152869211 -0.0004276411982853382 0  140.0000601847644 7.499547206662243 0  145.0001325826163 -0.0002537925429259476 0  145.0000162551783 7.499700163312974 0  149.9999909543518 -6.249158760150522e-05 0  149.9999713275847 7.499858164490312 0  159.9999999999984 9.081596601155211e-19 0  164.9999745773342 -9.203025904835387e-05 0  164.99999753048 7.499886174227682 0  159.9999957372056 7.499949849757487 0  169.9999822386565 -0.0001410861808326943 0  169.9999989329805 7.49984832905893 0  175.0000034798944 -0.000160259634303891 0  175.0000037159279 7.499834337414447 0  180.0000293026752 -0.0001577996821738986 0  180.0000116783957 7.49983939511103 0  185.0000555471807 -0.0001394364008907741 0  185.0000217588077 7.499859114415017 0  190.0000803665845 -0.0001092465891408452 0  190.0000329317656 7.49989002840842 0  195.0001030301156 -7.01579863754022e-05 0  195.0000444212675 7.499929509780363 0  200.0001233402905 -2.429352686379712e-05 0  200.0000557021032 7.4999755896636 0  205.0001413463113 2.678865143116894e-05 0  205.0000664463717 7.500026790762278 0  210.0001572030788 8.192895200584906e-05 0  210.0000764666142 7.500081996630143 0  215.0001711024694 0.0001402516608724588 0  215.0000856698717 7.500140354960009 0  220.0001832406064 0.000201085699590828 0  220.0000940242866 7.500201207591057 0  225.0001938030718 0.0002639094229741118 0  225.0001015360878 7.500264040144768 0  230.0002029590192 0.0003283117122246886 0  230.0001082342442 7.500328445679552 0  235.0002108596587 0.0003939641667446778 0  235.000114160486 7.500394098257628 0  240.0002176388327 0.0004606009307317773 0  240.0001193629618 7.50046073352214 0  245.0002234145554 0.0005280038438128254 0  245.0001238923356 7.500528134266474 0  250.0002282909551 0.000595991367568919 0  250.0001277995005 7.500596119600747 0  255.0002323603659 0.0006644102466187723 0  255.0001311343713 7.50066453675552 0  260.0002357054583 0.0007331292059551237 0  260.0001339453859 7.500733254867161 0  265.0002384013955 0.0008020342271577014 0  265.000136279481 7.500802160308415 0  270.0002405180137 0.0008710251274868493 0  270.0001381823748 7.500871153294477 0  275.0002421220739 0.0009400133191055701 0  275.000139699024 7.500940145632859 0  280.0002432795968 0.001008920777813221 0  280.0001408741544 7.501009059614473 0  285.0002440582658 0.00107768042907238 0  285.0001417527519 7.50107782817908 0  290.0002445297386 0.001146238396204712 0  290.000142380386 7.501146396640982 0  295.0002447714808 0.001214558887405033 0  295.0001428032861 7.501214726432631 0  300.0002448671148 0.001282632941633048 0  300.0001430681488 7.501282801498165 0  305.0002449031214 0.001350492675820197 0  305.0001432221059 7.501350638115575 0  310.0002449570891 0.001418232146091572 0  310.0001433143677 7.501418299195858 0  5.000076333928035 14.99713159456087 0  7.625583699544247e-05 14.99705613163539 0  10.00007643668951 14.99720687596582 0  15.00007657422711 14.99728204623536 0  20.00007674875219 14.99735717338219 0  25.00007695829306 14.99743232822803 0  30.00007719749728 14.99750758540839 0  35.00007745732966 14.99758302360064 0  40.0000777243761 14.99765872597789 0  45.00007797997699 14.99773478111611 0  50.00007819921728 14.99781128436792 0  55.00007834972661 14.99788833968693 0  60.00007839021423 14.99796606191381 0  65.00007826865556 14.99804457957378 0  70.00007792003899 14.99812403827562 0  75.0000772635896 14.99820460483873 0  80.00007619939839 14.99828647230284 0  85.00007460444185 14.99836986598115 0  90.00007232809509 14.99845505067653 0  95.00006918750795 14.9985423390271 0  100.0000649637114 14.99863210056561 0  105.0000594003087 14.998724770221 0  110.0000522083283 14.99882085320964 0  115.0000430838458 14.99892091970932 0  120.0000317498922 14.99902557587928 0  125.0000180415589 14.99913538515141 0  130.0000020626898 14.99925069138941 0  134.9999844503572 14.99937125853799 0  139.9999667757037 14.99949558565759 0  144.9999520461826 14.99961967968159 0  149.9999450409604 14.9997349269769 0  164.9999803126872 14.9998255268046 0  159.9999745153594 14.99984218479928 0  169.9999806024978 14.9998154257054 0  174.9999795620764 14.9998167727223 0  179.9999792193123 14.99983018027057 0  184.9999802210184 14.9998544333226 0  189.9999825501634 14.99988780822643 0  194.9999859343989 14.99992862163767 0  199.9999900449229 14.99997541565476 0  204.9999945811232 15.00002699086372 0  209.9999992987894 15.00008238301597 0  215.0000040128353 15.0001408238829 0  220.0000085900119 15.00020170219799 0  225.0000129388823 15.00026453000361 0  230.0000170001631 15.00032891539955 0  235.0000207385648 15.00039454110586 0  240.0000241363216 15.00046114781638 0  245.0000271882676 15.00052852133177 0  250.0000298981893 15.00059648262027 0  255.0000322761731 15.00066488013791 0  260.0000343367159 15.00073358390996 0  265.0000360973842 15.00080248101425 0  270.0000375778791 15.00087147222493 0  275.0000387993722 15.00094046966896 0  280.0000397840249 15.00100939542758 0  285.000040554663 15.00107818107469 0  290.0000411345993 15.00114676817394 0  295.0000415478059 15.0012151097181 0  300.0000418197843 15.00128317232161 0  305.0000419799696 15.00135093851685 0  310.0000420671379 15.00141840746868 0  4.999962902061393 22.49713209922216 0  -3.716987398388882e-05 22.49705669334572 0  9.99996297436801 22.49720730053952 0  14.99996304710394 22.49728238555707 0  19.99996311559121 22.49735743160084 0  24.99996317167178 22.49743251230204 0  29.99996320432969 22.49750770142361 0  34.99996319962649 22.49758307492367 0  39.99996314021695 22.49765871233886 0  44.99996300464299 22.49773469803098 0  49.99996276650973 22.4978111225414 0  54.99996239358295 22.49788808415839 0  59.99996184682649 22.49796569074483 0  64.99996107939795 22.49804406185181 0  69.99996003564918 22.49812333112698 0  74.99995865023237 22.4982036490011 0  79.99995684750556 22.49828518557858 0  84.99995454158079 22.49836813354594 0  89.99995163760254 22.49845271069646 0  94.99994803521774 22.49853916127906 0  99.99994363575989 22.49862775468552 0  104.9999383554773 22.49871877879936 0  109.9999321482069 22.49881252333088 0  114.9999250421318 22.49890924524237 0  119.9999171962527 22.49900910344155 0  124.999908981873 22.49911204302635 0  129.999901090255 22.49921760132769 0  134.9998946548447 22.49932460304067 0  139.9998913467678 22.49943072319628 0  144.9998933448367 22.49953196138627 0  149.9999029927395 22.49962229187249 0  164.9999341576584 22.49975590277287 0  159.9999285968577 22.49974025137237 0  169.9999347291805 22.49977050981621 0  174.9999324899118 22.49978891097535 0  179.9999292346855 22.49981342709419 0  184.9999260881001 22.49984468856461 0  189.9999236121166 22.49988240163039 0  194.9999220005257 22.49992586386134 0  199.9999212403189 22.49997425389761 0  204.9999212192472 22.50002677422073 0  209.9999217894789 22.50008271096648 0  214.9999228017527 22.50014145104997 0  219.999924121597 22.50020247926973 0  224.9999256354148 22.50026536729065 0  229.9999272512507 22.50032976037993 0  234.999928897045 22.50039536456794 0  239.9999305179111 22.500461935288 0  244.9999320732394 22.50052926776944 0  249.9999335339976 22.50059718911702 0  254.9999348803822 22.50066555188164 0  259.9999360998337 22.50073422890316 0  264.9999371854078 22.50080310922409 0  269.9999381344413 22.50087209490582 0  274.9999389474834 22.50094109861083 0  279.9999396274711 22.50101004183227 0  284.999940179172 22.50107885364224 0  289.9999406089813 22.50114746977187 0  294.9999409252724 22.50121583168742 0  299.
[...]
<PointData  Scalars="p"> 
<DataArray  type="Float64"  Name="p"  format="ascii">1.0000000000000001e-01  1.0000000000000003e-01  9.9996101376542315e-02  1.0000000000000003e-01  1.0000000000000003e-01  9.9995467716200215e-02  1.0000000000000003e-01  9.9993155728094057e-02  1.0000000000000003e-01  9.9991981754976852e-02  1.0000000000000003e-01  9.9990315197885413e-02  1.0000000000000003e-01  9.9987577742326722e-02  1.0000000000000003e-01  9.9986353156050700e-02  1.0000000000000003e-01  9.9984476795225555e-02  1.0000000000000003e-01  9.9981389561896367e-02  1.0000000000000003e-01  9.9980933212156980e-02  1.0000000000000003e-01  9.9973275651689258e-02  1.0000000000000003e-01  9.9969049263201590e-02  1.0000000000000003e-01  9.9964528811683731e-02  1.0000000000000003e-01  9.9960885405827218e-02  1.0000000000000003e-01  9.9953508445568842e-02  1.0000000000000003e-01  9.9950525263418966e-02  1.0000000000000003e-01  9.9945098259079448e-02  1.0000000000000003e-01  9.9936770249291151e-02  1.0000000000000003e-01  9.9934304357261541e-02  1.0000000000000003e-01  9.9926007216966289e-02  1.0000000000000003e-01  9.9920952116681644e-02  1.0000000000000003e-01  9.9911891114441445e-02  1.0000000000000003e-01  9.9914022690384088e-02  1.0000000000000003e-01  9.9891348611966385e-02  1.0000000000000003e-01  9.9912113533268315e-02  1.0000000000000003e-01  9.9865840920761784e-02  1.0000000000000003e-01  9.9918416126394766e-02  1.0000000000000003e-01  9.9830592316235534e-02  1.0000000000000003e-01  9.9935654354894571e-02  1.0000000000000001e-01  9.9770846520274431e-02  1.0000000000000001e-01  1.0000000000000003e-01  1.0018602479915788e-01  1.0038242990717845e-01  1.0000000000000003e-01  1.0005421680522177e-01  1.0000000000000003e-01  1.0014695596016020e-01  1.0000000000000003e-01  1.0009711354796237e-01  1.0000000000000003e-01  1.0011209310425914e-01  1.0000000000000003e-01  1.0009924030136046e-01  1.0000000000000003e-01  1.0010533668186106e-01  1.0000000000000003e-01  1.0009447613083422e-01  1.0000000000000003e-01  1.0009611608430290e-01  1.0000000000000003e-01  1.0009245625058510e-01  1.0000000000000003e-01  1.0008928517461944e-01  1.0000000000000003e-01  1.0008695897803199e-01  1.0000000000000003e-01  1.0008541690101598e-01  1.0000000000000003e-01  1.0008220630003310e-01  1.0000000000000003e-01  1.0008069582825206e-01  1.0000000000000003e-01  1.0007904698060896e-01  1.0000000000000003e-01  1.0007700144561937e-01  1.0000000000000003e-01  1.0007550188527975e-01  1.0000000000000003e-01  1.0007451374645435e-01  1.0000000000000003e-01  1.0007257308254232e-01  1.0000000000000003e-01  1.0007216341740452e-01  1.0000000000000003e-01  1.0007006446408925e-01  1.0000000000000003e-01  1.0007086734851089e-01  1.0000000000000003e-01  1.0006667840763757e-01  1.0000000000000003e-01  1.0007171869822271e-01  1.0000000000000003e-01  1.0006097060134311e-01  1.0000000000000003e-01  1.0007699756898297e-01  1.0000000000000003e-01  1.0004862382980920e-01  1.0000000000000003e-01  1.0009713024426729e-01  1.0000000000000001e-01  1.0000000000000003e-01  9.9993581065610695e-02  1.0000000000000003e-01  9.9993639662417755e-02  9.9993181870013687e-02  9.9992295242999005e-02  9.9989980416378035e-02  9.9990150653559706e-02  9.9989715961449885e-02  9.9986366868349580e-02  9.9987916710382110e-02  9.9986576276001535e-02  9.9983518186286022e-02  9.9975620193126266e-02  9.9977906401096522e-02  9.9969368208778137e-02  9.9973110482331345e-02  9.9969817636981484e-02  9.9963104920278295e-02  9.9965013922575785e-02  9.9962808798465697e-02  9.9952753285767221e-02  9.9959058958126581e-02  9.9950228592912332e-02  9.9951019991606174e-02  9.9940779477260933e-02  9.9959907822549626e-02  9.9913955054038217e-02  9.9989027747762874e-02  9.9858252683528922e-02  1.0005779787025904e-01  9.9767488238373420e-02  9.9838390494540893e-02  1.0058601157403836e-01  1.0017588378376707e-01  1.0002789663093103e-01  1.0005170595801811e-01  1.0004157624164159e-01  1.0006177212556101e-01  1.0003805679848390e-01  1.0004976034068694e-01  1.0004680758626490e-01  1.0004209495590442e-01  1.0004186815352978e-01  1.0004245491984992e-01  1.0003756254645542e-01  1.0003746883282624e-01  1.0003692016779683e-01  1.0003407879459507e-01  1.0003352697555608e-01  1.0003298276067671e-01  1.0003121994569207e-01  1.0003034829190872e-01  1.0003035619479726e-01  1.0002814687256094e-01  1.0002911765517006e-01  1.0002604691064379e-01  1.0002953208928202e-01  1.0002127631129358e-01  1.0003484042120997e-01  1.0001012525439866e-01  1.0004736306310920e-01  1.0000000000000003e-01  9.9990520822171580e-02  1.0000000000000003e-01  9.9993590268260407e-02  9.9990459221282649e-02  9.9988071942281723e-02  9.9987617255452216e-02  9.9987139461025665e-02  9.9982258211613481e-02  9.9983413340572605e-02  9.9983146231897871e-02  9.9977577713413285e-02  9.9976395730755993e-02  9.9980068692247931e-02  9.9957164221625511e-02  9.9965008405792741e-02  9.9960221924577847e-02  9.9949823375295094e-02  9.9954581236782789e-02  9.9950282989014122e-02  9.9937156362774268e-02  9.9942209690488740e-02  9.9938997767250987e-02  9.9920562279123798e-02  9.9935912182725364e-02  9.9915448774827373e-02  9.9927632123240059e-02  9.9895837528087533e-02  9.9953476023051130e-02  9.9829381327976321e-02  1.0005351985014957e-01  9.9635164930170231e-02  9.9883274387871201e-02  1.0054234262591789e-01  1.0028229114000638e-01  1.0005869178125003e-01  1.0007392243375667e-01  1.0012043867136837e-01  1.0005707384307290e-01  1.0009274727335975e-01  1.0008495937553280e-01  1.0007549236073147e-01  1.0007669575096451e-01  1.0007943276488944e-01  1.0006939861656575e-01  1.0007065851290628e-01  1.0006998314625876e-01  1.0006435647692846e-01  1.0006369203893516e-01  1.0006332195053702e-01  1.0005939444370049e-01  1.0005885111675293e-01  1.0005795071084671e-01  1.0005590218339580e-01  1.0005433428074186e-01  1.0005502695040376e-01  1.0005091108246657e-01  1.0005423054373797e-01  1.0004686665582535e-01  1.0005714946338040e-01  1.0003570364019147e-01  1.0007496064359382e-01  1.0000000000000003e-01  9.9988639096577459e-02  1.0000000000000003e-01  9.9992724347403056e-02  9.9987365451918553e-02  9.9987915951077880e-02  9.9987379206663923e-02  9.9982308393568878e-02  9.9983653703007394e-02  9.9983665056175675e-02  9.9977405771779715e-02  9.9980007985426236e-02  9.9980289881061071e-02  9.9966884900724404e-02  9.9978880275782223e-02  9.9960328544916530e-02  9.9954319024824254e-02  9.9958113196065679e-02  9.9957991204515262e-02  9.9942153910951431e-02  9.9952787650561245e-02  9.9946202322537328e-02  9.9933687482421041e-02  9.9938875915032935e-02  9.9942619766838395e-02  9.9912021669093298e-02  9.9952380281181849e-02  9.9894472825814679e-02  9.9974973048630733e-02  9.9828799862179546e-02  1.0008919821103499e-01  9.9612648265459222e-02  9.9879336144882716e-02  1.0066895611669392e-01  1.0018755048434046e-01  1.0001773582550880e-01  1.0019065816968215e-01  9.9998607705666154e-02  1.0009210006281327e-01  1.0006762916495367e-01  1.0006261090095435e-01  1.0006186669960669e-01  1.0007127353744709e-01  1.0005485208760781e-01  1.0005970326718742e-01  1.0005958419266309e-01  1.0005220662010238e-01  1.0005194400063452e-01  1.0005209943846165e-01  1.0004680989231562e-01  1.0004635261559411e-01  1.0004612773469296e-01  1.0004253347204602e-01  1.0004237467654499e-01  1.0004095252857209e-01  1.0004024812757611e-01  1.0003692151319762e-01  1.0004082803614847e-01  1.0003136031101507e-01  1.0004439174959653e-01  1.0002094617733763e-01  1.0005701239402653e-01  1.0000000000000003e-01  9.9986706631435940e-02  1.0000000000000003e-01  9.9990728234930645e-02  9.9986997700536664e-02  9.9987844287936528e-02  9.9981743270225715e-02  9.9983277970903714e-02  9.9982533427713058e-02  9.9975735280269193e-02  9.9978696874903655e-02  9.9979251698090521e-02  9.9967591764700658e-02  9.9974093539198075e-02  9.9968853598859875e-02  9.9965477430639188e-02  9.9951667880667089e-02  9.9956426070753099e-02  9.9937302451143364e-02  9.9949937172184866e-02  9.9945923306385118e-02  9.9926196192160990e-02  9.9941773936661329e-02  9.9931456084573073e-02  9.9920558505564513e-02  9.9920266600320135e-02  9.9940808681287241e-02  9.9876958780715203e-02  9.9979731306529679e-02  9.9806707935997496e-02  1.0010440462937856e-01  9.9549555467124962e-02  9.9767135389002920e-02  1.0075801008992072e-01  1.0024218887774514e-01  1.0007886218075115e-01  1.0010828453798261e-01  1.0011106377539900e-01  1.0008154793991191e-01  1.0007712907557320e-01  1.0006798258218677e-01  1.0009413439629457e-01  1.0006366752569308e-01  1.0007493669203840e-01  1.0007525431113555e-01  1.0006476715090817e-01  1.0006533484852986e-01  1.0006691711005687e-01  1.0005849826550864e-01  1.0005853238923031e-01  1.0005835927710571e-01  1.0005352432622096e-01  1.0005264215935807e-01  1.0005274663212195e-01  1.0004872190228005e-01  1.0004929025836193e-01  1.0004642166637155e-01  1.0004806080113351e-01  1.0004078368221156e-01  1.0005163555392568e-01  1.0002923494283969e-01  1.0006639680167831e-01  1.0000000000000003e-01  9.9984414307990988e-02  1.0000000000000003e-01  9.9990648642140897e-02  9.9986438877650699e-02  9.9983717099222852e-02  9.9983175586934522e-02  9.9983082061799039e-02  9.9976098374124203e-02  9.9978074767551758e-02  9.9979114729864205e-02  9.9969178803467604e-02  9.9973356279578429e-02  9.9972264386279014e-02  9.9960979701085598e-02  9.9963763348149853e-02  9.9975696563187361e-02  9.9931750011581943e-02  9.9952880493307875e-02  9.9946153096633308e-02  9.9928248269829281e-02  9.9942374565614348e-02  9.9941238198952134e-02  9.9911600796111763e-02  9.9940985480396496e-02  9.9917765825077415e-02  9.9925844363946414e-02  9.9891773876704018e-02  9.9983680142704257e-02  9.9785963912006143e-02  1.0014150084404833e-01  9.9498332094708306e-02  9.9775190547978704e-02  1.0073461963348246e-01  1.0029544928088967e-01  9.9983026463802610e-02  1.0013193732354506e-01  1.0010549995849433e-01  1.0011434493008520e-01  1.0003636785637741e-01  1.0011095164988516e-01  1.0004785876897529e-01  1.0007677435215181e-01  1.0007478559369286e-01  1.0006202290808586e-01  1.0006286646295312e-01  1.0006772264385641e-01  1.0005560446996493e-01  1.0005703937326052e-01  1.0005751887216720e-01  1.0005026707438683e-01  1.0005005136692846e-01  1.0004999319458870e-01  1.0004575788429546e-01  1.0004445654407919e-01  1.0004543038094223e-01  1.0004010484648412e-01  1.0004354147651814e-01  1.0003573555443161e-01  1.0004604935167910e-01  1.0002445442764138e-01  1.0005925751523526e-01  1.0000000000000003e-01  9.9983159735456864e-02  1.0000000000000003e-01  9.9990487794199098e-02  9.9982611192776669e-02  9.9984642396634515e-02  9.9983175300228253e-02  9.9977203323242239e-02  9.9977867869828971e-02  9.9978907361870845e-02  9.9969030335197995e-02  9.9973428220482413e-02  9.9973178753925349e-02  9.9959681963732436e-02  9.9965572826380272e-02  9.9969472739393841e-02  9.9945521411944793e-02  9.9971714384243557e-02  9.9940974640134697e-02  9.9927477263030182e-02  9.9941221360099586e-02  9.9939352918989255e-02  9.9914842306737792e-02  9.9932657437362085e-02  9.9935170347248095e-02  9.9892278359754880e-02  9.9945711427341127e-02  9.9884991750873175e-02  9.9963833825214662e-02  9.9794935468730819e-02  1.0014894872328887e-01  9.9447203974017379e-02  9.9791985663431462e-02  1.0079319749499226e-01  1.0024112118203742e-01  1.0000666081704898e-01  1.0016925462576762e-01  1.0006107544407195e-01  1.0009972770586063e-01  1.0014369204701914e-01  1.0003759078614340e-01  1.0008849249890685e-01  1.0007785422236209e-01  1.0007016841562308e-01  1.0006698314145558e-01  1.0007759630532750e-01  1.0006024332693972e-01  1.0006369116380115e-01  1.0006519074029378e-01  1.0005627787265171e-01  1.0005566580389567e-01  1.0005648945195977e-01  1.0004996366770984e-01  1.0004991245606865e-01  1.0004900478957630e-01  1.0004642984548628e-01  1.0004356549833907e-01  1.0004662853493934e-01  1.0003785031146474e-01  1.0004841838910065e-01  1.0002731520891556e-01  1.0006153656264444e-01  1.0000000000000003e-01  9.9982064422788577e-02  1.0000000000000003e-01  9.9988468293655083e-02  9.9982948313804429e-02  9.9984859341556875e-02  9.9978100482467774e-02  9.9979361929272426e-02  9.9979255730845012e-02  9.9970213583592496e-02  9.9973760851838678e-02  9.9974373484339629e-02  9.9960997036082591e-02  9.9966613226764978e-02  9.9968036294295654e-02  9.9949301886830141e-02  9.9964716745487930e-02  9.9957496975039667e-02  9.9952236096157610e-02  9.9934375303823902e-02  9.9943730905450931e-02  9.9909902707761650e-02  9.9939599706070248e-02  9.9928788496686391e-02  9.9907543318272493e-02  9.9918896414450190e-02  9.9943429854584931e-02  9.9857058212133962e-02  9.9990862713052159e-02  9.9784647685957489e-02  1.0014465905977021e-01  9.9431675824777868e-02  9.9722656164168075e-02  1.0085578229696406e-01  1.0026958859386871e-01  1.0003409369130326e-01  1.0011731036744903e-01  1.0006209101328756e-01  1.0013491132651499e-01  1.0007143390488613e-01  1.0011906121588815e-01  1.0006246160461985e-01  1.0007862147234278e-01  1.0005818806203279e-01  1.0008554386778402e-01  1.0005754923181059e-01  1.0006526914075792e-01  1.0006744163734577e-01  1.0005646336512523e-01  1.0005664340561235e-01  1.0005894647423869e-01  1.0005016791011752e-01  1.0004971591868497e-01  1.0005041000643217e-01  1.0004447594531461e-01  1.0004505173025802e-01  1.0004266224422941e-01  1.0004315364169605e-01  1.0003601289184398e-01  1.0004640122335305e-01  1.0002500062864673e-01  1.0005821941993141e-01  1.0000000000000003e-01  9.9980406241239064e-02  1.0000000000000003e-01  9.9988773542351223e-02  9.9983000684053761e-02  9.9980997525161069e-02  9.9979549403392098e-02  9.9980612989880785e-02  9.9972107735448623e-02  9.9974306729231049e-02  9.9975157138042975e-02  9.9963853558136445e-02  9.9967161828844520e-02  9.9968732626013981e-02  9.9951582288221236e-02  9.9961719257923201e-02  9.9962206192106121e-02  9.9944290682872791e-02  9.9952465947392877e-02  9.9971378003845021e-02  9.9904310540135099e-02  9.9938698361857370e-02  9.9933120784841151e-02  9.9897640094954290e-02  9.9936839753920717e-02  9.9916480148976958e-02  9.9908187406025195e-02  9.9888752839664266e-02  9.9987995949690392e-02  9.9752159279092714e-02  1.0017702459154676e-01  9.9405491645758071e-02  9.9719150036902973e-02  1.0084213167027739e-01  1.0030845102803690e-01  9.9983277076554147e-02  1.0013186866302021e-01  1.0009675915892177e-01  1.0008566926648110e-01  1.0008519770260212e-01  1.0011446602414358e-01  1.0010469843656414e-01  1.0004372141808945e-01  1.0009960269781239e-01  1.0005218550961591e-01  1.0007105324130361e-01  1.0007142360910941e-01  1.0005959310727522e-01  1.0005883554163295e-01  1.0006415346172892e-01  1.0005279385550123e-01  1.0005357063935606e-01  1.0005410434794065e-01  1.0004740940423131e-01  1.0004612242366125e-01  1.0004751068526796e-01  1.0004108991822673e-01  1.0004395594115800e-01  1.0003735985726775e-01  1.0004558647679124e-01  1.0002586621775568e-01  1.0005815060327844e-01  1.0000000000000003e-01  9.9979759542369095e-02  1.0000000000000003e-01  9.9988952354556099e-02  9.9979732268450208e-02  9.9982143459717565e-02  9.9980420549717897e-02  9.9974511402472516e-02  9.9975152696985911e-02  9.9976219364766236e-02  9.9965921531181015e-02  9.9969086114824746e-02  9.9970367687539669e-02  9.9954053651306093e-02  9.9961314588913372e-02  9.9963782079174252e-02  9.9943763768957763e-02  9.9955268413092990e-02  9.9963523888616193e-02  9.9925560243654052e-02  9.9969566411495001e-02  9.9924883203415943e-02  9.9904552082596326e-02  9.9926361870851438e-02  9.9934567579001626e-02  9.9877092614033366e-02  9.9947083639536596e-02  9.9885888776415591e-02  9.9950182102810134e-02  9.9785669352584871e-02  1.0017868281260979e-01  9.9362078270530535e-02  9.9734455118275736e-02  1.0086630054684559e-01  1.0027490703660036e-01  9.9987878552839915e-02  1.0016458709110397e-01  1.0005175257199896e-01  1.0009442073692139e-01  1.0010299974523015e-01  1.0008507072249195e-01  1.0007971239387023e-01  1.0012916527222931e-01  1.0003567941515122e-01  1.0007887248612064e-01  1.0006736839560595e-01  1.0006339648705848e-01  1.0005760715113941e-01  1.0006777909099038e-01  1.0005269730272362e-01  1.0005455003832750e-01  1.0005693754188756e-01  1.0004848459603004e-01  1.0004777496599110e-01  1.0004791402497681e-01  1.0004327792999931e-01  1.0004068040341610e-01  1.0004379783552890e-01  1.0003479746895033e-01  1.0004429849729249e-01  1.0002518647076500e-01  1.0005571459926339e-01  1.0000000000000003e-01  9.9979253642921623e-02  1.0000000000000003e-01  9.9987428358963196e-02  9.9980409454419827e-02  9.9983011598828095e-02  9.9975900081389332e-02  9.9977046537018957e-02  9.9976965638106458e-02  9.9968567168705100e-02  9.9970755098272371e-02  9.9972496658632073e-02  9.9957936624964286e-02  9.9963025780722012e-02  9.9964737846235108e-02  9.9946042483110217e-02  9.9956638182097546e-02  9.9960942578028011e-02  9.9933069519466636e-02  9.9957718312457089e-02  9.9950214694888129e-02  9.9937494090153622e-02  9.9922542009711360e-02  9.9930486036576852e-02  9.9888950194321063e-02  9.9921254417113650e-02  9.9941773152902591e-02  9.9842444718283518e-02  9.9991874155378718e-02  9.9786505910875525e-02  1.0013730413670500e-01  9.9393796867133330e-02  9.9692598535344304e-02  1.0090859179895401e-01  1.0028169507056352e-01  1.0001339532422168e-01  1.0012912146408665e-01  1.0005713879847931e-01  1.0012170770947391e-01  1.0007042003457800e-01  1.0008099897199811e-01  1.0010594779363728e-01  1.0007490348179388e-01  1.0010234502485590e-01  1.0005597651418424e-01  1.0007123418700241e-01  1.0005169813667499e-01  1.0007450597310077e-01  1.0005193948909132e-01  1.0005666265109124e-01  1.0005924204279452e-01  1.0004994146289886e-01  1.0004943533957715e-01  1.0005210499210546e-01  1.0004358466407910e-01  1.0004401843954855e-01  1.0004237292563305e-01  1.0004121819999773e-01  1.0003485911488422e-01  1.0004428319976397e-01  1.0002445007158099e-01  1.0005460157130618e-01  1.0000000000000003e-01  9.9978101204917014e-02  1.0000000000000003e-01  9.9987807729767259e-02  9.9980872981861688e-02  9.9979734200038181e-02  9.9977469210888542e-02  9.9978734127998264e-02  9.9970641827149376e-02  9.9972137599210920e-02  9.9973751545232206e-02  9.9962325817337730e-02  9.9964945039613354e-02  9.9966879417068041e-02  9.9949977857591868e-02  9.9956800905041138e-02  9.9961706762758978e-02  9.9937245448794856e-02  9.9953712143455969e-02  9.9956134614860220e-02  9.9929737266875013e-02  9.9943604354133506e-02  9.9973768072829414e-02  9.9873731434452981e-02  9.9937769467186216e-02  9.9913805823424157e-02  9.9892027244532819e-02  9.9895301582061821e-02  9.9988777803804788e-02  9.9738098496023081e-02  1.0017953035391283e-01  9.9398626341954385e-02  9.9678392325596776e-02  1.0089154195113223e-01  1.0031235217709378e-01  9.9979929682392332e-02  1.0013052879444383e-01  1.0008345720014976e-01  1.0008992700934793e-01  1.0007028891269369e-01  1.0010645142534297e-01  1.0006941625892145e-01  1.0007976231693447e-01  1.0009278020355770e-01  1.0009419001295515e-01  1.0003622335456427e-01  1.0008389894626817e-01  1.0004557537866834e-01  1.0005954493486442e-01  1.0006000907822557e-01  1.0005072379453255e-01  1.0004919110479339e-01  1.0005379577059885e-01  1.0004509519557214e-01  1.0004451546495374e-01  1.0004599301446994e-01  1.0003845320031714e-01  1.0004061837927805e-01  1.0003524025345598e-01  1.0004150750836853e-01  1.0002391356535674e-01  1.0005278999366765e-01  1.0000000000000003e-01  9.9977876322061121e-02  1.0000000000000003e-01  9.9988261941432441e-02  9.9978389358040667e-02  9.9981032542526591e-02  9.9978783029330220e-02  9.9973768678682337e-02  9.9973535461320304e-02  9.9974830104602994e-02  9.9965310833334403e-02  9.9967769955121133e-02  9.9969155827455525e-02  9.9954385108085048e-02  9.9958789370730272e-02  9.9963200627617183e-02  9.9941721276233020e-02  9.9952485112235825e-02  9.9959018488187945e-02  9.9929732059676993e-02  9.9948323241261988e-02  9.9960905825271715e-02  9.9907897210393837e-02  9.9968555257516481e-02  9.9920594086488373e-02  9