<?xml version="1.0"?>
<VTKFile type="UnstructuredGrid"  version="0.1"  >
<UnstructuredGrid>
<Piece  NumberOfPoints="1933" NumberOfCells="3640">
<Points>
<DataArray  type="Float64"  NumberOfComponents="3"  format="ascii">0.0002835328531104464 -0.002279645940489545 0  5.000283553381317 -0.002207239581866215 0  5.000174900678192 7.497792788996578 0  0.0001748874091678787 7.497720397719577 0  10.00028359975038 -0.002134842167071338 0  10.00017491435197 7.497865175392548 0  15.00028367677678 -0.002062410156546272 0  15.00017492278414 7.497937599902733 0  20.00028377817898 -0.001989904812797448 0  20.0001749175374 7.498010100144676 0  25.00028389087331 -0.001917292723029263 0  25.00017488713972 7.498082708528298 0  30.0002839974225 -0.001844544892075894 0  30.00017481707516 7.498155453296897 0  35.00028407719597 -0.001771635493401305 0  35.00017468976235 7.498228359737428 0  40.00028410668556 -0.00169854068366989 0  40.0001744843998 7.498301451294854 0  45.00028405926635 -0.001625237603674546 0  45.00017417663044 7.498374750507478 0  50.00028390456988 -0.001551703578562777 0  50.00017373800756 7.498448279755945 0  55.00028360755027 -0.001477915492699833 0  55.0001731352518 7.498522061846569 0  60.00028312726275 -0.001403849305970727 0  60.00017232928243 7.498596120455514 0  65.0002824153288 -0.001329479680425148 0  65.000171273993 7.498670480457498 0  70.00028141401793 -0.001254779691276461 0  70.00016991472438 7.498745168155367 0  75.00028005383366 -0.001179720601331578 0  75.00016818636817 7.498820211417497 0  80.00027825042513 -0.00110427168212386 0  80.00016601100531 7.498895639716594 0  85.00027590056085 -0.001028400068827645 0  85.00016329496127 7.498971484042809 0  90.00027287675719 -0.0009520706418872272 0  90.00015992512215 7.499047776626606 0  95.00026901993061 -0.0008752459427227145 0  95.00015576434008 7.49912455033404 0  100.0002641290642 -0.0007978861703848139 0  100.0001506457588 7.499201837450925 0  105.0002579462429 -0.0007199494111262369 0  105.0001443659853 7.499279667273492 0  110.0002501343151 -0.0006413925215568627 0  110.0001366773264 7.499358061309872 0  115.0002402425324 -0.0005621737534682598 0  115.0001272800739 7.499437023639111 0  120.0002276521953 -0.0004822598374588715 0  120.000115817569 7.499516521401937 0  125.0002114885278 -0.0004016441854478473 0  125.0001018806099 7.499596445166349 0  130.0001904749961 -0.0003203924055793332 0  130.0000850357272 7.499676528363351 0  135.000162689419 -0.0002387544866510367 0  135.0000649077356 7.499756183980474 0  140.0001251542032 -0.000157439792039045 0  140.0000413769565 7.499834175542339 0  145.0000731544475 -7.829131960510898e-05 0  145.0000150031833 7.499907960107347 0  149.9999991401016 -5.940550678733502e-06 0  149.9999878600884 7.499972387248444 0  160 5.008011357562232e-19 0  165.0000519999487 3.885708976709244e-05 0  165.0000093517101 7.500039812647334 0  159.9999884905223 7.500001954159909 0  170.0000931195731 8.96114791274938e-05 0  170.0000300873779 7.500090458290593 0  175.0001259156177 0.000147963860232657 0  175.0000492455094 7.500148711463162 0  180.0001523000587 0.0002111920503420065 0  180.0000663450346 7.500211813718919 0  185.000173706367 0.0002776189577560966 0  185.0000813213317 7.500278119898448 0  190.000191204716 0.00034619096248503 0  190.000094294281 7.500346590868511 0  195.0002055972076 0.000416224905605667 0  195.0001054569853 7.500416545087573 0  200.0002174913761 0.0004872632792272711 0  200.0001150211571 7.500487521903933 0  205.0002273537906 0.0005589906933642767 0  205.0001231914018 7.500559201927484 0  210.0002355480565 0.0006311844038088866 0  210.0001301543499 7.500631358915459 0  215.0002423615421 0.0007036840236625449 0  215.0001360752294 7.500703829772109 0  220.0002480242575 0.0007763723166218706 0  220.0001410979924 7.500776495266807 0  225.0002527223564 0.0008491625919986897 0  225.0001453469928 7.500849267269807 0  230.0002566079519 0.0009219901658243596 0  230.0001489292124 7.500922080064388 0  235.0002598063926 0.0009948064133896333 0  235.0001519365598 7.500994884283729 0  240.0002624217647 0.001067574530720867 0  240.0001544480289 7.501067642589237 0  245.0002645411398 0.001140266462012603 0  245.0001565316418 7.50114032654028 0  250.0002662379233 0.001212860651063965 0  250.0001582461597 7.50121291430608 0  255.0002675745522 0.001285340398527271 0  255.0001596425757 7.501285388995525 0  260.0002686047142 0.001357692687026739 0  260.0001607654114 7.501357737461932 0  265.000269375218 0.001429907392206273 0  265.0001616538387 7.501429949496105 0  270.0002699275962 0.001501976841134883 0  270.0001623426464 7.501502017363128 0  275.0002702995077 0.00157389571782297 0  275.0001628630559 7.501573935673696 0  280.0002705259525 0.001645661354326339 0  280.000163243393 7.50164570161276 0  285.0002706402872 0.001717274488458261 0  285.0001635095967 7.501717315579168 0  290.000270674938 0.001788740615027023 0  290.0001636855541 7.501788782316954 0  295.0002706615876 0.001860072093699122 0  295.0001637932544 7.501860112634235 0  300.0002706303806 0.001931291147685811 0  300.0001638527899 7.50193132579192 0  305.0002706072559 0.002002433587521261 0  305.0001638823657 7.502002452590883 0  310.0002706077279 0.002073551736013833 0  310.0001638987362 7.502073539214873 0  5.000066289523067 14.99779283356949 0  6.628192032553937e-05 14.99772050344219 0  10.00006628238709 14.99786517724814 0  15.00006625098827 14.99793757306624 0  20.00006618545438 14.99801005341947 0  25.00006607500199 14.99808264657171 0  30.0000659072973 14.99815537778878 0  35.00006566793667 14.99822827024646 0  40.00006534001695 14.99830134582313 0  45.00006490373081 14.99837462577494 0  50.00006433593546 14.99844813128465 0  55.00006360966025 14.99852188388237 0  60.00006269353212 14.99859590573941 0  65.000061551109 14.99867021983329 0  70.00006014012 14.99874484997133 0  75.0000584116264 14.99881982064245 0  80.0000563091365 14.99889515663707 0  85.00005376775158 14.99897088232554 0  90.00005071348775 14.99904702040229 0  95.00004706304503 14.99912358975767 0  100.000042724509 14.99920060188503 0  105.0000375998264 14.99927805478621 0  110.0000315904718 14.99935592256128 0  115.0000246086076 14.9994341375365 0  120.000016597281 14.99951255956294 0  125.0000075646818 14.99959092361399 0  129.9999976384981 14.99966875187228 0  134.9999871447464 14.99974521141588 0  139.9999767054856 14.99981890017118 0  144.9999673189613 14.99988757752469 0  149.9999603116471 14.99994801078969 0  164.9999674268753 15.00004316817494 0  159.9999612750564 14.99999993523246 0  169.9999745383882 15.0000946249183 0  174.9999824002372 15.0001524906321 0  179.9999905004152 15.00021495477318 0  184.999998425738 15.00028065293296 0  190.0000059102049 15.0003486169482 0  195.000012807586 15.00041816841121 0  200.0000190548746 15.00048883052337 0  205.0000246422827 15.00056026515429 0  210.0000295918222 15.0006322298495 0  215.0000339430216 15.00070454880993 0  220.000037743806 15.00077709325043 0  225.000041044885 15.00084976796937 0  230.0000438964317 15.00092250203436 0  235.0000463462311 15.00099524222136 0  240.0000484387417 15.00106794832342 0  245.0000502147223 15.00114058975351 0  250.0000517111948 15.00121314306462 0  255.0000529616009 15.00128559013884 0  260.0000539960586 15.0013579168827 0  265.0000548416633 15.00143011232407 0  270.0000555227958 15.00150216804807 0  275.0000560614158 15.00157407793927 0  280.0000564773331 15.00164583822042 0  285.0000567884665 15.00171744779294 0  290.0000570111199 15.00178890888851 0  295.0000571603598 15.00186022803124 0  300.0000572506322 15.00193141728496 0  305.0000572968812 15.00200249574352 0  310.0000573166134 15.00207349133499 0  4.999957848849292 22.49779286819188 0  -4.215515154198934e-05 22.49772065096266 0  9.999957833122366 22.49786513419388 0  14.99995778574874 22.49793747479179 0  19.99995769681473 22.49800991335444 0  24.99995755701913 22.49808247145403 0  29.99995735677622 22.49815516936622 0  34.99995708558094 22.49822802646916 0  39.99995673155354 22.49830106159552 0  44.99995628110811 22.49837429333859 0  49.99995571870723 22.49844774029208 0  54.99995502667834 22.49852142119876 0  59.99995418508885 22.49859535498023 0  64.99995317169456 22.49866956061455 0  69.99995196199951 22.49874405681178 0  74.99995052949657 22.49881886141379 0  79.99994884619659 22.49889399040102 0  84.9999468836151 22.49896945632346 0  89.99994461446701 22.49904526586864 0  94.99994201543677 22.49912141611719 0  99.99993907154492 22.49919788878713 0  104.9999357828192 22.49927464139216 0  109.9999321741719 22.49935159369598 0  114.999928309483 22.49942860711904 0  119.9999243106905 22.49950545393305 0  124.9999203817415 22.49958177256182 0  129.9999168347717 22.49965700628836 0  134.9999141106284 22.49973032821807 0  139.9999127766428 22.49980057258352 0  144.9999134723777 22.4998662360787 0  149.9999167695273 22.49992570657339 0  164.9999154436034 22.50004575526124 0  159.9999173203136 22.49999697674932 0  169.9999146445702 22.5000995026977 0  174.9999150071353 22.5001578598381 0  179.9999163665687 22.50022002114369 0  184.9999184526147 22.50028513257466 0  189.9999209968952 22.50035245837864 0  194.9999237768671 22.5004214154967 0  199.999926625058 22.5004915588413 0  204.9999294237196 22.50056255422425 0  209.9999320950253 22.50063415225409 0  214.9999345911945 22.50070616694802 0  219.9999368861193 22.50077845931897 0  224.9999389688163 22.50085092513975 0  229.999940838537 22.50092348592622 0  234.99994250122 22.50099608230846 0  239.9999439669726 22.50106866914746 0  244.9999452483107 22.50114121192316 0  249.9999463589475 22.5012136840551 0  254.9999473129724 22.50128606491486 0  259.9999481243029 22.50135833836223 0  264.9999488063297 22.50143049168712 0  269.9999493716948 22.50150251487547 0  274.999949832177 22.50157440014105 0  279.999950198663 22.50164614167798 0  284.999950481223 22.50171773559147 0  289.999950689328 22.50178917995137 0  294.9999508322846 22.50186047488543 0  299.9999509200065 22.50193162257648 0  30
[...]
<PointData  Scalars="p"> 
<DataArray  type="Float64"  Name="p"  format="ascii">1.0000000000000001e-01  1.0000000000000003e-01  9.9996101496710801e-02  1.0000000000000003e-01  1.0000000000000003e-01  9.9995467379627501e-02  1.0000000000000003e-01  9.9993155037656614e-02  1.0000000000000003e-01  9.9991980743458830e-02  1.0000000000000003e-01  9.9990313940497871e-02  1.0000000000000003e-01  9.9987576139680151e-02  1.0000000000000003e-01  9.9986351341430510e-02  1.0000000000000003e-01  9.9984474796387710e-02  1.0000000000000003e-01  9.9981387267318644e-02  1.0000000000000003e-01  9.9980930798728856e-02  1.0000000000000003e-01  9.9973273027832876e-02  1.0000000000000003e-01  9.9969046369097550e-02  1.0000000000000003e-01  9.9964525827566292e-02  1.0000000000000003e-01  9.9960882344054314e-02  1.0000000000000003e-01  9.9953505100455670e-02  1.0000000000000003e-01  9.9950521944177501e-02  1.0000000000000003e-01  9.9945094906994200e-02  1.0000000000000003e-01  9.9936766609012573e-02  1.0000000000000003e-01  9.9934300875626561e-02  1.0000000000000003e-01  9.9926003626095689e-02  1.0000000000000003e-01  9.9920948426424849e-02  1.0000000000000003e-01  9.9911887336773919e-02  1.0000000000000003e-01  9.9914019261054324e-02  1.0000000000000003e-01  9.9891344361807410e-02  1.0000000000000003e-01  9.9912110391590925e-02  1.0000000000000003e-01  9.9865836210574641e-02  1.0000000000000003e-01  9.9918413506700623e-02  1.0000000000000003e-01  9.9830586838617036e-02  1.0000000000000003e-01  9.9935652852075826e-02  1.0000000000000001e-01  9.9770840218476126e-02  1.0000000000000001e-01  1.0000000000000003e-01  1.0018605237775347e-01  1.0038245297224233e-01  1.0000000000000003e-01  1.0005423388606478e-01  1.0000000000000003e-01  1.0014697930996513e-01  1.0000000000000003e-01  1.0009713427042267e-01  1.0000000000000003e-01  1.0011211497983409e-01  1.0000000000000003e-01  1.0009926143938809e-01  1.0000000000000003e-01  1.0010535836545129e-01  1.0000000000000003e-01  1.0009449721201959e-01  1.0000000000000003e-01  1.0009613733240959e-01  1.0000000000000003e-01  1.0009247725842635e-01  1.0000000000000003e-01  1.0008930602519013e-01  1.0000000000000003e-01  1.0008697966559343e-01  1.0000000000000003e-01  1.0008543743881854e-01  1.0000000000000003e-01  1.0008222660708438e-01  1.0000000000000003e-01  1.0008071597999456e-01  1.0000000000000003e-01  1.0007906692050676e-01  1.0000000000000003e-01  1.0007702119323986e-01  1.0000000000000003e-01  1.0007552140524345e-01  1.0000000000000003e-01  1.0007453312318043e-01  1.0000000000000003e-01  1.0007259214128905e-01  1.0000000000000003e-01  1.0007218245799424e-01  1.0000000000000003e-01  1.0007008300315641e-01  1.0000000000000003e-01  1.0007088620592967e-01  1.0000000000000003e-01  1.0006669618087433e-01  1.0000000000000003e-01  1.0007173786710286e-01  1.0000000000000003e-01  1.0006098691776295e-01  1.0000000000000003e-01  1.0007701823776713e-01  1.0000000000000003e-01  1.0004863687631871e-01  1.0000000000000003e-01  1.0009715639443807e-01  1.0000000000000001e-01  1.0000000000000003e-01  9.9993581746965043e-02  1.0000000000000003e-01  9.9993639765544651e-02  9.9993181948970569e-02  9.9992295237859852e-02  9.9989980180610005e-02  9.9990150371838726e-02  9.9989715661776002e-02  9.9986366290011092e-02  9.9987916163610593e-02  9.9986575725240237e-02  9.9983517316513740e-02  9.9975619263035817e-02  9.9977905573231288e-02  9.9969366914833088e-02  9.9973109424171383e-02  9.9969816597269279e-02  9.9963103416353269e-02  9.9965012701277459e-02  9.9962807660571376e-02  9.9952751522698169e-02  9.9959057723645162e-02  9.9950227125532781e-02  9.9951018378741041e-02  9.9940777636824948e-02  9.9959906952659189e-02  9.9913952163111788e-02  9.9989027982391218e-02  9.9858248579183281e-02  1.0005780021356064e-01  9.9767482963187507e-02  9.9838391191340331e-02  1.0058604972749878e-01  1.0017589595879466e-01  1.0002790451216122e-01  1.0005171437712612e-01  1.0004158362924312e-01  1.0006178100470053e-01  1.0003806411393482e-01  1.0004976833836111e-01  1.0004681533862397e-01  1.0004210252049885e-01  1.0004187571584691e-01  1.0004246250009260e-01  1.0003756994963453e-01  1.0003747628018735e-01  1.0003692758028890e-01  1.0003408612128362e-01  1.0003353431620933e-01  1.0003299003770401e-01  1.0003122719977905e-01  1.0003035543790503e-01  1.0003036342775992e-01  1.0002815378309729e-01  1.0002912492662991e-01  1.0002605342640675e-01  1.0002953970156826e-01  1.0002128176660398e-01  1.0003484960463493e-01  1.0001012785158746e-01  1.0004737578118401e-01  1.0000000000000003e-01  9.9990521922653702e-02  1.0000000000000003e-01  9.9993590484291975e-02  9.9990459571006648e-02  9.9988071805631670e-02  9.9987617032306297e-02  9.9987139185267748e-02  9.9982257544356773e-02  9.9983412633892169e-02  9.9983145574841864e-02  9.9977576553728853e-02  9.9976394610288011e-02  9.9980067735919512e-02  9.9957162371452010e-02  9.9965006910219062e-02  9.9960220495725560e-02  9.9949821158508312e-02  9.9954579513418892e-02  9.9950281343896510e-02  9.9937153847572097e-02  9.9942207766387445e-02  9.9938996044886458e-02  9.9920559366723588e-02  9.9935910432722624e-02  9.9915446342574890e-02  9.9927630008154425e-02  9.9895834325116215e-02  9.9953475680284051e-02  9.9829375692651892e-02  1.0005352301144002e-01  9.9635154150626237e-02  9.9883276827916645e-02  1.0054238575933479e-01  1.0028231758940290e-01  1.0005870616438586e-01  1.0007393563836062e-01  1.0012045617705706e-01  1.0005708708024003e-01  1.0009276257336303e-01  1.0008497413324946e-01  1.0007550670751411e-01  1.0007671015259638e-01  1.0007944727942258e-01  1.0006941270888298e-01  1.0007067276817258e-01  1.0006999733165693e-01  1.0006437051365830e-01  1.0006370610440939e-01  1.0006333598402986e-01  1.0005940833874309e-01  1.0005886504476137e-01  1.0005796449600787e-01  1.0005591597684352e-01  1.0005434780381654e-01  1.0005504075799004e-01  1.0005092410507857e-01  1.0005424457788464e-01  1.0004687879970404e-01  1.0005716455783527e-01  1.0003571304689640e-01  1.0007498076291776e-01  1.0000000000000003e-01  9.9988640610028601e-02  1.0000000000000003e-01  9.9992724810756120e-02  9.9987366017332796e-02  9.9987916193762474e-02  9.9987379548044097e-02  9.9982308319990956e-02  9.9983653629382177e-02  9.9983665114947634e-02  9.9977405320746365e-02  9.9980007636053456e-02  9.9980289716668100e-02  9.9966883964998018e-02  9.9978879740674945e-02  9.9960327894607875e-02  9.9954317607111459e-02  9.9958112226306961e-02  9.9957990450815631e-02  9.9942152065063600e-02  9.9952786622213560e-02  9.9946201314406402e-02  9.9933685480267556e-02  9.9938874535095507e-02  9.9942618952018489e-02  9.9912018847514106e-02  9.9952379885355741e-02  9.9894469901470259e-02  9.9974973427739283e-02  9.9828794285156480e-02  1.0008920342069325e-01  9.9612635350693285e-02  9.9879333008191476e-02  1.0066901581814430e-01  1.0018757096974927e-01  1.0001774354387098e-01  1.0019067513526325e-01  9.9998614508403930e-02  1.0009211160485022e-01  1.0006763912027072e-01  1.0006262071891471e-01  1.0006187627692027e-01  1.0007128357912824e-01  1.0005486134067666e-01  1.0005971290020264e-01  1.0005959375798591e-01  1.0005221602031808e-01  1.0005195353425010e-01  1.0005210899800894e-01  1.0004681937886321e-01  1.0004636217506253e-01  1.0004613734106882e-01  1.0004254294314568e-01  1.0004238431261109e-01  1.0004096189845710e-01  1.0004025781642317e-01  1.0003693047415781e-01  1.0004083817556718e-01  1.0003136818133759e-01  1.0004440327363771e-01  1.0002095151203041e-01  1.0005702764150511e-01  1.0000000000000003e-01  9.9986708550930059e-02  1.0000000000000003e-01  9.9990728773447862e-02  9.9986998571754929e-02  9.9987844823533775e-02  9.9981743558611627e-02  9.9983278131214881e-02  9.9982533718560099e-02  9.9975735035160454e-02  9.9978696764979724e-02  9.9979251759377538e-02  9.9967591076410164e-02  9.9974093157978824e-02  9.9968853347246450e-02  9.9965476366270997e-02  9.9951666983120732e-02  9.9956425511418687e-02  9.9937300650155117e-02  9.9949936197327102e-02  9.9945922569515372e-02  9.9926193961859200e-02  9.9941772964601203e-02  9.9931454964309316e-02  9.9920556398041205e-02  9.9920264794311098e-02  9.9940808548216936e-02  9.9876954524984102e-02  9.9979733008142821e-02  9.9806701150904273e-02  1.0010441143592648e-01  9.9549538462866738e-02  9.9767120440389129e-02  1.0075808411163507e-01  1.0024221588039962e-01  1.0007887467992041e-01  1.0010829991781736e-01  1.0011107757160363e-01  1.0008155994039195e-01  1.0007714149600264e-01  1.0006799372469473e-01  1.0009414702335234e-01  1.0006367852350929e-01  1.0007494837863529e-01  1.0007526586525939e-01  1.0006477844262486e-01  1.0006534629068993e-01  1.0006692864776055e-01  1.0005850964093511e-01  1.0005854394684913e-01  1.0005837084211734e-01  1.0005353587944976e-01  1.0005265372464403e-01  1.0005275831163224e-01  1.0004873330887248e-01  1.0004930202052412e-01  1.0004643278270187e-01  1.0004807282075930e-01  1.0004079391221574e-01  1.0005164884925666e-01  1.0002924246289961e-01  1.0006641451967432e-01  1.0000000000000003e-01  9.9984416537397397e-02  1.0000000000000003e-01  9.9990649351919175e-02  9.9986440135886548e-02  9.9983717650840145e-02  9.9983176197615334e-02  9.9983082695619840e-02  9.9976098555340315e-02  9.9978074974449660e-02  9.9979115199908597e-02  9.9969178594175798e-02  9.9973356277759592e-02  9.9972264677979858e-02  9.9960979042850187e-02  9.9963763064925090e-02  9.9975696831009334e-02  9.9931748503748627e-02  9.9952880001857175e-02  9.9946152838711652e-02  9.9928246441222585e-02  9.9942373879506524e-02  9.9941237969560032e-02  9.9911598325819889e-02  9.9940985156880005e-02  9.9917764606314227e-02  9.9925843139592740e-02  9.9891770868767216e-02  9.9983683039746266e-02  9.9785954974702690e-02  1.0014151126238396e-01  9.9498310709655910e-02  9.9775170748327160e-02  1.0073470000033627e-01  1.0029548056202670e-01  9.9983031136644848e-02  1.0013195371789295e-01  1.0010551239662824e-01  1.0011435784746792e-01  1.0003637593253291e-01  1.0011096381255297e-01  1.0004786735700492e-01  1.0007678456209224e-01  1.0007479532615211e-01  1.0006203231692454e-01  1.0006287599987961e-01  1.0006773237641985e-01  1.0005561389756214e-01  1.0005704909223069e-01  1.0005752865248330e-01  1.0005027678028802e-01  1.0005006127977151e-01  1.0005000308321108e-01  1.0004576785239526e-01  1.0004446637902242e-01  1.0004544056869867e-01  1.0004011431165398e-01  1.0004355205187945e-01  1.0003574417038477e-01  1.0004606111983268e-01  1.0002446057104199e-01  1.0005927322957558e-01  1.0000000000000003e-01  9.9983162290210564e-02  1.0000000000000003e-01  9.9990488720259660e-02  9.9982612532246315e-02  9.9984643183668662e-02  9.9983176326537679e-02  9.9977203769799558e-02  9.9977868358482450e-02  9.9978908058344695e-02  9.9969030396290140e-02  9.9973428422756611e-02  9.9973179358965283e-02  9.9959681598019920e-02  9.9965572815168921e-02  9.9969473241146856e-02  9.9945520471605778e-02  9.9971714393405409e-02  9.9940974632111351e-02  9.9927475665590307e-02  9.9941220958974744e-02  9.9939352821103888e-02  9.9914840328047275e-02  9.9932656777833168e-02  9.9935170572933010e-02  9.9892275213342013e-02  9.9945712182695490e-02  9.9884988953423848e-02  9.9963835683218372e-02  9.9794926848490839e-02  1.0014896188228167e-01  9.9447176605488782e-02  9.9791961391767312e-02  1.0079328740664498e-01  1.0024115141560230e-01  1.0000666586286906e-01  1.0016927378411231e-01  1.0006108648634915e-01  1.0009974094121465e-01  1.0014370592498367e-01  1.0003759924478961e-01  1.0008850393745193e-01  1.0007786419765621e-01  1.0007017851226015e-01  1.0006699298201364e-01  1.0007760656277448e-01  1.0006025301412015e-01  1.0006370126487191e-01  1.0006520085937122e-01  1.0005628793518483e-01  1.0005567605900592e-01  1.0005649983213342e-01  1.0004997394972640e-01  1.0004992299071552e-01  1.0004901515192821e-01  1.0004644048478470e-01  1.0004357560664023e-01  1.0004663958306168e-01  1.0003785954253835e-01  1.0004843064723395e-01  1.0002732200075529e-01  1.0006155283675670e-01  1.0000000000000003e-01  9.9982067298203761e-02  1.0000000000000003e-01  9.9988469258484272e-02  9.9982949926518655e-02  9.9984860475669249e-02  9.9978101440005421e-02  9.9979362684815651e-02  9.9979256713096085e-02  9.9970213958610568e-02  9.9973761348119097e-02  9.9974374312985836e-02  9.9960997005693830e-02  9.9966613541276672e-02  9.9968037070622379e-02  9.9949301382157796e-02  9.9964716981465834e-02  9.9957497583536434e-02  9.9952235266800110e-02  9.9934375028595313e-02  9.9943731353285326e-02  9.9909900791403855e-02  9.9939599735306042e-02  9.9928788521667575e-02  9.9907541493115759e-02  9.9918895454387438e-02  9.9943431485541301e-02  9.9857053042632593e-02  9.9990867270426914e-02  9.9784638445767695e-02  1.0014467319606031e-01  9.9431644940898248e-02  9.9722625408876553e-02  1.0085587624177940e-01  1.0026962166125489e-01  1.0003409726998358e-01  1.0011732689965065e-01  1.0006210138128929e-01  1.0013492601858941e-01  1.0007144430862512e-01  1.0011907367650441e-01  1.0006247000312697e-01  1.0007863162136416e-01  1.0005819664687850e-01  1.0008555366508380e-01  1.0005755787685164e-01  1.0006527838217455e-01  1.0006745081466512e-01  1.0005647245189331e-01  1.0005665271398359e-01  1.0005895591264903e-01  1.0005017732921351e-01  1.0004972548437858e-01  1.0005041974129053e-01  1.0004448546918680e-01  1.0004506167258322e-01  1.0004267160244329e-01  1.0004316391820280e-01  1.0003602146115032e-01  1.0004641270796286e-01  1.0002500680978466e-01  1.0005823471072862e-01  1.0000000000000003e-01  9.9980409347904864e-02  1.0000000000000003e-01  9.9988774648927900e-02  9.9983002653910344e-02  9.9980998627208162e-02  9.9979550634240938e-02  9.9980614200963075e-02  9.9972108492736619e-02  9.9974307430033355e-02  9.9975158211480883e-02  9.9963853861476604e-02  9.9967162299284568e-02  9.9968733614043459e-02  9.9951582181898715e-02  9.9961719619555967e-02  9.9962207183006982e-02  9.9944290103371927e-02  9.9952466194191597e-02  9.9971379182305670e-02  9.9904308908906267e-02  9.9938698453309313e-02  9.9933121564590666e-02  9.9897637735228043e-02  9.9936840406139787e-02  9.9916479930370380e-02  9.9908186462512830e-02  9.9888749995796750e-02  9.9988001860960948e-02  9.9752146527734953e-02  1.0017704325330945e-01  9.9405456484041727e-02  9.9719118482324468e-02  1.0084222635933157e-01  1.0030848432034660e-01  9.9983277427367567e-02  1.0013188640865416e-01  1.0009676983047930e-01  1.0008568215746025e-01  1.0008520955604128e-01  1.0011447809916348e-01  1.0010470983896354e-01  1.0004372936061869e-01  1.0009961329128038e-01  1.0005219370758917e-01  1.0007106268969188e-01  1.0007143260396582e-01  1.0005960206309207e-01  1.0005884463068104e-01  1.0006416276902330e-01  1.0005280300486989e-01  1.0005358011920028e-01  1.0005411383993805e-01  1.0004741899303168e-01  1.0004613198549778e-01  1.0004752057703171e-01  1.0004109922902386e-01  1.0004396621663236e-01  1.0003736846955048e-01  1.0004559784831341e-01  1.0002587254393006e-01  1.0005816575970357e-01  1.0000000000000003e-01  9.9979762897185395e-02  1.0000000000000003e-01  9.9988953652363016e-02  9.9979734287710745e-02  9.9982144770389442e-02  9.9980422201692579e-02  9.9974512442493321e-02  9.9975153747857565e-02  9.9976220637354202e-02  9.9965922159715823e-02  9.9969086806307270e-02  9.9970368889106043e-02  9.9954053833510165e-02  9.9961315078356469e-02  9.9963783337307099e-02  9.9943763538340558e-02  9.9955268845656198e-02  9.9963525298331066e-02  9.9925559307193851e-02  9.9969567228067727e-02  9.9924884008261064e-02  9.9904550479265081e-02  9.9926362010038655e-02  9.9934569087811259e-02  9.9877089313249304e-02  9.9947085876408104e-02  9.9885886578900421e-02  9.9950185449679541e-02  9.9785658355086959e-02  1.0017870458510414e-01  9.9362035990861269e-02  9.9734420915662106e-02  1.0086639582370682e-01  1.0027493911876000e-01  9.9987878946466185e-02  1.0016460404417649e-01  1.0005176080062184e-01  1.0009443406465164e-01  1.0010301102523499e-01  1.0008508231407488e-01  1.0007972286640061e-01  1.0012917690535927e-01  1.0003568644251112e-01  1.0007888225915466e-01  1.0006737656259386e-01  1.0006340517601450e-01  1.0005761558914464e-01  1.0006778787226868e-01  1.0005270579616446e-01  1.0005455888727188e-01  1.0005694647144582e-01  1.0004849348756741e-01  1.0004778414131776e-01  1.0004792309497078e-01  1.0004328726890377e-01  1.0004068931603254e-01  1.0004380761504338e-01  1.0003480562940600e-01  1.0004430938363745e-01  1.0002519246117426e-01  1.0005572906297751e-01  1.0000000000000003e-01  9.9979257247798992e-02  1.0000000000000003e-01  9.9987429685320262e-02  9.9980411697611335e-02  9.9983013237008686e-02  9.9975901671727499e-02  9.9977047835014377e-02  9.9976967202763903e-02  9.9968568127563842e-02  9.9970756083601661e-02  9.9972498013489244e-02  9.9957937154862495e-02  9.9963026487891127e-02  9.9964739184097304e-02  9.9946042560217135e-02  9.9956638833383765e-02  9.9960944089776918e-02  9.9933069097841012e-02  9.9957719079062701e-02  9.9950216283623952e-02  9.9937493200431923e-02  9.9922542542325216e-02  9.9930487230271800e-02  9.9888948470311684e-02  9.9921254370723842e-02  9.9941776335175841e-02  9.9842438670279587e-02  9.9991881324316023e-02  9.9786495070153539e-02  1.0013732460414498e-01  9.9393753192221129e-02  9.9692564784046006e-02  1.0090868143978877e-01  1.0028172776216521e-01  1.0001339361940231e-01  1.0012913710145921e-01  1.0005714731841304e-01  1.0012172021398168e-01  1.0007043023464585e-01  1.0008101062246104e-01  1.0010595901915390e-01  1.0007491345511155e-01  1.0010235593375860e-01  1.0005598385805939e-01  1.0007124339595781e-01  1.0005170602248024e-01  1.0007451475980673e-01  1.0005194758194376e-01  1.0005667124580438e-01  1.0005925056749260e-01  1.0004995006900808e-01  1.0004944406778082e-01  1.0005211392735577e-01  1.0004359341710563e-01  1.0004402760597994e-01  1.0004238161245643e-01  1.0004122768656025e-01  1.0003486714300752e-01  1.0004429377854603e-01  1.0002445596337088e-01  1.0005461564186359e-01  1.0000000000000003e-01  9.9978104982588759e-02  1.0000000000000003e-01  9.9987809165921121e-02  9.9980875535972180e-02  9.9979735815383761e-02  9.9977471029163614e-02  9.9978735878154229e-02  9.9970643207724849e-02  9.9972138842646247e-02  9.9973753157084233e-02  9.9962326710796870e-02  9.9964945951823023e-02  9.9966880920539486e-02  9.9949978319799709e-02  9.9956801599772716e-02  9.9961708382816566e-02  9.9937245489496007e-02  9.9953712912393522e-02  9.9956136470600393e-02  9.9929736810351916e-02  9.9943605137930963e-02  9.9973770623272520e-02  9.9873729169628417e-02  9.9937771046553658e-02  9.9913806679983716e-02  9.9892026416442931e-02  9.9895299453827482e-02  9.9988786459810089e-02  9.9738082642520903e-02  1.0017955616208563e-01  9.9398580166996292e-02  9.9678361351532518e-02  1.0089162825493771e-01  1.0031238098660047e-01  9.9979927712726180e-02  1.0013054472629369e-01  1.0008346373054712e-01  1.0008993840576978e-01  1.0007029897833794e-01  1.0010646242235947e-01  1.0006942635946078e-01  1.0007977320958561e-01  1.0009278989576754e-01  1.0009420021483161e-01  1.0003623031862499e-01  1.0008390805133213e-01  1.0004558278218827e-01  1.0005955337754185e-01  1.0006001709322113e-01  1.0005073194638975e-01  1.0004919938390881e-01  1.0005380415321435e-01  1.0004510361406493e-01  1.0004452393318639e-01  1.0004600176051397e-01  1.0003846146432530e-01  1.0004062749996502e-01  1.0003524793261562e-01  1.0004151760699109e-01  1.0002391922616286e-01  1.0005280345396940e-01  1.0000000000000003e-01  9.9977880287448126e-02  1.0000000000000003e-01  9.9988263537651362e-02  9.9978391960137261e-02  9.9981034331774840e-02  9.9978785234673767e-02  9.9973770309149460e-02  9.9973537092452575e-02  9.9974831909616271e-02  9.9965312104791898e-02  9.9967771156872692e-02  9.9969157517229859e-02  9.9954385906939627e-02  9.9958790253409188e-02  9.9963202350116173e-02  9.9941721652280810e-02  9.9952485856119863e-02  9.9959020548384708e-02  9.9929731964107441e-02  9.9948324158795523e-02  9.9960908279177918e-02  9.9907896319885336e-02  9.9968556716184723e-02  9.9920596562572586e-02  9