<?xml version="1.0"?>
<VTKFile type="UnstructuredGrid"  version="0.1"  >
<UnstructuredGrid>
<Piece  NumberOfPoints="1933" NumberOfCells="3640">
<Points>
<DataArray  type="Float64"  NumberOfComponents="3"  format="ascii">0.2935695393853764 0.00238145721251839 0  5.293569535714357 0.002295422313117411 0  5.293698652818447 7.502295452152455 0  0.293698630692786 7.502381439774443 0  10.29356951220577 0.002209338404579639 0  10.29369870626283 7.502209390439534 0  15.29356949493179 0.002123134350052177 0  15.29369881352959 7.502123196985217 0  20.2935695239116 0.00203676975974352 0  20.2936989995036 7.502036837628951 0  25.29356964367411 0.001950225054542612 0  25.29369929186521 7.501950295963913 0  30.29356989959338 0.00186349479162393 0  30.29369972068181 7.501863568239345 0  35.29357033700106 0.001776583221064557 0  35.29370031812181 7.501776659645527 0  40.29357100164365 0.001689501462569689 0  40.29370111848778 7.501689581864541 0  45.2935719407937 0.001602265870804399 0  45.29370215855418 7.501602351638135 0  50.2935732046958 0.001514897290594413 0  50.29370347814665 7.501514990138058 0  55.29357484821718 0.001427421010607366 0  55.29370512090617 7.501427522990705 0  60.29357693267367 0.001339867310363048 0  60.29370713519644 7.501339980874661 0  65.29357952785769 0.00125227256667426 0  65.2937095751281 7.501252400671614 0  70.29358271432844 0.001164680949561608 0  70.29371250168214 7.501164827210481 0  75.29358658605668 0.001077146802902958 0  75.29371598391423 7.501077315708236 0  80.29359125354181 0.0009897378817808106 0  80.29372010021275 7.5009899350876 0  85.2935968475568 0.0009025397202900627 0  85.29372493955849 7.500902772454131 0  90.29360352371801 0.0008156615507779418 0  90.29373060268456 7.50081593916149 0  95.29361146813552 0.0007292444213833854 0  95.29373720295341 7.500729579112477 0  100.2936209044562 0.000643472520284373 0  100.2937448666219 7.500643880279979 0  105.2936321026672 0.0005585893133132585 0  105.2937537319261 7.500559090958726 0  110.293645390017 0.0004749211210554955 0  110.2937639460282 7.50047554308835 0  115.2936611642069 0.0003929125464212503 0  115.2937756582814 7.500393686297149 0  120.2936799082859 0.0003131813720945433 0  120.2937890074317 7.500314138353063 0  125.2937022046562 0.000236606464421573 0  125.2938040994451 7.500237760795621 0  130.2937287404415 0.0001644733890127463 0  130.2938209723106 7.5001657729629 0  135.2937602837717 9.872376722711002e-05 0  135.2938395468994 7.500099923535182 0  140.2937975794082 4.239372539399958e-05 0  140.2938595766581 7.500042746568269 0  145.2938410327836 3.838341553044575e-07 0  145.293880658898 7.499997948395055 0  150.2938898274046 -1.933460552264309e-05 0  150.2939025448446 7.499971090956759 0  160.2938926261462 1.139414735022394e-18 0  165.2937836620861 -0.0001230360204711147 0  165.2938724490108 7.499862116421379 0  160.2939085846168 7.499963433370209 0  170.2937134827938 -0.0002419811848104298 0  170.2938357533729 7.499750410486679 0  175.2936660863779 -0.0003576427115466974 0  175.2938037657054 7.49963796443783 0  180.293632913983 -0.0004699416519055218 0  180.2937773231549 7.499527363444599 0  185.2936090390907 -0.0005790728287397514 0  185.2937559521204 7.499419206619298 0  190.2935914879997 -0.0006853976713906948 0  190.2937388551773 7.499313466249779 0  195.2935783921367 -0.0007893044643259456 0  195.2937252415395 7.499209921698826 0  200.2935685311346 -0.000891145174114238 0  200.2937144275328 7.499108312513652 0  205.2935610775433 -0.0009912183064119799 0  205.2937058531233 7.499008392055735 0  210.2935554502861 -0.001089770991815269 0  210.2936990697783 7.49890994325385 0  215.2935512282781 -0.001187007019682068 0  215.2936937210519 7.49881278007995 0  220.2935480980243 -0.001283095434655259 0  220.2936895237575 7.498716744202924 0  225.2935458208219 -0.001378177922382092 0  225.2936862521039 7.498621700549183 0  230.2935442115498 -0.001472374660361374 0  230.2936837250915 7.498527533125022 0  235.2935431244912 -0.00156578880801594 0  235.2936817967489 7.498434141488459 0  240.293542443548 -0.001658509927783173 0  240.2936803486432 7.49834143788976 0  245.2935420752864 -0.001750616612289166 0  245.2936792841364 7.498249344978394 0  250.2935419438583 -0.00184217854017433 0  250.2936785239657 7.498157793950945 0  255.2935419872129 -0.001933258130578647 0  255.2936780028273 7.498066723025246 0  260.2935421542147 -0.002023911924058401 0  260.2936776667155 7.497976076145386 0  265.2935424024376 -0.002114191786640935 0  265.2936774708536 7.497885801840915 0  270.293542696469 -0.002204146011411667 0  270.2936773780859 7.497795852179359 0  275.293543006655 -0.002293820374609441 0  275.2936773576401 7.497706181765742 0  280.2935433082377 -0.00238325918496409 0  280.2936773842077 7.497616746758894 0  285.2935435809243 -0.002472506335983378 0  285.2936774372776 7.49752750389857 0  290.2935438089567 -0.002561606310515924 0  290.2936775007024 7.497438409580153 0  295.2935439818559 -0.002650604948802738 0  295.2936775624312 7.497349419090442 0  300.2935440960595 -0.002739549462595596 0  300.2936776143575 7.49726048625004 0  305.2935441577315 -0.002828486360408902 0  305.2936776522453 7.497171563896356 0  310.2935441868563 -0.002917453766096571 0  310.2936776759095 7.497082605752441 0  5.29382754630466 15.00229554787654 0  0.2938275150001812 15.00238140585757 0  10.29382762037516 15.00220954919776 0  15.29382776115837 15.00212338409632 0  20.29382798816619 15.00203703688098 0  25.29382831984586 15.0019505013661 0  30.29382877524738 15.00186377937569 0  35.29382937477406 15.00177687915731 0  40.29383014052379 15.00168981414084 0  45.29383109648096 15.00160260218565 0  50.29383226867404 15.00151526533638 0  55.2938336853341 15.00142783007285 0  60.29383537704898 15.00134032804886 0  65.29383737688406 15.00125279734243 0  70.29383972041926 15.00116528428052 0  75.29384244563653 15.0010778459526 0  80.2938455925559 15.00099055359258 0  85.29384920248972 15.00090349709529 0  90.29385331672145 15.00081679105171 0  95.29385797435268 15.00073058284817 0  100.2938632089741 15.00064506359301 0  105.2938690437401 15.00056048292016 0  110.2938754843919 15.00047716905732 0  115.2938825099128 15.00039555585935 0  120.2938900610377 15.00031621853182 0  125.2938980282876 15.00023991877872 0  130.2939062444763 15.00016765620594 0  135.2939144932161 15.00010071105815 0  140.2939225564541 15.00004063036822 0  145.2939303385091 14.99998901513691 0  150.2939380965065 14.99994666876578 0  165.293937248495 14.99982264306119 0  160.2939454017607 14.99990960004479 0  170.293924557249 14.99972462333211 0  175.293909771538 14.99962135594968 0  180.2938949454046 14.9995165298889 0  185.2938812002544 14.99941198218952 0  190.2938690134717 14.99930852323205 0  195.2938584981242 14.99920644892444 0  200.2938495827271 14.99910580981973 0  205.2938421141531 14.9990065461224 0  210.2938359128004 14.99890855380472 0  215.2938308003094 14.99881171610305 0  220.2938266121999 14.99871591784204 0  225.29382320255 14.9986210513739 0  230.2938204446799 14.99852701852041 0  235.2938182299852 14.99843373068484 0  240.2938164660313 14.99834110818469 0  245.2938150744751 14.99824907930103 0  250.2938139890828 14.99815757926593 0  255.2938131539499 14.9980665492766 0  260.2938125219575 14.99797593556232 0  265.2938120534605 14.99788568850114 0  270.2938117151875 14.99779576177287 0  275.293811479316 14.99770611153272 0  280.2938113226921 14.99761669559313 0  285.2938112261604 14.9975274726092 0  290.2938111739435 14.99743840126999 0  295.2938111530531 14.99734943949193 0  300.2938111526876 14.9972605435461 0  305.2938111636541 14.99717166679151 0  310.2938111779176 14.99708275682659 0  5.293956082194454 22.50229579956959 0  0.2939560481432301 22.50238148715329 0  10.2939561528902 22.50220989157545 0  15.2939562823235 22.50212377218748 0  20.2939564858667 22.5020374482019 0  25.2939567755173 22.50195092751153 0  30.29395716194237 22.50186422055143 0  35.29395765561152 22.50177734080991 0  40.29395826733963 22.50169030498729 0  45.29395900846609 22.50160313314124 0  50.29395989080986 22.50151584900639 0  55.29396092646876 22.50142848059365 0  60.29396212748403 22.50134106114259 0  65.29396350535715 22.50125363049635 0  70.29396507037841 22.50116623698294 0  75.2939668307073 22.50107893991726 0  80.29396879112286 22.50099181287698 0  85.2939709513462 22.50090494795743 0  90.29397330382811 22.50081846126875 0  95.29397583089724 22.50073250000202 0  100.2939785012105 22.50064725143657 0  105.2939812655581 22.50056295425181 0  110.2939840523286 22.50047991234414 0  115.2939867634183 22.50039851083955 0  120.2939892722178 22.50031923272596 0  125.2939914266668 22.50024267171275 0  130.2939930622346 22.500169531036 0  135.2939940314695 22.50010058625331 0  140.2939942560831 22.50003656841037 0  145.293993797267 22.499977889153 0  150.2939929025771 22.49992409997848 0  165.2940048495429 22.49977984785262 0  160.2939990087501 22.49985955266802 0  170.2940062294598 22.49969099213211 0  175.2940041003249 22.49959614464299 0  180.2939996854721 22.49949797682959 0  185.2939940683359 22.49939836389571 0  190.2939880330748 22.49929846695697 0  195.2939820822354 22.49919894510224 0  200.2939765060196 22.49910014072456 0  205.2939714505164 22.49900220777967 0  210.2939669703939 22.49890519255499 0  215.2939630655889 22.49880908218231 0  220.2939597054051 22.49871383296776 0  225.2939568437171 22.498619386596 0  230.2939544282314 22.49852567921146 0  235.2939524059238 22.49843264637225 0  240.2939507260737 22.49834022563299 0  245.2939493418259 22.49824835777337 0  250.2939482108667 22.49815698725669 0  255.2939472955863 22.49806606225119 0  260.2939465629482 22.49797553440327 0  265.2939459842068 22.4978853584685 0  270.2939455345418 22.49779549185944 0  275.293945192659 22.49770589414387 0  280.2939449403582 22.49761652651065 0  285.293944762076 22.49752735121018 0  290.2939446443801 22.49743833095885 0  295.293944575403 22.49734942825843 0  300.2939445441698 22.49726060448527 0  305.293944
[...]
<PointData  Scalars="p"> 
<DataArray  type="Float64"  Name="p"  format="ascii">1.0000000000000001e-01  1.0000000000000003e-01  1.0000372063596624e-01  1.0000000000000003e-01  1.0000000000000003e-01  1.0000362868201459e-01  1.0000000000000003e-01  1.0000548246031293e-01  1.0000000000000003e-01  1.0000611493499995e-01  1.0000000000000003e-01  1.0000739381964577e-01  1.0000000000000003e-01  1.0000999642861044e-01  1.0000000000000003e-01  1.0001079628630800e-01  1.0000000000000003e-01  1.0001257670783183e-01  1.0000000000000003e-01  1.0001555738729927e-01  1.0000000000000003e-01  1.0001505061662352e-01  1.0000000000000003e-01  1.0002424585053174e-01  1.0000000000000003e-01  1.0002770192663783e-01  1.0000000000000003e-01  1.0003250475773781e-01  1.0000000000000003e-01  1.0003594362411929e-01  1.0000000000000003e-01  1.0004429283618911e-01  1.0000000000000003e-01  1.0004733769322591e-01  1.0000000000000003e-01  1.0005395066206542e-01  1.0000000000000003e-01  1.0006390898628584e-01  1.0000000000000003e-01  1.0006726730891150e-01  1.0000000000000003e-01  1.0007814228819858e-01  1.0000000000000003e-01  1.0008506899354846e-01  1.0000000000000003e-01  1.0009736932777952e-01  1.0000000000000003e-01  1.0009644158054934e-01  1.0000000000000003e-01  1.0012576339810889e-01  1.0000000000000003e-01  1.0010221727753556e-01  1.0000000000000003e-01  1.0016128865309448e-01  1.0000000000000003e-01  1.0009825004789440e-01  1.0000000000000003e-01  1.0020880921754405e-01  1.0000000000000003e-01  1.0008025217617286e-01  1.0000000000000001e-01  1.0028634598318593e-01  1.0000000000000001e-01  1.0000000000000003e-01  9.9800588992560779e-02  9.9552932876833963e-02  1.0000000000000003e-01  9.9956978218042072e-02  1.0000000000000003e-01  9.9845105526491437e-02  1.0000000000000003e-01  9.9908436185009414e-02  1.0000000000000003e-01  9.9891079948838002e-02  1.0000000000000003e-01  9.9907820996683078e-02  1.0000000000000003e-01  9.9901939055154099e-02  1.0000000000000003e-01  9.9916164642041033e-02  1.0000000000000003e-01  9.9914898510816891e-02  1.0000000000000003e-01  9.9920212706907957e-02  1.0000000000000003e-01  9.9924626690661919e-02  1.0000000000000003e-01  9.9927796829532983e-02  1.0000000000000003e-01  9.9930024888569405e-02  1.0000000000000003e-01  9.9934106219360511e-02  1.0000000000000003e-01  9.9935995450637291e-02  1.0000000000000003e-01  9.9938028670836468e-02  1.0000000000000003e-01  9.9940512877722792e-02  1.0000000000000003e-01  9.9942160101189503e-02  1.0000000000000003e-01  9.9943363239028429e-02  1.0000000000000003e-01  9.9945378685785694e-02  1.0000000000000003e-01  9.9946011317445654e-02  1.0000000000000003e-01  9.9947831071445697e-02  1.0000000000000003e-01  9.9947591168906197e-02  1.0000000000000003e-01  9.9950832883692928e-02  1.0000000000000003e-01  9.9947369762125232e-02  1.0000000000000003e-01  9.9955343505290478e-02  1.0000000000000003e-01  9.9943887614351370e-02  1.0000000000000003e-01  9.9964558248661892e-02  1.0000000000000003e-01  9.9929587067764128e-02  1.0000000000000001e-01  1.0000000000000003e-01  1.0000688226338231e-01  1.0000000000000003e-01  1.0000639291023813e-01  1.0000678498878349e-01  1.0000767568077730e-01  1.0001029990699248e-01  1.0001000855949041e-01  1.0001064258754383e-01  1.0001458436972266e-01  1.0001252179054577e-01  1.0001427953945910e-01  1.0001680337392389e-01  1.0002717242033073e-01  1.0002285203359627e-01  1.0003315553678369e-01  1.0002817786357063e-01  1.0003293585678381e-01  1.0004095715897640e-01  1.0003921307648518e-01  1.0004293844762156e-01  1.0005556958563636e-01  1.0004889717736536e-01  1.0006114498158665e-01  1.0006098063745480e-01  1.0007464092106132e-01  1.0005301619405084e-01  1.0010954530075267e-01  1.0001874356450532e-01  1.0017938317110947e-01  9.9933993193517562e-02  1.0028978040567528e-01  1.0020157257440578e-01  9.9339588938833670e-02  9.9783428571439167e-02  9.9971605242164266e-02  9.9939487802863103e-02  9.9951537283017422e-02  9.9929565782831881e-02  9.9959292981343761e-02  9.9945549626026114e-02  9.9950723228841035e-02  9.9957218310637710e-02  9.9957872713169096e-02  9.9957920556738716e-02  9.9964287502402965e-02  9.9964526311320953e-02  9.9965540753025911e-02  9.9969165805752644e-02  9.9969928361428109e-02  9.9970720749878297e-02  9.9973064383020976e-02  9.9974033275828156e-02  9.9974404234450281e-02  9.9976725704143815e-02  9.9976367831869847e-02  9.9978955279919318e-02  9.9976940640342613e-02  9.9983262485555890e-02  9.9973785957371206e-02  9.9992044840396296e-02  9.9965422857885677e-02  1.0000000000000003e-01  1.0001052842768147e-01  1.0000000000000003e-01  1.0000671741504052e-01  1.0000984672344015e-01  1.0001245569209420e-01  1.0001266472938244e-01  1.0001337167134736e-01  1.0001903119543197e-01  1.0001758572673564e-01  1.0001823744805877e-01  1.0002434245977815e-01  1.0002597556250674e-01  1.0002001367989839e-01  1.0004879333799174e-01  1.0003683097360354e-01  1.0004340511547612e-01  1.0005509012309642e-01  1.0004987041071312e-01  1.0005626991472456e-01  1.0007245862120917e-01  1.0006733562625435e-01  1.0007341464306758e-01  1.0009648549554984e-01  1.0007972184728962e-01  1.0010700306613551e-01  1.0009352152603625e-01  1.0013346668513486e-01  1.0006604098648857e-01  1.0021613325866595e-01  9.9944211801111155e-02  1.0045277058566680e-01  1.0011886705280046e-01  9.9425988905907786e-02  9.9684079691590349e-02  9.9938855682671565e-02  9.9916178568139738e-02  9.9865710822502257e-02  9.9942688816872849e-02  9.9899432382432388e-02  9.9912154882577944e-02  9.9924910082675775e-02  9.9924064537749907e-02  9.9922405354278210e-02  9.9935420109361239e-02  9.9934194484088384e-02  9.9935799186134322e-02  9.9943024235873895e-02  9.9943898246633217e-02  9.9944731032410208e-02  9.9949669614850675e-02  9.9950460722380813e-02  9.9951653020349474e-02  9.9954500395464413e-02  9.9956105418392269e-02  9.9956123762275487e-02  9.9960043831562262e-02  9.9958123462469170e-02  9.9963987469126950e-02  9.9957175396521339e-02  9.9973201133690945e-02  9.9945264229052921e-02  1.0000000000000003e-01  1.0001284033493799e-01  1.0000000000000003e-01  1.0000803973282030e-01  1.0001412244794015e-01  1.0001322508509297e-01  1.0001409685884753e-01  1.0002012914370099e-01  1.0001861829399791e-01  1.0001929167859261e-01  1.0002676668767375e-01  1.0002378976256351e-01  1.0002382752516220e-01  1.0004010096125542e-01  1.0002318387948660e-01  1.0004871231145514e-01  1.0005275772477779e-01  1.0004877495934268e-01  1.0004967432656425e-01  1.0006921115116557e-01  1.0005720655051802e-01  1.0006750101429698e-01  1.0008331834556436e-01  1.0007863474438460e-01  1.0007713042076093e-01  1.0011489009410572e-01  1.0006839342689049e-01  1.0014032565957107e-01  1.0004425056320514e-01  1.0022006078592693e-01  9.9907146455148865e-02  1.0047840937433727e-01  1.0010973364466548e-01  9.9281031801180628e-02  9.9798678429172311e-02  9.9973628529202163e-02  9.9771886727471240e-02  1.0000397795210238e-01  9.9887315780174513e-02  9.9921636655810095e-02  9.9928934546542308e-02  9.9930451362625169e-02  9.9921495342812666e-02  9.9942745067036459e-02  9.9937298439785258e-02  9.9938715801152586e-02  9.9948371049400950e-02  9.9948898778509404e-02  9.9949286717868749e-02  9.9956098150256745e-02  9.9956702014940363e-02  9.9957448329125675e-02  9.9961943492500774e-02  9.9962558792546966e-02  9.9964192364300472e-02  9.9966029623046362e-02  9.9969044060041853e-02  9.9966867636866963e-02  9.9974684999828242e-02  9.9965861618809895e-02  9.9983524547789915e-02  9.9958062127996780e-02  1.0000000000000003e-01  1.0001520784083287e-01  1.0000000000000003e-01  1.0001071846579236e-01  1.0001482463045512e-01  1.0001404011847642e-01  1.0002100992671881e-01  1.0001929846313330e-01  1.0002069441011649e-01  1.0002902427702390e-01  1.0002571469018015e-01  1.0002579318721909e-01  1.0004001926538970e-01  1.0003163877776711e-01  1.0003946802085184e-01  1.0004024154634085e-01  1.0006008516350590e-01  1.0005221901256851e-01  1.0007544928464808e-01  1.0006014631009312e-01  1.0006761990353728e-01  1.0009164226072945e-01  1.0007462636033480e-01  1.0009005328688997e-01  1.0010455342336673e-01  1.0010650310618088e-01  1.0008607919792832e-01  1.0016249142027127e-01  1.0004233673811172e-01  1.0024909301063610e-01  9.9893819454193455e-02  1.0055288958432121e-01  1.0023596535356798e-01  9.9192505430207481e-02  9.9729189782267469e-02  9.9898613545056289e-02  9.9883721766840322e-02  9.9862835694832092e-02  9.9905113813940835e-02  9.9911462041045548e-02  9.9921641276119091e-02  9.9893591929533371e-02  9.9932497627650718e-02  9.9919233556398937e-02  9.9920981609368881e-02  9.9934876431305289e-02  9.9934442694780204e-02  9.9933584168112849e-02  9.9944414739387186e-02  9.9944478264670816e-02  9.9945187584440126e-02  9.9951487305253689e-02  9.9952594314050278e-02  9.9953098487630218e-02  9.9957955216164032e-02  9.9958168293571167e-02  9.9960981900685877e-02  9.9961139094422100e-02  9.9967172803304999e-02  9.9960052645839875e-02  9.9977288680244927e-02  9.9951051842691305e-02  1.0000000000000003e-01  1.0001799892204428e-01  1.0000000000000003e-01  1.0001097491548798e-01  1.0001601167405488e-01  1.0001935181900845e-01  1.0001995727632833e-01  1.0002048032300642e-01  1.0002897947443760e-01  1.0002684077281952e-01  1.0002662388728682e-01  1.0003872189376972e-01  1.0003391987149564e-01  1.0003660835003662e-01  1.0004925443222304e-01  1.0004690824409730e-01  1.0003053784067251e-01  1.0008698842502479e-01  1.0005785764171496e-01  1.0006863117876179e-01  1.0008935035486130e-01  1.0007392977405045e-01  1.0007854442318916e-01  1.0011490706117940e-01  1.0008187380403165e-01  1.0011322602474733e-01  1.0010566007680967e-01  1.0014650593088663e-01  1.0004276760028880e-01  1.0027377691166489e-01  9.9855393742427870e-02  1.0061172804302139e-01  1.0020974661980818e-01  9.9232141311804106e-02  9.9666348042136282e-02  1.0000914781060312e-01  9.9843197484417195e-02  9.9873621272305257e-02  9.9863375394463383e-02  9.9953350135502564e-02  9.9866686862804518e-02  9.9945457454393927e-02  9.9910084995478973e-02  9.9915707498978282e-02  9.9932780979304886e-02  9.9932134245824866e-02  9.9927889958183899e-02  9.9943512149344285e-02  9.9941925895834199e-02  9.9942241405144683e-02  9.9951480546255758e-02  9.9951920147208814e-02  9.9952386022019224e-02  9.9958166094528469e-02  9.9959615980325531e-02  9.9959605350404504e-02  9.9965325066761659e-02  9.9963570161597973e-02  9.9970104816178254e-02  9.9963869557659540e-02  9.9980425330472092e-02  9.9955983386763120e-02  1.0000000000000003e-01  1.0001951536938317e-01  1.0000000000000003e-01  1.0001146689944311e-01  1.0002077433533693e-01  1.0001858191758169e-01  1.0002069142506603e-01  1.0002800659288083e-01  1.0002713154343353e-01  1.0002691978197460e-01  1.0003889193980613e-01  1.0003386272815430e-01  1.0003571303806673e-01  1.0005172134603228e-01  1.0004507793584592e-01  1.0004123237457219e-01  1.0007089640916186e-01  1.0003562352087389e-01  1.0007934023483747e-01  1.0009061132629325e-01  1.0007538490440507e-01  1.0007968466860352e-01  1.0011006785093933e-01  1.0009001842468811e-01  1.0009176824499223e-01  1.0014343336637663e-01  1.0008307810410033e-01  1.0015724419426765e-01  1.0006814799572672e-01  1.0026235427807299e-01  9.9854232757620412e-02  1.0066581860997387e-01  1.0018483427547550e-01  9.9165699791019607e-02  9.9734883094967683e-02  9.9970613783946907e-02  9.9799524116118948e-02  9.9925401186618273e-02  9.9883195480082371e-02  9.9825174424976279e-02  9.9957025257151777e-02  9.9893239460152730e-02  9.9909430206409591e-02  9.9920876943115022e-02  9.9925177496688708e-02  9.9914508820699854e-02  9.9937031712198379e-02  9.9933142238505399e-02  9.9932493257521376e-02  9.9944140500191361e-02  9.9945014888859277e-02  9.9944722412440165e-02  9.9953009841523652e-02  9.9953453605743328e-02  9.9954765614914065e-02  9.9958958383992630e-02  9.9961804750953481e-02  9.9960429842111134e-02  9.9968463791169387e-02  9.9961648418563753e-02  9.9978023560120810e-02  9.9954170897625705e-02  1.0000000000000003e-01  1.0002092405495237e-01  1.0000000000000003e-01  1.0001397851241098e-01  1.0002049648487932e-01  1.0001885920557212e-01  1.0002706560854809e-01  1.0002572850905285e-01  1.0002664759696665e-01  1.0003754723158190e-01  1.0003354481569592e-01  1.0003401718221316e-01  1.0005031693945333e-01  1.0004392464952289e-01  1.0004368437738050e-01  1.0006648822563524e-01  1.0004741999099949e-01  1.0005964849316223e-01  1.0006102100780469e-01  1.0008844122553159e-01  1.0007475126110940e-01  1.0011578255572179e-01  1.0008037551792247e-01  1.0009772035554793e-01  1.0012410340939459e-01  1.0011189789633311e-01  1.0008896327218454e-01  1.0018987453396448e-01  1.0003749519494606e-01  1.0027567351869493e-01  9.9863779143836456e-02  1.0067686721367733e-01  1.0026388746824233e-01  9.9096636121414575e-02  9.9695842602422133e-02  9.9934961123489693e-02  9.9860306282494246e-02  9.9915955763427933e-02  9.9837379485197067e-02  9.9917878656373152e-02  9.9854095832161677e-02  9.9924410936828245e-02  9.9906831006866689e-02  9.9931246145625707e-02  9.9900605668248488e-02  9.9936750117577730e-02  9.9927601764606300e-02  9.9926744409174692e-02  9.9941258322782264e-02  9.9941195671012867e-02  9.9939352392630049e-02  9.9950795548883725e-02  9.9951329310129677e-02  9.9951295532381079e-02  9.9958656192647558e-02  9.9958885353980995e-02  9.9961346383505914e-02  9.9963101459679501e-02  9.9969205299307362e-02  9.9962572907095426e-02  9.9979646137013725e-02  9.9956347492803979e-02  1.0000000000000003e-01  1.0002292974034346e-01  1.0000000000000003e-01  1.0001366063720311e-01  1.0002077485308905e-01  1.0002362339681381e-01  1.0002546524687564e-01  1.0002505768210780e-01  1.0003538281844622e-01  1.0003300248572966e-01  1.0003294668695481e-01  1.0004663877383557e-01  1.0004293411104917e-01  1.0004264662353388e-01  1.0006339147082190e-01  1.0005135385506275e-01  1.0005348843211324e-01  1.0007389933085074e-01  1.0006610232123733e-01  1.0004102770871932e-01  1.0012740174452092e-01  1.0008092222082514e-01  1.0009215257076186e-01  1.0013331428847254e-01  1.0008898182529684e-01  1.0011728850001182e-01  1.0012996094091589e-01  1.0015127897970370e-01  1.0004455863094333e-01  1.0031166554987425e-01  9.9829293141967396e-02  1.0070235584717790e-01  1.0026130384586944e-01  9.9117706736781414e-02  9.9650145602991166e-02  9.9995080860238686e-02  9.9837891658925232e-02  9.9872072261110917e-02  9.9896689810860140e-02  9.9894556131083986e-02  9.9866005667147595e-02  9.9874609878263437e-02  9.9947110855472240e-02  9.9880960145976944e-02  9.9940770270786350e-02  9.9917838139168616e-02  9.9919739718643624e-02  9.9935705260177435e-02  9.9936900465437628e-02  9.9931842478743760e-02  9.9946508942803158e-02  9.9945826643809757e-02  9.9945923330708522e-02  9.9954797864522202e-02  9.9956254925114438e-02  9.9955730832681597e-02  9.9963148675544178e-02  9.9961802098471678e-02  9.9967551409353150e-02  9.9963303611059109e-02  9.9978741919515793e-02  9.9956163069664802e-02  1.0000000000000003e-01  1.0002372623473534e-01  1.0000000000000003e-01  1.0001362685437500e-01  1.0002471333705276e-01  1.0002228224789847e-01  1.0002496748265002e-01  1.0003242989615564e-01  1.0003186984893860e-01  1.0003166475079966e-01  1.0004419959290381e-01  1.0004034546764011e-01  1.0004035212697117e-01  1.0005990545332570e-01  1.0005137028065483e-01  1.0005077176236535e-01  1.0007464436613459e-01  1.0006182043355484e-01  1.0005370244570584e-01  1.0010083970385669e-01  1.0004275272984131e-01  1.0010697976075790e-01  1.0012453058967907e-01  1.0009998136278261e-01  1.0009400424511566e-01  1.0016275598509050e-01  1.0008248470623674e-01  1.0015731904187043e-01  1.0008829823902896e-01  1.0026971121086584e-01  9.9832930790888438e-02  1.0074565759909104e-01  1.0024000006537148e-01  9.9086692853025390e-02  9.9691402537887469e-02  9.9984528193347702e-02  9.9797395537568237e-02  9.9925698102061949e-02  9.9880014033130113e-02  9.9871287866709818e-02  9.9899145555605168e-02  9.9906961508053130e-02  9.9844198603206286e-02  9.9958837424400149e-02  9.9905427651919135e-02  9.9921380762757417e-02  9.9928126696254699e-02  9.9935621344506925e-02  9.9924890923017123e-02  9.9944628961125312e-02  9.9942628951486298e-02  9.9940770735472376e-02  9.9951804869548411e-02  9.9953116969716801e-02  9.9953275523348262e-02  9.9960039554020524e-02  9.9962601068675508e-02  9.9961097602622367e-02  9.9969848780070675e-02  9.9963829676594285e-02  9.9978932831868997e-02  9.9957863314848738e-02  1.0000000000000003e-01  1.0002437592247140e-01  1.0000000000000003e-01  1.0001542827480406e-01  1.0002383268057576e-01  1.0002155108465714e-01  1.0003033473165046e-01  1.0002933296539107e-01  1.0003034757375709e-01  1.0004079274479230e-01  1.0003830090612709e-01  1.0003746009574849e-01  1.0005490862611745e-01  1.0004882924149085e-01  1.0004854138205724e-01  1.0007106360138857e-01  1.0005895750729174e-01  1.0005638370189668e-01  1.0009038991049853e-01  1.0006014129796742e-01  1.0007472451268544e-01  1.0008307468596531e-01  1.0010969018589468e-01  1.0009738842016512e-01  1.0014784099346948e-01  1.0010829050516165e-01  1.0009177213660678e-01  1.0020640286414627e-01  1.0003724203626298e-01  1.0027044854337167e-01  9.9881962792430334e-02  1.0070154784130586e-01  1.0029143890539040e-01  9.9029877479002271e-02  9.9680985153708976e-02  9.9952119883386328e-02  9.9840992157071165e-02  9.9915400709524066e-02  9.9846270785613131e-02  9.9909656874019273e-02  9.9900068519114621e-02  9.9872670189206425e-02  9.9915921049812367e-02  9.9876899621120216e-02  9.9933898382207856e-02  9.9916652948175741e-02  9.9940302659124194e-02  9.9914319817324695e-02  9.9943634557364297e-02  9.9938179195324023e-02  9.9936397022330384e-02  9.9948927826884151e-02  9.9949623200585161e-02  9.9947465736627744e-02  9.9958333774155861e-02  9.9958537449598678e-02  9.9960302428643261e-02  9.9963849710313663e-02  9.9969397693801088e-02  9.9963325673512321e-02  9.9979679201235253e-02  9.9958484218878180e-02  1.0000000000000003e-01  1.0002575140766144e-01  1.0000000000000003e-01  1.0001492061149871e-01  1.0002346004573470e-01  1.0002539783513548e-01  1.0002832016804233e-01  1.0002776818317201e-01  1.0003779419934301e-01  1.0003631380113814e-01  1.0003556592027646e-01  1.0004938329443781e-01  1.0004635280619169e-01  1.0004534552774977e-01  1.0006556877324570e-01  1.0005749387315167e-01  1.0005412013737487e-01  1.0008386298065054e-01  1.0006431020655147e-01  1.0006558675210804e-01  1.0009563943349822e-01  1.0008177327284795e-01  1.0004307547939484e-01  1.0017084726423783e-01  1.0008769187170155e-01  1.0012196413775254e-01  1.0014747834187648e-01  1.0014184975178191e-01  1.0004322164475121e-01  1.0032522322326171e-01  9.9830121148023296e-02  1.0069559481429134e-01  1.0031060380624510e-01  9.9041971057270417e-02  9.9640822112440172e-02  9.9993176730164932e-02  9.9837034590690904e-02  9.9882445271832085e-02  9.9885107255631364e-02  9.9906576607488751e-02  9.9867164376100534e-02  9.9916454320883460e-02  9.9905186165297685e-02  9.9893370450875041e-02  9.9889096581945280e-02  9.9957827033369723e-02  9.9900781518243428e-02  9.9949055450335653e-02  9.9932199497475449e-02  9.9933371863313664e-02  9.9946049823497779e-02  9.9948320508222957e-02  9.9943779449541373e-02  9.9955394837490261e-02  9.9956171903968660e-02  9.9955689370658213e-02  9.9964640455511664e-02  9.9963837583035217e-02  9.9968449730930095e-02  9.9965980522940159e-02  9.9979876148933305e-02  9.9959612743243359e-02  1.0000000000000003e-01  1.0002591510721014e-01  1.0000000000000003e-01  1.0001437006446866e-01  1.0002623819920392e-01  1.0002358723595617e-01  1.0002689685825115e-01  1.0003340211457418e-01  1.0003393532288793e-01  1.0003351068174408e-01  1.0004520470210658e-01  1.0004236228550226e-01  1.0004205713889368e-01  1.0005974812923575e-01  1.0005418573533477e-01  1.0005086810416647e-01  1.0007670865853072e-01  1.0006407102088420e-01  1.0005973429790668e-01  1.0009461347335426e-01  1.0007346719829995e-01  1.0006112222888035e-01  1.0012660595613633e-01  1.0004680628231015e-01  1.0011953704646047e-01  1