<?xml version="1.0"?>
<VTKFile type="UnstructuredGrid"  version="0.1"  >
<UnstructuredGrid>
<Piece  NumberOfPoints="1933" NumberOfCells="3640">
<Points>
<DataArray  type="Float64"  NumberOfComponents="3"  format="ascii">0.2940268143345425 -0.001287076252854234 0  5.294026840300488 -0.001253876147852818 0  5.293977030634456 7.498746184570139 0  0.293976995896049 7.498712970652178 0  10.29402688511806 -0.001220721417260917 0  10.2939770876675 7.498779340819638 0  15.2940269729919 -0.001187606533921405 0  15.29397717550933 7.498812453633849 0  20.29402712382342 -0.001154510713350123 0  20.29397730082698 7.498845546717259 0  25.2940273521087 -0.001121405481996837 0  25.29397746843715 7.498878649482224 0  30.29402766751439 -0.001088258154319101 0  30.29397768102549 7.498911794840847 0  35.29402807575399 -0.001055033316481182 0  35.29397793893295 7.498945018180075 0  40.29402857932985 -0.001021693256184612 0  40.29397823999474 7.498978357102572 0  45.29402917802822 -0.0009881977937596226 0  45.29397857936004 7.499011851655998 0  50.29402986915785 -0.0009545037368498359 0  50.2939789492269 7.499045544894265 0  55.294030647544 -0.0009205640574588307 0  55.29397933843759 7.499079483696862 0  60.29403150528301 -0.0008863268178880357 0  60.29397973188397 7.499113719827916 0  65.29403243124275 -0.0008517338234275307 0  65.2939801096632 7.499148311257469 0  70.29403341026199 -0.0008167189392370305 0  70.293980445909 7.499183323801987 0  75.29403442196673 -0.0007812059665581906 0  75.29398070719334 7.499218833176251 0  80.29403543905653 -0.0007451059204780448 0  80.29398085035342 7.499254927589775 0  85.29403642482566 -0.0007083134783226732 0  85.29398081953933 7.499291711071742 0  90.29403732952422 -0.0006707022620745654 0  90.29398054220077 7.499329307771069 0  95.29403808491027 -0.000632118463200794 0  95.29397992363501 7.499367867550058 0  100.2940385958797 -0.0005923720922945809 0  100.2939788396166 7.499407573254008 0  105.2940387272499 -0.000551224815770535 0  105.2939771265653 7.499448650046388 0  110.294038282296 -0.0005083729177267166 0  110.2939745688005 7.499491377019304 0  115.2940369669304 -0.0004634234502364999 0  115.2939708829905 7.499536100618444 0  120.2940343284072 -0.000415861368743459 0  120.2939657015886 7.499583247560069 0  125.2940296481207 -0.0003650062580462671 0  125.293958561417 7.499633330336413 0  130.2940217506969 -0.0003099617631956642 0  130.2939489138708 7.499686927878848 0  135.2940086591796 -0.0002495769403048175 0  135.293936196395 7.499744601148337 0  140.2939869653016 -0.000182491616972246 0  140.2939200553761 7.4998066581338 0  145.293950666246 -0.0001075176585674193 0  145.2939009195028 7.499872611000703 0  150.2938889657704 -2.528745113893937e-05 0  150.2938813668591 7.499940159169485 0  160.2938926261463 1.399329721576264e-18 0  165.2938822658504 -3.847917639422107e-05 0  165.2938910173509 7.499952128667523 0  160.2938900176939 7.49997758868859 0  170.2938858186455 -5.833611267076137e-05 0  170.2938917176479 7.499937191661253 0  175.2938950062746 -6.5481639728866e-05 0  175.2938938240807 7.499932257857519 0  180.2939060615638 -6.347994446494521e-05 0  180.2938972647713 7.499935352461685 0  185.2939172572246 -5.476351422672792e-05 0  185.293901592368 7.499944635270708 0  190.2939278314191 -4.105154064230914e-05 0  190.293906374941 7.499958648580207 0  195.2939374853682 -2.357567891381733e-05 0  195.2939112863853 7.499976287547376 0  200.2939461405724 -3.22850731603421e-06 0  200.2939161063613 7.499996724090496 0  205.2939538199714 1.933459653929016e-05 0  205.2939206974124 7.500019336519392 0  210.2939605896885 4.362539041098581e-05 0  210.2939249809321 7.500043654523525 0  215.2939665307248 6.927461913124825e-05 0  215.2939289178536 7.500069318557758 0  220.2939717255314 9.599879945209938e-05 0  220.2939324946628 7.50009605049146 0  225.2939762519753 0.0001235771052573894 0  225.2939357137775 7.500123632507451 0  230.2939801809668 0.0001518350827473642 0  230.293938587143 7.500151891881223 0  235.2939835758781 0.0001806330113477579 0  235.2939411320694 7.500180689912131 0  240.2939864928134 0.0002098574579608059 0  240.2939433685906 7.500209913788728 0  245.2939889812739 0.0002394150572324769 0  245.2939453178367 7.500239470542427 0  250.2939910849802 0.0002692278704965863 0  250.293947001083 7.50026928250588 0  255.2939928427588 0.0002992298884725159 0  255.2939484392496 7.500299283874818 0  260.2939942894411 0.0003293643865083885 0  260.2939496526942 7.500329418099852 0  265.2939954567775 0.000359581942227037 0  265.2939506612053 7.500359635926777 0  270.2939963743581 0.0003898390017253973 0  270.2939514841268 7.500389893973884 0  275.2939970705756 0.000420096945305095 0  275.293952140549 7.500420153793387 0  280.2939975736172 0.0004503216685546427 0  280.2939526495388 7.500450381418827 0  285.2939979124969 0.0004804837712068292 0  285.2939530303412 7.50048054745838 0  290.2939981180461 0.0005105595485893517 0  290.2939533025203 7.500510627860064 0  295.2939982237014 0.000540533124462377 0  295.2939534859826 7.500540605548863 0  300.2939982656548 0.0005704002574592258 0  300.2939536008901 7.500570473211611 0  305.2939982814254 0.000600174540373098 0  305.2939536676369 7.500600237569675 0  310.2939983047787 0.0006298964938511872 0  310.2939537075558 7.500629925595544 0  5.293927117926063 14.99874631130424 0  0.2939270839787116 14.99871308455542 0  10.29392716293965 14.99877945745575 0  15.29392722359472 14.99881255389518 0  20.29392730095997 14.99884563056871 0  25.2939273942385 14.99887871874824 0  30.29392750112358 14.99891185145192 0  35.29392761766599 14.99894506352011 0  40.29392773796737 14.99897839178954 0  45.29392785379888 14.99901187546519 0  50.29392795415878 14.99904555669461 0  55.29392802474865 14.99907948133558 0  60.29392804733613 14.99911369991921 0  65.29392799896935 14.99914826882687 0  70.29392785100382 14.99918325171607 0  75.29392756790875 14.99921872124499 0  80.29392710582218 14.99925476115619 0  85.29392641085452 14.99929146878003 0  90.29392541718745 14.99932895799779 0  95.2939240451343 14.99936736263457 0  100.293922199544 14.99940684008058 0  105.2939197693553 14.9994475745649 0  110.2939166298476 14.99948977872928 0  115.2939126504325 14.99953369061261 0  120.2939077129159 14.99957956021693 0  125.2939017482829 14.9996276144098 0  130.2938948040046 14.99967797940146 0  135.2938871569289 14.9997305244039 0  140.2938794829442 14.99978456700515 0  145.2938730661456 14.99983835141526 0  150.2938699287463 14.99988816758648 0  165.2938827449392 14.99992686357047 0  160.2938804354105 14.99993310494368 0  170.2938828393276 14.99992348500435 0  175.2938823975113 14.99992495432671 0  180.2938822621784 14.99993152904696 0  185.2938827019984 14.9999426975265 0  190.2938837070932 14.99995773245461 0  195.293885160753 14.99997592352238 0  200.2938869230943 14.9999966556464 0  205.2938888665223 15.00001942271612 0  210.2938908874432 15.00004381761163 0  215.2938929073019 15.00006951564533 0  220.2938948694562 15.00009625810445 0  225.2938967349284 15.00012383810097 0  230.2938984783287 15.00015208912749 0  235.2939000844192 15.00018087606066 0  240.2939015453909 15.00021008817698 0  245.2939028587917 15.00023963375377 0  250.293904025992 15.00026943589751 0  255.2939050510698 15.00029942931909 0  260.2939059400128 15.00032955784779 0  265.2939067001537 15.00035977253405 0  270.2939073397756 15.00039003024088 0  275.2939078678289 15.00042029266362 0  280.2939082937264 15.00045052575104 0  285.2939086272042 15.0004806995268 0  290.2939088782429 15.00051078832182 0  295.2939090571402 15.00054077141213 0  300.2939091748852 15.00057063398022 0  305.293909244196 15.00060036811722 0  310.2939092818575 15.00062997312875 0  5.293877172157448 22.49874653382832 0  0.293877140890358 22.49871333140745 0  10.29387720383085 22.49877964500455 0  15.29387723610046 22.49881270383353 0  20.29387726703327 22.49884574446451 0  25.29387729313932 22.49887879947511 0  30.29387730965572 22.49891190154195 0  35.29387731052633 22.49894508433178 0  40.29387728819575 22.49897838309081 0  45.29387723330534 22.49901183517085 0  50.29387713433886 22.49904548059959 0  55.29387697723552 22.49907936273942 0  60.29387674497884 22.4991135290542 0  65.29387641717155 22.49914803199276 0  70.29387596961601 22.49918292998968 0  75.29387537394693 22.49921828857284 0  80.29387459739873 22.4992541815412 0  85.29387360285959 22.49929069212663 0  90.29387234946559 22.49932791396 0  95.29387079414852 22.49936595149208 0  100.2938688947933 22.49940491922129 0  105.293866615999 22.49944493856926 0  110.2938639388923 22.49948613039194 0  115.293860876955 22.49952859974692 0  120.2938575002225 22.49957240745948 0  125.2938539700201 22.49961752015521 0  130.2938505845519 22.49966372716173 0  135.2938478300917 22.49971051095582 0  140.2938464197646 22.49975686362175 0  145.293847277582 22.49980107135897 0  150.2938513890912 22.49984058688151 0  165.293862365354 22.49989790801317 0  160.2938603232447 22.49989074304821 0  170.2938624110022 22.49990478648666 0  175.2938613429281 22.49991335457907 0  180.2938598907272 22.49992455706533 0  185.2938585132919 22.49993864451982 0  190.2938574383994 22.4999554851643 0  195.2938567418249 22.49997477807335 0  200.2938564140775 22.49999617377659 0  205.2938564050572 22.50001933371048 0  210.2938566504691 22.50004395502528 0  215.2938570859499 22.50006977757484 0  220.293857653726 22.50009658257466 0  225.293858305067 22.5001241879006 0  230.2938590005365 22.50015244247566 0  235.2938597092111 22.50018122085343 0  240.2938604075046 22.50021041843258 0  245.2938610779285 22.50023994741263 0  250.2938617079413 22.50026973346027 0  255.2938622889505 22.50029971300316 0  260.2938628154685 22.500329831059 0  265.2938632844202 22.5003600395151 0  270.2938636945771 22.50039029578839 0  275.293864046101 22.50042056180899 0  280.2938643401939 22.50045080327771 0  285.293864578859 22.50048098914349 0  290.2938647648158 22.50051109122068 0  295.2938649016551 22.50054108380179 0  300.293864
[...]
<PointData  Scalars="p"> 
<DataArray  type="Float64"  Name="p"  format="ascii">1.0000000000000001e-01  1.0000000000000003e-01  9.9997412513488135e-02  1.0000000000000003e-01  1.0000000000000003e-01  9.9996295483951975e-02  1.0000000000000003e-01  9.9994408434493101e-02  1.0000000000000003e-01  9.9993141574313091e-02  1.0000000000000003e-01  9.9991724082123354e-02  1.0000000000000003e-01  9.9989897363483168e-02  1.0000000000000003e-01  9.9988716056800639e-02  1.0000000000000003e-01  9.9987460595423794e-02  1.0000000000000003e-01  9.9985446046766888e-02  1.0000000000000003e-01  9.9984201591424279e-02  1.0000000000000003e-01  9.9981005930785780e-02  1.0000000000000003e-01  9.9977624069545593e-02  1.0000000000000003e-01  9.9975112779230699e-02  1.0000000000000003e-01  9.9972657022981179e-02  1.0000000000000003e-01  9.9969069771362065e-02  1.0000000000000003e-01  9.9967288396072801e-02  1.0000000000000003e-01  9.9965120401642335e-02  1.0000000000000003e-01  9.9961603558496995e-02  1.0000000000000003e-01  9.9960972570443979e-02  1.0000000000000003e-01  9.9958422574159586e-02  1.0000000000000003e-01  9.9957169801576595e-02  1.0000000000000003e-01  9.9954809519665067e-02  1.0000000000000003e-01  9.9957331046589326e-02  1.0000000000000003e-01  9.9949964826030580e-02  1.0000000000000003e-01  9.9960017909725987e-02  1.0000000000000003e-01  9.9944218291097800e-02  1.0000000000000003e-01  9.9966248159802984e-02  1.0000000000000003e-01  9.9934706238152399e-02  1.0000000000000003e-01  9.9976142278635480e-02  1.0000000000000001e-01  9.9915575436704027e-02  1.0000000000000001e-01  1.0000000000000003e-01  1.0010158773307505e-01  1.0017172991601152e-01  1.0000000000000003e-01  1.0004470256650838e-01  1.0000000000000003e-01  1.0008289009295178e-01  1.0000000000000003e-01  1.0006557193122678e-01  1.0000000000000003e-01  1.0007245421579340e-01  1.0000000000000003e-01  1.0006839863324632e-01  1.0000000000000003e-01  1.0007238121564321e-01  1.0000000000000003e-01  1.0006903372364670e-01  1.0000000000000003e-01  1.0007042120755415e-01  1.0000000000000003e-01  1.0006981357547962e-01  1.0000000000000003e-01  1.0006909655541213e-01  1.0000000000000003e-01  1.0006850272916552e-01  1.0000000000000003e-01  1.0006823561345841e-01  1.0000000000000003e-01  1.0006712196285431e-01  1.0000000000000003e-01  1.0006656712659097e-01  1.0000000000000003e-01  1.0006593239776881e-01  1.0000000000000003e-01  1.0006510677679119e-01  1.0000000000000003e-01  1.0006432758498596e-01  1.0000000000000003e-01  1.0006393184255372e-01  1.0000000000000003e-01  1.0006280714661735e-01  1.0000000000000003e-01  1.0006277689652343e-01  1.0000000000000003e-01  1.0006120039001397e-01  1.0000000000000003e-01  1.0006225960463563e-01  1.0000000000000003e-01  1.0005872330491382e-01  1.0000000000000003e-01  1.0006341572596832e-01  1.0000000000000003e-01  1.0005399828009505e-01  1.0000000000000003e-01  1.0006847514350373e-01  1.0000000000000003e-01  1.0004323505678880e-01  1.0000000000000003e-01  1.0008675064959686e-01  1.0000000000000001e-01  1.0000000000000003e-01  9.9996495984676803e-02  1.0000000000000003e-01  9.9996101503195281e-02  9.9995752928926707e-02  9.9995209092704221e-02  9.9994087615693991e-02  9.9994071913019442e-02  9.9994002669017479e-02  9.9992525082792924e-02  9.9992970676951329e-02  9.9992559528770980e-02  9.9990135444045586e-02  9.9987724062800418e-02  9.9987104310497191e-02  9.9983591510947531e-02  9.9984670130001216e-02  9.9984099923876080e-02  9.9981259097047498e-02  9.9982604630490843e-02  9.9982762029765415e-02  9.9979121911367860e-02  9.9982653429622689e-02  9.9980613078818573e-02  9.9981728529734873e-02  9.9978819849425180e-02  9.9988146046151374e-02  9.9970320363186219e-02  1.0000099084982189e-01  9.9950031809809700e-02  1.0002751207396483e-01  9.9913573364700886e-02  9.9940078451059830e-02  1.0028778645636466e-01  1.0006802339966889e-01  1.0001674473180126e-01  1.0002315327011965e-01  1.0001881225991426e-01  1.0002951892393186e-01  1.0002087291347006e-01  1.0002606669194675e-01  1.0002646238299252e-01  1.0002533203849753e-01  1.0002561937426441e-01  1.0002661659897234e-01  1.0002506727476448e-01  1.0002515436286886e-01  1.0002528100290732e-01  1.0002430846270426e-01  1.0002417805005728e-01  1.0002408983011193e-01  1.0002358104593408e-01  1.0002313946501705e-01  1.0002352317236869e-01  1.0002226974530261e-01  1.0002348260537887e-01  1.0002110132440054e-01  1.0002472590039922e-01  1.0001768925231151e-01  1.0003016036758064e-01  1.0000842830976743e-01  1.0004205967628518e-01  1.0000000000000003e-01  9.9995190317018520e-02  1.0000000000000003e-01  9.9996346051644938e-02  9.9994409281695174e-02  9.9993155286646665e-02  9.9992628870816530e-02  9.9992562866723977e-02  9.9990323813776594e-02  9.9990747812888775e-02  9.9990967510871942e-02  9.9988061959989161e-02  9.9987782630007099e-02  9.9987765532636122e-02  9.9979481214956423e-02  9.9980213917925734e-02  9.9979042956372777e-02  9.9973901785352384e-02  9.9976381704188225e-02  9.9975826518267183e-02  9.9970774163686840e-02  9.9973829342495102e-02  9.9974711274713232e-02  9.9967950881291026e-02  9.9976026056729575e-02  9.9970196107200940e-02  9.9976426804855814e-02  9.9964927718310295e-02  9.9990765123793318e-02  9.9940064157014105e-02  1.0003081145001223e-01  9.9862456353388071e-02  9.9930005349325043e-02  1.0030352188602028e-01  1.0014084518603394e-01  1.0003382469286715e-01  1.0003579242909807e-01  1.0006059100440923e-01  1.0003504016340771e-01  1.0004950608317906e-01  1.0004962688831727e-01  1.0004706376005942e-01  1.0004816522387722e-01  1.0005093466436787e-01  1.0004771341397178e-01  1.0004852621818022e-01  1.0004903809251013e-01  1.0004715873616510e-01  1.0004695749657012e-01  1.0004719143350257e-01  1.0004577495413353e-01  1.0004568679419221e-01  1.0004542212607807e-01  1.0004495475924967e-01  1.0004402269480597e-01  1.0004516177294985e-01  1.0004242199529768e-01  1.0004587266506411e-01  1.0003982130695248e-01  1.0004964748007231e-01  1.0003097226960665e-01  1.0006655591194812e-01  1.0000000000000003e-01  9.9994457400648051e-02  1.0000000000000003e-01  9.9996267221791807e-02  9.9993678619449355e-02  9.9993672249618526e-02  9.9993675662210166e-02  9.9991502560364334e-02  9.9992168871880560e-02  9.9992860737037823e-02  9.9990207160679134e-02  9.9991441320164048e-02  9.9991935578249452e-02  9.9986517241104883e-02  9.9989012426083573e-02  9.9984520094528267e-02  9.9978842561814649e-02  9.9980999739223655e-02  9.9981702232560518e-02  9.9975611388663427e-02  9.9980814668792509e-02  9.9980453370598438e-02  9.9976019160570917e-02  9.9979732512846031e-02  9.9984285992251745e-02  9.9972533905841349e-02  9.9991342158321408e-02  9.9969576326317630e-02  1.0000375410992376e-01  9.9943049540922979e-02  1.0005147471070311e-01  9.9851655315418231e-02  9.9914501761143582e-02  1.0036343372694516e-01  1.0010214652394525e-01  1.0000233133662016e-01  1.0008038801490456e-01  1.0000172781262297e-01  1.0003634372746352e-01  1.0003106822666991e-01  1.0003024623291734e-01  1.0003055852750953e-01  1.0003682331393211e-01  1.0003150181437570e-01  1.0003390448994537e-01  1.0003512914939428e-01  1.0003284683779473e-01  1.0003294939664500e-01  1.0003358881890087e-01  1.0003184128552449e-01  1.0003170507073850e-01  1.0003208745266051e-01  1.0003076673270080e-01  1.0003112493261901e-01  1.0003045728930941e-01  1.0003115466778333e-01  1.0002878627123525e-01  1.0003293079441859e-01  1.0002542859390721e-01  1.0003769090390870e-01  1.0001741712674603e-01  1.0005031232502512e-01  1.0000000000000003e-01  9.9993697981186971e-02  1.0000000000000003e-01  9.9995715859687445e-02  9.9993785815152489e-02  9.9994371286100003e-02  9.9991468851220081e-02  9.9992240959522430e-02  9.9992432317966062e-02  9.9989761573881411e-02  9.9991244637300566e-02  9.9992221150562693e-02  9.9987579275707589e-02  9.9989720534200507e-02  9.9989070520639101e-02  9.9984382258128349e-02  9.9981878779830613e-02  9.9981714273630964e-02  9.9973998805998471e-02  9.9979142072099361e-02  9.9980120498356362e-02  9.9972220993382460e-02  9.9980413078954014e-02  9.9979144740800677e-02  9.9976009576997316e-02  9.9977489074913412e-02  9.9990303889070473e-02  9.9963399849038737e-02  1.0000954109695732e-01  9.9936333825748666e-02  1.0006275142380305e-01  9.9824045458733288e-02  9.9859187285241666e-02  1.0041900176805540e-01  1.0012106802452060e-01  1.0002622397535722e-01  1.0005893591954727e-01  1.0004254961530400e-01  1.0003706747124713e-01  1.0003626612071624e-01  1.0003164530978058e-01  1.0004591128518527e-01  1.0003551912462613e-01  1.0004048909915404e-01  1.0004275094413709e-01  1.0003967663398416e-01  1.0004016122714179e-01  1.0004186284218942e-01  1.0003907095602876e-01  1.0003918947426312e-01  1.0003961863357387e-01  1.0003809493038227e-01  1.0003777432230485e-01  1.0003844746127152e-01  1.0003679174584973e-01  1.0003792428974051e-01  1.0003609620353419e-01  1.0003890550412420e-01  1.0003316416050817e-01  1.0004360300430291e-01  1.0002459311460345e-01  1.0005848671575586e-01  1.0000000000000003e-01  9.9992779757980113e-02  1.0000000000000003e-01  9.9995843565553452e-02  9.9994068629828528e-02  9.9993004398149246e-02  9.9992733878397924e-02  9.9993105802025237e-02  9.9990304119864454e-02  9.9991363813533352e-02  9.9992829896004165e-02  9.9988849767814261e-02  9.9990808009800314e-02  9.9991729687438302e-02  9.9986115403919065e-02  9.9988273661644061e-02  9.9991215150400992e-02  9.9976550602962289e-02  9.9981615390027798e-02  9.9981502663433919e-02  9.9973248684820770e-02  9.9980687548120076e-02  9.9983463365728317e-02  9.9971867387964028e-02  9.9986383685671434e-02  9.9980164282679460e-02  9.9985667255259800e-02  9.9971387093173381e-02  1.0001636032475314e-01  9.9927447537762198e-02  1.0008435191115994e-01  9.9799996577154396e-02  9.9846004228035370e-02  1.0042079219952701e-01  1.0014440597026557e-01  9.9981690746093962e-02  1.0005668528496718e-01  1.0004433275482248e-01  1.0004839828118189e-01  1.0001220017139942e-01  1.0004621897406486e-01  1.0002290021416521e-01  1.0003431500709246e-01  1.0003671925365361e-01  1.0003314163324127e-01  1.0003385938595609e-01  1.0003747266820318e-01  1.0003348666873181e-01  1.0003422182520599e-01  1.0003531310998748e-01  1.0003281818689891e-01  1.0003290847981344e-01  1.0003328016342850e-01  1.0003220703733050e-01  1.0003155102619413e-01  1.0003311602495096e-01  1.0003021847983647e-01  1.0003402409455439e-01  1.0002792807175505e-01  1.0003838113424923e-01  1.0001999460151544e-01  1.0005186644124851e-01  1.0000000000000003e-01  9.9992266173994176e-02  1.0000000000000003e-01  9.9996075279050037e-02  9.9992637398542514e-02  9.9993731824667642e-02  9.9993467571018693e-02  9.9991119008621482e-02  9.9991319683161828e-02  9.9992790057961148e-02  9.9988779433379638e-02  9.9990867108184056e-02  9.9992313801866295e-02  9.9986481944236774e-02  9.9989371284851095e-02  9.9991836921497879e-02  9.9982742681415951e-02  9.9989857169078725e-02  9.9983829582864794e-02  9.9973261735121832e-02  9.9980275926221801e-02  9.9981552840408924e-02  9.9972272537925316e-02  9.9981052382718552e-02  9.9986867833523077e-02  9.9969126833007932e-02  9.9995233887615567e-02  9.9971150119274321e-02  1.0000962399218161e-01  9.9930542372935097e-02  1.0009524246306627e-01  9.9771351536415948e-02  9.9848268367942902e-02  1.0044913605892376e-01  1.0012503599908844e-01  9.9981400166063342e-02  1.0007339478341888e-01  1.0002423177092520e-01  1.0004456661746076e-01  1.0005768421467287e-01  1.0001785433580532e-01  1.0003643135497488e-01  1.0003540813722293e-01  1.0003441857902934e-01  1.0003356446757437e-01  1.0004006859072090e-01  1.0003451286395407e-01  1.0003620178493543e-01  1.0003797922268599e-01  1.0003520458350831e-01  1.0003508820518288e-01  1.0003612840147952e-01  1.0003385645920859e-01  1.0003421708427718e-01  1.0003406031242804e-01  1.0003408645225938e-01  1.0003229785107823e-01  1.0003587901730335e-01  1.0002970897886840e-01  1.0003999332946499e-01  1.0002222183806721e-01  1.0005374165823054e-01  1.0000000000000003e-01  9.9991902491517848e-02  1.0000000000000003e-01  9.9995318949082437e-02  9.9992905127408035e-02  9.9994360158965789e-02  9.9991629669798063e-02  9.9992333973976000e-02  9.9993081362939079e-02  9.9989349236153185e-02  9.9991087176255586e-02  9.9992551030579593e-02  9.9987205214944766e-02  9.9989901317220700e-02  9.9991963991810817e-02  9.9984451833566038e-02  9.9990328417322985e-02  9.9990873330932331e-02  9.9983734703403188e-02  9.9982251266147418e-02  9.9983703023384995e-02  9.9969993499142665e-02  9.9982642464570448e-02  9.9982492856256086e-02  9.9974496025771867e-02  9.9980663911792486e-02  9.9997426242132356e-02  9.9958576722246673e-02  1.0002270842179112e-01  9.9927213258072592e-02  1.0009784449463073e-01  9.9757273107765249e-02  9.9815142299564924e-02  1.0048134426537322e-01  1.0013205879459848e-01  9.9990137170484633e-02  1.0005012903496796e-01  1.0001643035462518e-01  1.0005568156845739e-01  1.0003346962380355e-01  1.0004675111910301e-01  1.0002548327753939e-01  1.0003405143364520e-01  1.0002540290515664e-01  1.0003902615905194e-01  1.0002987282688408e-01  1.0003321531407730e-01  1.0003587311358457e-01  1.0003262312920777e-01  1.0003285141569694e-01  1.0003473456675369e-01  1.0003197309816952e-01  1.0003177517852163e-01  1.0003286438935885e-01  1.0003062310892553e-01  1.0003178363923013e-01  1.0003037816612809e-01  1.0003292814574845e-01  1.0002747748678568e-01  1.0003765400532440e-01  1.0002009931584516e-01  1.0005055092411023e-01  1.0000000000000003e-01  9.9991224956303248e-02  1.0000000000000003e-01  9.9995495034196011e-02  9.9993268239449873e-02  9.9992875140131096e-02  9.9992373965170453e-02  9.9993687508348694e-02  9.9990249655977748e-02  9.9991427884072004e-02  9.9992748399669956e-02  9.9988149185023523e-02  9.9989798239365379e-02  9.9992052724622346e-02  9.9985045067463127e-02  9.9989411365261585e-02  9.9992333602921743e-02  9.9983754075540610e-02  9.9989185776698519e-02  9.9994716712957413e-02  9.9972560337775712e-02  9.9981730364863852e-02  9.9983934408707523e-02  9.9967682131947094e-02  9.9986781496876675e-02  9.9982143858708586e-02  9.9981393583470912e-02  9.9971268536978714e-02  1.0002513247455251e-01  9.9910630405763867e-02  1.0011573218987047e-01  9.9740389988834458e-02  9.9806883001993696e-02  1.0048033433766461e-01  1.0014924679113205e-01  9.9968033581538038e-02  1.0005127107256022e-01  1.0002864393839681e-01  1.0003531579279623e-01  1.0003241837736380e-01  1.0005122578266701e-01  1.0004402595923130e-01  1.0001786002493541e-01  1.0004212996633136e-01  1.0002521499110169e-01  1.0003281162431808e-01  1.0003531229607114e-01  1.0003213497665121e-01  1.0003210375467030e-01  1.0003565047528971e-01  1.0003193610155174e-01  1.0003251019498774e-01  1.0003347031961821e-01  1.0003151174742839e-01  1.0003088601949270e-01  1.0003260812558198e-01  1.0002963646848141e-01  1.0003292703109611e-01  1.0002800321643666e-01  1.0003706647450353e-01  1.0002059571908804e-01  1.0005025519957925e-01  1.0000000000000003e-01  9.9990974982517411e-02  1.0000000000000003e-01  9.9995750571915523e-02  9.9991917764761129e-02  9.9993388329806671e-02  9.9993285804186385e-02  9.9991186080300859e-02  9.9991663988831289e-02  9.9993184990177050e-02  9.9989056036795684e-02  9.9990323170464565e-02  9.9992403677411440e-02  9.9985557915653903e-02  9.9988772651297964e-02  9.9992166893818360e-02  9.9983646031925250e-02  9.9989438788888482e-02  9.9994679957870189e-02  9.9980383814931031e-02  9.9993510049684792e-02  9.9985428413685615e-02  9.9970082409335997e-02  9.9980825869608062e-02  9.9988126716672510e-02  9.9963873330785116e-02  9.9996858836632743e-02  9.9972672784170338e-02  1.0000768062622882e-01  9.9922900594550820e-02  1.0012205318617419e-01  9.9713437128853541e-02  9.9810343765063606e-02  1.0048843195759316e-01  1.0013623072055346e-01  9.9964925357227036e-02  1.0006371785112339e-01  1.0000944735298284e-01  1.0003280060718926e-01  1.0003795644851411e-01  1.0003680311279764e-01  1.0003594744456749e-01  1.0005320389184916e-01  1.0001657477204919e-01  1.0003305418983072e-01  1.0003039256070981e-01  1.0003071147049677e-01  1.0002883765939007e-01  1.0003456616502485e-01  1.0002990044177784e-01  1.0003089770282696e-01  1.0003290265240715e-01  1.0003025899500019e-01  1.0003042235747180e-01  1.0003080583750029e-01  1.0003006808063213e-01  1.0002842627642902e-01  1.0003196687701453e-01  1.0002615455719148e-01  1.0003550853445717e-01  1.0001968682008416e-01  1.0004801385866813e-01  1.0000000000000003e-01  9.9990806028958212e-02  1.0000000000000003e-01  9.9995085843136086e-02  9.9992132936625733e-02  9.9994061917371813e-02  9.9991337990608303e-02  9.9992191472261904e-02  9.9993075274446314e-02  9.9989930103747737e-02  9.9990978967332708e-02  9.9992956384671358e-02  9.9986844149105206e-02  9.9989000301407546e-02  9.9991482927199504e-02  9.9983752445083507e-02  9.9988792372965610e-02  9.9993183771488553e-02  9.9982085531376844e-02  9.9991724119805878e-02  9.9994163746877779e-02  9.9981932226364936e-02  9.9984349550231930e-02  9.9984906277668067e-02  9.9968144326303049e-02  9.9980870288752563e-02  9.9997552116405472e-02  9.9951454038231580e-02  1.0002409042683644e-01  9.9924989610230705e-02  1.0010412637181233e-01  9.9720651037201638e-02  9.9794055090059897e-02  1.0050005728561402e-01  1.0013679683115861e-01  9.9973806718136465e-02  1.0004993078436508e-01  1.0000786439549567e-01  1.0004321139725703e-01  1.0002361044369239e-01  1.0003113728169964e-01  1.0004410834209430e-01  1.0003712664715263e-01  1.0004250730383961e-01  1.0002447785070610e-01  1.0003192070774876e-01  1.0002395841971067e-01  1.0003488048624837e-01  1.0002768051271912e-01  1.0002986689485499e-01  1.0003225828397740e-01  1.0002973973394487e-01  1.0002961573007046e-01  1.0003177781561397e-01  1.0002885897920617e-01  1.0002976416503005e-01  1.0002886643917640e-01  1.0003054504262682e-01  1.0002580323009264e-01  1.0003497988282925e-01  1.0001924168536934e-01  1.0004683383336324e-01  1.0000000000000003e-01  9.9990316621633282e-02  1.0000000000000003e-01  9.9995192052277804e-02  9.9992510321907133e-02  9.9992605121639599e-02  9.9991862555496164e-02  9.9993357406271965e-02  9.9990288611873646e-02  9.9991228768975357e-02  9.9993092583366402e-02  9.9988420979126511e-02  9.9989629144387748e-02  9.9991752218837840e-02  9.9984625508825725e-02  9.9987591881902899e-02  9.9992156589843659e-02  9.9982316086838635e-02  9.9989409841265753e-02  9.9994605745146431e-02  9.9981942655843759e-02  9.9990515374681538e-02  1.0000063078762160e-01  9.9966520547058124e-02  9.9986994645763091e-02  9.9982489002992433e-02  9.9972759247623846e-02  9.9972432843235995e-02  1.0002505937119489e-01  9.9901428707576984e-02  1.0012061677710866e-01  9.9722508051169584e-02  9.9790226501082963e-02  1.0048457512279098e-01  1.0014624405785615e-01  9.9960715387688442e-02  1.0004824913975453e-01  1.0001749601901605e-01  1.0003062602560880e-01  1.0002031709672210e-01  1.0003941877206006e-01  1.0002878265128158e-01  1.0003425343264361e-01  1.0004350175562081e-01  1.0004150956593241e-01  1.0001644382316290e-01  1.0003654162969042e-01  1.0002280457063559e-01  1.0002855161493890e-01  1.0003047486372778e-01  1.0002812824326755e-01  1.0002791821606508e-01  1.0003082775385676e-01  1.0002836477327395e-01  1.0002820323601486e-01  1.0003011128274437e-01  1.0002686214824494e-01  1.0002956231099099e-01  1.0002547209545273e-01  1.0003314350901948e-01  1.0001857053491238e-01  1.0004503113276753e-01  1.0000000000000003e-01  9.9990116432904647e-02  1.0000000000000003e-01  9.9995376497785629e-02  9.9991269478583264e-02  9.9992895509330229e-02  9.9992565206325143e-02  9.9990956217073698e-02  9.9991112219850867e-02  9.9992782523193907e-02  9.9989072557598535e-02  9.9990209661010770e-02  9.9992147128778255e-02  9.9985936343203477e-02  9.9987501275315110e-02  9.9991321773848063e-02  9.9982404520780971e-02  9.9987185031336148e-02  9.9993420110386644e-02  9.9980908090946938e-02  9.9989845668378666e-02  9.9997861902886578e-02  9.9977565824316578e-02  9.9995926399770632e-02  9.9991041814376833e-02  9