<?xml version="1.0"?>
<VTKFile type="UnstructuredGrid"  version="0.1"  >
<UnstructuredGrid>
<Piece  NumberOfPoints="1933" NumberOfCells="3640">
<Points>
<DataArray  type="Float64"  NumberOfComponents="3"  format="ascii">-0.0002554496738709222 0.001451899168542584 0  4.99974458135808 0.001381610269289041 0  4.999850086973025 7.50138173034579 0  -0.0001499887562622648 7.501451940239197 0  9.999744610416254 0.001311200165461654 0  9.999850231696646 7.501311351057292 0  14.99974470204085 0.001240583224506814 0  14.99985048547963 7.501240745347154 0  19.99974493351171 0.001169733037518594 0  19.99985088919108 7.501169898619995 0  24.99974538122935 0.001098659900235081 0  24.99985148507287 7.501098826491568 0  29.99974611673272 0.001027397748872823 0  29.99985231588336 7.501027565389497 0  34.99974720670848 0.000955996541410529 0  34.9998534242834 7.500956166465915 0  39.99974871457839 0.0008845180951274052 0  39.99985485270243 7.500884692139049 0  44.9997507026269 0.0008130342421764094 0  44.99985664357627 7.500813214589522 0  49.99975323424285 0.0007416266355829715 0  49.99985883978934 7.500741815736889 0  54.9997563761265 0.0006703878367654717 0  54.9998614851794 7.500670588415362 0  59.99976020042989 0.0005994235220917363 0  59.99986462498438 7.500599638627772 0  64.99976478685063 0.0005288558036186236 0  64.999868306118 7.500529088891801 0  69.9997702247 0.0004588277979096314 0  69.99987257715237 7.500459082817899 0  74.9997766149598 0.0003895097214510804 0  74.99987748784372 7.500389791191295 0  79.99978407229604 0.000321106967020201 0  79.99988308796434 7.500321419990829 0  84.99979272692606 0.0002538708537510831 0  84.99988942510062 7.5002542209861 0  89.999802726084 0.0001881130892641909 0  89.99989654089418 7.500188505841588 0  94.99981423456309 0.0001242255033823285 0  94.9999044649624 7.500124665056169 0  99.99982743327301 6.270741748816937e-05 0  99.99991320540136 7.500063193619473 0  104.9998425137427 4.204272314849519e-06 0  104.9999227343395 7.500004726008048 0  109.9998596644846 -5.043688286198987e-05 0  109.9999329666093 7.499950084056736 0  114.9998790412452 -0.0001000863335833342 0  114.9999437295075 7.499900342162074 0  119.9999007054296 -0.00014321159496063 0  119.9999547227059 7.499856914620947 0  124.9999244997195 -0.0001776977705659436 0  124.9999654718842 7.499821668104513 0  129.9999497994653 -0.0002005789008484188 0  129.999975292879 7.4997970545396 0  134.99997501733 -0.0002076448248052839 0  134.9999833177661 7.499786238315356 0  139.9999966130784 -0.0001929138127697575 0  139.999988720704 7.499793146872237 0  145.0000070863212 -0.0001481704104600398 0  144.9999914983144 7.49982233018426 0  149.9999907387682 -6.397975709462358e-05 0  149.999994747289 7.499878806760105 0  160.0000000000014 7.560714427245414e-19 0  164.9998419879381 -0.000215482524938941 0  164.9999729230995 7.499752563632434 0  160.0000195772945 7.499924439778601 0  169.9997541894122 -0.0004010299161009839 0  169.9999255123132 7.499582810638056 0  174.9997042899376 -0.0005648714418309353 0  174.9998862841356 7.499426184549595 0  179.9996757728969 -0.0007116423230081166 0  179.9998561936482 7.499283164896723 0  184.9996597160867 -0.0008449460519003059 0  184.9998339951359 7.499151939940822 0  189.9996511235378 -0.0009676520512168314 0  189.9998180414452 7.499030429472541 0  194.9996471102692 -0.001081992484818339 0  194.9998068402931 7.498916797060004 0  199.9996459582926 -0.001189678093701772 0  199.999799187101 7.498809542861326 0  204.9996466116752 -0.001292016238884499 0  204.9997941554848 7.498707475413259 0  209.9996484004959 -0.001390011555384863 0  209.9997910479599 7.498609655111076 0  214.9996508866379 -0.00148444419791635 0  214.9997893434319 7.498515339000741 0  219.999653775563 -0.001575927969075803 0  219.9997886528021 7.498423935009414 0  224.9996568644848 -0.001664952657850733 0  224.9997886845764 7.498334966339947 0  229.9996600110438 -0.001751914725802922 0  229.9997892192742 7.498248044500123 0  234.999663113812 -0.001837139638093019 0  234.999790090736 7.498162849050645 0  239.9996660998055 -0.001920898271027044 0  239.9997911725582 7.498079112380371 0  244.9996689162805 -0.002003419125243214 0  244.9997923682651 7.497996608180345 0  249.9996715252293 -0.002084897553955873 0  249.999793604169 7.49791514262532 0  254.9996738996507 -0.00216550284695094 0  254.9997948241815 7.497834547543159 0  259.9996760210308 -0.002245383752765748 0  259.9997959860376 7.497754675057474 0  264.9996778777164 -0.002324672838511689 0  264.9997970585669 7.497675393342826 0  269.9996794639721 -0.00240348995085279 0  269.999798019753 7.497596583250823 0  274.999680779639 -0.002481944929294226 0  274.999798855381 7.497518135664805 0  279.9996818303625 -0.002560139610949437 0  279.9997995581368 7.49743994953721 0  284.9996826284074 -0.002638169025573324 0  284.9998001270326 7.497361930673518 0  289.9996831940818 -0.002716121465433932 0  289.9998005670236 7.497283991469868 0  294.9996835577647 -0.002794076745638922 0  294.9998008887163 7.497206052009939 0  299.9996837622557 -0.002872101290102305 0  299.9998011080688 7.497128043198254 0  304.9996838645917 -0.002950237372952828 0  304.9998012462927 7.497049912936827 0  309.9996839347394 -0.003028481301331291 0  309.9998013310303 7.496971636651526 0  4.999955171022092 15.00138201972569 0  -4.491563897496276e-05 15.00145204474154 0  9.999955327272227 15.00131170976159 0  14.9999555899958 15.0012411205069 0  19.99995598589734 15.00117026931082 0  24.99995653798498 15.00109918743808 0  29.99995726820213 15.00102791869961 0  34.99995819824313 15.00095651753569 0  39.99995934961206 15.00088504767947 0  44.99996074338958 15.00081358171746 0  49.99996239987164 15.00074220158264 0  54.99996433809991 15.0006709999554 0  59.99996657523286 15.00060008257564 0  64.99996912567089 15.00052957152877 0  69.99997199981696 15.00045960964521 0  74.99997520233349 15.0003903662427 0  79.99997872972264 15.00032204454458 0  84.99998256704028 15.00025489122721 0  89.99998668354586 15.00018920868519 0  94.9999910271555 15.00012537073164 0  99.99999551773196 15.00006384252669 0  105.0000000397161 15.00000520541889 0  110.0000044355484 14.99995018681799 0  115.0000085032667 14.99989969359542 0  120.0000120052243 14.99985484361798 0  125.0000147011164 14.99981698143352 0  130.0000164284282 14.99978764607419 0  135.0000172669713 14.99976842195742 0  140.0000178357931 14.99976052743609 0  145.0000197549697 14.99976382261697 0  150.0000261629635 14.9997744188806 0  165.0000488847118 14.99966484941574 0  160.0000560094215 14.99978939820036 0  170.0000324329433 14.99952951601523 0  175.0000124286692 14.99939400319006 0  179.9999927692101 14.99926350005654 0  184.9999753069094 14.99913969483256 0  189.9999606593628 14.99902263551483 0  194.9999488165257 14.99891172115586 0  199.9999394930468 14.99880616239661 0  204.9999323129088 14.99870517761468 0  209.9999268983812 14.99860806580974 0  214.9999229079942 14.99851422480831 0  219.999920048837 14.99842314699728 0  224.9999180768037 14.99833440724364 0  229.9999167918101 14.99824764935012 0  234.9999160314626 14.99816257354546 0  239.9999156647554 14.99807892578515 0  244.9999155864531 14.99799648891552 0  249.9999157123489 14.99791507548815 0  254.9999159753744 14.99783452194455 0  259.9999163224718 14.99775468390955 0  264.9999167120895 14.99767543237581 0  269.9999171121942 14.99759665061703 0  274.9999174986765 14.9975182317195 0  279.9999178540508 14.99744007667325 0  284.9999181663903 14.9973620930082 0  289.999918428418 14.99728419398851 0  294.9999186368346 14.99720629834865 0  299.9999187920276 14.99712833037416 0  304.9999188986862 14.99705021953095 0  309.9999189682814 14.99697189714129 0  5.000059748110962 22.50138263321769 0  5.966132779594568e-05 22.50145246757475 0  10.00005988283363 22.50131239718166 0  15.0000600942846 22.50124182048115 0  20.00006039984527 22.50117095502218 0  25.00006081056232 22.50109985201064 0  30.00006133416293 22.50102856600657 0  35.0000619764935 22.50095715677267 0  40.00006274195113 22.50088569028468 0  45.00006363331438 22.50081423965264 0  50.00006465121228 22.5007428863357 0  55.00006579334194 22.50067172185094 0  60.00006705347283 22.50060085010078 0  65.0000684202281 22.50053039042783 0  70.00006987561662 22.50046048151709 0  75.00007139329215 22.50039128629046 0  80.00007293654249 22.50032299795859 0  85.0000744560755 22.5002558473999 0  90.00007588779505 22.50019011199162 0  95.00007715098549 22.50012612587691 0  100.0000781477016 22.50006429131435 0  105.0000787647854 22.50000509005665 0  110.0000788808851 22.49994909233444 0  115.0000783822229 22.49989695847442 0  120.000077192579 22.49984942363261 0  125.000075324626 22.49980724834102 0  130.0000729599121 22.49977110495807 0  135.0000705599138 22.49974135138261 0  140.0000689926296 22.49971762030829 0  145.0000696121341 22.49969814105723 0  150.0000741259415 22.49967879504232 0  165.0001113385433 22.49956739041209 0  160.0001000409721 22.49966315943465 0  170.0001137187116 22.49945879839188 0  175.0001097569673 22.49934445400011 0  180.0001021477794 22.49922926706514 0  185.0000929913879 22.49911608449742 0  190.0000836567841 22.49900626487801 0  195.0000749234379 22.49890026519875 0  200.0000671687496 22.49879805599477 0  205.0000605215627 22.49869937412192 0  210.0000549691221 22.49860386413067 0  215.0000504255228 22.49851115209115 0  220.0000467730091 22.49842088110091 0  225.0000438855875 22.49833272607437 0  230.0000416416869 22.49824639785174 0  235.0000399303027 22.49816164213815 0  240.0000386534017 22.49807823620328 0  245.0000377262876 22.49799598483838 0  250.0000370769138 22.49791471629841 0  255.0000366447282 22.49783427855057 0  260.0000363793446 22.49775453594705 0  265.0000362392234 22.4976753663414 0  270.0000361904198 22.49759665862612 0  275.0000362054334 22.49751831065296 0  280.0000362621706 22.49744022748905 0  285.0000363430186 22.49736231994165 0  290.0000364340645 22.49728450323008 0  295.0000365245462 22.49720669554801 0  300.000036606
[...]
<PointData  Scalars="p"> 
<DataArray  type="Float64"  Name="p"  format="ascii">1.0000000000000001e-01  1.0000000000000003e-01  1.0000389868263475e-01  1.0000000000000003e-01  1.0000000000000003e-01  1.0000453203924192e-01  1.0000000000000003e-01  1.0000684393120124e-01  1.0000000000000003e-01  1.0000801764340683e-01  1.0000000000000003e-01  1.0000968395974782e-01  1.0000000000000003e-01  1.0001242139221551e-01  1.0000000000000003e-01  1.0001364564343333e-01  1.0000000000000003e-01  1.0001552177316225e-01  1.0000000000000003e-01  1.0001860893347445e-01  1.0000000000000003e-01  1.0001906457189191e-01  1.0000000000000003e-01  1.0002672283375044e-01  1.0000000000000003e-01  1.0003094889484337e-01  1.0000000000000003e-01  1.0003546925136379e-01  1.0000000000000003e-01  1.0003911219290654e-01  1.0000000000000003e-01  1.0004648951683269e-01  1.0000000000000003e-01  1.0004947208875169e-01  1.0000000000000003e-01  1.0005489901656062e-01  1.0000000000000003e-01  1.0006322729729461e-01  1.0000000000000003e-01  1.0006569266242628e-01  1.0000000000000003e-01  1.0007398975214796e-01  1.0000000000000003e-01  1.0007904516714167e-01  1.0000000000000003e-01  1.0008810574868657e-01  1.0000000000000003e-01  1.0008597401341481e-01  1.0000000000000003e-01  1.0010864860229027e-01  1.0000000000000003e-01  1.0008788313654485e-01  1.0000000000000003e-01  1.0013415567158244e-01  1.0000000000000003e-01  1.0008158104480670e-01  1.0000000000000003e-01  1.0016940361639770e-01  1.0000000000000003e-01  1.0006434301810464e-01  1.0000000000000001e-01  1.0022914750282709e-01  1.0000000000000001e-01  1.0000000000000003e-01  9.9813970858625298e-02  9.9617561694758688e-02  1.0000000000000003e-01  9.9945781093818173e-02  1.0000000000000003e-01  9.9853040044467295e-02  1.0000000000000003e-01  9.9902883057722477e-02  1.0000000000000003e-01  9.9887903109477733e-02  1.0000000000000003e-01  9.9900756120954379e-02  1.0000000000000003e-01  9.9894659599670005e-02  1.0000000000000003e-01  9.9905520215852722e-02  1.0000000000000003e-01  9.9903880345101240e-02  1.0000000000000003e-01  9.9907540178321763e-02  1.0000000000000003e-01  9.9910711290746662e-02  1.0000000000000003e-01  9.9913037600641436e-02  1.0000000000000003e-01  9.9914579697664818e-02  1.0000000000000003e-01  9.9917790349592320e-02  1.0000000000000003e-01  9.9919300903686656e-02  1.0000000000000003e-01  9.9920949779514850e-02  1.0000000000000003e-01  9.9922995352980604e-02  1.0000000000000003e-01  9.9924494984253986e-02  1.0000000000000003e-01  9.9925483139548632e-02  1.0000000000000003e-01  9.9927423858239550e-02  1.0000000000000003e-01  9.9927833545153222e-02  1.0000000000000003e-01  9.9929932573671179e-02  1.0000000000000003e-01  9.9929129644206277e-02  1.0000000000000003e-01  9.9933318765106194e-02  1.0000000000000003e-01  9.9928278263092835e-02  1.0000000000000003e-01  9.9939026811123682e-02  1.0000000000000003e-01  9.9922999184404906e-02  1.0000000000000003e-01  9.9951374120024250e-02  1.0000000000000003e-01  9.9902865685267142e-02  1.0000000000000001e-01  1.0000000000000003e-01  1.0000641930489994e-01  1.0000000000000003e-01  1.0000636053448757e-01  1.0000681823596716e-01  1.0000770474151514e-01  1.0001001978240592e-01  1.0000984929130594e-01  1.0001028382660435e-01  1.0001363331144848e-01  1.0001208291819214e-01  1.0001342329434082e-01  1.0001648137227445e-01  1.0002438057527620e-01  1.0002209304223963e-01  1.0003063245668870e-01  1.0002688898337195e-01  1.0003018198777097e-01  1.0003689553555004e-01  1.0003498566768858e-01  1.0003719076456342e-01  1.0004724746320065e-01  1.0004094062172926e-01  1.0004977117328025e-01  1.0004898068568729e-01  1.0005922040877741e-01  1.0004009161143705e-01  1.0008604574099300e-01  1.0001097158718811e-01  1.0014174632141859e-01  9.9942202411258729e-02  1.0023250891426441e-01  1.0016160895750487e-01  9.9413977087283514e-02  9.9824111945592847e-02  9.9972101174898881e-02  9.9948291049949997e-02  9.9958421184764543e-02  9.9938225008540993e-02  9.9961940534967056e-02  9.9950237158022606e-02  9.9953189928095140e-02  9.9957902604399115e-02  9.9958129617322714e-02  9.9957542846321731e-02  9.9962435301058722e-02  9.9962529190954733e-02  9.9963077860470234e-02  9.9965919292556854e-02  9.9966471247276853e-02  9.9967015484491106e-02  9.9968778355239249e-02  9.9969650128316503e-02  9.9969642239145937e-02  9.9971851663674352e-02  9.9970880901289055e-02  9.9973951801074865e-02  9.9970466504276531e-02  9.9978722675269874e-02  9.9965158038136909e-02  9.9989874268258103e-02  9.9952634953433581e-02  1.0000000000000003e-01  1.0000947990998853e-01  1.0000000000000003e-01  1.0000640998029829e-01  1.0000954095099190e-01  1.0001192844496905e-01  1.0001238284355071e-01  1.0001286038330484e-01  1.0001774217246216e-01  1.0001658651543674e-01  1.0001685329696325e-01  1.0002242236758965e-01  1.0002360419509961e-01  1.0001992953269045e-01  1.0004283791117732e-01  1.0003499102974521e-01  1.0003977775765426e-01  1.0005017745155036e-01  1.0004541818657131e-01  1.0004971632113430e-01  1.0006284488347252e-01  1.0005778971282722e-01  1.0006100165877528e-01  1.0007943932012470e-01  1.0006408721430994e-01  1.0008455102949516e-01  1.0007236897613553e-01  1.0010416261091802e-01  1.0004652259064861e-01  1.0017062052478327e-01  9.9946478297865363e-02  1.0036483416605869e-01  1.0011672373848969e-01  9.9457642583482622e-02  9.9717701714627877e-02  9.9941303328788797e-02  9.9926073522093581e-02  9.9879556079441378e-02  9.9942921450175456e-02  9.9907248137189236e-02  9.9915036017270906e-02  9.9924503084172736e-02  9.9923300151942854e-02  9.9920563049087668e-02  9.9930597270802196e-02  9.9929337742223068e-02  9.9930013112354624e-02  9.9935639873737880e-02  9.9936304591878564e-02  9.9936674683067439e-02  9.9940602292641234e-02  9.9941145821128438e-02  9.9942046280869931e-02  9.9944094890905139e-02  9.9945662990574377e-02  9.9944970328833857e-02  9.9949086404763479e-02  9.9945766901112038e-02  9.9953131153704466e-02  9.9942847975949198e-02  9.9964294767709974e-02  9.9925036202535719e-02  1.0000000000000003e-01  1.0001136185833935e-01  1.0000000000000003e-01  1.0000727598698213e-01  1.0001263538319601e-01  1.0001208452947030e-01  1.0001262108855788e-01  1.0001769254887512e-01  1.0001634676319267e-01  1.0001633514560404e-01  1.0002259530571546e-01  1.0001999236398068e-01  1.0001970998603310e-01  1.0003311711082173e-01  1.0002111854941247e-01  1.0003967358610301e-01  1.0004568295774670e-01  1.0004188770735245e-01  1.0004200905741666e-01  1.0005784885861817e-01  1.0004721283710477e-01  1.0005379846614605e-01  1.0006631568744527e-01  1.0006112511105167e-01  1.0005738106710353e-01  1.0008798224817797e-01  1.0004762036501051e-01  1.0010552912064631e-01  1.0002502893778993e-01  1.0017120300516619e-01  9.9910799472337150e-02  1.0038735755426462e-01  1.0012066214501154e-01  9.9331025306103451e-02  9.9812441465436788e-02  9.9982259542894233e-02  9.9809335100935842e-02  1.0000138783525606e-01  9.9907894832592825e-02  9.9932365898096162e-02  9.9937384045147154e-02  9.9938129018558058e-02  9.9928721980684143e-02  9.9945143601744738e-02  9.9940292916836662e-02  9.9940411911479995e-02  9.9947789627330710e-02  9.9948052674910803e-02  9.9947897234406266e-02  9.9953186910871003e-02  9.9953644482564774e-02  9.9953869398490144e-02  9.9957463803317062e-02  9.9957622808180061e-02  9.9959045070949312e-02  9.9959749545055376e-02  9.9963076451517072e-02  9.9959169839183598e-02  9.9968638038307439e-02  9.9955606171822531e-02  9.9979052807428206e-02  9.9942985188272937e-02  1.0000000000000003e-01  1.0001329453564575e-01  1.0000000000000003e-01  1.0000927247982810e-01  1.0001300315123719e-01  1.0001215623102579e-01  1.0001825787275995e-01  1.0001672272165903e-01  1.0001746704759681e-01  1.0002426618860069e-01  1.0002130379067686e-01  1.0002074852175087e-01  1.0003241031435223e-01  1.0002590683866795e-01  1.0003114741389971e-01  1.0003452306025713e-01  1.0004833525284502e-01  1.0004357459715553e-01  1.0006270140203745e-01  1.0005006365857363e-01  1.0005407785218129e-01  1.0007380796174721e-01  1.0005822730712373e-01  1.0006854556158801e-01  1.0007944617143463e-01  1.0007973556610161e-01  1.0005919250665420e-01  1.0012304738342102e-01  1.0002026869382258e-01  1.0019329696589512e-01  9.9895594163647558e-02  1.0045045363791182e-01  1.0023286299558619e-01  9.9241965248060934e-02  9.9757801582163963e-02  9.9921131474140029e-02  9.9891707513897990e-02  9.9888929601196733e-02  9.9918446168275554e-02  9.9922864237588060e-02  9.9932011936489748e-02  9.9905859662092006e-02  9.9936326840043901e-02  9.9925058305672970e-02  9.9924740625146113e-02  9.9935227941333624e-02  9.9934660755812033e-02  9.9933078482528415e-02  9.9941497540625965e-02  9.9941463833466151e-02  9.9941636980031751e-02  9.9946472082859464e-02  9.9947354583970957e-02  9.9947250163685747e-02  9.9951275097414805e-02  9.9950706935688555e-02  9.9953575737833852e-02  9.9951936615032197e-02  9.9959214206825853e-02  9.9948361985214229e-02  9.9970763641405058e-02  9.9933600363640573e-02  1.0000000000000003e-01  1.0001558719276933e-01  1.0000000000000003e-01  1.0000935206694275e-01  1.0001356203267799e-01  1.0001628417595679e-01  1.0001682545739343e-01  1.0001691863965616e-01  1.0002390336687746e-01  1.0002192637580952e-01  1.0002088595719337e-01  1.0003082343092518e-01  1.0002664491928026e-01  1.0002773668775247e-01  1.0003902294786846e-01  1.0003623865009507e-01  1.0002430198634275e-01  1.0006825690791636e-01  1.0004712100859954e-01  1.0005384913028226e-01  1.0007175684564577e-01  1.0005762751061556e-01  1.0005876379203089e-01  1.0008840582248330e-01  1.0005901668585900e-01  1.0008223741480902e-01  1.0007416185343831e-01  1.0010823058781075e-01  1.0001632027300734e-01  1.0021404704220313e-01  9.9858494146155108e-02  1.0050168275661160e-01  1.0022481056331521e-01  9.9265348487453095e-02  9.9704538211504531e-02  1.0001696655807538e-01  9.9868054784955376e-02  9.9894492306361424e-02  9.9885646669316805e-02  9.9963626731291097e-02  9.9889041292847078e-02  9.9952134862942216e-02  9.9923219991102763e-02  9.9925208672558094e-02  9.9937971464484493e-02  9.9937128753109436e-02  9.9932272456410454e-02  9.9944390752252102e-02  9.9942956480167017e-02  9.9942477015208420e-02  9.9949728993575668e-02  9.9949945157195672e-02  9.9950003378120988e-02  9.9954238857710348e-02  9.9955540574026849e-02  9.9954566783895374e-02  9.9959892615168966e-02  9.9956456073806169e-02  9.9964262445026181e-02  9.9953948327452163e-02  9.9975544329934066e-02  9.9940739917893859e-02  1.0000000000000003e-01  1.0001684192149597e-01  1.0000000000000003e-01  1.0000951293366724e-01  1.0001739038211958e-01  1.0001535875360433e-01  1.0001682572234752e-01  1.0002279856357449e-01  1.0002213350929966e-01  1.0002109363932213e-01  1.0003097217119142e-01  1.0002657324535810e-01  1.0002682248075745e-01  1.0004032137534764e-01  1.0003442921484898e-01  1.0003052806827227e-01  1.0005448372774925e-01  1.0002828466211514e-01  1.0005903048059062e-01  1.0007252853208561e-01  1.0005878179291874e-01  1.0006064959857672e-01  1.0008516499446400e-01  1.0006734564275711e-01  1.0006483277494116e-01  1.0010773061109313e-01  1.0005429133136363e-01  1.0011501398743487e-01  1.0003617160048535e-01  1.0020507412393344e-01  9.9851044872059633e-02  1.0055282031464140e-01  1.0020801603010994e-01  9.9206765438444589e-02  9.9758862923270325e-02  9.9993333091102199e-02  9.9830735260467679e-02  9.9938915597912986e-02  9.9900264391809032e-02  9.9856299221813508e-02  9.9962402100662262e-02  9.9911500704571748e-02  9.9922139046701788e-02  9.9929824757281974e-02  9.9933011222021667e-02  9.9922397820460251e-02  9.9939751045932099e-02  9.9936303980178082e-02  9.9934804280672640e-02  9.9943717385444802e-02  9.9944330108330287e-02  9.9943506475624194e-02  9.9950032494706242e-02  9.9950084115506654e-02  9.9950991908408574e-02  9.9953567015137815e-02  9.9956431789295155e-02  9.9953368744029519e-02  9.9962147465176607e-02  9.9951579156392481e-02  9.9972683375451857e-02  9.9938460729840486e-02  1.0000000000000003e-01  1.0001793739204455e-01  1.0000000000000003e-01  1.0001153280097304e-01  1.0001705319580467e-01  1.0001514176662660e-01  1.0002190150845071e-01  1.0002063963844840e-01  1.0002074556205613e-01  1.0002978901990434e-01  1.0002624092607106e-01  1.0002562789133525e-01  1.0003900652609767e-01  1.0003338904227929e-01  1.0003196537827730e-01  1.0005070303875693e-01  1.0003528495945169e-01  1.0004250603450696e-01  1.0004776652318513e-01  1.0006563129397283e-01  1.0005627203877074e-01  1.0009010614630648e-01  1.0006040349507057e-01  1.0007121574248340e-01  1.0009246590411100e-01  1.0008110850767075e-01  1.0005657367341683e-01  1.0014295446629093e-01  1.0000913848468809e-01  1.0021536412581740e-01  9.9855338000852154e-02  1.0056835081788348e-01  1.0027734660082717e-01  9.9144170749918659e-02  9.9730395040547246e-02  9.9965898780294216e-02  9.9882677461892347e-02  9.9937901109432098e-02  9.9865079058451559e-02  9.9928556683597278e-02  9.9880930542690663e-02  9.9937531378391384e-02  9.9921370508423243e-02  9.9941805726168120e-02  9.9914449346232531e-02  9.9942444367946581e-02  9.9934725398405394e-02  9.9932552814177789e-02  9.9943531317998741e-02  9.9943351944260767e-02  9.9941048890154982e-02  9.9949827772268324e-02  9.9950280324006560e-02  9.9949586293893028e-02  9.9955520621986746e-02  9.9954945199126580e-02  9.9957334911244880e-02  9.9956843600784537e-02  9.9963984940871844e-02  9.9953596318214169e-02  9.9974997987371500e-02  9.9941777977953214e-02  1.0000000000000003e-01  1.0001959584925046e-01  1.0000000000000003e-01  1.0001122751085006e-01  1.0001700080746717e-01  1.0001900431825167e-01  1.0002045236411142e-01  1.0001938841697350e-01  1.0002789492541767e-01  1.0002569533777837e-01  1.0002484441271059e-01  1.0003614984842264e-01  1.0003284072577089e-01  1.0003126934435976e-01  1.0004842256019132e-01  1.0003828350237733e-01  1.0003779636686135e-01  1.0005571473247563e-01  1.0004753819484456e-01  1.0002862102984911e-01  1.0009570189442600e-01  1.0006130557162905e-01  1.0006688416299959e-01  1.0010237047439227e-01  1.0006316460991933e-01  1.0008352557978499e-01  1.0009182362864569e-01  1.0011125498796343e-01  1.0001200551004562e-01  1.0024786101929829e-01  9.9822966141417835e-02  1.0059454052140024e-01  1.0028085876376937e-01  9.9157810127292814e-02  9.9691528152256015e-02  1.0001671394504774e-01  9.9868120006647104e-02  9.9903230963952483e-02  9.9914319652975037e-02  9.9914793875305899e-02  9.9885524501509032e-02  9.9895291807422099e-02  9.9956272192020981e-02  9.9900389345901522e-02  9.9947807164973479e-02  9.9928940502161154e-02  9.9928570044333490e-02  9.9940400709420618e-02  9.9941159309356070e-02  9.9935841280930207e-02  9.9947201045028883e-02  9.9946425023080376e-02  9.9945891427249703e-02  9.9952586605937171e-02  9.9953874166643128e-02  9.9952485945769956e-02  9.9958907060586799e-02  9.9956041279412641e-02  9.9962637807295335e-02  9.9954410976007657e-02  9.9974132347605729e-02  9.9941846744861729e-02  1.0000000000000003e-01  1.0002024266264314e-01  1.0000000000000003e-01  1.0001104868594599e-01  1.0002026983581661e-01  1.0001785822015405e-01  1.0001958110747988e-01  1.0002549117981321e-01  1.0002484953363285e-01  1.0002378247235517e-01  1.0003408193205900e-01  1.0003091644931981e-01  1.0002963445724819e-01  1.0004595115601693e-01  1.0003868867701876e-01  1.0003622055082408e-01  1.0005624230506943e-01  1.0004473557561880e-01  1.0003647819590016e-01  1.0007444901738298e-01  1.0003043330339843e-01  1.0007512569552038e-01  1.0009545868713611e-01  1.0007364441556486e-01  1.0006543740700743e-01  1.0012292160427470e-01  1.0005292072917317e-01  1.0011412040578814e-01  1.0004982736370900e-01  1.0021434648861623e-01  9.9821306564844392e-02  1.0063796603937511e-01  1.0026555534301723e-01  9.9133635131662318e-02  9.9725067243767604e-02  1.0001211554814265e-01  9.9835398686047419e-02  9.9948235873504765e-02  9.9905569477211548e-02  9.9896990181297524e-02  9.9914918646082068e-02  9.9920279354357946e-02  9.9870825286818260e-02  9.9964312868740218e-02  9.9921120382499673e-02  9.9932624572094259e-02  9.9936596429499522e-02  9.9942387152298293e-02  9.9932214981395179e-02  9.9947297066996274e-02  9.9945445221640464e-02  9.9943057575476529e-02  9.9951510847581901e-02  9.9952221217858503e-02  9.9952082254621544e-02  9.9956718594711405e-02  9.9959316676818580e-02  9.9956199251876904e-02  9.9965200148202232e-02  9.9955699018144439e-02  9.9974812063329810e-02  9.9944282790740954e-02  1.0000000000000003e-01  1.0002074865045729e-01  1.0000000000000003e-01  1.0001257297940272e-01  1.0001959254878434e-01  1.0001698996578125e-01  1.0002410244528188e-01  1.0002295566976095e-01  1.0002303634588081e-01  1.0003143618031683e-01  1.0002924763800559e-01  1.0002750554037011e-01  1.0004206788308295e-01  1.0003697760321602e-01  1.0003526498322909e-01  1.0005396355293028e-01  1.0004336584636833e-01  1.0003906049816427e-01  1.0006693872286655e-01  1.0004228505522618e-01  1.0004979046852190e-01  1.0006251156592798e-01  1.0007746819978094e-01  1.0006951986430573e-01  1.0011106430785846e-01  1.0007875226969855e-01  1.0005823246923752e-01  1.0015757413198650e-01  1.0000812758742243e-01  1.0021351166628020e-01  9.9862692189416777e-02  1.0060624607780032e-01  1.0030741348353027e-01  9.9091331013159076e-02  9.9718279908194610e-02  9.9986597198279625e-02  9.9870861349579190e-02  9.9942851959729073e-02  9.9878280217898949e-02  9.9929568331813518e-02  9.9918992006179902e-02  9.9894042413732578e-02  9.9925086574017941e-02  9.9897646636861792e-02  9.9944016168976552e-02  9.9928757651315855e-02  9.9948295661167266e-02  9.9925487283150427e-02  9.9948054193165894e-02  9.9943332070801513e-02  9.9940752604893393e-02  9.9950053468040367e-02  9.9950560281153150e-02  9.9947890676027842e-02  9.9956411446205776e-02  9.9955978201230880e-02  9.9957623932263498e-02  9.9958778799563941e-02  9.9965138555264621e-02  9.9955714223461542e-02  9.9975548419517959e-02  9.9945395830877512e-02  1.0000000000000003e-01  1.0002190130834782e-01  1.0000000000000003e-01  1.0001219357030837e-01  1.0001912896904989e-01  1.0002026801241531e-01  1.0002253310035916e-01  1.0002126785480199e-01  1.0002936140422626e-01  1.0002786522868416e-01  1.0002625080800871e-01  1.0003767839944012e-01  1.0003505849398060e-01  1.0003312342816405e-01  1.0005002787805418e-01  1.0004320342329129e-01  1.0003829656769012e-01  1.0006276226540906e-01  1.0004629252185553e-01  1.0004386969816924e-01  1.0007027158092273e-01  1.0005640240296014e-01  1.0002623148920821e-01  1.0012628800322461e-01  1.0006223652538732e-01  1.0008620332415480e-01  1.0010798812888878e-01  1.0010470879740743e-01  1.0001122412575925e-01  1.0026193111075558e-01  9.9820456072528305e-02  1.0060142138319651e-01  1.0032162914039783e-01  9.9108366692464589e-02  9.9687617258745656e-02  1.0002006105243218e-01  9.9869456439509674e-02  9.9916531336592354e-02  9.9910058781556246e-02  9.9929701610098481e-02  9.9893537562682017e-02  9.9930572929004952e-02  9.9920229268536165e-02  9.9907210582508413e-02  9.9905800347203047e-02  9.9963770451126241e-02  9.9916093409605528e-02  9.9954417626478262e-02  9.9940449223976852e-02  9.9939985010190219e-02  9.9949270510322610e-02  9.9950804238109592e-02  9.9946199513258963e-02  9.9954900239179370e-02  9.9955480774127733e-02  9.9954003366719793e-02  9.9961543560807276e-02  9.9959378784725536e-02  9.9964757302319504e-02  9.9958489909286380e-02  9.9976084969326265e-02  9.9947207430887294e-02  1.0000000000000003e-01  1.0002212621713344e-01  1.0000000000000003e-01  1.0001173927956702e-01  1.0002161304543002e-01  1.0001896945831232e-01  1.0002121907216473e-01  1.0002623424981182e-01  1.0002646730638662e-01  1.0002517231454865e-01  1.0003469313274965e-01  1.0003223340432457e-01  1.0003084709481734e-01  1.0004562024277862e-01  1.0004121488934807e-01  1.0003680273897278e-01  1.0005828585542483e-01  1.0004752000654775e-01  1.0004098549890381e-01  1.0007027712974707e-01  1.0005168287388434e-01  1.0003909755529426e-01  1.0009211667468633e-01  1.0003144535514655e-01  1.0007941803096020e-01  1