<?xml version="1.0"?>
<VTKFile type="UnstructuredGrid"  version="0.1"  >
<UnstructuredGrid>
<Piece  NumberOfPoints="1933" NumberOfCells="3640">
<Points>
<DataArray  type="Float64"  NumberOfComponents="3"  format="ascii">-0.4754305386361133 -0.001034228291755409 0  4.524569490462623 -0.001011678242135381 0  4.524535664219369 7.498988394684067 0  -0.4754643783608467 7.498965822454485 0  9.524569537612917 -0.0009891856606733045 0  9.524535736094361 7.499010892163875 0  14.52456963345228 -0.0009667547225528212 0  14.52453584997605 7.499033322347534 0  19.52456980586413 -0.0009443682381971748 0  19.52453601687952 7.499055706572388 0  24.52457007740145 -0.0009219975022032529 0  24.52453624618878 7.499078075047216 0  29.52457046541106 -0.000899607119958297 0  29.52453654529538 7.499100463664603 0  34.52457098289356 -0.0008771572934791399 0  34.5245369193294 7.499122912330848 0  39.52457163940998 -0.000854604699552035 0  39.52453737099585 7.499145464331963 0  44.52457244181004 -0.0008319025284731897 0  44.52453790043466 7.499168166391737 0  49.52457339472725 -0.0008089999732336826 0  49.52453850502281 7.499191069217259 0  54.5245745008362 -0.0007858413056453359 0  54.52453917905024 7.499214228429556 0  59.52457576087514 -0.0007623645825534334 0  59.52453991320755 7.499237705848733 0  64.52457717342322 -0.0007384999601815531 0  64.52454069381598 7.499261571158081 0  69.52457873439194 -0.0007141675394928207 0  69.52454150171386 7.49928590401978 0  74.52458043615572 -0.0006892746076040192 0  74.52454231068111 7.499310796764146 0  79.52458226617902 -0.0006637120682924277 0  79.52454308523414 7.499336357833652 0  84.52458420490741 -0.000637349755462224 0  84.52454377755629 7.499362716237003 0  89.52458622251761 -0.0006100301797579147 0  89.52454432323192 7.499390027364451 0  94.52458827385196 -0.0005815600457504998 0  94.52454463533198 7.499418480634558 0  99.52459029035398 -0.0005516985609692906 0  99.52454459625798 7.499448309573868 0  104.5245921669344 -0.0005201410945393432 0  104.5245440466385 7.499479805034007 0  109.5245937400458 -0.0004864960883249167 0  109.5245427706044 7.499513332199814 0  114.5245947502029 -0.0004502522746355877 0  114.5245404772813 7.499549351532583 0  119.5245947764801 -0.0004107323817689317 0  119.5245367800631 7.499588442090008 0  124.5245931198016 -0.0003670293467838066 0  124.5245311799112 7.499631321129726 0  129.5245885915936 -0.000317924073910345 0  129.5245230703207 7.49967884300987 0  134.5245791260583 -0.0002617979168524341 0  134.5245118078419 7.499731936163645 0  139.5245610610565 -0.0001966051656027159 0  139.5244969506282 7.499791388224323 0  144.5245277872316 -0.0001201625638423232 0  144.5244788976632 7.499857314347418 0  149.5244671407069 -3.178656436648743e-05 0  149.5244604652741 7.499928161996444 0  159.5244717418524 1.200113985156684e-18 0  164.5244423131702 -6.371023918765804e-05 0  164.5244673569854 7.499923413688257 0  159.5244719510986 7.499969599559199 0  169.5244349204686 -0.0001061079100240494 0  169.5244623754073 7.499887614190845 0  174.5244376500622 -0.000133709264685003 0  174.5244597264861 7.499863012427923 0  179.5244448355951 -0.0001504521595048718 0  179.524459464263 7.499847780556627 0  184.5244537047936 -0.0001590960666069741 0  184.5244610108859 7.499839938285158 0  189.5244629004524 -0.0001616377278974571 0  189.5244637514572 7.499837834924254 0  194.5244717739075 -0.0001595322912406037 0  194.5244671902992 7.499840185453229 0  199.524480034475 -0.0001538472078335864 0  199.524470968092 7.499846010362292 0  204.5244875721957 -0.0001453733471719309 0  204.52447483918 7.499854565506103 0  209.5244943672418 -0.0001347041108161692 0  209.5244786426171 7.499865282800798 0  214.5245004433153 -0.0001222910460284938 0  214.524482277217 7.499877724670468 0  219.5245058436119 -0.0001084827851583191 0  219.5244856826575 7.49989155034431 0  224.5245106184663 -9.355241043736086e-05 0  224.5244888259866 7.499906491260454 0  229.5245148191031 -7.771685876844169e-05 0  229.5244916922966 7.499922333145197 0  234.5245184946052 -6.115085250806549e-05 0  234.5244942784033 7.499938902889165 0  239.5245216905903 -4.399704144018163e-05 0  239.5244965886222 7.499956058851863 0  244.5245244488114 -2.637349310237349e-05 0  244.5244986319836 7.499973683623954 0  249.5245268072531 -8.379299517541827e-06 0  249.5245004204323 7.499991678567375 0  254.5245288005171 9.901179874410816e-06 0  254.5245019677042 7.50000995966102 0  259.5245304603724 2.839508853598916e-05 0  259.5245032886606 7.500028454326835 0  264.5245318164349 4.703862518003069e-05 0  264.5245043989464 7.500047099018238 0  269.5245328969393 6.577523686245468e-05 0  269.5245053148719 7.500065837434574 0  274.5245337296264 8.455438767836112e-05 0  274.5245060534315 7.500084619293711 0  279.5245343427292 0.000103330914112025 0  279.5245066324152 7.500103399659426 0  284.5245347660683 0.0001220650690841457 0  284.5245070705337 7.500122138889668 0  289.5245350321764 0.0001407234814607941 0  289.5245073875035 7.500140803352545 0  294.5245351772966 0.0001592814409093503 0  294.5245076040333 7.500159367152234 0  299.5245352417944 0.0001777271851517409 0  299.5245077416997 7.500177815212151 0  304.5245352689593 0.0001960691989760423 0  304.5245078229102 7.500196148163165 0  309.524535299876 0.0002143476117684863 0  309.5245078717251 7.500214389632514 0  4.524501691160467 14.9989885504399 0  -0.4754983518707429 14.99896594521394 0  9.524501752662532 14.99901104584125 0  14.52450184116813 14.99903346200474 0  19.52450196068096 14.99905582987974 0  24.52450211299236 14.99907818322261 0  29.52450229832255 14.99910055885391 0  34.52450251528566 14.9991229965213 0  39.52450276060206 14.99914553892271 0  44.52450302870587 14.99916823202194 0  49.52450331127923 14.99919112566523 0  54.52450359669548 14.9992142744881 0  59.52450386933488 14.99923773911538 0  64.52450410872817 14.99926158768093 0  69.52450428847703 14.99928589771819 0  74.52450437490165 14.99931075849823 0  79.52450432536629 14.99933627391501 0  84.52450408625597 14.99936256603306 0  89.52450359062613 14.99938977941065 0  94.52450275566189 14.99941808626234 0  99.52450148031282 14.99944769237385 0  104.5244996439254 14.99947884331588 0  109.5244971075143 14.99951182970154 0  114.5244937207816 14.99954698857817 0  119.524489340416 14.99958469477956 0  124.5244838689396 14.99962532986279 0  129.5244773283694 14.99966920496749 0  134.5244699875828 14.99971639443042 0  139.5244625601246 14.99976640534457 0  144.5244564603269 14.99981755827326 0  149.5244539916829 14.99986585078631 0  164.524469578534 14.99988830971688 0  159.5244679604758 14.99991017533096 0  169.5244678719289 14.99986784367854 0  174.5244651788134 14.99985199677033 0  179.5244627933948 14.9998416585406 0  184.5244612067162 14.9998365504164 0  189.5244604897599 14.99983598368658 0  194.5244605326951 14.99983920439168 0  199.5244611686614 14.99984552551721 0  204.5244622307762 14.99985436484692 0  209.5244635745426 14.99986524473258 0  214.5244650836728 14.99987777867766 0  219.5244666687037 14.99989165514806 0  224.5244682630076 14.9999066225705 0  229.5244698183279 14.99992247670937 0  234.5244713007212 14.99993905049895 0  239.5244726871806 14.9999562060186 0  244.5244739629623 14.99997382821374 0  249.5244751195341 14.99999181999629 0  254.5244761530297 15.00001009842278 0  259.5244770631005 15.00002859171961 0  264.5244778520687 15.00004723698515 0  269.5244785243054 15.00006597845314 0  274.5244790857653 15.00008476624644 0  279.524479543632 15.00010355558793 0  284.5244799060558 15.00012230646656 0  289.5244801819686 15.00014098376996 0  294.5244803810756 15.00015955787653 0  299.5244805141867 15.00017800560419 0  304.5244805942999 15.00019631114732 0  309.5244806391731 15.00021446599357 0  4.524467629659284 22.49898883511154 0  -0.4755324107816301 22.49896623230992 0  9.524467675803834 22.49901130482992 0  14.52446773101406 22.49903368599406 0  19.52446779532597 22.4990560174802 0  24.5244678665645 22.49907833653458 0  29.52446794095492 22.49910068084957 0  34.52446801326254 22.49912308963806 0  39.52446807663978 22.49914560432184 0  44.52446812231035 22.49916826914947 0  49.52446813916372 22.49919113189062 0  54.52446811328795 22.49921424467336 0  59.52446802745349 22.49923766499769 0  64.52446786055559 22.49926145694757 0  69.52446758702948 22.49928569261726 0  74.52446717628017 22.49931045376039 0  79.52446659220384 22.4993358336489 0  84.52446579295275 22.49936193908184 0  89.52446473120696 22.49938889239121 0  94.52446335539608 22.49941683311397 0  99.52446161258874 22.49944591867482 0  104.52445945417 22.49947632285474 0  109.524456845972 22.49950822984085 0  114.5244537851882 22.49954182003999 0  119.5244503269891 22.49957724129748 0  124.5244466237986 22.49961455545501 0  129.5244429784686 22.49965364548185 0  134.5244399067225 22.4996940643721 0  139.5244381899177 22.49973480948835 0  144.5244388702221 22.49977403252477 0  149.5244430929718 22.49980879855651 0  164.5244586996176 22.49984845081245 0  159.5244550639883 22.49985389715066 0  169.5244592724565 22.49984113212842 0  174.5244579563771 22.49983471547241 0  179.5244557907184 22.49983071651817 0  184.5244534801158 22.4998297292365 0  189.5244514164196 22.49983179659491 0  194.5244497722121 22.49983668741405 0  199.5244485879821 22.49984406330548 0  204.5244478339791 22.49985356704093 0  209.5244474488611 22.49986486396756 0  214.5244473618004 22.49987765796736 0  219.5244475040628 22.49989169465235 0  224.5244478143489 22.49990675874211 0  229.5244482406538 22.49992266922035 0  234.524448740314 22.49993927402364 0  239.5244492792065 22.49995644504725 0  244.5244498306248 22.4999740737642 0  249.5244503741049 22.49999206752073 0  254.5244508943366 22.50001034647042 0  259.5244513801965 22.50002884107451 0  264.5244518239286 22.50004749008989 0  269.5244522204489 22.50006623897584 0  274.5244525667735 22.50008503865991 0  279.5244528615556 22.50010384461009 0  284.5244531047474 22.5001226161529 0  289.524453297428 22.50014131594522 0  29
[...]
<PointData  Scalars="p"> 
<DataArray  type="Float64"  Name="p"  format="ascii">1.0000000000000001e-01  1.0000000000000003e-01  1.0000028807001676e-01  1.0000000000000003e-01  1.0000000000000003e-01  1.0000146188923897e-01  1.0000000000000003e-01  1.0000220322931591e-01  1.0000000000000003e-01  1.0000307917394372e-01  1.0000000000000003e-01  1.0000370624713040e-01  1.0000000000000003e-01  1.0000392442755809e-01  1.0000000000000003e-01  1.0000461136688753e-01  1.0000000000000003e-01  1.0000476642544349e-01  1.0000000000000003e-01  1.0000493876863355e-01  1.0000000000000003e-01  1.0000649647537765e-01  1.0000000000000003e-01  1.0000400915248613e-01  1.0000000000000003e-01  1.0000525505502454e-01  1.0000000000000003e-01  1.0000479801895105e-01  1.0000000000000003e-01  1.0000512843129092e-01  1.0000000000000003e-01  1.0000355554751987e-01  1.0000000000000003e-01  1.0000345512104609e-01  1.0000000000000003e-01  1.0000153604682646e-01  1.0000000000000003e-01  9.9998898294392388e-02  1.0000000000000003e-01  9.9997453737634912e-02  1.0000000000000003e-01  9.9993282627552083e-02  1.0000000000000003e-01  9.9990254415492308e-02  1.0000000000000003e-01  9.9985012741600016e-02  1.0000000000000003e-01  9.9983064533927468e-02  1.0000000000000003e-01  9.9972308949285799e-02  1.0000000000000003e-01  9.9976808056203376e-02  1.0000000000000003e-01  9.9956099811865248e-02  1.0000000000000003e-01  9.9973029545842904e-02  1.0000000000000003e-01  9.9936242632637867e-02  1.0000000000000003e-01  9.9974258645977990e-02  1.0000000000000001e-01  9.9907452876573072e-02  1.0000000000000001e-01  1.0000000000000003e-01  1.0002165364607067e-01  1.0010457852342944e-01  1.0000000000000003e-01  9.9981883749044653e-02  1.0000000000000003e-01  1.0001283887235804e-01  1.0000000000000003e-01  9.9991015650240281e-02  1.0000000000000003e-01  9.9994860500849256e-02  1.0000000000000003e-01  9.9988569415531581e-02  1.0000000000000003e-01  9.9988222272878735e-02  1.0000000000000003e-01  9.9982777794450348e-02  1.0000000000000003e-01  9.9982172980091558e-02  1.0000000000000003e-01  9.9979496283931921e-02  1.0000000000000003e-01  9.9977485370964611e-02  1.0000000000000003e-01  9.9976120005475066e-02  1.0000000000000003e-01  9.9975010161185304e-02  1.0000000000000003e-01  9.9973601441066720e-02  1.0000000000000003e-01  9.9972988719134404e-02  1.0000000000000003e-01  9.9972366883332164e-02  1.0000000000000003e-01  9.9971657205364453e-02  1.0000000000000003e-01  9.9971418391771608e-02  1.0000000000000003e-01  9.9971070576660673e-02  1.0000000000000003e-01  9.9970949683099330e-02  1.0000000000000003e-01  9.9970588960226744e-02  1.0000000000000003e-01  9.9971040830501387e-02  1.0000000000000003e-01  9.9970129874303940e-02  1.0000000000000003e-01  9.9971662744906736e-02  1.0000000000000003e-01  9.9969110586955484e-02  1.0000000000000003e-01  9.9973600132430937e-02  1.0000000000000003e-01  9.9966203186823602e-02  1.0000000000000003e-01  9.9978668498109963e-02  1.0000000000000003e-01  9.9956765632257111e-02  1.0000000000000001e-01  1.0000000000000003e-01  9.9999250680768162e-02  1.0000000000000003e-01  9.9999947514453555e-02  1.0000005377708433e-01  1.0000004711106983e-01  9.9999546695542035e-02  9.9999742446413908e-02  9.9999419796183930e-02  9.9998461173254741e-02  9.9999290319005812e-02  9.9998615064169474e-02  9.9999479425827431e-02  9.9995482443822045e-02  9.9998772412107126e-02  9.9995917195781200e-02  9.9997914981782510e-02  9.9995544504455414e-02  9.9993427842442875e-02  9.9993160248795093e-02  9.9990700390820045e-02  9.9986533979603026e-02  9.9987126266132875e-02  9.9981597031748637e-02  9.9980583007534249e-02  9.9975049253680517e-02  9.9979087727599072e-02  9.9961976459121069e-02  9.9987424336153166e-02  9.9939102911463323e-02  1.0001328122302179e-01  9.9907332310820982e-02  9.9935336125488328e-02  1.0012038089076077e-01  1.0006582781013283e-01  1.0000080314509746e-01  1.0001424496170462e-01  1.0001113886590668e-01  1.0001401163328012e-01  1.0000428486282960e-01  1.0000758523455036e-01  1.0000399202004166e-01  1.0000110817147299e-01  1.0000041644328894e-01  9.9999389681051945e-02  9.9997003986171451e-02  9.9996769352396972e-02  9.9996015756485354e-02  9.9994747875026380e-02  9.9994407016505096e-02  9.9994005513436290e-02  9.9993065836002815e-02  9.9992908617471898e-02  9.9992295633846498e-02  9.9992114316079225e-02  9.9991122612726968e-02  9.9991904790568867e-02  9.9989525266146823e-02  9.9992654894312402e-02  9.9986040405062662e-02  9.9996488158801050e-02  9.9979309578804895e-02  1.0000000000000003e-01  9.9998302964269273e-02  1.0000000000000003e-01  9.9999502420032235e-02  9.9999505216745582e-02  9.9999146710057704e-02  9.9999543944212177e-02  9.9999172979687287e-02  9.9997914199037474e-02  9.9998383534159949e-02  9.9997760964973023e-02  9.9996893371790380e-02  9.9996163415306372e-02  9.9999865281949124e-02  9.9990362738070673e-02  9.9997023399915758e-02  9.9994131176210643e-02  9.9992050539847818e-02  9.9992796608710688e-02  9.9989396603316266e-02  9.9984443671280523e-02  9.9984554783667662e-02  9.9979915700213931e-02  9.9972417418132190e-02  9.9974702784319372e-02  9.9963671986453895e-02  9.9965773057594562e-02  9.9952584850536000e-02  9.9968418662439384e-02  9.9926357413140973e-02  1.0000366676304073e-01  9.9857716110922382e-02  9.9996524101927609e-02  1.0005124648716346e-01  1.0005440743838429e-01  1.0000396276634965e-01  1.0001601150751770e-01  1.0002240399197591e-01  1.0000037883055178e-01  1.0001264760896514e-01  1.0000466365532952e-01  9.9999343582589190e-02  9.9998764817445893e-02  9.9997020864620229e-02  9.9992198459854686e-02  9.9992143243883946e-02  9.9990639621722083e-02  9.9988053623405196e-02  9.9987714743168296e-02  9.9986966121047280e-02  9.9985330364172231e-02  9.9984929612689108e-02  9.9984457400508153e-02  9.9983164970845070e-02  9.9983105095225053e-02  9.9981954657362732e-02  9.9982271720576124e-02  9.9980007852600611e-02  9.9982435132851155e-02  9.9976818901256398e-02  9.9985589916973636e-02  9.9967271711606798e-02  1.0000000000000003e-01  9.9997607115743667e-02  1.0000000000000003e-01  9.9998764038319907e-02  9.9997593366608198e-02  9.9998154293259034e-02  9.9997612078110656e-02  9.9996056971731723e-02  9.9996324413345869e-02  9.9995216303516196e-02  9.9993249996908756e-02  9.9993855677964621e-02  9.9993338067710061e-02  9.9988698800349690e-02  9.9996659224551893e-02  9.9985374028585788e-02  9.9988551491363778e-02  9.9988855789025319e-02  9.9987597359028194e-02  9.9981613617684706e-02  9.9983829688737716e-02  9.9977828536265093e-02  9.9972486935769350e-02  9.9971668345674294e-02  9.9968044413015961e-02  9.9956459592776797e-02  9.9966387863996226e-02  9.9943697111242638e-02  9.9968896659406947e-02  9.9920944742004233e-02  1.0000591125050810e-01  9.9852670813505934e-02  1.0001767269021071e-01  1.0008092463527792e-01  1.0002227935443615e-01  1.0001396506817042e-01  1.0006059589780031e-01  9.9995812092768865e-02  1.0003329924732828e-01  1.0001736263912012e-01  1.0001367427928647e-01  1.0001242462348878e-01  1.0001169508380896e-01  1.0000388331696024e-01  1.0000484701262306e-01  1.0000274635008496e-01  9.9999061328938349e-02  9.9998632678254679e-02  9.9997753502257689e-02  9.9995291288939345e-02  9.9995054324342858e-02  9.9994210679142465e-02  9.9992753204472887e-02  9.9992014727185718e-02  9.9991672764949774e-02  9.9989839855995855e-02  9.9990345257620170e-02  9.9987545766842517e-02  9.9990216656088482e-02  9.9983407315128808e-02  9.9992765067776684e-02  9.9975606044100690e-02  1.0000000000000003e-01  9.9996903406563031e-02  1.0000000000000003e-01  9.9997659874727349e-02  9.9997052266624392e-02  9.9996951555658395e-02  9.9995546415111908e-02  9.9995832026138862e-02  9.9994777887192937e-02  9.9992300414544877e-02  9.9992862787113904e-02  9.9991837689489674e-02  9.9987687293773983e-02  9.9990725582691994e-02  9.9986536745757998e-02  9.9990747109422823e-02  9.9980986609270378e-02  9.9986012839442737e-02  9.9979370988684119e-02  9.9983685608303161e-02  9.9978088042002991e-02  9.9971140762468949e-02  9.9973465192388741e-02  9.9965199036107580e-02  9.9959372359625154e-02  9.9956688085682616e-02  9.9956495708920512e-02  9.9936174204070832e-02  9.9964292719589565e-02  9.9909717552191427e-02  1.0000287095676508e-01  9.9834249521226381e-02  9.9994970462500929e-02  1.0008006881191853e-01  1.0004630491435954e-01  1.0003643500902538e-01  1.0001292804312056e-01  1.0004222279479404e-01  1.0002157531563478e-01  1.0001845292502730e-01  1.0001678266326849e-01  1.0001985245665598e-01  1.0000619912054061e-01  1.0000942709989273e-01  1.0000608485363453e-01  1.0000057158703551e-01  1.0000035513319269e-01  9.9999184129490673e-02  9.9995282279995143e-02  9.9995124558888593e-02  9.9994257009284923e-02  9.9991887219470055e-02  9.9991523677198726e-02  9.9990538921016447e-02  9.9989192986860487e-02  9.9987928738293513e-02  9.9988017931384635e-02  9.9985111412301542e-02  9.9987123788067997e-02  9.9981085291720159e-02  9.9989442959537642e-02  9.9971764154764914e-02  1.0000000000000003e-01  9.9996096715101734e-02  1.0000000000000003e-01  9.9997373715495400e-02  9.9996035866369098e-02  9.9995035662692383e-02  9.9994932028392214e-02  9.9994236787659105e-02  9.9991785656873680e-02  9.9992047764495565e-02  9.9990715645976655e-02  9.9987218713222720e-02  9.9988228361007764e-02  9.9985645029456519e-02  9.9983443581014547e-02  9.9982735382357621e-02  9.9989911539219004e-02  9.9969687532210680e-02  9.9982627038151806e-02  9.9976081090991709e-02  9.9971529753553112e-02  9.9973621441550781e-02  9.9967993409518105e-02  9.9957115810683103e-02  9.9963015350434045e-02  9.9949857849020302e-02  9.9949030529405500e-02  9.9938066816240290e-02  9.9957207199066450e-02  9.9903348101116063e-02  1.0000501916845519e-01  9.9821934175927066e-02  1.0002435884542460e-01  1.0005378017041235e-01  1.0006180589530009e-01  1.0001265321890915e-01  1.0004022507323450e-01  1.0003377347286915e-01  1.0003604105154862e-01  1.0001663053170222e-01  1.0003617360973859e-01  1.0001080841389622e-01  1.0002125562942400e-01  1.0001537633764106e-01  1.0000840182321007e-01  1.0000808387418478e-01  1.0000709373446706e-01  1.0000142452767487e-01  1.0000166982220816e-01  1.0000038353270091e-01  9.9997168284459509e-02  9.9996806338271738e-02  9.9996146714551024e-02  9.9993647497230068e-02  9.9993407447220295e-02  9.9991848978884426e-02  9.9991211537525285e-02  9.9988490458601656e-02  9.9990547906066443e-02  9.9983948283702551e-02  9.9992103008700206e-02  9.9975336705940956e-02  1.0000000000000003e-01  9.9995673158569096e-02  1.0000000000000003e-01  9.9996837965003263e-02  9.9994523659901982e-02  9.9994784128215289e-02  9.9993744644632815e-02  9.9991572107831786e-02  9.9991912280738601e-02  9.9990572706281866e-02  9.9987184064450882e-02  9.9988204647290690e-02  9.9985614337562645e-02  9.9981552467577700e-02  9.9982769043479178e-02  9.9982680048840450e-02  9.9973440709605926e-02  9.9988126527177326e-02  9.9967135483432265e-02  9.9970737663886491e-02  9.9973133973396938e-02  9.9969199478524118e-02  9.9959701622588465e-02  9.9963313235827980e-02  9.9956416044533800e-02  9.9942225975715476e-02  9.9953420708106741e-02  9.9931667110321643e-02  9.9948257404252297e-02  9.9907313141439982e-02  9.9994846214192884e-02  9.9817149115164830e-02  1.0003749244505782e-01  1.0006649867088517e-01  1.0003881775754123e-01  1.0003676006605100e-01  1.0005050753567075e-01  1.0002187221179885e-01  1.0002762280560754e-01  1.0005036493884717e-01  1.0000870501342113e-01  1.0002955057338270e-01  1.0002056709166196e-01  1.0001448207356310e-01  1.0001267834485510e-01  1.0001276792398976e-01  1.0000440349503197e-01  1.0000511853178112e-01  1.0000374214804580e-01  9.9999318292453732e-02  9.9998894328380619e-02  9.9998034884900971e-02  9.9995184848850283e-02  9.9994549977655459e-02  9.9993895866726579e-02  9.9991278389117894e-02  9.9991307859909395e-02  9.9988576368102960e-02  9.9989781193266986e-02  9.9983708837349500e-02  9.9991360132475351e-02  9.9974581672363186e-02  1.0000000000000003e-01  9.9995166293210550e-02  1.0000000000000003e-01  9.9996042057906645e-02  9.9994427727700730e-02  9.9993984453142587e-02  9.9991643122468152e-02  9.9991765166313570e-02  9.9990449713576138e-02  9.9987445434230632e-02  9.9988181147462690e-02  9.9986425289146821e-02  9.9981697248214291e-02  9.9982951886971497e-02  9.9981037636392933e-02  9.9974456097282657e-02  9.9980364505813088e-02  9.9972261723483544e-02  9.9978552313717772e-02  9.9963089222562002e-02  9.9970098602302923e-02  9.9958449051418721e-02  9.9967683080109240e-02  9.9957112645350690e-02  9.9948803527394811e-02  9.9950179320855398e-02  9.9947591067324551e-02  9.9924073618498782e-02  9.9954117891049729e-02  9.9902410415464271e-02  9.9986344048558384e-02  9.9824399385158594e-02  1.0002176123745679e-01  1.0007697276175187e-01  1.0005592375024656e-01  1.0005005824943389e-01  1.0003620726164873e-01  1.0003551175815892e-01  1.0004482439718931e-01  1.0001728389515449e-01  1.0004342364225609e-01  1.0002123338927360e-01  1.0002353040757493e-01  1.0001708933519185e-01  1.0002240325321025e-01  1.0000921766149773e-01  1.0001152938361019e-01  1.0000940140415911e-01  1.0000368115817304e-01  1.0000349163268989e-01  1.0000274768304442e-01  9.9998436798605303e-02  9.9998304883984923e-02  9.9997236525329436e-02  9.9994928612618258e-02  9.9993626440800717e-02  9.9993510911359579e-02  9.9989876147698345e-02  9.9991554483299716e-02  9.9985476866771464e-02  9.9992479893754052e-02  9.9976427282013211e-02  1.0000000000000003e-01  9.9994604314296867e-02  1.0000000000000003e-01  9.9996062470381078e-02  9.9993892620111574e-02  9.9992525072523514e-02  9.9991887991238843e-02  9.9990826254203746e-02  9.9987882789709839e-02  9.9988175695885001e-02  9.9986889611335131e-02  9.9983026579281209e-02  9.9983667226906381e-02  9.9981590359660089e-02  9.9975776906031585e-02  9.9978850381682596e-02  9.9974608721119310e-02  9.9970573540578617e-02  9.9969960709807265e-02  9.9979926962919782e-02  9.9948700962066511e-02  9.9968257635020527e-02  9.9959112445023160e-02  9.9949925112428256e-02  9.9958224913606009e-02  9.9945367718657502e-02  9.9938285597670956e-02  9.9935235643508202e-02  9.9947328375096650e-02  9.9896748634639626e-02  9.9989770482250662e-02  9.9825529417128925e-02  1.0003161891803604e-01  1.0006495807303396e-01  1.0006697798550479e-01  1.0003500556888220e-01  1.0004891875270587e-01  1.0005042022810599e-01  1.0002853377623541e-01  1.0003274995212218e-01  1.0003158782639610e-01  1.0003347009583938e-01  1.0001482732500976e-01  1.0003144134054835e-01  1.0001139091942245e-01  1.0001796750976709e-01  1.0001429147590042e-01  1.0000760139584582e-01  1.0000689398899115e-01  1.0000647327689510e-01  1.0000112310781503e-01  1.0000097075440746e-01  9.9999950862570713e-02  9.9996424592884187e-02  9.9996149839832266e-02  9.9994751601978696e-02  9.9993138740822995e-02  9.9990680365019319e-02  9.9992050942211488e-02  9.9985612820909772e-02  9.9992542344273447e-02  9.9976837023412896e-02  1.0000000000000003e-01  9.9994362097958381e-02  1.0000000000000003e-01  9.9995827833187126e-02  9.9992809023854254e-02  9.9992840822830498e-02  9.9991283822228660e-02  9.9988771435786619e-02  9.9988639694052667e-02  9.9987245378058892e-02  9.9983627311820686e-02  9.9984742216147962e-02  9.9982657547070281e-02  9.9977418643845836e-02  9.9979479040009062e-02  9.9976454583172364e-02  9.9970221246219376e-02  9.9972354194778290e-02  9.9972130120761254e-02  9.9957293531269725e-02  9.9980067690609881e-02  9.9948454504594358e-02  9.9952953823194399e-02  9.9957382780869866e-02  9.9953775673056910e-02  9.9935537635505362e-02  9.9952162929064670e-02  9.9930098279784538e-02  9.9937747489599688e-02  9.9910408081918242e-02  9.9981201435552239e-02  9.9825719751788444e-02  1.0004132592607194e-01  1.0007602667494858e-01  1.0005449515767767e-01  1.0004463660246345e-01  1.0006150025530915e-01  1.0003647389571785e-01  1.0004135577107802e-01  1.0004159274610105e-01  1.0002552882022385e-01  1.0002155387011977e-01  1.0004308788626357e-01  1.0000886504766038e-01  1.0002539534016322e-01  1.0001819708245223e-01  1.0001370890718018e-01  1.0001095074355480e-01  1.0001185406388560e-01  1.0000432077878089e-01  1.0000455966731288e-01  1.0000370310034665e-01  9.9999527180776177e-02  9.9998552931096302e-02  9.9998071454594856e-02  9.9994628730718821e-02  9.9994687457666806e-02  9.9992075981122933e-02  9.9992479783327107e-02  9.9986845699250912e-02  9.9993333289287986e-02  9.9978027615337278e-02  1.0000000000000003e-01  9.9994129586778141e-02  1.0000000000000003e-01  9.9995379247289934e-02  9.9993138198745959e-02  9.9992619148167733e-02  9.9989914533017532e-02  9.9989680142310897e-02  9.9988169257050480e-02  9.9984858887950043e-02  9.9985350100447193e-02  9.9983892267362373e-02  9.9979220692540116e-02  9.9980821907731318e-02  9.9978517123499061e-02  9.9972328012131517e-02  9.9974770160405693e-02  9.9971969321765275e-02  9.9962050344507281e-02  9.9971106691402550e-02  9.9959653795626935e-02  9.9966724868610593e-02  9.9947858466350667e-02  9.9954904948927045e-02  9.9940485016790051e-02  9.9952202968815157e-02  9.9945729603483274e-02  9.9920981313424403e-02  9.9952892920509323e-02  9.9907863119716306e-02  9.9968824831701025e-02  9.9845767267787516e-02  1.0002582464524631e-01  1.0009951337820124e-01  1.0006036745729890e-01  1.0005578524393736e-01  1.0004834277159680e-01  1.0004442163294443e-01  1.0005179973555191e-01  1.0003222520619068e-01  1.0003062455947102e-01  1.0003458665964757e-01  1.0001483728679084e-01  1.0003357399171078e-01  1.0001637553890967e-01  1.0001959107605114e-01  1.0001293683220595e-01  1.0001807324858535e-01  1.0000715537482571e-01  1.0000834072112059e-01  1.0000705070611339e-01  1.0000182465364078e-01  1.0000151889838566e-01  1.0000069016892897e-01  9.9996892114216127e-02  9.9995861066576971e-02  9.9995667971531546e-02  9.9991796935215857e-02  9.9993109946395944e-02  9.9987685883121027e-02  9.9993317156684830e-02  9.9978823946275899e-02  1.0000000000000003e-01  9.9993768958775889e-02  1.0000000000000003e-01  9.9995586825622540e-02  9.9992991155178249e-02  9.9991698551498434e-02  9.9990635114895823e-02  9.9989481320955073e-02  9.9986353687506149e-02  9.9986328472167652e-02  9.9984926820213857e-02  9.9981058761204195e-02  9.9981723628091171e-02  9.9980223050825295e-02  9.9974851047848964e-02  9.9976875350498096e-02  9.9974395605034613e-02  9.9965853865589316e-02  9.9970844553974106e-02  9.9964859446128998e-02  9.9958948835487643e-02  9.9958945998662924e-02  9.9972747353755859e-02  9.9927889873446113e-02  9.9958809740948132e-02  9.9942133296618552e-02  9.9936094111066048e-02  9.9939899296371246e-02  9.9948228367315317e-02  9.9897570947808628e-02  9.9984375378116608e-02  9.9847588742315502e-02  1.0001781026060355e-01  1.0010751966229636e-01  1.0007574208826264e-01  1.0004350226510760e-01  1.0005247076848547e-01  1.0005515792851263e-01  1.0004038263891964e-01  1.0003742272266439e-01  1.0004267930014915e-01  1.0002285197848285e-01  1.0002434557803581e-01  1.0002239957818361e-01  1.0002703344024119e-01  1.0000962081473466e-01  1.0002477950653839e-01  1.0000868107011138e-01  1.0001335185359761e-01  1.0001070390544667e-01  1.0000521498649356e-01  1.0000402165046533e-01  1.0000391861756547e-01  9.9999202731860581e-02  9.9998884043776881e-02  9.9997274190034152e-02  9.9994991206843589e-02  9.9992787223330520e-02  9.9994026993399016e-02  9.9987881496178405e-02  9.9993866621542291e-02  9.9979929229733047e-02  1.0000000000000003e-01  9.9993868046493975e-02  1.0000000000000003e-01  9.9995742664198750e-02  9.9992515058067083e-02  9.9992527242972459e-02  9.9990812160147782e-02  9.9988400594249419e-02  9.9987915102378075e-02  9.9986507178696907e-02  9.9982989802528427e-02  9.9983609452641023e-02  9.9981860542732059e-02  9.9977137662278309e-02  9.9979010592650783e-02  9.9977240419001218e-02  9.9970187238540578e-02  9.9973217340040249e-02  9.9969662331579723e-02  9.9960617676545460e-02  9.9964749354458107e-02  9.9964362582302374e-02  9.9944187093734232e-02  9.9975146282153662e-02  9.9935080330933471e-02  9