<?xml version="1.0"?>
<VTKFile type="UnstructuredGrid"  version="0.1"  >
<UnstructuredGrid>
<Piece  NumberOfPoints="1933" NumberOfCells="3640">
<Points>
<DataArray  type="Float64"  NumberOfComponents="3"  format="ascii">-0.0002721626737974825 0.002029239369391941 0  4.999727833754793 0.001956340706734631 0  4.999837235772846 7.50195636434553 0  -0.0001627819461970104 7.502029223944982 0  9.999727813341861 0.001883402119799923 0  9.999837279127947 7.501883444186693 0  14.99972779732631 0.001810364354473247 0  14.99983736667732 7.501810415267856 0  19.99972781861931 0.001737193454464183 0  19.99983751898893 7.501737248759078 0  24.99972791397132 0.001663872635268752 0  24.99983775898277 7.501663930496843 0  29.99972812090971 0.001590396793227942 0  29.99983811159446 7.501590456780571 0  34.99972847698081 0.001516768831751486 0  34.99983860354008 7.501516831296031 0  39.99972902011354 0.001442997314189272 0  39.99983926334586 7.501443063076088 0  44.99972978953168 0.001369095092740546 0  44.99984012163225 7.501369165296979 0  49.9997308269498 0.001295078668672952 0  49.99984121160137 7.501295154734064 0  54.99973217794414 0.001220968125896562 0  54.99984256968155 7.501221051754578 0  59.99973389347444 0.001146787550089737 0  59.99984423629667 7.501146880779253 0  64.99973603157956 0.001072565903643681 0  64.99984625673903 7.50107267119502 0  69.99973865929839 0.000998338378724068 0  69.99984868213419 7.500998458749444 0  74.99974185489572 0.0009241483036635153 0  74.99985157048577 7.50092428750941 0  79.99974571049589 0.0008500497399247134 0  79.99985498778253 7.500850212528807 0  84.99975033526042 0.000776110989046216 0  84.99985900913086 7.500776303453511 0  89.99975585928692 0.0007024193477861882 0  89.99986371983779 7.500702649411133 0  94.99976243846197 0.0006290876322288632 0  94.99986921630574 7.500629365712449 0  99.99977026056351 0.0005562632845221526 0  99.99987560648054 7.500556603168561 0  104.9997795529801 0.0004841413624130723 0  104.9998830094001 7.500484561264815 0  109.9997905924525 0.0004129835448341917 0  109.9998915530648 7.500413507126546 0  114.9998037171619 0.0003431467544342208 0  114.9999013693473 7.500343803318898 0  119.9998193410451 0.0002751276564630373 0  119.999912583914 7.500275949271352 0  124.9998379688388 0.0002096342440306168 0  124.9999252982268 7.500210643818962 0  129.9998602066164 0.0001477051857405421 0  129.9999395600981 7.500148880346151 0  134.9998867530824 9.091604983785874e-05 0  134.9999553208349 7.500092091528326 0  139.9999183330806 4.174691422735494e-05 0  139.9999723868 7.500042368046671 0  144.9999554733807 4.244370017124596e-06 0  144.9999904110678 7.500002791061923 0  149.9999978475343 -1.486994104789586e-05 0  150.0000091056817 7.499978001386787 0  160 7.69513917405313e-19 0  164.9999092196028 -0.0001018239565266665 0  164.9999831886081 7.499885980014683 0  160.0000132852258 7.499969686892137 0  169.9998504744566 -0.0002007005106379933 0  169.9999525665593 7.499793068610596 0  174.9998106075704 -0.0002972234644269011 0  174.9999258216706 7.499699175227593 0  179.9997825768726 -0.0003912284339134344 0  179.9999036655939 7.499606556185671 0  184.9997623173724 -0.0004827992300614656 0  184.9998857183752 7.499515781601063 0  189.9997473662106 -0.0005721798823518638 0  189.9998713274575 7.499426879686387 0  194.9997361695315 -0.0006596533060882512 0  194.9998598421622 7.499339703801481 0  199.9997277084008 -0.0007454839424901312 0  199.9998506978772 7.499254063893947 0  204.9997212893043 -0.0008298999169161574 0  204.9998434306605 7.499169774061945 0  209.9997164235401 -0.0009130922767797156 0  209.9998376678946 7.499086667777594 0  214.9997127558993 -0.0009952199679812606 0  214.9998331126966 7.49900460061461 0  219.9997100212572 -0.001076415822529775 0  219.999829528641 7.49892344851872 0  224.999708017312 -0.001156791904299501 0  224.9998267268123 7.498843104855495 0  229.9997065868968 -0.001236443822754867 0  229.9998245554741 7.49876347745849 0  234.9997056061182 -0.001315454079443782 0  234.9998228920387 7.498684486067147 0  239.9997049761454 -0.001393894637208455 0  239.999821636887 7.49860606021645 0  244.999704617359 -0.001471828906041749 0  244.9998207086142 7.498528137524493 0  249.9997044650676 -0.001549313307515318 0  249.9998200403631 7.498450662295118 0  254.9997044663035 -0.001626398543631105 0  254.9998195769806 7.49837358435467 0  259.9997045773816 -0.001703130665892664 0  259.9998192727982 7.498296858053632 0  264.9997047620238 -0.001779552018012624 0  264.9998190899016 7.498220441376086 0  269.9997049899131 -0.001855702109589095 0  269.9998189967822 7.498144295110859 0  274.9997052356167 -0.001931618465515603 0  274.9998189672954 7.498068382048516 0  279.9997054778394 -0.002007337482400513 0  279.9998189798857 7.497992666180249 0  284.9997056990358 -0.002082895300868227 0  284.9998190170228 7.497917111893524 0  289.9997058854433 -0.002158328654448373 0  289.9998190648326 7.497841683193431 0  294.9997060276806 -0.002233675543493026 0  294.99981911287 7.497766343041104 0  299.9997061221057 -0.002308975312300209 0  299.9998191539898 7.497691053008985 0  304.9997061731769 -0.002384267029484241 0  304.9998191842811 7.49761577360848 0  309.9997061969543 -0.002459583247108251 0  309.9998192031996 7.497540465735724 0  4.99994645372698 15.00195644156231 0  -5.357164176778006e-05 15.00202919358113 0  9.999946514467798 15.0018835739967 0  14.99994663041845 15.00181056892627 0  19.99994681778993 15.00173741276759 0  24.99994709193808 15.00166409982555 0  29.99994746874348 15.001590631036 0  34.99994796523833 15.00151701263928 0  39.99994859989676 15.00144325513783 0  44.99994939280273 15.00136937265523 0  49.99995036579146 15.00129538271274 0  54.99995154259401 15.00122130641143 0  59.99995294898181 15.00114716901406 0  64.99995461288778 15.00107300094503 0  69.99995656446356 15.00099883925861 0  74.99995883601899 15.0009247296686 0  79.99996146176072 15.00085072928603 0  84.99996447722084 15.0007769102835 0  89.99996791821459 15.00070336480335 0  94.99997181910754 15.00063021156272 0  99.99997621009609 15.00055760479526 0  104.9999811131246 15.00048574641808 0  109.9999865360142 15.0004149026181 0  114.9999924644465 15.0003454263598 0  119.9999988518293 15.00027778742795 0  125.0000056081663 15.00021261096361 0  130.0000125916381 15.0001507225014 0  135.0000196119269 15.00009318822667 0  140.0000264638948 15.00004131248752 0  145.0000330228357 14.99999647743145 0  150.000039428927 14.99995946754635 0  165.0000376986632 14.99985384622647 0  160.000044515432 14.99992638869662 0  170.0000271713024 14.99977196577053 0  175.0000148983198 14.99968552918727 0  180.0000025712077 14.9995976216326 0  184.9999911217431 14.99950980175008 0  189.9999809513151 14.99942277372912 0  194.9999721594234 14.99933680940391 0  199.999964691561 14.99925197147211 0  204.999958424288 14.99916822629581 0  209.999953211081 14.99908549971184 0  214.9999489055398 14.99900370403369 0  219.9999453720966 14.99892275064942 0  224.9999424900923 14.99884255550527 0  229.9999401544996 14.9987630411393 0  234.9999382750698 14.99868413709127 0  239.9999367748352 14.99860577958587 0  244.999935588442 14.99852791092096 0  249.999934660546 14.99845047875982 0  254.9999339443608 14.99837343541266 0  259.9999334003943 14.99829673713675 0  264.9999329953691 14.99822034345919 0  269.9999327013168 14.99814421651474 0  274.9999324948115 14.9980683203887 0  279.9999323563255 14.99799262045609 0  284.9999322696709 14.99791708271441 0  289.9999322214841 14.99784167311197 0  294.999932200732 14.99776635686956 0  299.9999321982015 14.99769109774013 0  304.9999322059967 14.99761585693819 0  309.9999322171174 14.99754059076181 0  5.000055374877225 22.50195664674034 0  5.534716962596331e-05 22.50202925659008 0  10.00005543307824 22.50188385520283 0  15.00005554016006 22.50181088877007 0  20.00005570895684 22.50173775248939 0  25.00005594952203 22.50166445235634 0  30.00005627082429 22.50159099648046 0  35.00005668169106 22.50151739548814 0  40.00005719126518 22.50144366263759 0  45.00005780916091 22.50136981392308 0  50.00005854543539 22.501295868322 0  55.00005941043064 22.50122184827145 0  60.0000604145051 22.50114778043445 0  65.00006156764229 22.50107369681297 0  70.00006287890291 22.50099963627709 0  75.00006435566854 22.50092564660517 0  80.00006600260734 22.50085178716327 0  85.0000678202738 22.5007781323961 0  90.00006980324682 22.50070477635399 0  95.00007193770563 22.50063183853744 0  100.0000741983727 22.50055947138924 0  105.0000765448358 22.50048786977202 0  110.0000789174546 22.50041728266262 0  115.0000812334373 22.5003480269144 0  120.0000833843631 22.50028050195478 0  125.0000852375557 22.50021520204159 0  130.0000866453135 22.50015271792464 0  135.0000874676492 22.50009371015099 0  140.0000876140253 22.50003881818233 0  145.0000871018474 22.49998843996667 0  150.0000860998623 22.49994228984755 0  165.0000950968908 22.49981909554082 0  160.0000902575492 22.49988610060966 0  170.0000962876163 22.49974448888385 0  175.00009458615 22.49966483759782 0  180.0000909851591 22.49958233661742 0  185.0000863735169 22.49949854385068 0  190.0000813991173 22.49941443413347 0  195.0000764798848 22.49933056819586 0  200.000071859096 22.49924724338989 0  205.0000676608385 22.49916459897482 0  210.0000639331682 22.49908268288417 0  215.0000606783241 22.49900149210875 0  220.0000578726673 22.49892099646857 0  225.0000554793263 22.49884115234611 0  230.000053455943 22.49876191048484 0  235.0000517592535 22.49868322032269 0  240.0000503476708 22.49860503231679 0  245.0000491826373 22.49852729910726 0  250.0000482292293 22.4984499760112 0  255.0000474563301 22.49837302112861 0  260.0000468365479 22.49829639522274 0  265.0000463460034 22.49822006146621 0  270.0000459640439 22.49814398510602 0  275.0000456729227 22.49806813307688 0  280.0000454574497 22.49799247358008 0  285.0000453046186 22.49791697563473 0  290.0000452031874 22.49784160859538 0  295.0000451432052 22.49776634159748 0  300.0000451154446 22.4976911
[...]
<PointData  Scalars="p"> 
<DataArray  type="Float64"  Name="p"  format="ascii">1.0000000000000001e-01  1.0000000000000003e-01  1.0000389870682135e-01  1.0000000000000003e-01  1.0000000000000003e-01  1.0000453207032180e-01  1.0000000000000003e-01  1.0000684397751708e-01  1.0000000000000003e-01  1.0000801769993298e-01  1.0000000000000003e-01  1.0000968402744395e-01  1.0000000000000003e-01  1.0001242147455139e-01  1.0000000000000003e-01  1.0001364573738154e-01  1.0000000000000003e-01  1.0001552187610933e-01  1.0000000000000003e-01  1.0001860905467017e-01  1.0000000000000003e-01  1.0001906470302387e-01  1.0000000000000003e-01  1.0002672296191702e-01  1.0000000000000003e-01  1.0003094904046084e-01  1.0000000000000003e-01  1.0003546939915360e-01  1.0000000000000003e-01  1.0003911234498009e-01  1.0000000000000003e-01  1.0004648968256304e-01  1.0000000000000003e-01  1.0004947225840195e-01  1.0000000000000003e-01  1.0005489918396997e-01  1.0000000000000003e-01  1.0006322748080286e-01  1.0000000000000003e-01  1.0006569284086782e-01  1.0000000000000003e-01  1.0007398993567773e-01  1.0000000000000003e-01  1.0007904535342615e-01  1.0000000000000003e-01  1.0008810595105373e-01  1.0000000000000003e-01  1.0008597419768987e-01  1.0000000000000003e-01  1.0010864885052254e-01  1.0000000000000003e-01  1.0008788330485045e-01  1.0000000000000003e-01  1.0013415601574160e-01  1.0000000000000003e-01  1.0008158114486841e-01  1.0000000000000003e-01  1.0016940399196252e-01  1.0000000000000003e-01  1.0006434290109856e-01  1.0000000000000001e-01  1.0022914741217817e-01  1.0000000000000001e-01  1.0000000000000003e-01  9.9813970873131139e-02  9.9617559636407241e-02  1.0000000000000003e-01  9.9945782087657767e-02  1.0000000000000003e-01  9.9853039503869048e-02  1.0000000000000003e-01  9.9902883124136685e-02  1.0000000000000003e-01  9.9887902827953901e-02  1.0000000000000003e-01  9.9900755858080698e-02  1.0000000000000003e-01  9.9894659176397255e-02  1.0000000000000003e-01  9.9905519895008996e-02  1.0000000000000003e-01  9.9903879890973671e-02  1.0000000000000003e-01  9.9907539733802786e-02  1.0000000000000003e-01  9.9910710847304754e-02  1.0000000000000003e-01  9.9913037124119530e-02  1.0000000000000003e-01  9.9914579206768259e-02  1.0000000000000003e-01  9.9917789873000137e-02  1.0000000000000003e-01  9.9919300403988318e-02  1.0000000000000003e-01  9.9920949277286092e-02  1.0000000000000003e-01  9.9922994857984962e-02  1.0000000000000003e-01  9.9924494480844492e-02  1.0000000000000003e-01  9.9925482633811791e-02  1.0000000000000003e-01  9.9927423362443715e-02  1.0000000000000003e-01  9.9927833040557218e-02  1.0000000000000003e-01  9.9929932080029232e-02  1.0000000000000003e-01  9.9929129139787409e-02  1.0000000000000003e-01  9.9933318287331763e-02  1.0000000000000003e-01  9.9928277741001464e-02  1.0000000000000003e-01  9.9939026368692577e-02  1.0000000000000003e-01  9.9922998613579034e-02  1.0000000000000003e-01  9.9951373760534340e-02  1.0000000000000003e-01  9.9902864958457752e-02  1.0000000000000001e-01  1.0000000000000003e-01  1.0000641933892047e-01  1.0000000000000003e-01  1.0000636056575711e-01  1.0000681827055463e-01  1.0000770477729369e-01  1.0001001982861975e-01  1.0000984933962909e-01  1.0001028387218404e-01  1.0001363337184582e-01  1.0001208298038348e-01  1.0001342335080263e-01  1.0001648144595481e-01  1.0002438063036419e-01  1.0002209309703258e-01  1.0003063252971672e-01  1.0002688905646057e-01  1.0003018204973574e-01  1.0003689562426915e-01  1.0003498575336797e-01  1.0003719083881094e-01  1.0004724757101140e-01  1.0004094071731887e-01  1.0004977128577634e-01  1.0004898079929411e-01  1.0005922053985948e-01  1.0004009173108372e-01  1.0008604582243619e-01  1.0001097165139151e-01  1.0014174609448905e-01  9.9942202551666734e-02  1.0023250720464967e-01  1.0016161169225696e-01  9.9413976194316814e-02  9.9824110130449104e-02  9.9972101328800439e-02  9.9948290994787678e-02  9.9958420950009480e-02  9.9938224592094047e-02  9.9961940509426361e-02  9.9950236831868794e-02  9.9953189682028140e-02  9.9957902443676416e-02  9.9958129384379341e-02  9.9957542607987615e-02  9.9962435134968095e-02  9.9962528972207296e-02  9.9963077644758924e-02  9.9965919114142474e-02  9.9966471042324853e-02  9.9967015280924096e-02  9.9968778173267506e-02  9.9969649934936622e-02  9.9969642042900708e-02  9.9971851487791807e-02  9.9970880706233278e-02  9.9973951627782678e-02  9.9970466300337943e-02  9.9978722530160449e-02  9.9965157778784300e-02  9.9989874198366746e-02  9.9952634585025790e-02  1.0000000000000003e-01  1.0000947996095574e-01  1.0000000000000003e-01  1.0000641001288040e-01  1.0000954099983096e-01  1.0001192850292924e-01  1.0001238290899722e-01  1.0001286044579524e-01  1.0001774225914276e-01  1.0001658660333884e-01  1.0001685337990326e-01  1.0002242248096545e-01  1.0002360430142482e-01  1.0001992963139765e-01  1.0004283801826128e-01  1.0003499114357862e-01  1.0003977784996652e-01  1.0005017758992020e-01  1.0004541831546603e-01  1.0004971643279119e-01  1.0006284503348764e-01  1.0005778985791722e-01  1.0006100177537139e-01  1.0007943948330186e-01  1.0006408733325092e-01  1.0008455117863782e-01  1.0007236905383908e-01  1.0010416267911010e-01  1.0004652267825508e-01  1.0017062023486763e-01  9.9946478674411240e-02  1.0036483278052323e-01  1.0011672378336499e-01  9.9457644973535181e-02  9.9717700330901687e-02  9.9941304297725242e-02  9.9926073197088627e-02  9.9879555515508783e-02  9.9942921792708223e-02  9.9907247620819817e-02  9.9915035727000959e-02  9.9924502946191929e-02  9.9923299818512085e-02  9.9920562695731477e-02  9.9930597069877516e-02  9.9929337402498056e-02  9.9930012775076835e-02  9.9935639609208080e-02  9.9936304256931383e-02  9.9936674341435536e-02  9.9940601996395456e-02  9.9941145482021654e-02  9.9942045940530841e-02  9.9944094570903905e-02  9.9945662654368828e-02  9.9944969978021839e-02  9.9949086084341679e-02  9.9945766533821312e-02  9.9953130836314838e-02  9.9942847563234419e-02  9.9964294513975552e-02  9.9925035618988203e-02  1.0000000000000003e-01  1.0001136192202464e-01  1.0000000000000003e-01  1.0000727602335642e-01  1.0001263544401828e-01  1.0001208458831438e-01  1.0001262114593926e-01  1.0001769262577813e-01  1.0001634684166601e-01  1.0001633521659224e-01  1.0002259540495842e-01  1.0001999246073084e-01  1.0001971006640974e-01  1.0003311722128934e-01  1.0002111866306500e-01  1.0003967364202719e-01  1.0004568307577971e-01  1.0004188781092500e-01  1.0004200914360620e-01  1.0005784899542484e-01  1.0004721296288900e-01  1.0005379857107052e-01  1.0006631582876928e-01  1.0006112525586840e-01  1.0005738116292784e-01  1.0008798239475439e-01  1.0004762044042177e-01  1.0010552919243386e-01  1.0002502902944978e-01  1.0017120264168811e-01  9.9910800257024507e-02  1.0038735547683986e-01  1.0012066194366394e-01  9.9331025880458362e-02  9.9812442178201843e-02  9.9982259457668518e-02  9.9809333795635627e-02  1.0000138880560397e-01  9.9907894095281891e-02  9.9932365707838811e-02  9.9937384006223054e-02  9.9938128746627733e-02  9.9928721653764596e-02  9.9945143553984928e-02  9.9940292643547715e-02  9.9940411664261500e-02  9.9947789494108041e-02  9.9948052439736812e-02  9.9947896993342264e-02  9.9953186742092109e-02  9.9953644250863061e-02  9.9953869162450748e-02  9.9957463608703820e-02  9.9957622574024407e-02  9.9959044840681022e-02  9.9959749321430716e-02  9.9963076229085790e-02  9.9959169574220519e-02  9.9968637842436786e-02  9.9955605848914553e-02  9.9979052662298576e-02  9.9942984727186282e-02  1.0000000000000003e-01  1.0001329461239850e-01  1.0000000000000003e-01  1.0000927252555651e-01  1.0001300322006562e-01  1.0001215628607010e-01  1.0001825795561696e-01  1.0001672280136094e-01  1.0001746712202214e-01  1.0002426629231137e-01  1.0002130389603589e-01  1.0002074861045182e-01  1.0003241043800430e-01  1.0002590695817556e-01  1.0003114750382149e-01  1.0003452321623170e-01  1.0004833534695060e-01  1.0004357468546206e-01  1.0006270154275695e-01  1.0005006379894225e-01  1.0005407795310396e-01  1.0007380813252320e-01  1.0005822745372576e-01  1.0006854569111323e-01  1.0007944630735408e-01  1.0007973572965848e-01  1.0005919257485692e-01  1.0012304748629872e-01  1.0002026876917713e-01  1.0019329680154447e-01  9.9895594799384951e-02  1.0045045179372102e-01  1.0023286446968167e-01  9.9241965986330088e-02  9.9757800954009795e-02  9.9921130843284883e-02  9.9891708215942898e-02  9.9888928894718051e-02  9.9918445899716296e-02  9.9922864308238768e-02  9.9932011699477408e-02  9.9905859170354785e-02  9.9936326888155166e-02  9.9925057953679605e-02  9.9924740316091581e-02  9.9935227814880540e-02  9.9934660472619036e-02  9.9933078179822721e-02  9.9941497361725154e-02  9.9941463549887227e-02  9.9941636689163199e-02  9.9946471856577318e-02  9.9947354301086783e-02  9.9947249869970542e-02  9.9951274845183680e-02  9.9950706638797598e-02  9.9953575453305035e-02  9.9951936311761400e-02  9.9959213937658525e-02  9.9948361608315509e-02  9.9970763436415117e-02  9.9933599822370489e-02  1.0000000000000003e-01  1.0001558728530266e-01  1.0000000000000003e-01  1.0000935211643042e-01  1.0001356210203580e-01  1.0001628425028015e-01  1.0001682553757531e-01  1.0001691870903763e-01  1.0002390346641798e-01  1.0002192647382153e-01  1.0002088603995592e-01  1.0003082355651095e-01  1.0002664503330409e-01  1.0002773677218377e-01  1.0003902309130047e-01  1.0003623877472176e-01  1.0002430209904230e-01  1.0006825701958486e-01  1.0004712113812078e-01  1.0005384920807822e-01  1.0007175700991019e-01  1.0005762766634767e-01  1.0005876389214050e-01  1.0008840600461193e-01  1.0005901682927092e-01  1.0008223754990203e-01  1.0007416194605717e-01  1.0010823072553902e-01  1.0001632037236656e-01  1.0021404688650788e-01  9.9858494793587979e-02  1.0050168117576007e-01  1.0022481050742840e-01  9.9265350610669753e-02  9.9704537376743410e-02  1.0001696755741336e-01  9.9868054196770722e-02  9.9894491811377648e-02  9.9885646680226634e-02  9.9963626695143706e-02  9.9889040563756387e-02  9.9952135175748816e-02  9.9923219532758359e-02  9.9925208361217627e-02  9.9937971415295299e-02  9.9937128476663431e-02  9.9932272145208653e-02  9.9944390652518061e-02  9.9942956212248760e-02  9.9942476742536299e-02  9.9949728830383749e-02  9.9949944900264986e-02  9.9950003114123692e-02  9.9954238653004679e-02  9.9955540320866509e-02  9.9954566513548559e-02  9.9959892394069494e-02  9.9956455787260104e-02  9.9964262209936011e-02  9.9953947994698672e-02  9.9975544153473678e-02  9.9940739420941338e-02  1.0000000000000003e-01  1.0001684202687594e-01  1.0000000000000003e-01  1.0000951298269570e-01  1.0001739047156204e-01  1.0001535882823154e-01  1.0001682579758724e-01  1.0002279865772482e-01  1.0002213360735521e-01  1.0002109371992074e-01  1.0003097229292914e-01  1.0002657336264809e-01  1.0002682257111047e-01  1.0004032151445919e-01  1.0003442934251849e-01  1.0003052816832066e-01  1.0005448388372332e-01  1.0002828483786305e-01  1.0005903052300158e-01  1.0007252869477701e-01  1.0005878192988481e-01  1.0006064969919061e-01  1.0008516516680185e-01  1.0006734582848412e-01  1.0006483286292968e-01  1.0010773080264602e-01  1.0005429144620195e-01  1.0011501411972668e-01  1.0003617167147354e-01  1.0020507412344735e-01  9.9851045393448121e-02  1.0055281902783397e-01  1.0020801577653793e-01  9.9206766364767121e-02  9.9758863570295009e-02  9.9993332823399547e-02  9.9830734509855343e-02  9.9938916100679606e-02  9.9900264117444154e-02  9.9856298295077126e-02  9.9962402639516987e-02  9.9911500136033782e-02  9.9922138749010514e-02  9.9929824693117966e-02  9.9933010935742278e-02  9.9922397440289204e-02  9.9939750975078998e-02  9.9936303674117669e-02  9.9934803976720749e-02  9.9943717226647702e-02  9.9944329829077527e-02  9.9943506181981681e-02  9.9950032291902052e-02  9.9950083834130246e-02  9.9950991625958469e-02  9.9953566767563937e-02  9.9956431517280300e-02  9.9953368434691131e-02  9.9962147224726502e-02  9.9951578794076804e-02  9.9972683175288041e-02  9.9938460211047117e-02  1.0000000000000003e-01  1.0001793750834288e-01  1.0000000000000003e-01  1.0001153286087150e-01  1.0001705329004457e-01  1.0001514183652269e-01  1.0002190160708291e-01  1.0002063973135052e-01  1.0002074564208099e-01  1.0002978913521440e-01  1.0002624103890367e-01  1.0002562798058100e-01  1.0003900666250565e-01  1.0003338916996794e-01  1.0003196546903043e-01  1.0005070319437161e-01  1.0003528511182869e-01  1.0004250612395742e-01  1.0004776673774426e-01  1.0006563139066345e-01  1.0005627211650087e-01  1.0009010631337048e-01  1.0006040365864674e-01  1.0007121584466760e-01  1.0009246606953502e-01  1.0008110871161988e-01  1.0005657372821351e-01  1.0014295464075709e-01  1.0000913859491484e-01  1.0021536415820681e-01  9.9855338391634491e-02  1.0056834993332209e-01  1.0027734750522294e-01  9.9144171396008215e-02  9.9730394598406158e-02  9.9965898267472361e-02  9.9882677904369097e-02  9.9937900818572414e-02  9.9865078329060705e-02  9.9928557153504891e-02  9.9880929839170171e-02  9.9937531172626090e-02  9.9921370420503808e-02  9.9941805540742779e-02  9.9914448841845499e-02  9.9942444389604507e-02  9.9934725069458066e-02  9.9932552490720014e-02  9.9943531199798513e-02  9.9943351670278513e-02  9.9941048587335213e-02  9.9949827606448244e-02  9.9950280053863749e-02  9.9949586008833260e-02  9.9955520415119029e-02  9.9954944922566541e-02  9.9957334643497500e-02  9.9956843335062773e-02  9.9963984695115721e-02  9.9953595967821954e-02  9.9974997806981630e-02  9.9941777476816693e-02  1.0000000000000003e-01  1.0001959598086765e-01  1.0000000000000003e-01  1.0001122757315743e-01  1.0001700090121900e-01  1.0001900440781918e-01  1.0002045246420192e-01  1.0001938849612872e-01  1.0002789503978883e-01  1.0002569544570701e-01  1.0002484450124735e-01  1.0003614998376509e-01  1.0003284085067544e-01  1.0003126943369998e-01  1.0004842271709684e-01  1.0003828364554677e-01  1.0003779645777888e-01  1.0005571492221120e-01  1.0004753834784258e-01  1.0002862116512821e-01  1.0009570201802340e-01  1.0006130573208452e-01  1.0006688421962684e-01  1.0010237067452074e-01  1.0006316477657529e-01  1.0008352568773543e-01  1.0009182375683598e-01  1.0011125520887110e-01  1.0001200554437759e-01  1.0024786112447012e-01  9.9822966502309055e-02  1.0059453990541442e-01  1.0028085872690282e-01  9.9157811790600264e-02  9.9691527497367219e-02  1.0001671456191326e-01  9.9868119582831011e-02  9.9903230325095613e-02  9.9914320044070248e-02  9.9914793496994211e-02  9.9885524052801350e-02  9.9895291687935969e-02  9.9956272146884032e-02  9.9900388688573316e-02  9.9947807344431774e-02  9.9928940090374521e-02  9.9928569699098801e-02  9.9940400620183237e-02  9.9941159022832515e-02  9.9935840941505247e-02  9.9947200913856116e-02  9.9946424736671119e-02  9.9945891128909850e-02  9.9952586414097933e-02  9.9953873892944425e-02  9.9952485651267686e-02  9.9958906839989495e-02  9.9956040979645291e-02  9.9962637550092104e-02  9.9954410644124747e-02  9.9974132151340961e-02  9.9941846241487775e-02  1.0000000000000003e-01  1.0002024280563543e-01  1.0000000000000003e-01  1.0001104874790691e-01  1.0002026994976410e-01  1.0001785831120270e-01  1.0001958120014290e-01  1.0002549129015215e-01  1.0002484964464678e-01  1.0002378256235324e-01  1.0003408206344644e-01  1.0003091657528254e-01  1.0002963454976629e-01  1.0004595130612366e-01  1.0003868881756786e-01  1.0003622064867247e-01  1.0005624248215191e-01  1.0004473573255007e-01  1.0003647830294674e-01  1.0007444920539639e-01  1.0003043352198082e-01  1.0007512571172414e-01  1.0009545886911407e-01  1.0007364458698105e-01  1.0006543746256988e-01  1.0012292181092282e-01  1.0005292089351231e-01  1.0011412050988092e-01  1.0004982747350892e-01  1.0021434667518990e-01  9.9821306801821885e-02  1.0063796565307248e-01  1.0026555495850335e-01  9.9133636092341285e-02  9.9725067638748222e-02  1.0001211533880935e-01  9.9835397982837887e-02  9.9948236281886080e-02  9.9905569109856485e-02  9.9896989634713912e-02  9.9914918843845027e-02  9.9920279182094812e-02  9.9870824477012871e-02  9.9964313253098305e-02  9.9921119889304605e-02  9.9932624288226787e-02  9.9936596320481005e-02  9.9942386891175461e-02  9.9932214608396353e-02  9.9947296974129643e-02  9.9945444931648753e-02  9.9943057271956459e-02  9.9951510684133549e-02  9.9952220945828632e-02  9.9952081970890130e-02  9.9956718382457760e-02  9.9959316415439980e-02  9.9956198954042133e-02  9.9965199930838938e-02  9.9955698677569330e-02  9.9974811871275673e-02  9.9944282307231042e-02  1.0000000000000003e-01  1.0002074880324607e-01  1.0000000000000003e-01  1.0001257305226889e-01  1.0001959266838142e-01  1.0001699005211323e-01  1.0002410256420073e-01  1.0002295577941850e-01  1.0002303644360640e-01  1.0003143630938380e-01  1.0002924776522153e-01  1.0002750563806713e-01  1.0004206803173346e-01  1.0003697774188966e-01  1.0003526508103484e-01  1.0005396372708222e-01  1.0004336600756678e-01  1.0003906059973902e-01  1.0006693891713032e-01  1.0004228524320638e-01  1.0004979054908852e-01  1.0006251182318698e-01  1.0007746831259628e-01  1.0006951992657870e-01  1.0011106448243319e-01  1.0007875248545257e-01  1.0005823249287828e-01  1.0015757434109113e-01  1.0000812776723671e-01  1.0021351173474212e-01  9.9862692483680515e-02  1.0060624587233531e-01  1.0030741394053910e-01  9.9091331642538638e-02  9.9718279674786844e-02  9.9986596675247535e-02  9.9870861640251621e-02  9.9942851670136390e-02  9.9878279591785774e-02  9.9929568601232088e-02  9.9918991749996619e-02  9.9894041854271517e-02  9.9925086863791895e-02  9.9897646062994575e-02  9.9944015989343160e-02  9.9928757512315100e-02  9.9948295492664180e-02  9.9925486818749340e-02  9.9948054163941105e-02  9.9943331767174362e-02  9.9940752285231985e-02  9.9950053329083868e-02  9.9950560016072137e-02  9.9947890374710691e-02  9.9956411269539469e-02  9.9955977928787895e-02  9.9957623660463110e-02  9.9958778556851369e-02  9.9965138311745472e-02  9.9955713883841446e-02  9.9975548242605169e-02  9.9945395352075903e-02  1.0000000000000003e-01  1.0002190147454061e-01  1.0000000000000003e-01  1.0001219364636363e-01  1.0001912908900586e-01  1.0002026811971025e-01  1.0002253322202535e-01  1.0002126795359668e-01  1.0002936153748054e-01  1.0002786535617662e-01  1.0002625091232301e-01  1.0003767855029426e-01  1.0003505863350630e-01  1.0003312352917604e-01  1.0005002804884790e-01  1.0004320358094423e-01  1.0003829667250805e-01  1.0006276246654169e-01  1.0004629270047648e-01  1.0004386979148425e-01  1.0007027180926871e-01  1.0005640258667994e-01  1.0002623159945677e-01  1.0012628816636980e-01  1.0006223670415183e-01  1.0008620336376824e-01  1.0010798831795142e-01  1.0010470903677622e-01  1.0001122415923204e-01  1.0026193127129994e-01  9.9820456467062377e-02  1.0060142107903394e-01  1.0032162902165788e-01  9.9108368169619113e-02  9.9687616716440275e-02  1.0002006140967043e-01  9.9869456147213209e-02  9.9916530750712163e-02  9.9910059025915890e-02  9.9929701348454941e-02  9.9893536996874394e-02  9.9930573184705537e-02  9.9920228976094330e-02  9.9907210250111844e-02  9.9905800173597889e-02  9.9963770437036345e-02  9.9916092843382709e-02  9.9954417733234074e-02  9.9940448871492255e-02  9.9939984694056141e-02  9.9949270403254908e-02  9.9950803980361630e-02  9.9946199201089631e-02  9.9954900097543264e-02  9.9955480515032849e-02  9.9954003082885545e-02  9.9961543376525297e-02  9.9959378507988736e-02  9.9964757057187131e-02  9.9958489614578580e-02  9.9976084784548364e-02  9.9947206967082119e-02  1.0000000000000003e-01  1.0002212639304631e-01  1.0000000000000003e-01  1.0001173935593338e-01  1.0002161318505071e-01  1.0001896956851866e-01  1.0002121918905649e-01  1.0002623437966517e-01  1.0002646743979372e-01  1.0002517242596158e-01  1.0003469328503252e-01  1.0003223354910003e-01  1.0003084720655615e-01  1.0004562040998738e-01  1.0004121504649885e-01  1.0003680285088441e-01  1.0005828604994374e-01  1.0004752018633314e-01  1.0004098561022184e-01  1.0007027735096628e-01  1.0005168306277912e-01  1.0003909765573417e-01  1.0009211689838729e-01  1.0003144559422002e-01  1.0007941801470699e-01  1