<?xml version="1.0"?>
<VTKFile type="UnstructuredGrid"  version="0.1"  >
<UnstructuredGrid>
<Piece  NumberOfPoints="1933" NumberOfCells="3640">
<Points>
<DataArray  type="Float64"  NumberOfComponents="3"  format="ascii">-0.293543293781467 -0.003235021563571664 0  4.70645676386181 -0.003147555185326536 0  4.706325530885316 7.496852571542939 0  -0.2936745407263621 7.496765084514357 0  9.706456866339927 -0.003060177634918615 0  9.70632564473285 7.49693994800917 0  14.70645706103304 -0.002972862897247692 0  14.70632581485763 7.497027256191848 0  19.70645738324472 -0.002885557974954867 0  19.70632605084885 7.497114554206086 0  24.70645785571223 -0.002798197368084674 0  24.7063263577788 7.497201908966554 0  29.7064584906213 -0.002710709293754576 0  29.70632673569639 7.497289392416256 0  34.70645929172355 -0.002623018005541954 0  34.70632717924163 7.497377080061419 0  39.70646025589618 -0.00253504413543411 0  39.70632767731058 7.497465050927237 0  44.70646137403875 -0.00244670396197649 0  44.70632821261933 7.497553388381492 0  49.70646263135001 -0.00235790802687569 0  49.70632876103542 7.497642181530344 0  54.70646400704165 -0.002268559273451431 0  54.70632929057092 7.497731527058589 0  59.70646547350537 -0.002178550738662997 0  59.70632975993421 7.497821531495937 0  64.7064669949004 -0.002087762736624189 0  64.70633011651489 7.497912313969173 0  69.70646852505071 -0.001996059393430681 0  69.70633029364153 7.498004009566484 0  74.70647000445656 -0.001903284309992137 0  74.70633020688294 7.498096773507672 0  79.70647135608141 -0.001809255023712709 0  79.70632974907468 7.498190786393984 0  84.70647247937217 -0.001713755792105344 0  84.70632878362882 7.498286260909292 0  89.70647324161719 -0.001616528007178113 0  89.70632713551508 7.498383450464083 0  94.70647346517005 -0.001517257236133883 0  94.70632457910069 7.498482660403933 0  99.70647290803855 -0.001415555431140929 0  99.70632082183475 7.498584262502606 0  104.7064712335423 -0.001310936220666135 0  104.706315482638 7.498688713408463 0  109.7064679614644 -0.001202780390149386 0  109.7063080641285 7.498796577210824 0  114.7064623871841 -0.001090287844958745 0  114.7062979190982 7.498908550645714 0  119.7064534442846 -0.0009724121891335729 0  119.7062842154875 7.499025485095194 0  124.7064394658305 -0.0008477766628763129 0  124.7062659138413 7.499148389047398 0  129.7064177617969 -0.0007145818233362692 0  129.7062417939805 7.499278370980023 0  134.7063838601523 -0.0005705547302099671 0  134.7062106183547 7.49941643205169 0  139.7063301282806 -0.0004131163155436781 0  139.7061716291751 7.499562919613762 0  144.7062432383856 -0.000240373690607153 0  144.7061258115013 7.499716305517459 0  149.7060993872612 -5.517501877162432e-05 0  149.7060788817589 7.499870993421368 0  159.7061073738527 1.089422022397803e-18 0  164.7061032165075 -6.499414822554847e-05 0  164.7061087312736 7.499916946374891 0  159.7061002314796 7.499958571966429 0  169.7061234074872 -8.980953816907714e-05 0  169.7061168848232 7.499901524942646 0  174.706152320933 -8.684990531523631e-05 0  174.7061273672151 7.499908826393151 0  179.7061829788143 -6.397656045328148e-05 0  179.7061398453125 7.499933855024263 0  184.7062123351886 -2.659015102226068e-05 0  184.7061534004231 7.499972349198678 0  189.7062391814119 2.151040428225529e-05 0  189.7061672059498 7.500021029445997 0  194.7062631651533 7.762056356026568e-05 0  194.7061806704223 7.50007744577317 0  199.7062843213443 0.0001397916414815255 0  199.7061934206192 7.500139778844041 0  204.7063028471729 0.0002066001969466673 0  204.7062052478466 7.500206672345325 0  209.706318995218 0.0002769909558546355 0  209.7062160562371 7.500277106391411 0  214.7063330240661 0.0003501697121191756 0  214.7062258227392 7.50035030570714 0  219.7063451768277 0.0004255298626814337 0  219.7062345688936 7.500425673972538 0  224.7063556730762 0.0005026014823571472 0  224.7062423419087 7.500502746942272 0  229.7063647071143 0.0005810155424217279 0  229.7062492024093 7.500581158784552 0  234.7063724491014 0.0006604783861036245 0  234.7062552167549 7.500660617683184 0  239.7063790473696 0.00074075323625875 0  239.7062604523888 7.500740887953514 0  244.7063846311401 0.0008216465988887499 0  244.7062649751837 7.500821776781583 0  249.7063893132816 0.000902998138260624 0  249.706268848076 7.500903124289408 0  254.7063931929839 0.0009846730694464791 0  254.706272130545 7.500984796039284 0  259.7063963582991 0.001066556431107419 0  259.7062748786233 7.5010666773743 0  264.7063988885943 0.00114854882385441 0  264.7062771452528 7.501148669196768 0  269.7064008569292 0.001230563367416134 0  269.7062789808466 7.501230684940937 0  274.7064023324305 0.001312523772181533 0  274.7062804339506 7.501312648625184 0  279.7064033826701 0.001394363562106487 0  279.7062815519147 7.501394493988368 0  284.7064040760357 0.001476026650686473 0  284.7062823814812 7.501476164840058 0  289.7064044839141 0.00155746968682569 0  289.7062829691689 7.501557616891943 0  294.7064046823021 0.001638666878713928 0  294.706283361391 7.501638821487525 0  299.7064047518251 0.001719618366484417 0  299.7062836042933 7.501719771789035 0  304.7064047740526 0.001800363466193148 0  304.706283743733 7.501800492085486 0  309.7064048194917 0.001880999195537762 0  309.7062838268087 7.501881051122236 0  4.706194118256982 14.99685282858917 0  -0.2938059498205837 14.99676533935907 0  9.7061942018743 14.99694017072246 0  14.70619430618783 14.99702743793415 0  19.70619442963651 14.99711469825399 0  24.7061945668543 14.99720202061459 0  29.70619470912279 14.99728947608771 0  34.7061948439411 14.99737713839405 0  39.70619495429671 14.99746508456272 0  44.70619501780206 14.99755339593086 0  49.70619500570163 14.99764215949148 0  54.70619488169871 14.99773146957644 0  59.70619460053044 14.9978214298852 0  64.70619410621887 14.99791215590174 0  69.70619332991966 14.99800377777232 0  74.70619218730234 14.99809644374207 0  79.70619057541343 14.99819032426243 0  84.70618836903354 14.99828561687065 0  89.70618541666245 14.99838255188132 0  94.70618153653254 14.99848139875331 0  99.70617651353913 14.99858247259149 0  104.706170098929 14.99868613937499 0  109.7061620162269 14.99879281674867 0  114.7061519797349 14.99890296377973 0  119.706139736488 14.99901704659088 0  124.7061251492922 14.99913545496708 0  129.7061083468268 14.99925832456597 0  134.706089972906 14.99938518646892 0  139.7060715574497 14.99951431917523 0  144.7060559683013 14.99964162386962 0  149.7060476823876 14.99975877057978 0  164.7060805790562 14.99986670153438 0  159.7060734992755 14.99986661012609 0  169.7060832807411 14.99987504945548 0  174.7060850913047 14.99989520931275 0  179.7060875596208 14.99992709645011 0  184.7060910970113 14.9999692283784 0  189.7060956019449 15.00001982466666 0  194.7061007965843 15.00007723549777 0  199.7061063828474 15.00014006886019 0  204.7061121040582 15.00020719758384 0  209.7061177617196 15.00027772533637 0  214.7061232130899 15.0003509438643 0  219.7061283620013 15.00042629341421 0  224.706133148521 15.00050332978475 0  229.7061375396819 15.00058169816118 0  234.7061415219679 15.00066111278484 0  239.7061450955316 15.00074134129907 0  244.7061482699081 15.00082219272472 0  249.7061510609192 15.00090350821982 0  254.7061534884847 15.00098515397475 0  259.7061555751127 15.00106701576755 0  264.7061573448671 15.00114899483976 0  269.706158822682 15.00123100486762 0  274.7061600339012 15.00131296989253 0  279.7061610039614 15.00139482314946 0  284.7061617582087 15.00147650678817 0  289.7061623218407 15.00155797250789 0  294.7061627201805 15.0016391830916 0  299.7061629796199 15.00172011467154 0  304.7061631300219 15.00180075916615 0  309.7061632099752 15.00188112549677 0  4.706062704627985 22.49685326274651 0  -0.2939373570529955 22.49676586020532 0  9.706062759782258 22.49694051113618 0  14.7060628043197 22.4970276880987 0  19.70606283088436 22.49711486633788 0  24.70606282942516 22.49720211482609 0  29.70606278740645 22.49728950218395 0  34.70606268953385 22.49737709855035 0  39.70606251719055 22.49746497686787 0  44.70606224773015 22.49755321403881 0  49.70606185369952 22.49764189215012 0  54.70606130201673 22.49773109984712 0  59.70606055311676 22.49782093388707 0  64.7060595600861 22.49791150088374 0  69.70605826783726 22.49800291923424 0  74.7060566124301 22.49809532119108 0  79.70605452074045 22.498188854979 0  84.7060519108187 22.49828368674063 0  89.70604869351777 22.49838000187911 0  94.70604477632172 22.49847800498323 0  99.7060400708308 22.49857791685366 0  104.7060345061045 22.49867996601989 0  109.7060280510299 22.49878437027176 0  114.7060207499667 22.49889130077066 0  119.7060127766954 22.49900081687115 0  124.7060045111166 22.49911275378071 0  129.7059966388573 22.49922653868859 0  134.705990261464 22.49934090855137 0  139.7059869767968 22.49945351785275 0  144.7059888366756 22.49956049304857 0  149.705998012185 22.49965620690669 0  164.7060246327256 22.49980859522654 0  159.7060204044707 22.49977928626064 0  169.7060249652257 22.49983864003675 0  174.7060232815321 22.4998734081055 0  179.7060210524259 22.49991460202851 0  184.7060191436558 22.49996247384815 0  189.7060179441181 22.50001653158659 0  194.7060175457068 22.50007598775034 0  199.7060178832079 22.50013999987988 0  204.7060188236678 22.5002077824652 0  209.7060202170779 22.50027864893578 0  214.7060219220454 22.50035201907215 0  219.7060238167704 22.50042741111421 0  224.7060258020464 22.50050442837644 0  229.7060278003007 22.50058274502641 0  234.706029752953 22.50066209301381 0  239.7060316172833 22.50074225083015 0  244.7060333634051 22.50082303417497 0  249.7060349715831 22.50090428835945 0  254.7060364299793 22.50098588220262 0  259.7060377327936 22.50106770317899 0  264.7060388787734 22.50114965360762 0  269.7060398700115 22.5012316477135 0  274.7060407110093 22.5013136094255 0  279.7060414079706 22.50139547079587 0  284.7060419683583 22.50147717091798 0  289.7060424007965 22.5015586551663 0  294.7060427155149 22.50163987444703 0  299.7060429256175 22.5017
[...]
<PointData  Scalars="p"> 
<DataArray  type="Float64"  Name="p"  format="ascii">1.0000000000000001e-01  1.0000000000000003e-01  9.9996279285827383e-02  1.0000000000000003e-01  1.0000000000000003e-01  9.9996371140924911e-02  1.0000000000000003e-01  9.9994517283169104e-02  1.0000000000000003e-01  9.9993884701941788e-02  1.0000000000000003e-01  9.9992605721999708e-02  1.0000000000000003e-01  9.9990003051963691e-02  1.0000000000000003e-01  9.9989203077764308e-02  1.0000000000000003e-01  9.9987422595672087e-02  1.0000000000000003e-01  9.9984441835327953e-02  1.0000000000000003e-01  9.9984948325404693e-02  1.0000000000000003e-01  9.9975753201799675e-02  1.0000000000000003e-01  9.9972296718464859e-02  1.0000000000000003e-01  9.9967493731646123e-02  1.0000000000000003e-01  9.9964054555899198e-02  1.0000000000000003e-01  9.9955705243804149e-02  1.0000000000000003e-01  9.9952660083017467e-02  1.0000000000000003e-01  9.9946046958790155e-02  1.0000000000000003e-01  9.9936088490402294e-02  1.0000000000000003e-01  9.9932729889362512e-02  1.0000000000000003e-01  9.9921854799822865e-02  1.0000000000000003e-01  9.9914927898118400e-02  1.0000000000000003e-01  9.9902627454562659e-02  1.0000000000000003e-01  9.9903554904367156e-02  1.0000000000000003e-01  9.9874233265445769e-02  1.0000000000000003e-01  9.9897778905022383e-02  1.0000000000000003e-01  9.9838707736804033e-02  1.0000000000000003e-01  9.9901746176973130e-02  1.0000000000000003e-01  9.9791186423035735e-02  1.0000000000000003e-01  9.9919744410839131e-02  1.0000000000000001e-01  9.9713646944367532e-02  1.0000000000000001e-01  1.0000000000000003e-01  1.0019940768050493e-01  1.0044706464105607e-01  1.0000000000000003e-01  1.0004302068120799e-01  1.0000000000000003e-01  1.0015489112395157e-01  1.0000000000000003e-01  1.0009156131895958e-01  1.0000000000000003e-01  1.0010891716271575e-01  1.0000000000000003e-01  1.0009217623817036e-01  1.0000000000000003e-01  1.0009805810798836e-01  1.0000000000000003e-01  1.0008383273025408e-01  1.0000000000000003e-01  1.0008509887571716e-01  1.0000000000000003e-01  1.0007978478961445e-01  1.0000000000000003e-01  1.0007537093895935e-01  1.0000000000000003e-01  1.0007220089730066e-01  1.0000000000000003e-01  1.0006997292374303e-01  1.0000000000000003e-01  1.0006589171448396e-01  1.0000000000000003e-01  1.0006400256399617e-01  1.0000000000000003e-01  1.0006196942130649e-01  1.0000000000000003e-01  1.0005948530454607e-01  1.0000000000000003e-01  1.0005783815321205e-01  1.0000000000000003e-01  1.0005663507049954e-01  1.0000000000000003e-01  1.0005461969961470e-01  1.0000000000000003e-01  1.0005398710570904e-01  1.0000000000000003e-01  1.0005216741841844e-01  1.0000000000000003e-01  1.0005240732660130e-01  1.0000000000000003e-01  1.0004916571427573e-01  1.0000000000000003e-01  1.0005262874733566e-01  1.0000000000000003e-01  1.0004465523227957e-01  1.0000000000000003e-01  1.0005611081237499e-01  1.0000000000000003e-01  1.0003544075513487e-01  1.0000000000000003e-01  1.0007041098149089e-01  1.0000000000000001e-01  1.0000000000000003e-01  9.9993117705840462e-02  1.0000000000000003e-01  9.9993607033303983e-02  9.9993214933656205e-02  9.9992324223332943e-02  9.9989700026501455e-02  9.9989991325393934e-02  9.9989357304714047e-02  9.9985415601908156e-02  9.9987478076313710e-02  9.9985720371401091e-02  9.9983196315291248e-02  9.9972827626242933e-02  9.9977147456947441e-02  9.9966844208729116e-02  9.9971821565376581e-02  9.9967063697996572e-02  9.9959042423532596e-02  9.9960786364263698e-02  9.9957060988802249e-02  9.9944430001451576e-02  9.9951102123042465e-02  9.9938854507926320e-02  9.9939018751727379e-02  9.9925358596638744e-02  9.9946982870238954e-02  9.9890454473623783e-02  9.9981255132273683e-02  9.9820615755544212e-02  1.0006600584424524e-01  9.9710215479586403e-02  9.9798425491301593e-02  1.0066041572501874e-01  1.0021656760391026e-01  1.0002839325940657e-01  1.0006051010908527e-01  1.0004846067659895e-01  1.0007043211051875e-01  1.0004070538400422e-01  1.0005444857654781e-01  1.0004927512203590e-01  1.0004278021823637e-01  1.0004212584312872e-01  1.0004207804503762e-01  1.0003571125316910e-01  1.0003547247974143e-01  1.0003445807793208e-01  1.0003083313244188e-01  1.0003007062385466e-01  1.0002927827484903e-01  1.0002693472074026e-01  1.0002596587837713e-01  1.0002559494479782e-01  1.0002327355392754e-01  1.0002363143280364e-01  1.0002104406994104e-01  1.0002305866516779e-01  1.0001673700994819e-01  1.0002621328833947e-01  1.0000795492272511e-01  1.0003457618935856e-01  1.0000000000000003e-01  9.9989471568446217e-02  1.0000000000000003e-01  9.9993282547352513e-02  9.9990153189249753e-02  9.9987544246076879e-02  9.9987335121092535e-02  9.9986628168673639e-02  9.9980968713323626e-02  9.9982414085313678e-02  9.9981762388408557e-02  9.9975657386393982e-02  9.9974024330371988e-02  9.9979985598114982e-02  9.9951206805818912e-02  9.9963168179153364e-02  9.9956594234961338e-02  9.9944909216109365e-02  9.9950128705252814e-02  9.9943729229512890e-02  9.9927540690959230e-02  9.9932663360302515e-02  9.9926584353783945e-02  9.9903513796492954e-02  9.9920276890973339e-02  9.9892996077680513e-02  9.9906477253245238e-02  9.9866532579803102e-02  9.9933956869086432e-02  9.9783866619854347e-02  1.0005578504537224e-01  9.9547227619537076e-02  9.9881123676936703e-02  1.0057402375202530e-01  1.0031591846855911e-01  1.0006114119485254e-01  1.0008381844156301e-01  1.0013428569825593e-01  1.0005730872653137e-01  1.0010056450284521e-01  1.0008784234303329e-01  1.0007508743371253e-01  1.0007593298132536e-01  1.0007759221221046e-01  1.0006457773253723e-01  1.0006580339499345e-01  1.0006419875060621e-01  1.0005697388786815e-01  1.0005609993993986e-01  1.0005526719634306e-01  1.0005032876301570e-01  1.0004953771676499e-01  1.0004834547298709e-01  1.0004549819559667e-01  1.0004389324771359e-01  1.0004387492096796e-01  1.0003995497832860e-01  1.0004187531434726e-01  1.0003601148666189e-01  1.0004282338603902e-01  1.0002679810846858e-01  1.0005473426218137e-01  1.0000000000000003e-01  9.9987159666180089e-02  1.0000000000000003e-01  9.9991960250038037e-02  9.9985877600787448e-02  9.9986774883588730e-02  9.9985903120330039e-02  9.9979870932005055e-02  9.9981381687503937e-02  9.9980708359468970e-02  9.9973233480624896e-02  9.9976210298588941e-02  9.9976172507858077e-02  9.9959899500643101e-02  9.9976815547640083e-02  9.9951288218265974e-02  9.9947242098418973e-02  9.9951224840385128e-02  9.9950325397943032e-02  9.9930788996983419e-02  9.9942793182564160e-02  9.9932498978242898e-02  9.9916681833720392e-02  9.9921365229392281e-02  9.9922869473831485e-02  9.9885110495321686e-02  9.9931606152748875e-02  9.9859675004364032e-02  9.9955748737477840e-02  9.9779940378312740e-02  1.0009285064807819e-01  9.9521593046736023e-02  9.9890254273927143e-02  1.0071898322898022e-01  1.0020132302802949e-01  1.0002636659639293e-01  1.0022810916539281e-01  9.9996020284799786e-02  1.0011268068707393e-01  1.0007836062183308e-01  1.0007106297217633e-01  1.0006954621366948e-01  1.0007850221418507e-01  1.0005725291735471e-01  1.0006269952635087e-01  1.0006128220746126e-01  1.0005162721292958e-01  1.0005109954251540e-01  1.0005071162608592e-01  1.0004390037571252e-01  1.0004329657132846e-01  1.0004255029607288e-01  1.0003805527366254e-01  1.0003744002784147e-01  1.0003580652054750e-01  1.0003396933031707e-01  1.0003095500448421e-01  1.0003313138385614e-01  1.0002531425500827e-01  1.0003413741405565e-01  1.0001647498644495e-01  1.0004193672948435e-01  1.0000000000000003e-01  9.9984792171913389e-02  1.0000000000000003e-01  9.9989281575714281e-02  9.9985175394006073e-02  9.9985959911299493e-02  9.9978990176709415e-02  9.9980701552648335e-02  9.9979305634793153e-02  9.9970975936242740e-02  9.9974285384426556e-02  9.9974206901303736e-02  9.9959981170559487e-02  9.9968361245761986e-02  9.9960532422066442e-02  9.9959758159439721e-02  9.9939915520034103e-02  9.9947780703501410e-02  9.9924551030823927e-02  9.9939853421013636e-02  9.9932380180675212e-02  9.9908358181549070e-02  9.9925373622882438e-02  9.9909947058616916e-02  9.9895447108089952e-02  9.9893497339723955e-02  9.9913920818516896e-02  9.9837510084215153e-02  9.9957662254182941e-02  9.9750909311482588e-02  1.0010617733595796e-01  9.9447115001485648e-02  9.9764021301972733e-02  1.0080751327176031e-01  1.0027081085882407e-01  1.0010138003815529e-01  1.0011627646243892e-01  1.0013715933256591e-01  1.0009488318360289e-01  1.0008853480740526e-01  1.0007835573391570e-01  1.0010640487072835e-01  1.0006749991508911e-01  1.0008076383173876e-01  1.0007901586467705e-01  1.0006512140105588e-01  1.0006555516801639e-01  1.0006641371797630e-01  1.0005558342250444e-01  1.0005551994278400e-01  1.0005481065606746e-01  1.0004851111802571e-01  1.0004740418565333e-01  1.0004690004802458e-01  1.0004204347582472e-01  1.0004183044046655e-01  1.0003901693230380e-01  1.0003885976423045e-01  1.0003282624830975e-01  1.0003994623167516e-01  1.0002271068560670e-01  1.0004894683320135e-01  1.0000000000000003e-01  9.9982001127151901e-02  1.0000000000000003e-01  9.9989025109428073e-02  9.9983988389994505e-02  9.9980648338061556e-02  9.9980042825312157e-02  9.9979519788234786e-02  9.9971020810545180e-02  9.9973159393838704e-02  9.9973376330160929e-02  9.9961278567468587e-02  9.9966080382130687e-02  9.9963392100584358e-02  9.9950746118837572e-02  9.9953092431002116e-02  9.9969461785453295e-02  9.9913013198976039e-02  9.9942142222418637e-02  9.9931369303342635e-02  9.9910650328951536e-02  9.9926070641648490e-02  9.9921456197815089e-02  9.9885094282360726e-02  9.9918126752852013e-02  9.9886775271320893e-02  9.9894341092919739e-02  9.9853495781772619e-02  9.9957232301197421e-02  9.9726226930057324e-02  1.0014460253271197e-01  9.9388279470290483e-02  9.9790236621818046e-02  1.0076788141332008e-01  1.0033365286268719e-01  9.9990846578292492e-02  1.0015679964320025e-01  1.0012637408829023e-01  1.0013662098156921e-01  1.0004664701364106e-01  1.0013330928372473e-01  1.0005454010678839e-01  1.0008991204331280e-01  1.0008428974802691e-01  1.0006721670598043e-01  1.0006786348939972e-01  1.0007210775634158e-01  1.0005648592326137e-01  1.0005807222798685e-01  1.0005775673987514e-01  1.0004851783907975e-01  1.0004807830089033e-01  1.0004761245435261e-01  1.0004183255873081e-01  1.0004038276165071e-01  1.0004039341346747e-01  1.0003467387895325e-01  1.0003642877369236e-01  1.0002989431906766e-01  1.0003612943517992e-01  1.0001957413187908e-01  1.0004401544555915e-01  1.0000000000000003e-01  9.9980484689431381e-02  1.0000000000000003e-01  9.9988533152073095e-02  9.9979225835910693e-02  9.9981418202910510e-02  9.9979308741627540e-02  9.9971993741281087e-02  9.9972868661861655e-02  9.9973080497467864e-02  9.9961108578677432e-02  9.9966137564970622e-02  9.9964287419684592e-02  9.9948279377784124e-02  9.9954922622469841e-02  9.9958768109285945e-02  9.9929105020409220e-02  9.9964376098281002e-02  9.9920661510215961e-02  9.9909389409753552e-02  9.9924615688982948e-02  9.9920316045371799e-02  9.9889933607027762e-02  9.9909982514687065e-02  9.9908232985855217e-02  9.9856568843382107e-02  9.9916922886547035e-02  9.9842758260292971e-02  9.9931852964418505e-02  9.9737649610827359e-02  1.0014576403553832e-01  9.9334190904793784e-02  9.9815146552171705e-02  1.0083432422376352e-01  1.0026511952623710e-01  1.0002937872683976e-01  1.0020047252935589e-01  1.0007459479489694e-01  1.0011680111805593e-01  1.0017482038448948e-01  1.0004297246680297e-01  1.0010675690969890e-01  1.0009056664723734e-01  1.0007912029436930e-01  1.0007481990021012e-01  1.0008548845529285e-01  1.0006296608912504e-01  1.0006685559398727e-01  1.0006750455874829e-01  1.0005585764384760e-01  1.0005498334403272e-01  1.0005527581516438e-01  1.0004698861876757e-01  1.0004654491986716e-01  1.0004523296834422e-01  1.0004104034129425e-01  1.0003819410049807e-01  1.0003956899968959e-01  1.0003153529680546e-01  1.0003835052695631e-01  1.0002197584099042e-01  1.0004582790641511e-01  1.0000000000000003e-01  9.9979076041200363e-02  1.0000000000000003e-01  9.9986021607403469e-02  9.9979503664472405e-02  9.9981140970516164e-02  9.9972934732797350e-02  9.9974271757200153e-02  9.9973352742502200e-02  9.9962453333182488e-02  9.9966455582071609e-02  9.9965983294564756e-02  9.9949683884030430e-02  9.9956075918004331e-02  9.9956316290576400e-02  9.9933513050450229e-02  9.9952580615869424e-02  9.9940353016410924e-02  9.9938979390986907e-02  9.9911560875269992e-02  9.9925249450652939e-02  9.9884219281592274e-02  9.9919625315580768e-02  9.9902281328812376e-02  9.9875898774009778e-02  9.9888104000786640e-02  9.9911038549717557e-02  9.9810129084961507e-02  9.9962505680140132e-02  9.9724331297763188e-02  1.0013621875696541e-01  9.9323142807166961e-02  9.9736093211479276e-02  1.0090338777994964e-01  1.0030415967996111e-01  1.0006502999875139e-01  1.0013969140452804e-01  1.0008403947620820e-01  1.0016261623561699e-01  1.0008211800341753e-01  1.0014589977784678e-01  1.0007558593698301e-01  1.0009316576350477e-01  1.0006875110819557e-01  1.0009939114123892e-01  1.0006324752743517e-01  1.0007239581897684e-01  1.0007325317545031e-01  1.0005873968431805e-01  1.0005880238940250e-01  1.0006064566180949e-01  1.0004920282397584e-01  1.0004866912439775e-01  1.0004870291249715e-01  1.0004134247424062e-01  1.0004111337474828e-01  1.0003865243934694e-01  1.0003689744991845e-01  1.0003079381781251e-01  1.0003742607274255e-01  1.0002035331570454e-01  1.0004365140015130e-01  1.0000000000000003e-01  9.9977070414267150e-02  1.0000000000000003e-01  9.9986339475243130e-02  9.9979225349024453e-02  9.9976376923322313e-02  9.9974535045407056e-02  9.9974942667746994e-02  9.9964617769169012e-02  9.9966997992554693e-02  9.9967053853236898e-02  9.9953362064469864e-02  9.9957066529301503e-02  9.9957354115487007e-02  9.9936609733254619e-02  9.9948646941911842e-02  9.9946512798474565e-02  9.9926102166665212e-02  9.9933899380924729e-02  9.9958972501694804e-02  9.9872601693202015e-02  9.9919078616876655e-02  9.9907849214241146e-02  9.9866688096051148e-02  9.9911019859421621e-02  9.9882714049009280e-02  9.9870042101625034e-02  9.9848724118804716e-02  9.9955443227978766e-02  9.9688340358268096e-02  1.0017070478735864e-01  9.9297654843366168e-02  9.9738676065026663e-02  1.0088231822325085e-01  1.0034985554270054e-01  1.0000491078916721e-01  1.0016210556103602e-01  1.0012792167043282e-01  1.0010330695630779e-01  1.0010543983683126e-01  1.0013399025970376e-01  1.0012538597377810e-01  1.0005288660744296e-01  1.0011903596066811e-01  1.0005922721975630e-01  1.0008215905239831e-01  1.0008025754043999e-01  1.0006429247896031e-01  1.0006309739371631e-01  1.0006815531440509e-01  1.0005348922843223e-01  1.0005417161492866e-01  1.0005407494483966e-01  1.0004520065571820e-01  1.0004374369132642e-01  1.0004426778701585e-01  1.0003685018028861e-01  1.0003819678316590e-01  1.0003244765632607e-01  1.0003669539616529e-01  1.0002125751860244e-01  1.0004383584680490e-01  1.0000000000000003e-01  9.9976273959723805e-02  1.0000000000000003e-01  9.9986373297449471e-02  9.9975286994818099e-02  9.9977718044965164e-02  9.9975032892047039e-02  9.9967570679921777e-02  9.9968130651982179e-02  9.9968335851384760e-02  9.9955801314250414e-02  9.9959655212538454e-02  9.9959648698332265e-02  9.9940095770928383e-02  9.9948630604732636e-02  9.9949229373919632e-02  9.9925357275421053e-02  9.9938181003142029e-02  9.9946298936042094e-02  9.9899163238903230e-02  9.9957247440715630e-02  9.9893023839787015e-02  9.9875471647606143e-02  9.9900020704185383e-02  9.9905997939066266e-02  9.9837247793401099e-02  9.9917517589227747e-02  9.9842684923519803e-02  9.9911705028345163e-02  9.9730294088036492e-02  1.0016706841014338e-01  9.9254353847326574e-02  9.9759977991577181e-02  1.0091333190589810e-01  1.0030859934835516e-01  1.0001546311714288e-01  1.0020260034703954e-01  1.0007429664184188e-01  1.0011998230182478e-01  1.0012870724555216e-01  1.0010085099369172e-01  1.0009303515598086e-01  1.0015579658481150e-01  1.0004116026080469e-01  1.0009456907324145e-01  1.0007861627205716e-01  1.0007187071421782e-01  1.0006437634052258e-01  1.0007510657368947e-01  1.0005536906582128e-01  1.0005736916583920e-01  1.0005922732311678e-01  1.0004819353786848e-01  1.0004688155016668e-01  1.0004672299618357e-01  1.0003995917570610e-01  1.0003739778678254e-01  1.0003890124940965e-01  1.0003015034469588e-01  1.0003616936495918e-01  1.0002106661606661e-01  1.0004213568046320e-01  1.0000000000000003e-01  9.9975624325562576e-02  1.0000000000000003e-01  9.9984571947198092e-02  9.9976167639699881e-02  9.9978449266270739e-02  9.9969665821944484e-02  9.9970667536143767e-02  9.9969653020553578e-02  9.9959208135813590e-02  9.9961699846380023e-02  9.9962540752180667e-02  9.9945092611479117e-02  9.9951171712477319e-02  9.9951459737583015e-02  9.9928938034713213e-02  9.9941043787244249e-02  9.9943617830716980e-02  9.9909612584197033e-02  9.9939860200216044e-02  9.9925278349612914e-02  9.9916926721684937e-02  9.9890313656956609e-02  9.9902613782082914e-02  9.9852162723699137e-02  9.9891712044433909e-02  9.9908231109766474e-02  9.9793602288758290e-02  9.9962760574237738e-02  9.9729557434393615e-02  1.0011803821638296e-01  9.9298462330398019e-02  9.9708540147075017e-02  1.0097014360417228e-01  1.0031901689789252e-01  1.0004786964651641e-01  1.0015900450517055e-01  1.0008459390132464e-01  1.0015372432152342e-01  1.0009033890770114e-01  1.0009992803078793e-01  1.0012732542493047e-01  1.0008407588284222e-01  1.0012309634984326e-01  1.0006609874686347e-01  1.0008334399567916e-01  1.0005969492777934e-01  1.0008567726442212e-01  1.0005636330904344e-01  1.0006181869897146e-01  1.0006360083116390e-01  1.0005107044657383e-01  1.0005037515365588e-01  1.0005253260164421e-01  1.0004166489845177e-01  1.0004146127573230e-01  1.0003969635662679e-01  1.0003614921706039e-01  1.0003060143535179e-01  1.0003667336004345e-01  1.0002032027389066e-01  1.0004151482870027e-01  1.0000000000000003e-01  9.9974248925434189e-02  1.0000000000000003e-01  9.9985079619118261e-02  9.9976540340730363e-02  9.9974602667233403e-02  9.9971680354782863e-02  9.9972232406855724e-02  9.9962206653001914e-02  9.9963686972824137e-02  9.9964434953883977e-02  9.9950617928831920e-02  9.9953648247711149e-02  9.9954655618594707e-02  9.9934432854795988e-02  9.9942507433000705e-02  9.9945881379489274e-02  9.9916139307385882e-02  9.9935691479686353e-02  9.9934415621309239e-02  9.9904363341624711e-02  9.9918229791813667e-02  9.9956925511888423e-02  9.9829158635911963e-02  9.9912310227521284e-02  9.9878039720474820e-02  9.9852525955762300e-02  9.9858154345249861e-02  9.9956781853222362e-02  9.9674784146593434e-02  1.0016987935318056e-01  9.9304415528090148e-02  9.9689377110675895e-02  1.0095804809734520e-01  1.0035917731872007e-01  1.0000681356736742e-01  1.0016296238421649e-01  1.0011754773501219e-01  1.0011488865173723e-01  1.0009341924708191e-01  1.0013283093267698e-01  1.0008354221066353e-01  1.0009481056999983e-01  1.0010662582311203e-01  1.0011089964025227e-01  1.0004217082474828e-01  1.0009921504309989e-01  1.0005094233415041e-01  1.0006779813695357e-01  1.0006662577368070e-01  1.0005394826415215e-01  1.0005167774362123e-01  1.0005621873562642e-01  1.0004460368238353e-01  1.0004382674814404e-01  1.0004430929114884e-01  1.0003535846560109e-01  1.0003616138582384e-01  1.0003154937310978e-01  1.0003401860051937e-01  1.0002012334768903e-01  1.0004038637100074e-01  1.0000000000000003e-01  9.9974085266158461e-02  1.0000000000000003e-01  9.9985630186241847e-02  9.9973762293709606e-02  9.9976413223300281e-02  9.9973103713718425e-02  9.9966598661121606e-02  9.9966065418401764e-02  9.9966490159355603e-02  9.9954796458187029e-02  9.9957638718547667e-02  9.9957944014947259e-02  9.9940253451124880e-02  9.9945815546821512e-02  9.9949133353341199e-02  9.9923293446109618e-02  9.9935930650447355e-02  9.9940267742765529e-02  9.9905389351424664e-02  9.9926535263690303e-02  9.9938880209682085e-02  9.9873398692978080e-02  9.9953194559669542e-02  9.9880468603583100e-02  9