<?xml version="1.0"?>
<VTKFile type="UnstructuredGrid"  version="0.1"  >
<UnstructuredGrid>
<Piece  NumberOfPoints="1933" NumberOfCells="3640">
<Points>
<DataArray  type="Float64"  NumberOfComponents="3"  format="ascii">0.4752840906148982 0.001654189390625632 0  5.475284098662598 0.001588697332051729 0  5.475382392941448 7.501588751150255 0  0.4753823573445699 7.501654193656768 0  10.47528409604542 0.001523141142239559 0  10.47538246676848 7.501523216186499 0  15.4752841169047 0.001457457064860044 0  15.47538260320998 7.501457541109077 0  20.47528420656501 0.001391616131078558 0  20.47538282810941 7.501391703931692 0  25.47528441233352 0.001325611828334313 0  25.47538316915797 7.501325701471824 0  30.47528478034594 0.001259452483531783 0  30.47538365540527 7.501259543719872 0  35.47528535511208 0.001193156539448778 0  35.47538431690982 7.501193249980534 0  40.47528618025343 0.001126749770503126 0  40.47538518470738 7.501126846505941 0  45.47528729974589 0.001060263850410679 0  45.47538629105264 7.501060365276184 0  50.47528875936772 0.0009937359037404205 0  50.47538766984982 7.500993843664206 0  55.47529060823719 0.0009272088242544724 0  55.47538935719554 7.500927324818459 0  60.47529290041492 0.0008607322531662386 0  60.47539139197509 7.500860858681766 0  65.47529569658909 0.0007943641971836777 0  65.47539381646126 7.500794503639674 0  70.47529906588008 0.0007281733429868357 0  70.47539667686732 7.500728328861735 0  75.47530308781494 0.0006622422038533174 0  75.47540002379232 7.500662417473391 0  80.47530785451828 0.0005966713287529699 0  80.47540391246966 7.500596870786081 0  85.47531347316452 0.0005315849312092534 0  85.47540840268142 7.500531813930577 0  90.47532006870406 0.0004671384789462242 0  90.47541355812282 7.500467403403123 0  95.47532778682306 0.0004035290641926479 0  95.47541944487963 7.500403837270255 0  100.4753367969477 0.0003410098112291572 0  100.4754261285028 7.500341369121411 0  105.4753472948067 0.000279910277056183 0  105.4754336689103 7.500280327356153 0  110.4753595034152 0.0002206659398374384 0  110.4754421120225 7.500221142093707 0  115.4753736699853 0.0001638617469585671 0  115.4754514767204 7.500164382931999 0  120.4753900534278 0.000110297812171646 0  120.47546173566 7.500110811894045 0  125.4754088911954 6.109052764229872e-05 0  125.4754727894742 7.500061456829892 0  130.4754303218809 1.783078902317078e-05 0  130.4754844379979 7.50001771021193 0  135.4754542140808 -1.716634119949523e-05 0  135.4754963646731 7.499981454179769 0  140.4754797963864 -4.047415584483119e-05 0  140.475508184867 7.499955201572608 0  145.4755048568005 -4.701687397696416e-05 0  145.4755197030964 7.499942235447342 0  150.4755239514638 -2.975205173502112e-05 0  150.4755317971791 7.499946867332796 0  160.4755282581475 1.270862515671171e-18 0  165.4754229237893 -0.0001304375912329483 0  165.4755090429646 7.499851870541262 0  160.4755422289137 7.499957201352709 0  170.4753594747463 -0.0002492098087016914 0  170.4754753137815 7.499741818799526 0  175.4753195601702 -0.0003594356960691564 0  175.4754465713561 7.499635512756003 0  180.4752936224727 -0.0004625623109309876 0  180.4754235446202 7.499534432692332 0  185.4752763475738 -0.0005598300861630205 0  185.4754055982477 7.499438314843634 0  190.4752646505686 -0.0006523276651593707 0  190.4753918058121 7.499346490585962 0  195.4752566725031 -0.0007409552936256366 0  195.4753812934584 7.499258269862439 0  200.475251250995 -0.0008264302900573123 0  200.4753733326959 7.499173048317837 0  205.4752476316714 -0.0009093158254942711 0  205.4753673456894 7.499090325616968 0  210.4752453069005 -0.0009900537619369173 0  210.4753628835079 7.499009695628457 0  215.475243923409 -0.001068993380599509 0  215.4753595996918 7.498930829794398 0  220.4752432279095 -0.001146414037517677 0  220.4753572266947 7.49885346103465 0  225.4752430341298 -0.001222542226406173 0  225.4753555569839 7.498777370299719 0  230.4752432021738 -0.001297564193271448 0  230.4753544285716 7.498702375975014 0  235.4752436251763 -0.001371635231503616 0  235.4753537141604 7.498628325728252 0  240.475244220389 -0.001444886571856362 0  240.4753533130601 7.498555090276711 0  245.475244923056 -0.001517430551411046 0  245.4753531451662 7.498482558604093 0  250.4752456820889 -0.001589364555123631 0  250.475353146459 7.498410634251322 0  255.4752464569595 -0.001660774080706357 0  255.4753532656275 7.498339232396705 0  260.4752472154322 -0.001731735174830301 0  260.4753534615203 7.498268277515271 0  265.4752479319254 -0.001802316415251571 0  265.4753537012293 7.49819770146506 0  270.4752485863428 -0.001872580559329797 0  270.4753539586586 7.498127441893617 0  275.4752491633284 -0.00194258593513361 0  275.4753542134621 7.498057440896792 0  280.4752496518934 -0.002012387606648069 0  280.4753544502918 7.497987643900418 0  285.4752500454586 -0.002082038285304654 0  285.4753546582756 7.497917998782754 0  290.4752503423398 -0.00215158886116162 0  290.4753548306731 7.497848455322756 0  295.4752505467735 -0.002221088239083267 0  295.4753549646476 7.497778965161696 0  300.4752506705055 -0.002290581780503686 0  300.4753550610936 7.497709482619403 0  305.4752507348068 -0.00236010681703339 0  305.4753551245668 7.497639966908095 0  310.4752507721625 -0.00242968177310247 0  310.4753551637483 7.497570386438368 0  5.475480437321502 15.00158889324613 0  0.4754803935355777 15.0016542101799 0  10.47548052532733 15.00152341264925 0  15.47548068164318 15.00145775721256 0  20.47548092480815 15.00139192465448 0  25.47548127161534 15.00132592203934 0  30.47548173880687 15.00125976457174 0  35.47548234371624 15.00119347416703 0  40.4754831044585 15.00112707838345 0  45.4754840399502 15.00106060989124 0  50.47548516987096 15.00099410649986 0  55.47548651459095 15.00092761172735 0  60.47548809504517 15.00086117590918 0  65.47548993251269 15.00079485787699 0  70.47549204823724 15.00072872728238 0  75.47549446281209 15.00066286769546 0  80.47549719522316 15.00059738067319 0  85.47550026142449 15.00053239107426 0  90.47550367228827 15.00046805399862 0  95.47550743075855 15.00040456385073 0  100.4755115280513 15.00034216615693 0  105.4755159388557 15.00028117287306 0  110.4755206157787 15.0002219819021 0  115.4755254839646 15.00016510117211 0  120.4755304382332 15.00011117638252 0  125.4755353477935 15.00006101826898 0  130.4755400783891 15.00001561749376 0  135.4755445492913 14.99997611755265 0  140.4755488518604 14.99994367523004 0  145.4755534581564 14.9999190362886 0  150.4755594981754 14.99990135024454 0  165.4755655087927 14.99980419857083 0  160.4755720762752 14.99988746033409 0  170.4755537364885 14.99971193010933 0  175.4755397990729 14.9996169365781 0  180.4755259658002 14.99952273167811 0  185.4755133888985 14.9994307832808 0  190.4755025040297 14.99934151933856 0  195.475493363925 14.99925490139993 0  200.4754858408982 14.99917070678054 0  205.4754797373563 14.9990886590334 0  210.4754748418536 14.999008484517 0  215.475470955125 14.99892993414079 0  220.475467900369 14.99885278931153 0  225.4754655256902 14.99877686116128 0  230.4754637029303 14.99870198728418 0  235.4754623250735 14.998628027868 0  240.4754613032856 14.9985548619984 0  245.4754605640819 14.99848238440343 0  250.4754600468197 14.99841050268438 0  255.4754597015638 14.99833913498948 0  260.4754594873104 14.99826820806187 0  265.475459370528 14.99819765559189 0  270.4754593239673 14.99812741681596 0  275.4754593256847 14.99805743531985 0  280.4754593582333 14.99798765802152 0  285.4754594079826 14.99791803432739 0  290.4754594645138 14.99784851546761 0  295.4754595201043 14.99777905400327 0  300.4754595693276 14.99770960340872 0  305.4754596089521 14.99764011730743 0  310.4754596384971 14.99757054695732 0  5.475578136304346 22.50158921943183 0  0.4755780910837654 22.50165438827744 0  10.47557821564805 22.50152380866377 0  15.47557834965851 22.50145818032542 0  20.47557855177541 22.5013923547222 0  25.47557883167192 22.50132635251034 0  30.47557919726733 22.50126019673671 0  35.47557965576799 22.50119391369039 0  40.47558021408376 22.50112753330412 0  45.47558087886576 22.5010610895189 0  50.47558165631507 22.50099462083053 0  55.47558255183178 22.50092817113563 0  60.47558356952837 22.50086179095388 0  65.47558471159883 22.5007955390954 0  70.4755859775138 22.50072948485332 0  75.47558736300688 22.50066371082396 0  80.47558885880947 22.5005983164837 0  85.47559044911084 22.50053342267709 0  90.47559210974968 22.50046917718699 0  95.47559380622201 22.50040576154172 0  100.4755954917314 22.50034339912897 0  105.4755971057646 22.50028236445647 0  110.4755985741054 22.50022299287835 0  115.475599811875 22.50016568903589 0  120.4756007321586 22.50011093017542 0  125.4756012639724 22.50005925661776 0  130.4756013842982 22.50001123470718 0  135.4756011681968 22.49996736582159 0  140.4756008548978 22.49992789703413 0  145.4756009075781 22.49989246856799 0  150.4756019933829 22.49985954648449 0  165.4756190868895 22.49975177569483 0  160.4756127358638 22.49982231938976 0  170.4756203956381 22.49967256468216 0  175.47561794855 22.49958850886155 0  180.4756132095701 22.49950250828726 0  185.4756073872184 22.49941641195693 0  190.4756013088189 22.49933123792762 0  195.4755954734419 22.49924746520015 0  200.4755901459239 22.49916525854358 0  205.4755854398088 22.49908461328414 0  210.4755813777671 22.4990054408822 0  215.4755779317664 22.49892761684235 0  220.4755750482989 22.49885100630088 0  225.4755726635259 22.49877547692778 0  230.4755707119557 22.49870090484645 0  235.4755691311296 22.49862717682766 0  240.4755678639127 22.49855419057233 0  245.4755668593937 22.49848185407086 0  250.4755660730061 22.49841008456489 0  255.4755654662423 22.4983388073818 0  260.4755650061629 22.49826795477546 0  265.4755646648335 22.49819746483288 0  270.4755644187415 22.49812728047056 0  275.4755642482266 22.49805734852489 0  280.4755641369319 22.49798761893161 0  285.4755640712747 22.49791804397616 0  290.4755640399407 22.4978485775713 0  295.4755640334209 22.49777917445574 0  300.47556404360
[...]
<PointData  Scalars="p"> 
<DataArray  type="Float64"  Name="p"  format="ascii">1.0000000000000001e-01  1.0000000000000003e-01  1.0000212145033524e-01  1.0000000000000003e-01  1.0000000000000003e-01  1.0000133934040274e-01  1.0000000000000003e-01  1.0000202693675013e-01  1.0000000000000003e-01  1.0000187662111443e-01  1.0000000000000003e-01  1.0000227961442476e-01  1.0000000000000003e-01  1.0000375328960881e-01  1.0000000000000003e-01  1.0000382327464194e-01  1.0000000000000003e-01  1.0000482795739524e-01  1.0000000000000003e-01  1.0000656364278353e-01  1.0000000000000003e-01  1.0000528814465212e-01  1.0000000000000003e-01  1.0001250805155862e-01  1.0000000000000003e-01  1.0001387410480518e-01  1.0000000000000003e-01  1.0001712496083862e-01  1.0000000000000003e-01  1.0001904632587100e-01  1.0000000000000003e-01  1.0002517830966949e-01  1.0000000000000003e-01  1.0002712254564532e-01  1.0000000000000003e-01  1.0003239569673376e-01  1.0000000000000003e-01  1.0004018032821954e-01  1.0000000000000003e-01  1.0004314897556882e-01  1.0000000000000003e-01  1.0005244802724057e-01  1.0000000000000003e-01  1.0005860027780793e-01  1.0000000000000003e-01  1.0006944213662407e-01  1.0000000000000003e-01  1.0007007285842019e-01  1.0000000000000003e-01  1.0009484186613507e-01  1.0000000000000003e-01  1.0007750911921476e-01  1.0000000000000003e-01  1.0012681600284484e-01  1.0000000000000003e-01  1.0007739208793152e-01  1.0000000000000003e-01  1.0016845825560733e-01  1.0000000000000003e-01  1.0006550897311721e-01  1.0000000000000001e-01  1.0023417278538707e-01  1.0000000000000001e-01  1.0000000000000003e-01  9.9863376357504960e-02  9.9659073807981335e-02  1.0000000000000003e-01  9.9984607241364085e-02  1.0000000000000003e-01  9.9896336954295992e-02  1.0000000000000003e-01  9.9948964113211525e-02  1.0000000000000003e-01  9.9935861615404797e-02  1.0000000000000003e-01  9.9950096097394317e-02  1.0000000000000003e-01  9.9946675677871327e-02  1.0000000000000003e-01  9.9958832374300102e-02  1.0000000000000003e-01  9.9958423755662482e-02  1.0000000000000003e-01  9.9963362446389162e-02  1.0000000000000003e-01  9.9967333288324245e-02  1.0000000000000003e-01  9.9970136382723090e-02  1.0000000000000003e-01  9.9972199365454248e-02  1.0000000000000003e-01  9.9975592404275254e-02  1.0000000000000003e-01  9.9977138695776124e-02  1.0000000000000003e-01  9.9978779626902423e-02  1.0000000000000003e-01  9.9980753556697999e-02  1.0000000000000003e-01  9.9981919178686596e-02  1.0000000000000003e-01  9.9982877731734046e-02  1.0000000000000003e-01  9.9984198044523215e-02  1.0000000000000003e-01  9.9984811976289154e-02  1.0000000000000003e-01  9.9985657341521136e-02  1.0000000000000003e-01  9.9986072112152144e-02  1.0000000000000003e-01  9.9987128135549566e-02  1.0000000000000003e-01  9.9986565265349894e-02  1.0000000000000003e-01  9.9988718346661509e-02  1.0000000000000003e-01  9.9986210189823135e-02  1.0000000000000003e-01  9.9991280629353044e-02  1.0000000000000003e-01  9.9983205210215004e-02  1.0000000000000001e-01  1.0000000000000003e-01  1.0000471643068853e-01  1.0000000000000003e-01  1.0000398340687802e-01  1.0000416011344521e-01  1.0000471479307879e-01  1.0000664579895457e-01  1.0000634490585002e-01  1.0000693626366482e-01  1.0000996464719038e-01  1.0000817777927681e-01  1.0000968151474300e-01  1.0001070710187226e-01  1.0001958529494820e-01  1.0001488247702703e-01  1.0002301433514582e-01  1.0001870391807238e-01  1.0002310950899997e-01  1.0002937458012516e-01  1.0002846258491886e-01  1.0003228529454007e-01  1.0004266602963072e-01  1.0003817686128545e-01  1.0004916362814102e-01  1.0004968809990758e-01  1.0006155121876220e-01  1.0004569062234626e-01  1.0009120222803414e-01  1.0001935644422978e-01  1.0014850238447567e-01  9.9950996203318113e-02  1.0023636857666772e-01  1.0016453816673222e-01  9.9517460799794469e-02  9.9825471601875521e-02  9.9981955311541207e-02  9.9953798787177306e-02  9.9963165235529824e-02  9.9947811115694576e-02  9.9972194615271362e-02  9.9961661152726144e-02  9.9967079341246712e-02  9.9972875800013641e-02  9.9973707688351302e-02  9.9974371883527521e-02  9.9979781248084959e-02  9.9980073797625968e-02  9.9981166522231796e-02  9.9984190482816454e-02  9.9984872377109721e-02  9.9985610241293710e-02  9.9987639404104128e-02  9.9988335324429259e-02  9.9988943433176755e-02  9.9990490179767869e-02  9.9990881907449106e-02  9.9991997535592084e-02  9.9992223122573498e-02  9.9994195785824622e-02  9.9992427277694002e-02  9.9997254170303584e-02  9.9991418759245179e-02  1.0000000000000003e-01  1.0000755542083628e-01  1.0000000000000003e-01  1.0000445901634913e-01  1.0000639140706491e-01  1.0000822526547952e-01  1.0000810913615117e-01  1.0000877548423279e-01  1.0001305090679218e-01  1.0001186780768011e-01  1.0001265557022741e-01  1.0001696452293946e-01  1.0001842516668197e-01  1.0001245355174507e-01  1.0003611123157266e-01  1.0002460296538691e-01  1.0003045344820888e-01  1.0003896032214281e-01  1.0003527411822617e-01  1.0004133064578032e-01  1.0005439570376888e-01  1.0005116194406545e-01  1.0005778610703246e-01  1.0007667754455590e-01  1.0006490584539632e-01  1.0008858387151251e-01  1.0007895228320418e-01  1.0011179129554852e-01  1.0006033473110867e-01  1.0017909067697109e-01  9.9963255274123392e-02  1.0036776612317483e-01  1.0007560632882471e-01  9.9613589353313534e-02  9.9771132342085248e-02  9.9959762690829138e-02  9.9938301692861789e-02  9.9903161250113726e-02  9.9964347464580661e-02  9.9930031525958668e-02  9.9942828789760393e-02  9.9953999832365151e-02  9.9953834815062981e-02  9.9953887350369780e-02  9.9964911208310053e-02  9.9964187752767150e-02  9.9966108840118723e-02  9.9972172330956136e-02  9.9972921833469786e-02  9.9973899219544346e-02  9.9977962316016689e-02  9.9978698842272007e-02  9.9979727547173838e-02  9.9982286036346638e-02  9.9983314903878406e-02  9.9984037255123184e-02  9.9986263910843365e-02  9.9986476245906397e-02  9.9988600041816311e-02  9.9987861207400941e-02  9.9992344281301923e-02  9.9986400572740608e-02  1.0000000000000003e-01  1.0000941421107223e-01  1.0000000000000003e-01  1.0000573256986772e-01  1.0001021516198581e-01  1.0000931408775209e-01  1.0001018811831705e-01  1.0001487700223166e-01  1.0001377823655362e-01  1.0001487944420819e-01  1.0002071395973221e-01  1.0001850022600621e-01  1.0001884378636611e-01  1.0003176736931832e-01  1.0001639394355197e-01  1.0003914450959520e-01  1.0003968074207248e-01  1.0003703191845952e-01  1.0003836586772220e-01  1.0005413695399158e-01  1.0004534941740370e-01  1.0005542056523735e-01  1.0006849599050351e-01  1.0006610858873778e-01  1.0006741867823553e-01  1.0009791342143988e-01  1.0006304266841713e-01  1.0012152242004749e-01  1.0004657003588927e-01  1.0018486279821402e-01  9.9938960839131924e-02  1.0038672582042310e-01  1.0005689055107088e-01  9.9505663026512370e-02  9.9861814242142188e-02  9.9975071122047648e-02  9.9821573133730593e-02  1.0000504799260072e-01  9.9909780127688697e-02  9.9940840642275500e-02  9.9947630517750685e-02  9.9949339964043191e-02  9.9944255990466718e-02  9.9962216718734134e-02  9.9958254795103535e-02  9.9960429119727814e-02  9.9968673738804012e-02  9.9969264641061789e-02  9.9970047790498590e-02  9.9975779117884300e-02  9.9976298652087750e-02  9.9977281293615883e-02  9.9980960130701360e-02  9.9981796715099852e-02  9.9983017601186053e-02  9.9985285844400168e-02  9.9986836353934502e-02  9.9987221495151435e-02  9.9990401902824211e-02  9.9989157438385504e-02  9.9994289666872502e-02  9.9989158772816514e-02  1.0000000000000003e-01  1.0001131223571055e-01  1.0000000000000003e-01  1.0000807031722786e-01  1.0001098356970922e-01  1.0001056115064286e-01  1.0001573681678416e-01  1.0001450281252598e-01  1.0001601721407111e-01  1.0002269592615926e-01  1.0002030339397008e-01  1.0002098573635342e-01  1.0003234197125586e-01  1.0002528576077868e-01  1.0003271314171699e-01  1.0003058911982426e-01  1.0004888441405960e-01  1.0004091771169284e-01  1.0005937786571979e-01  1.0004725524523694e-01  1.0005533357731888e-01  1.0007447200803421e-01  1.0006252074229786e-01  1.0007716373536979e-01  1.0008972444777985e-01  1.0009258995007561e-01  1.0008008671397998e-01  1.0013986856442143e-01  1.0004823404954062e-01  1.0020974351127822e-01  9.9932602766763037e-02  1.0044414038880918e-01  1.0014893502951001e-01  9.9451484351249730e-02  9.9804020707894500e-02  9.9914823523122961e-02  9.9920150979312797e-02  9.9889135927849121e-02  9.9928026132311415e-02  9.9933879350086047e-02  9.9941202143734906e-02  9.9921970090229933e-02  9.9954452836859470e-02  9.9944260080684105e-02  9.9947406131294519e-02  9.9959400826324665e-02  9.9959266328353391e-02  9.9959459509787643e-02  9.9968564478443697e-02  9.9968701042457392e-02  9.9969675604159258e-02  9.9975033545193159e-02  9.9975942240023666e-02  9.9976862430985733e-02  9.9980695756769128e-02  9.9981608705780850e-02  9.9983292367645263e-02  9.9985185844001373e-02  9.9987670890536048e-02  9.9987002620595178e-02  9.9992489108203311e-02  9.9987200863111414e-02  1.0000000000000003e-01  1.0001353561795415e-01  1.0000000000000003e-01  1.0000840568857171e-01  1.0001234538314629e-01  1.0001502762888551e-01  1.0001546603583633e-01  1.0001621921353218e-01  1.0002298624758549e-01  1.0002150282570203e-01  1.0002219237753000e-01  1.0003182965758955e-01  1.0002823848242018e-01  1.0003149681012027e-01  1.0004067210013760e-01  1.0003966031176156e-01  1.0002510956185845e-01  1.0007249268939912e-01  1.0004649468019448e-01  1.0005719849439759e-01  1.0007281465660937e-01  1.0006199333768702e-01  1.0006832376601606e-01  1.0009751703772821e-01  1.0007345782229081e-01  1.0010096589190846e-01  1.0009679916999049e-01  1.0012882047704186e-01  1.0005287947500513e-01  1.0022893196277012e-01  9.9907529207357848e-02  1.0048811258698329e-01  1.0011456657456282e-01  9.9492231356112834e-02  9.9755604614087792e-02  9.9997834588944332e-02  9.9878235364565235e-02  9.9901024583449044e-02  9.9893291581079791e-02  9.9960892980753724e-02  9.9895255675129385e-02  9.9959613988392315e-02  9.9931295935469983e-02  9.9938404488822338e-02  9.9953266782506101e-02  9.9953063214707955e-02  9.9951052189043071e-02  9.9964210809648416e-02  9.9963078593820448e-02  9.9964068573032944e-02  9.9971765659442643e-02  9.9972260837849880e-02  9.9972956420616613e-02  9.9978073181911320e-02  9.9979117434126880e-02  9.9980074033993505e-02  9.9984002787085802e-02  9.9984599891941958e-02  9.9987366689374010e-02  9.9987592092622465e-02  9.9992783565387308e-02  9.9988040619943250e-02  1.0000000000000003e-01  1.0001473455082757e-01  1.0000000000000003e-01  1.0000904087962813e-01  1.0001622310648677e-01  1.0001470736021570e-01  1.0001665367994991e-01  1.0002251689439161e-01  1.0002176616496249e-01  1.0002246345066465e-01  1.0003195605976468e-01  1.0002821768428398e-01  1.0003096237097948e-01  1.0004336516653803e-01  1.0003850824481339e-01  1.0003618731333448e-01  1.0006022850821296e-01  1.0002935559793667e-01  1.0006934440957559e-01  1.0007408321150020e-01  1.0006319346535154e-01  1.0006828291537025e-01  1.0009292786012358e-01  1.0007830703509363e-01  1.0008365124750808e-01  1.0012434845648266e-01  1.0008013172814895e-01  1.0013941185378700e-01  1.0007409384010135e-01  1.0021942281643248e-01  9.9913100190660201e-02  1.0052449394766773e-01  1.0009105294826300e-01  9.9443310822198788e-02  9.9812170151359500e-02  9.9959120213647015e-02  9.9844890501133224e-02  9.9940381666034694e-02  9.9910743538090124e-02  9.9860829788659830e-02  9.9968063644262833e-02  9.9915758898352913e-02  9.9931317372079373e-02  9.9942152554636593e-02  9.9945924614235904e-02  9.9939275923541987e-02  9.9958365026658072e-02  9.9955518982235980e-02  9.9955968627539110e-02  9.9965900918532427e-02  9.9966703048375127e-02  9.9967053466788913e-02  9.9973936629108640e-02  9.9974603072480683e-02  9.9975818137831698e-02  9.9980026993506943e-02  9.9981767705983091e-02  9.9982606140497143e-02  9.9986826464774498e-02  9.9986367434117929e-02  9.9991758422250027e-02  9.9987387176488238e-02  1.0000000000000003e-01  1.0001591837697946e-01  1.0000000000000003e-01  1.0001108484400030e-01  1.0001611074759716e-01  1.0001537303501942e-01  1.0002189141944974e-01  1.0002098986561739e-01  1.0002237110448207e-01  1.0003096343859046e-01  1.0002803559224012e-01  1.0002941300574968e-01  1.0004240763175890e-01  1.0003768235351648e-01  1.0003871735312748e-01  1.0005687663537072e-01  1.0004144205824675e-01  1.0005400702572435e-01  1.0005096726440302e-01  1.0007746909849267e-01  1.0006467803632814e-01  1.0009723317312938e-01  1.0006964670736435e-01  1.0008689889552627e-01  1.0010833669434313e-01  1.0009994561239539e-01  1.0008737175061760e-01  1.0016426748289099e-01  1.0005153013791944e-01  1.0023068357416534e-01  9.9924252936198416e-02  1.0052684002225450e-01  1.0014963193630456e-01  9.9394158898126819e-02  9.9777470285029410e-02  9.9928868093306089e-02  9.9891294511969334e-02  9.9926113951864223e-02  9.9871797838990292e-02  9.9938569057743842e-02  9.9882993815152241e-02  9.9940164244999408e-02  9.9927880249096365e-02  9.9946949326625983e-02  9.9924728934533552e-02  9.9955216063914581e-02  9.9948133003951181e-02  9.9948918371843734e-02  9.9961423554265932e-02  9.9961501649420817e-02  9.9960822260889745e-02  9.9970558562373690e-02  9.9970969709651872e-02  9.9971609101653591e-02  9.9977584424904481e-02  9.9978530670411625e-02  9.9980122944343316e-02  9.9983453997031679e-02  9.9986188771544665e-02  9.9985846109376705e-02  9.9992069162568795e-02  9.9987591691014996e-02  1.0000000000000003e-01  1.0001750516137745e-01  1.0000000000000003e-01  1.0001087581444393e-01  1.0001661356515244e-01  1.0001921901237629e-01  1.0002075117183147e-01  1.0002115571304532e-01  1.0002935544717267e-01  1.0002770365267627e-01  1.0002846438012897e-01  1.0003931293588976e-01  1.0003662792818412e-01  1.0003773425216878e-01  1.0005414649666382e-01  1.0004480855414098e-01  1.0004874956602629e-01  1.0006385627399007e-01  1.0005941719786704e-01  1.0003776344395784e-01  1.0011043721610396e-01  1.0006962915313837e-01  1.0008222164901187e-01  1.0011333552925060e-01  1.0008081071770503e-01  1.0010625075728528e-01  1.0011845642931197e-01  1.0013351865275699e-01  1.0006009200596928e-01  1.0025642198937516e-01  9.9900825922060496e-02  1.0054189120784909e-01  1.0014194023818927e-01  9.9414611619577792e-02  9.9742398616227079e-02  9.9975327521086954e-02  9.9869585217867637e-02  9.9889779984539240e-02  9.9918522057111755e-02  9.9914596040319409e-02  9.9897670199710437e-02  9.9901824440394332e-02  9.9958152306020787e-02  9.9907002225862310e-02  9.9956357942598537e-02  9.9938120256344437e-02  9.9941567466406520e-02  9.9955569211625933e-02  9.9956744585629961e-02  9.9953878717606026e-02  9.9966249472654659e-02  9.9965921600810984e-02  9.9966611649723994e-02  9.9974275588773753e-02  9.9975345626040560e-02  9.9975885867604516e-02  9.9981466923592222e-02  9.9982153952515737e-02  9.9984859892359737e-02  9.9986213738460603e-02  9.9991471771517029e-02  9.9987224523100701e-02  1.0000000000000003e-01  1.0001814709815776e-01  1.0000000000000003e-01  1.0001099998637289e-01  1.0001971705957352e-01  1.0001819511873061e-01  1.0002081706201921e-01  1.0002698128569595e-01  1.0002671681085915e-01  1.0002745207450815e-01  1.0003743417866902e-01  1.0003436368874750e-01  1.0003565654276195e-01  1.0005097743191955e-01  1.0004442992428486e-01  1.0004592973490756e-01  1.0006453416167491e-01  1.0005529160179173e-01  1.0005041405405976e-01  1.0008871197977524e-01  1.0003874216495769e-01  1.0009797049518931e-01  1.0010603501568878e-01  1.0008812838787838e-01  1.0008666444501325e-01  1.0014042157398002e-01  1.0008054198299438e-01  1.0014042625866212e-01  1.0009304123558434e-01  1.0022205356185737e-01  9.9908371451874159e-02  1.0056852803408317e-01  1.0012277423488597e-01  9.9388605870816063e-02  9.9775613657572870e-02  9.9962852079452755e-02  9.9836783238888588e-02  9.9931542379096294e-02  9.9900291005201189e-02  9.9894751444974200e-02  9.9921896709682143e-02  9.9929182664634839e-02  9.9877085351619974e-02  9.9969085268057103e-02  9.9925860060014998e-02  9.9940168231425722e-02  9.9947111293806651e-02  9.9953447133127343e-02  9.9946257318187987e-02  9.9963111611214822e-02  9.9961727496477512e-02  9.9961108523434136e-02  9.9970508614100978e-02  9.9971921303525349e-02  9.9972316821527130e-02  9.9978624777696271e-02  9.9980171298014966e-02  9.9980856100224932e-02  9.9986014727962300e-02  9.9985776888491071e-02  9.9991100956538653e-02  9.9987539493592500e-02  1.0000000000000003e-01  1.0001869232372532e-01  1.0000000000000003e-01  1.0001239041229500e-01  1.0001896943719484e-01  1.0001788035241327e-01  1.0002497999767257e-01  1.0002450591878860e-01  1.0002606695918359e-01  1.0003456756494680e-01  1.0003272431185577e-01  1.0003310603829758e-01  1.0004677570565150e-01  1.0004202950010223e-01  1.0004327646816932e-01  1.0006101915501914e-01  1.0005202905042433e-01  1.0005217003964330e-01  1.0007931428632044e-01  1.0005502526053402e-01  1.0007111586675228e-01  1.0007190543573490e-01  1.0010001331594778e-01  1.0008805760972002e-01  1.0012814600508160e-01  1.0009646488679641e-01  1.0009025765994502e-01  1.0017639058540768e-01  1.0005213123304868e-01  1.0022408142107064e-01  9.9946320215328566e-02  1.0052887728287249e-01  1.0016414500212123e-01  9.9338982226921099e-02  9.9765545790369586e-02  9.9935933530877416e-02  9.9871860410721561e-02  9.9920265353486429e-02  9.9872983275790278e-02  9.9924254800569767e-02  9.9919317081244713e-02  9.9899935792225641e-02  9.9938871948524119e-02  9.9903174833907329e-02  9.9949030450219301e-02  9.9936385399908692e-02  9.9955113110759539e-02  9.9935880869596497e-02  9.9960745535271928e-02  9.9956640898736321e-02  9.9956336780203964e-02  9.9967310892585703e-02  9.9967929268577435e-02  9.9967108068036617e-02  9.9976171923861198e-02  9.9976934769636858e-02  9.9978144810052183e-02  9.9982729492105737e-02  9.9985346472896419e-02  9.9984946199396171e-02  9.9991572234871026e-02  9.9987431081762501e-02  1.0000000000000003e-01  1.0001976522273408e-01  1.0000000000000003e-01  1.0001194841342954e-01  1.0001883009788026e-01  1.0002082638872205e-01  1.0002328974858971e-01  1.0002366190767371e-01  1.0003179062103937e-01  1.0003089151816118e-01  1.0003129591907943e-01  1.0004222503995000e-01  1.0003994162872897e-01  1.0004024701795783e-01  1.0005606405912140e-01  1.0004982325808690e-01  1.0004927145002439e-01  1.0007293005128087e-01  1.0005776312952895e-01  1.0006225153755278e-01  1.0008447521861839e-01  1.0007590879063478e-01  1.0004346632706593e-01  1.0015014657090654e-01  1.0007965149971734e-01  1.0011113816177808e-01  1.0013063523971148e-01  1.0012480786537707e-01  1.0005871006853781e-01  1.0026428778852575e-01  9.9904675836036960e-02  1.0052406958841381e-01  1.0018093867127564e-01  9.9341514550986887e-02  9.9731224316880140e-02  9.9968900244281941e-02  9.9866862206280230e-02  9.9893263760986811e-02  9.9904042560275588e-02  9.9919137933361407e-02  9.9891532258714513e-02  9.9934248566307060e-02  9.9926360297365069e-02  9.9920261026182011e-02  9.9914755890501125e-02  9.9967993128198721e-02  9.9923369624536934e-02  9.9963153221976020e-02  9.9949848558824231e-02  9.9952209656926305e-02  9.9963437207511302e-02  9.9965577554252200e-02  9.9962834776124151e-02  9.9972927875093487e-02  9.9973604693899570e-02  9.9974301363775761e-02  9.9981244144456596e-02  9.9982109900168065e-02  9.9984193906681104e-02  9.9986466087506221e-02  9.9991354355020837e-02  9.9987445442939346e-02  1.0000000000000003e-01  1.0001980518680331e-01  1.0000000000000003e-01  1.0001151191500997e-01  1.0002084110711749e-01  1.0001919536685093e-01  1.0002230085279459e-01  1.0002781127218219e-01  1.0002844100028500e-01  1.0002904896394527e-01  1.0003844924656490e-01  1.0003630994000594e-01  1.0003720260273764e-01  1.0005105374431365e-01  1.0004645913108633e-01  1.0004550338493964e-01  1.0006583063777974e-01  1.0005614862645407e-01  1.0005566634297007e-01  1.0008280965330088e-01  1.0006718891589407e-01  1.0005980003207812e-01  1.0011273442362655e-01  1.0004428880519604e-01  1.0011399594328792e-01  1