<?xml version="1.0"?>
<VTKFile type="UnstructuredGrid"  version="0.1"  >
<UnstructuredGrid>
<Piece  NumberOfPoints="1933" NumberOfCells="3640">
<Points>
<DataArray  type="Float64"  NumberOfComponents="3"  format="ascii">0.0002916155791314323 -0.00255936720518235 0  5.000291652846959 -0.002485702164730817 0  5.000181120969442 7.497514373116049 0  0.0001810796114144475 7.497440703788601 0  10.00029172316327 -0.002412085477268241 0  10.00018118375673 7.497587984792575 0  15.00029185233986 -0.002338486396721758 0  15.00018127275549 7.497661577530331 0  20.00029205560861 -0.002264862529079208 0  20.00018138937238 7.497735195845546 0  25.00029233911164 -0.002191167333745411 0  25.00018153150454 7.497808886584431 0  30.00029270190391 -0.002117352888584344 0  30.00018169327855 7.497882697444785 0  35.00029313748524 -0.002043370553804951 0  35.00018186484495 7.497956676726353 0  40.00029363470962 -0.001969170666827892 0  40.00018203214476 7.49803087375695 0  45.00029417813491 -0.001894701772800328 0  45.00018217655108 7.49810533968225 0  50.00029474790384 -0.001819909608746102 0  50.00018227431364 7.498180128467207 0  55.00029531921493 -0.001744735918976167 0  55.00018229574762 7.498255298052931 0  60.00029586140158 -0.001669117104767893 0  60.00018220410892 7.498330911669861 0  65.00029633659003 -0.001592982665170436 0  65.00018195408018 7.498407039346318 0  70.00029669785278 -0.001516253348826527 0  70.00018148976795 7.498483759681659 0  75.00029688671279 -0.001438838897321971 0  75.00018074206869 7.498561161982865 0  80.00029682975477 -0.001360635209584662 0  80.00017962520616 7.498639348897895 0  85.00029643396398 -0.001281520684898672 0  85.00017803216828 7.49871843971906 0  90.00029558017472 -0.001201351398000854 0  90.00017582867667 7.498798574573576 0  95.00029411363354 -0.001119954609970951 0  95.0001728452109 7.498879919752711 0  100.0002918300086 -0.001037119910049657 0  100.0001688665116 7.498962674418279 0  105.0002884540167 -0.0009525870142148066 0  105.0001636179676 7.499047078774415 0  110.0002836057527 -0.0008660289588299097 0  110.000156748544 7.49913342328478 0  115.0002767460465 -0.0007770293021433577 0  115.0001478108733 7.499222057168192 0  120.0002670853152 -0.0006850525491430636 0  120.00013624177 7.499313391153524 0  125.0002534278422 -0.0005894099614687648 0  125.0001213528831 7.499407882059699 0  130.0002339004582 -0.0004892326791133191 0  130.0001023558655 7.499505970536763 0  135.000205472716 -0.0003834932729584037 0  135.0000784783515 7.499607909272574 0  140.0001630992946 -0.0002712032660097752 0  140.0000492941615 7.499713352485323 0  145.00009817367 -0.0001521842604414902 0  145.0000155296735 7.499820469646854 0  149.999995693396 -2.975203176209547e-05 0  149.9999808995899 7.499924293976433 0  160 1.290296311889926e-18 0  165.0000193977109 -1.625713693784792e-05 0  165.0000043738432 7.499975118654696 0  159.9999915424024 7.499980014283906 0  170.0000464274089 -7.531772336131261e-06 0  170.0000169681032 7.49998850164053 0  175.0000743566358 1.817453084309101e-05 0  175.000030072499 7.500016332407836 0  180.0001005033305 5.581245906341483e-05 0  180.0000433239414 7.500054991239667 0  185.0001239457813 0.0001019983991146131 0  185.0000562380382 7.50010167824657 0  190.000144525882 0.0001544058171947602 0  190.000068452437 7.500154332087991 0  195.0001624002682 0.0002114064722441385 0  195.0000797521822 7.500211451960562 0  200.0001778374876 0.0002718416282524395 0  200.0000900386888 7.500271942180155 0  205.000191128352 0.000334872636294043 0  205.0000992923355 7.500334995821176 0  210.0002025485742 0.0003998822907161933 0  210.0001075422315 7.500400011821013 0  215.0002123453013 0.0004664090163390986 0  215.0001148448839 7.500466536891574 0  220.0002207342651 0.0005341023817336765 0  220.0001212702119 7.50053422488571 0  225.0002279013696 0.0006026925586269478 0  225.0001268928258 7.500602808201528 0  230.0002340058956 0.0006719689965754964 0  230.0001317868546 7.500672077449428 0  235.0002391840755 0.0007417652710638615 0  235.0001360230735 7.500741866812164 0  240.0002435525191 0.0008119481356132431 0  240.0001396674853 7.500812043364832 0  245.000247211323 0.0008824094906121458 0  245.0001427807999 7.500882499186576 0  250.0002502468246 0.0009530604190375833 0  250.0001454184622 7.500953145474456 0  255.0002527340465 0.00102382672429442 0  255.0001476310097 7.501023908125442 0  260.000254738877 0.001094645596285022 0  260.0001494646102 7.501094724427776 0  265.0002563200622 0.001165463165696055 0  265.0001509617023 7.501165540627727 0  270.000257531049 0.001236232807955638 0  270.000152161676 7.501236310232379 0  275.0002584217488 0.001306914145035391 0  275.000153101534 7.501306992987712 0  280.0002590402205 0.001377472779740463 0  280.0001538165064 7.501377554544058 0  285.0002594342734 0.001447880896879522 0  285.0001543405502 7.501447966896017 0  290.0002596528506 0.001518118992101734 0  290.0001547066815 7.501518209763978 0  295.0002597469105 0.001588179149834565 0  295.0001549470941 7.501588273165445 0  300.0002597691135 0.001658070461726191 0  300.000155093082 7.501658161489861 0  305.0002597708878 0.001727827181207395 0  305.0001551750288 7.501727899421512 0  310.0002597938854 0.001797519200519272 0  310.0001552233536 7.501797540184856 0  5.000070515477391 14.9975145204981 0  7.047819477878914e-05 14.99744087483583 0  10.0000705546157 14.99758809757356 0  15.00007059435143 14.99766165803697 0  20.00007062990081 14.9977352492794 0  25.00007065419123 14.99780891748287 0  30.00007065782907 14.99788270869971 0  35.00007062867184 14.99795666947421 0  40.00007055128641 14.99803084749263 0  45.00007040634956 14.99810529235593 0  50.00007016997345 14.99818005647603 0  55.00006981291511 14.99825519608743 0  60.00006929962703 14.99833077237993 0  65.00006858710775 14.9984068527721 0  70.00006762351313 14.99848351235606 0  75.00006634650195 14.99856083554949 0  80.00006468130387 14.99863891798491 0  85.00006253854919 14.99871786864078 0  90.00005981198734 14.99879781215289 0  95.00005637640585 14.99887889109636 0  100.0000520863974 14.99896126772029 0  105.0000467772416 14.99904512399932 0  110.0000402702294 14.99913065766669 0  115.0000323865428 14.99921806962553 0  120.0000229765932 14.99930753397385 0  125.0000119756867 14.99939913452785 0  129.9999995014668 14.99949273946922 0  134.9999860109081 14.99958776723198 0  139.9999725256569 14.99968277418262 0  144.9999608898975 14.99977478193513 0  149.9999538838087 14.99985829228104 0  164.9999728541719 14.99995152447046 0  159.9999668518038 14.99993351111126 0  169.9999770930438 14.99997705917742 0  174.999981206143 15.00001112427146 0  179.9999857509469 15.00005292955033 0  184.9999907606213 15.00010117358367 0  189.9999960740132 15.00015457015239 0  195.0000014918 15.00021201774264 0  200.0000068390633 15.00027262647436 0  205.0000119835627 15.00033569558024 0  210.0000168352143 15.00040067869803 0  215.000021338968 15.00046715058821 0  220.0000254664621 15.00053477931796 0  225.0000292085516 15.00060330431633 0  230.0000325693195 15.00067251950769 0  235.0000355615688 15.00074226048725 0  240.0000382035559 15.00081239479627 0  245.0000405167005 15.00088281453754 0  250.0000425240284 15.00095343075485 0  255.000044249146 15.00102416915097 0  260.0000457155919 15.00109496684027 0  265.000046946448 15.00116576992428 0  270.0000479641238 15.00123653175178 0  275.0000487902457 15.00130721178291 0  280.0000494456124 15.00137777502268 0  285.0000499502083 15.00144819202375 0  290.0000503232876 15.00151843947288 0  295.0000505836657 15.001588501354 0  300.0000507504425 15.00165837059345 0  305.0000508446635 15.00172805088953 0  310.0000508927897 15.00179755805783 0  4.999959978550156 22.49751475303499 0  -4.005405544843521e-05 22.4974411967493 0  9.999959999891875 22.49758825142248 0  14.99996000309445 22.49766174402311 0  19.99995998044925 22.49773527692397 0  24.99995992313692 22.49780889361627 0  29.99995982096997 22.49788263689623 0  34.99995966199818 22.49795654996474 0  39.99995943204114 22.49803067721376 0  44.99995911419892 22.49810506492832 0  49.99995868836315 22.49817976199578 0  54.99995813073092 22.49825482065155 0  59.99995741332675 22.49833029726617 0  64.99995650355028 22.49840625316427 0  69.99995536378965 22.4984827554509 0  74.99995395118498 22.49855987779516 0  79.99995221768368 22.49863770107241 0  84.9999501106325 22.49871631368057 0  89.99994757429664 22.49879581119527 0  94.99994455292448 22.49887629477017 0  99.99994099630021 22.4989578672523 0  104.9999368691761 22.49904062526301 0  109.9999321665366 22.49912464433957 0  114.9999269372288 22.49920995245585 0  119.9999213187913 22.49929648469114 0  124.9999155856287 22.49938400861444 0  129.9999102094965 22.4994720071352 0  134.9999059228446 22.49955950669749 0  139.9999037577367 22.4996448534996 0  144.9999050018122 22.49972549288632 0  149.9999109728433 22.49979795442917 0  164.9999233274283 22.49992370591008 0  159.9999220723816 22.49988887804398 0  169.9999231055614 22.49996097039441 0  174.9999223726128 22.50000250087245 0  179.9999217889508 22.50004880827274 0  184.9999216716527 22.50009966365172 0  189.9999221019786 22.50015451741039 0  194.9999230327003 22.50021273626101 0  199.9999243613943 22.50027371670693 0  204.9999259726347 22.5003369294874 0  209.9999277591234 22.50040192965258 0  214.9999296303534 22.50046835139325 0  219.9999315145905 22.50053589732034 0  224.9999333576457 22.50060432674297 0  229.9999351203672 22.50067344486362 0  234.9999367758511 22.50074309353484 0  239.9999383068381 22.5008131436489 0  244.9999397034747 22.5008834890019 0  249.9999409614744 22.50095404140749 0  254.9999420806556 22.50102472683927 0  259.9999430637865 22.50109548241196 0  264.9999439156945 22.50116625404814 0  269.9999446425768 22.50123699471289 0  274.9999452514833 22.50130766312459 0  279.9999457499529 22.50137822286628 0  284.9999461458225 22.50144864181852 0  289.9999464472673 22.50151889180299 0  294.9999466632008 22.50158894824752 0  299.9999468042247 22.501
[...]
<PointData  Scalars="p"> 
<DataArray  type="Float64"  Name="p"  format="ascii">1.0000000000000001e-01  1.0000000000000003e-01  9.9996101362169854e-02  1.0000000000000003e-01  1.0000000000000003e-01  9.9995467691144660e-02  1.0000000000000003e-01  9.9993155688242630e-02  1.0000000000000003e-01  9.9991981703392005e-02  1.0000000000000003e-01  9.9990315135515706e-02  1.0000000000000003e-01  9.9987577665363550e-02  1.0000000000000003e-01  9.9986353067704786e-02  1.0000000000000003e-01  9.9984476698181862e-02  1.0000000000000003e-01  9.9981389448630803e-02  1.0000000000000003e-01  9.9980933089540938e-02  1.0000000000000003e-01  9.9973275528351363e-02  1.0000000000000003e-01  9.9969049125418277e-02  1.0000000000000003e-01  9.9964528670540218e-02  1.0000000000000003e-01  9.9960885261387245e-02  1.0000000000000003e-01  9.9953508288447235e-02  1.0000000000000003e-01  9.9950525103904134e-02  1.0000000000000003e-01  9.9945098100788346e-02  1.0000000000000003e-01  9.9936770076820863e-02  1.0000000000000003e-01  9.9934304189979145e-02  1.0000000000000003e-01  9.9926007045015738e-02  1.0000000000000003e-01  9.9920951941832648e-02  1.0000000000000003e-01  9.9911890927418742e-02  1.0000000000000003e-01  9.9914022520457557e-02  1.0000000000000003e-01  9.9891348388539525e-02  1.0000000000000003e-01  9.9912113377906314e-02  1.0000000000000003e-01  9.9865840627913399e-02  1.0000000000000003e-01  9.9918416023365403e-02  1.0000000000000003e-01  9.9830591991747514e-02  1.0000000000000003e-01  9.9935654408629018e-02  1.0000000000000001e-01  9.9770846487008291e-02  1.0000000000000001e-01  1.0000000000000003e-01  1.0018602479375346e-01  1.0038243160504189e-01  1.0000000000000003e-01  1.0005421607513865e-01  1.0000000000000003e-01  1.0014695633382380e-01  1.0000000000000003e-01  1.0009711347195022e-01  1.0000000000000003e-01  1.0011209327961003e-01  1.0000000000000003e-01  1.0009924045942120e-01  1.0000000000000003e-01  1.0010533694979769e-01  1.0000000000000003e-01  1.0009447632774969e-01  1.0000000000000003e-01  1.0009611637493883e-01  1.0000000000000003e-01  1.0009245653178393e-01  1.0000000000000003e-01  1.0008928545679857e-01  1.0000000000000003e-01  1.0008695928330125e-01  1.0000000000000003e-01  1.0008541721502585e-01  1.0000000000000003e-01  1.0008220660513900e-01  1.0000000000000003e-01  1.0008069614961676e-01  1.0000000000000003e-01  1.0007904730292483e-01  1.0000000000000003e-01  1.0007700176361063e-01  1.0000000000000003e-01  1.0007550220927548e-01  1.0000000000000003e-01  1.0007451407149580e-01  1.0000000000000003e-01  1.0007257340127189e-01  1.0000000000000003e-01  1.0007216374201187e-01  1.0000000000000003e-01  1.0007006478130478e-01  1.0000000000000003e-01  1.0007086767261200e-01  1.0000000000000003e-01  1.0006667871462395e-01  1.0000000000000003e-01  1.0007171903347621e-01  1.0000000000000003e-01  1.0006097088535519e-01  1.0000000000000003e-01  1.0007699793543899e-01  1.0000000000000003e-01  1.0004862406052178e-01  1.0000000000000003e-01  1.0009713071064887e-01  1.0000000000000001e-01  1.0000000000000003e-01  9.9993581052446712e-02  1.0000000000000003e-01  9.9993639643295704e-02  9.9993181847893409e-02  9.9992295218912494e-02  9.9989980382262839e-02  9.9990150616480894e-02  9.9989715925836303e-02  9.9986366819459244e-02  9.9987916659526638e-02  9.9986576229121299e-02  9.9983518124158677e-02  9.9975620141854418e-02  9.9977906353259524e-02  9.9969368142651074e-02  9.9973110418989555e-02  9.9969817581509871e-02  9.9963104841768360e-02  9.9965013848844486e-02  9.9962808733934844e-02  9.9952753191003593e-02  9.9959058877894552e-02  9.9950228498571575e-02  9.9951019895119522e-02  9.9940779364877441e-02  9.9959907732398032e-02  9.9913954959100770e-02  9.9989027709785239e-02  9.9858252770241379e-02  1.0005779781449398e-01  9.9767489271242918e-02  9.9838388427730601e-02  1.0058601271037641e-01  1.0017588513032211e-01  1.0002789648971540e-01  1.0005170599082039e-01  1.0004157639510224e-01  1.0006177240086808e-01  1.0003805680365455e-01  1.0004976055919611e-01  1.0004680774167682e-01  1.0004209505714327e-01  1.0004186830566350e-01  1.0004245507185162e-01  1.0003756265149914e-01  1.0003746897508344e-01  1.0003692030527904e-01  1.0003407890858160e-01  1.0003352710824916e-01  1.0003298289091234e-01  1.0003122006240718e-01  1.0003034841685904e-01  1.0003035632065621e-01  1.0002814698557497e-01  1.0002911778088178e-01  1.0002604702190035e-01  1.0002953222032294e-01  1.0002127640464571e-01  1.0003484058781585e-01  1.0001012529931252e-01  1.0004736329975931e-01  1.0000000000000003e-01  9.9990520803844865e-02  1.0000000000000003e-01  9.9993590249442266e-02  9.9990459193582723e-02  9.9988071902457648e-02  9.9987617208237400e-02  9.9987139414694462e-02  9.9982258144659830e-02  9.9983413270201327e-02  9.9983146165643133e-02  9.9977577620975588e-02  9.9976395641634741e-02  9.9980068611078859e-02  9.9957164124345299e-02  9.9965008309006217e-02  9.9960221843069033e-02  9.9949823254673095e-02  9.9954581127070188e-02  9.9950282892842024e-02  9.9937156230406249e-02  9.9942209567765589e-02  9.9938997666777579e-02  9.9920562132119486e-02  9.9935912079616121e-02  9.9915448642420884e-02  9.9927632043359957e-02  9.9895837436007315e-02  9.9953475961938251e-02  9.9829381433754430e-02  1.0005351965259035e-01  9.9635165671013104e-02  9.9883274119067014e-02  1.0054234167404545e-01  1.0028229221836034e-01  1.0005869109386603e-01  1.0007392265199540e-01  1.0012043904829183e-01  1.0005707358513276e-01  1.0009274762427017e-01  1.0008495955171801e-01  1.0007549244103367e-01  1.0007669596827233e-01  1.0007943298723336e-01  1.0006939873918659e-01  1.0007065873320233e-01  1.0006998335857661e-01  1.0006435664348159e-01  1.0006369225489256e-01  1.0006332216724947e-01  1.0005939463208567e-01  1.0005885133507623e-01  1.0005795092783897e-01  1.0005590238797062e-01  1.0005433449693124e-01  1.0005502717484792e-01  1.0005091128774048e-01  1.0005423077962529e-01  1.0004686685919091e-01  1.0005714972819404e-01  1.0003570380300210e-01  1.0007496101828683e-01  1.0000000000000003e-01  9.9988639075486357e-02  1.0000000000000003e-01  9.9992724329730276e-02  9.9987365419976618e-02  9.9987915914743417e-02  9.9987379172988874e-02  9.9982308341981491e-02  9.9983653647932297e-02  9.9983665008287856e-02  9.9977405699017280e-02  9.9980007913043720e-02  9.9980289822947210e-02  9.9966884813956478e-02  9.9978880189860841e-02  9.9960328497065903e-02  9.9954318929865518e-02  9.9958113113275876e-02  9.9957991138329330e-02  9.9942153797535349e-02  9.9952787553737585e-02  9.9946202240449741e-02  9.9933687363942189e-02  9.9938875800543669e-02  9.9942619693506596e-02  9.9912021534247192e-02  9.9952380226558293e-02  9.9894472735981191e-02  9.9974972997211517e-02  9.9828800014468075e-02  1.0008919778024294e-01  9.9612649423264740e-02  9.9879335918677328e-02  1.0066895662217745e-01  1.0018755017308162e-01  1.0001773583819464e-01  1.0019065912517609e-01  9.9998606999114101e-02  1.0009210058327511e-01  1.0006762927229268e-01  1.0006261092001441e-01  1.0006186688101465e-01  1.0007127374543726e-01  1.0005485210967550e-01  1.0005970344843482e-01  1.0005958434633161e-01  1.0005220670150924e-01  1.0005194415368257e-01  1.0005209958985832e-01  1.0004680999801337e-01  1.0004635276558349e-01  1.0004612788404882e-01  1.0004253359565868e-01  1.0004237482761497e-01  1.0004095267528219e-01  1.0004024827053531e-01  1.0003692165639959e-01  1.0004082820574894e-01  1.0003136043651353e-01  1.0004439195705966e-01  1.0002094627037623e-01  1.0005701269018590e-01  1.0000000000000003e-01  9.9986706607613662e-02  1.0000000000000003e-01  9.9990728212616620e-02  9.9986997666794974e-02  9.9987844258518019e-02  9.9981743219939342e-02  9.9983277919161839e-02  9.9982533381493988e-02  9.9975735207943117e-02  9.9978696800705716e-02  9.9979251637509453e-02  9.9967591672285264e-02  9.9974093450970719e-02  9.9968853533433419e-02  9.9965477312337209e-02  9.9951667802750249e-02  9.9956426006211241e-02  9.9937302335736292e-02  9.9949937066405051e-02  9.9945923230896211e-02  9.9926196052040214e-02  9.9941773827035021e-02  9.9931455984927767e-02  9.9920558389482536e-02  9.9920266466928448e-02  9.9940808636284573e-02  9.9876958652555664e-02  9.9979731283690906e-02  9.9806707940896952e-02  1.0010440432171404e-01  9.9549556408947720e-02  9.9767133938470864e-02  1.0075801057583483e-01  1.0024218955523437e-01  1.0007886252919471e-01  1.0010828410642063e-01  1.0011106428787825e-01  1.0008154809717129e-01  1.0007712902218292e-01  1.0006798273952250e-01  1.0009413471597318e-01  1.0006366747958463e-01  1.0007493692870466e-01  1.0007525450296238e-01  1.0006476722636772e-01  1.0006533503389205e-01  1.0006691729990294e-01  1.0005849837639441e-01  1.0005853257346563e-01  1.0005835946058365e-01  1.0005352446951123e-01  1.0005264234226920e-01  1.0005274681890487e-01  1.0004872206334108e-01  1.0004929044974920e-01  1.0004642184820135e-01  1.0004806099547552e-01  1.0004078385531451e-01  1.0005163579556627e-01  1.0002923507433269e-01  1.0006639714924100e-01  1.0000000000000003e-01  9.9984414278557351e-02  1.0000000000000003e-01  9.9990648619200831e-02  9.9986438849345091e-02  9.9983717058592075e-02  9.9983175541328961e-02  9.9983082023788458e-02  9.9976098311755357e-02  9.9978074703489281e-02  9.9979114679423498e-02  9.9969178717414481e-02  9.9973356199995381e-02  9.9972264331518179e-02  9.9960979597140259e-02  9.9963763257879909e-02  9.9975696490011964e-02  9.9931749917721788e-02  9.9952880401644476e-02  9.9946153042499875e-02  9.9928248140971274e-02  9.9942374453696345e-02  9.9941238132076712e-02  9.9911600645516935e-02  9.9940985382477684e-02  9.9917765719933382e-02  9.9925844289893012e-02  9.9891773741042952e-02  9.9983680123622590e-02  9.9785963880340556e-02  1.0014150058185846e-01  9.9498332797889749e-02  9.9775190110594852e-02  1.0073461931118464e-01  1.0029545009120272e-01  9.9983025676137635e-02  1.0013193782328642e-01  1.0010550027122139e-01  1.0011434496589618e-01  1.0003636786799928e-01  1.0011095214015350e-01  1.0004785854037530e-01  1.0007677467019982e-01  1.0007478578523644e-01  1.0006202293383221e-01  1.0006286664809651e-01  1.0006772283925035e-01  1.0005560452882785e-01  1.0005703955039603e-01  1.0005751904312224e-01  1.0005026717675294e-01  1.0005005153481394e-01  1.0004999336179043e-01  1.0004575801467294e-01  1.0004445670851760e-01  1.0004543055340932e-01  1.0004010498813593e-01  1.0004354166140443e-01  1.0003573570495049e-01  1.0004604956512812e-01  1.0002445454116371e-01  1.0005925783408867e-01  1.0000000000000003e-01  9.9983159702110608e-02  1.0000000000000003e-01  9.9990487774876263e-02  9.9982611153506845e-02  9.9984642357738837e-02  9.9983175264501192e-02  9.9977203268132267e-02  9.9977867809979443e-02  9.9978907317324200e-02  9.9969030256666050e-02  9.9973428142064308e-02  9.9973178700227497e-02  9.9959681866890734e-02  9.9965572737280919e-02  9.9969472677721882e-02  9.9945521296734244e-02  9.9971714263968378e-02  9.9940974610110131e-02  9.9927477139516330e-02  9.9941221263565402e-02  9.9939352853945895e-02  9.9914842170645154e-02  9.9932657306687059e-02  9.9935170295152170e-02  9.9892278192759573e-02  9.9945711364566647e-02  9.9884991622902541e-02  9.9963833812758293e-02  9.9794935336219692e-02  1.0014894858747762e-01  9.9447204394849123e-02  9.9791985238848371e-02  1.0079319811656783e-01  1.0024112102754756e-01  1.0000666091210675e-01  1.0016925519355717e-01  1.0006107509323885e-01  1.0009972793952801e-01  1.0014369269047745e-01  1.0003759039964882e-01  1.0008849290116036e-01  1.0007785440012465e-01  1.0007016845465022e-01  1.0006698333495674e-01  1.0007759654674202e-01  1.0006024336617522e-01  1.0006369136867094e-01  1.0006519093084841e-01  1.0005627797200484e-01  1.0005566598778955e-01  1.0005648963792962e-01  1.0004996379673940e-01  1.0004991263985200e-01  1.0004900496969336e-01  1.0004643000417951e-01  1.0004356567483133e-01  1.0004662873301662e-01  1.0003785046581382e-01  1.0004841862222789e-01  1.0002731533727249e-01  1.0006153689527514e-01  1.0000000000000003e-01  9.9982064387132905e-02  1.0000000000000003e-01  9.9988468268382730e-02  9.9982948274214001e-02  9.9984859311165908e-02  9.9978100432018352e-02  9.9979361877216774e-02  9.9979255690651497e-02  9.9970213513751169e-02  9.9973760782011103e-02  9.9974373435464697e-02  9.9960996946169181e-02  9.9966613142879440e-02  9.9968036242599104e-02  9.9949301777768076e-02  9.9964716643533999e-02  9.9957496922216921e-02  9.9952235944312087e-02  9.9934375231811243e-02  9.9943730863984281e-02  9.9909902575696333e-02  9.9939599599998791e-02  9.9928788431811369e-02  9.9907543190003362e-02  9.9918896266553467e-02  9.9943429845796752e-02  9.9857058024439740e-02  9.9990862712102363e-02  9.9784647522384848e-02  1.0014465902933581e-01  9.9431675922814239e-02  9.9722654945424288e-02  1.0085578308607072e-01  1.0026958924257734e-01  1.0003409387253288e-01  1.0011731015224938e-01  1.0006209122068134e-01  1.0013491184041186e-01  1.0007143359201841e-01  1.0011906175070502e-01  1.0006246170688138e-01  1.0007862153812855e-01  1.0005818818834961e-01  1.0008554419545425e-01  1.0005754920942955e-01  1.0006526936569624e-01  1.0006744184023568e-01  1.0005646343905959e-01  1.0005664358844855e-01  1.0005894666613088e-01  1.0005016801552069e-01  1.0004971609704695e-01  1.0005041018804277e-01  1.0004447607824669e-01  1.0004505191082207e-01  1.0004266241567156e-01  1.0004315381246376e-01  1.0003601305101699e-01  1.0004640144781346e-01  1.0002500074448639e-01  1.0005821974106484e-01  1.0000000000000003e-01  9.9980406199347088e-02  1.0000000000000003e-01  9.9988773516896903e-02  9.9983000650277279e-02  9.9980997482898445e-02  9.9979549354007588e-02  9.9980612954059259e-02  9.9972107672218383e-02  9.9974306665581797e-02  9.9975157093168870e-02  9.9963853475183440e-02  9.9967161750030398e-02  9.9968732578579286e-02  9.9951582185220600e-02  9.9961719163737681e-02  9.9962206143219462e-02  9.9944290551617354e-02  9.9952465844887844e-02  9.9971377928445099e-02  9.9904310438176824e-02  9.9938698258560027e-02  9.9933120760136510e-02  9.9897639936952706e-02  9.9936839654707357e-02  9.9916480076361100e-02  9.9908187316256530e-02  9.9888752650433094e-02  9.9987996021186104e-02  9.9752159017493194e-02  1.0017702464760547e-01  9.9405491499655704e-02  9.9719149474232646e-02  1.0084213186125307e-01  1.0030845174959101e-01  9.9983276514367322e-02  1.0013186907452365e-01  1.0009675954073030e-01  1.0008566903719901e-01  1.0008519799949037e-01  1.0011446632543924e-01  1.0010469855206630e-01  1.0004372144826913e-01  1.0009960313277395e-01  1.0005218537952350e-01  1.0007105352975840e-01  1.0007142382415245e-01  1.0005959316393258e-01  1.0005883573626019e-01  1.0006415367737601e-01  1.0005279393856287e-01  1.0005357083108166e-01  1.0005410453782382e-01  1.0004740952779541e-01  1.0004612260433365e-01  1.0004751087383405e-01  1.0004109006046975e-01  1.0004395613612341e-01  1.0003736002222825e-01  1.0004558668966534e-01  1.0002586634438448e-01  1.0005815092521933e-01  1.0000000000000003e-01  9.9979759496570050e-02  1.0000000000000003e-01  9.9988952332320954e-02  9.9979732223418716e-02  9.9982143417947811e-02  9.9980420511951787e-02  9.9974511346125922e-02  9.9975152637226838e-02  9.9976219322446214e-02  9.9965921455246395e-02  9.9969086038611848e-02  9.9970367642480726e-02  9.9954053558108463e-02  9.9961314499000919e-02  9.9963782030623297e-02  9.9943763651610590e-02  9.9955268310140968e-02  9.9963523835533308e-02  9.9925560109339742e-02  9.9969566272975111e-02  9.9924883201625084e-02  9.9904551949642262e-02  9.9926361758538113e-02  9.9934567568031762e-02  9.9877092436467932e-02  9.9947083567520661e-02  9.9885888673979309e-02  9.9950182093256817e-02  9.9785669055987347e-02  1.0017868300253768e-01  9.9362077863748982e-02  9.9734454666452532e-02  1.0086630128123636e-01  1.0027490710854260e-01  9.9987878584127138e-02  1.0016458761506186e-01  1.0005175227301530e-01  1.0009442105461688e-01  1.0010300009437509e-01  1.0008507062103220e-01  1.0007971254533106e-01  1.0012916583687576e-01  1.0003567914074599e-01  1.0007887284173912e-01  1.0006736856535980e-01  1.0006339656243997e-01  1.0005760733163194e-01  1.0006777933012449e-01  1.0005269736172123e-01  1.0005455023584690e-01  1.0005693773523888e-01  1.0004848470222280e-01  1.0004777514773955e-01  1.0004791420705575e-01  1.0004327806743261e-01  1.0004068057557017e-01  1.0004379802669296e-01  1.0003479760913574e-01  1.0004429871706162e-01  1.0002518659392991e-01  1.0005571490812658e-01  1.0000000000000003e-01  9.9979253594620593e-02  1.0000000000000003e-01  9.9987428330684192e-02  9.9980409407816953e-02  9.9983011565290505e-02  9.9975900027401921e-02  9.9977046482367229e-02  9.9976965595337489e-02  9.9968567099358932e-02  9.9970755026349681e-02  9.9972496611903008e-02  9.9957936537228689e-02  9.9963025696904281e-02  9.9964737800088174e-02  9.9946042372860727e-02  9.9956638080752905e-02  9.9960942530324184e-02  9.9933069388671997e-02  9.9957718193264627e-02  9.9950214661853456e-02  9.9937493910601097e-02  9.9922541937102441e-02  9.9930486016495998e-02  9.9888950062858514e-02  9.9921254273896962e-02  9.9941773188559860e-02  9.9842444495195984e-02  9.9991874152260157e-02  9.9786505692446820e-02  1.0013730428035479e-01  9.9393796305701734e-02  9.9692597581680600e-02  1.0090859261920913e-01  1.0028169562027221e-01  1.0001339545991171e-01  1.0012912136585334e-01  1.0005713900591451e-01  1.0012170812807265e-01  1.0007041986576339e-01  1.0008099919624294e-01  1.0010594816846662e-01  1.0007490330722799e-01  1.0010234546616088e-01  1.0005597660397030e-01  1.0007123429224965e-01  1.0005169825638786e-01  1.0007450627569128e-01  1.0005193950707300e-01  1.0005666286206581e-01  1.0005924224665452e-01  1.0004994155495310e-01  1.0004943551928690e-01  1.0005210518590432e-01  1.0004358477965293e-01  1.0004401862071437e-01  1.0004237310056048e-01  1.0004121835705235e-01  1.0003485927409692e-01  1.0004428341717470e-01  1.0002445018533294e-01  1.0005460187701982e-01  1.0000000000000003e-01  9.9978101150884457e-02  1.0000000000000003e-01  9.9987807700426090e-02  9.9980872939891718e-02  9.9979734154018618e-02  9.9977469156521476e-02  9.9978734087643073e-02  9.9970641761449208e-02  9.9972137531560853e-02  9.9973751498561497e-02  9.9962325733745486e-02  9.9964944957936799e-02  9.9966879370788242e-02  9.9949977756971842e-02  9.9956800808401289e-02  9.9961706715235563e-02  9.9937245322180263e-02  9.9953712031029374e-02  9.9956134576985989e-02  9.9929737114517719e-02  9.9943604237063513e-02  9.9973768032998622e-02  9.9873731298272664e-02  9.9937769374396801e-02  9.9913805808803394e-02  9.9892027121631741e-02  9.9895301387876737e-02  9.9988777922457264e-02  9.9738098144860593e-02  1.0017953051222617e-01  9.9398625796921644e-02  9.9678391825786875e-02  1.0089154227312758e-01  1.0031235280250349e-01  9.9979929291685393e-02  1.0013052913416315e-01  1.0008345751099348e-01  1.0008992688720725e-01  1.0007028912946496e-01  1.0010645179684262e-01  1.0006941610904189e-01  1.0007976256581953e-01  1.0009278042087179e-01  1.0009419017058441e-01  1.0003622336888410e-01  1.0008389932234267e-01  1.0004557530534833e-01  1.0005954518660429e-01  1.0006000927846354e-01  1.0005072386866153e-01  1.0004919128348855e-01  1.0005379597223078e-01  1.0004509528958988e-01  1.0004451564069150e-01  1.0004599319751448e-01  1.0003845332110385e-01  1.0004061856166806e-01  1.0003524041127561e-01  1.0004150769760654e-01  1.0002391368514905e-01  1.0005279028893971e-01  1.0000000000000003e-01  9.9977876264382884e-02  1.0000000000000003e-01  9.9988261914375612e-02  9.9978389305133655e-02  9.9981032495659761e-02  9.9978782984207495e-02  9.9973768618728059e-02  9.9973535396159482e-02  9.9974830056675040e-02  9.9965310754289938e-02  9.9967769875119822e-02  9.9969155777202723e-02  9.9954385013675900e-02  9.9958789277282661e-02  9.9963200578738143e-02  9.9941721160526659e-02  9.9952484999968047e-02  9.9959018443203637e-02  9.9929731918422804e-02  9.9948323122574206e-02  9.9960905791193155e-02  9.9907897055741796e-02  9.9968555111194984e-02  9.9920594130561230e-02  9