<?xml version="1.0"?>
<VTKFile type="UnstructuredGrid"  version="0.1"  >
<UnstructuredGrid>
<Piece  NumberOfPoints="1933" NumberOfCells="3640">
<Points>
<DataArray  type="Float64"  NumberOfComponents="3"  format="ascii">-0.0002696309384116469 0.001941767057208883 0  4.999730370733221 0.001869263692050966 0  4.999839182569047 7.501869301942823 0  -0.0001608439395663352 7.501941760192802 0  9.999730357815983 0.001796708087366588 0  9.999839241283185 7.501796766643111 0  14.99973035810961 0.00172403699221585 0  14.99983935401968 7.501724104755718 0  19.99973041124785 0.001651217593795562 0  19.99983954442249 7.501651289607413 0  24.99973055998879 0.001578237210638606 0  24.99983983833915 7.50157831154666 0  29.99973084701313 0.001505096654205851 0  29.99984026340579 7.5015051729529 0  34.99973131428246 0.001431805957388174 0  34.99984084875436 7.501431884703777 0  39.99973200358831 0.001358381752322129 0  39.99984162501769 7.501358463920864 0  44.99973295764853 0.001284845827579718 0  44.99984262460649 7.501284932720472 0  49.99973422146177 0.001211224555927978 0  49.99984388218994 7.501211317748312 0  54.99973584380493 0.001137549002741684 0  54.99984543531906 7.501137650351499 0  59.99973787884873 0.001063855615953896 0  59.99984732514717 7.501063967311723 0  64.99974038791379 0.0009901874715735164 0  64.99984959721232 7.500990312126669 0  69.99974344141361 0.0009165961139831225 0  69.99985230225323 7.500916736886811 0  74.99974712105519 0.0008431440970338344 0  74.99985549702401 7.500843304858835 0  79.99975152237822 0.0007699084112212032 0  79.99985924505654 7.500770093964115 0  84.99975675773472 0.0006969850880726127 0  84.99986361728746 7.500697201443104 0  89.99976295981892 0.0006244954260473154 0  89.99986869240811 7.500624750141218 0  94.999770285867 0.0005525945160962211 0  94.99987455670215 7.500552897064512 0  99.99977892261653 0.0004814831154603967 0  99.99988130298678 7.500481845172489 0  104.9997890920231 0.0004114245217836914 0  104.9998890280414 7.500411859858435 0  109.9998010574601 0.0003427691065053194 0  109.9998978275685 7.500343292294787 0  114.9998151294675 0.0002759908819374486 0  114.9999077872936 7.500276612900216 0  119.9998316685694 0.0002117434556494565 0  119.9999189683396 7.500212459720838 0  124.9998510791929 0.0001509479878495415 0  124.99993138493 7.500151708537081 0  129.9998737809413 9.493516096796953e-05 0  129.9999449739735 7.500095573725419 0  134.9999001261546 4.567972450516487e-05 0  134.9999595626531 7.500045750343533 0  139.9999301934605 6.192311051435654e-06 0  139.9999748615435 7.500004607372566 0  144.9999632933979 -1.88488430048513e-05 0  144.999990575768 7.499975448529823 0  149.9999967704177 -2.231103385885757e-05 0  150.0000069301819 7.499962971889423 0  159.9999999999999 1.030844341486104e-18 0  164.9998990328477 -0.0001190454145400605 0  164.9999816332525 7.499865764881051 0  160.000014238623 7.499962830995435 0  169.9998358856305 -0.0002310541908313156 0  169.9999484674377 7.49976121060454 0  174.9997944986359 -0.0003377771188268872 0  174.9999198311221 7.49965781209446 0  179.9997663942353 -0.0004397770720637074 0  179.9998964728411 7.499557556448939 0  184.9997467714917 -0.0005376711680920627 0  184.9998778814661 7.499460652888132 0  189.9997327837406 -0.0006321012339160799 0  189.9998632537448 7.499366810160526 0  194.999722675441 -0.0007236455308964593 0  194.9998518114829 7.499275625592857 0  199.9997153217421 -0.0008127876393011968 0  199.999842893104 7.499186710677284 0  204.999709974218 -0.000899919206410776 0  204.9998359645992 7.499099727152692 0  209.9997061167097 -0.0009853545511490577 0  209.9998306041284 7.499014391357516 0  214.9997033814469 -0.001069346742250871 0  214.9998264808374 7.498930468178988 0  219.9997014988482 -0.001152101486143723 0  219.9998233351682 7.498847762650729 0  224.9997002665386 -0.001233788077759633 0  224.9998209626631 7.498766112052975 0  229.9996995295945 -0.001314547710139747 0  229.9998192013214 7.498685379321447 0  234.9996991675265 -0.001394499697399146 0  234.9998179219535 7.49860544780493 0  239.9996990854198 -0.001473746140671472 0  239.9998170208818 7.498526217167852 0  244.9996992077272 -0.001552375463568955 0  244.9998164144182 7.498447600190975 0  249.9996994738001 -0.001630465137799739 0  249.9998160346702 7.498369520249581 0  254.9996998346051 -0.001708083833104596 0  254.9998158263433 7.498291909291559 0  259.9997002502707 -0.001785293161042301 0  259.9998157442845 7.498214706178559 0  264.9997006882501 -0.001862149135442726 0  264.9998157516011 7.498137855287256 0  269.9997011219501 -0.001938703438098646 0  269.9998158182224 7.498061305294857 0  274.9997015297682 -0.002015004550584372 0  274.9998159198117 7.497985008096962 0  279.9997018944899 -0.002091098784668251 0  279.9998160369714 7.497908917830482 0  284.9997022030868 -0.002167031203515672 0  284.999816154677 7.497832990006875 0  289.9997024469588 -0.00224284635255084 0  289.9998162619078 7.49775718081173 0  294.9997026227487 -0.002318588567687042 0  294.9998163514078 7.497681446709607 0  299.9997027338508 -0.002394301296225323 0  299.9998164195325 7.497605744626268 0  304.9997027926893 -0.002470024092551959 0  304.9998164661772 7.497530033162542 0  309.9997028234928 -0.002545784017237367 0  309.9998164950684 7.497454275415902 0  4.999947774355563 15.00186941130581 0  -5.226030005661686e-05 15.00194175026334 0  9.999947849567683 15.00179693113443 0  14.99994798775692 15.00172429197534 0  19.99994820672422 15.00165148493185 0  24.99994852298491 15.0015785099088 0  29.99994895333817 15.00150537433828 0  34.99994951552263 15.00143209176364 0  39.99995022847155 15.0013586807526 0  44.99995111241991 15.00128516428678 0  49.99995218896972 15.00121156964684 0  54.9999534811416 15.0011379287792 0  59.99995501340202 15.00106427914019 0  64.99995681163357 15.00099066504227 0  69.99995890299567 15.00091713956646 0  74.99996131560934 15.00084376715449 0  79.99996407796836 15.0007706270557 0  84.99996721795708 15.00069781788274 0  89.9999707613066 15.00062546363445 0  94.99997472928438 15.00055372167906 0  99.99997913536961 15.00048279336041 0  104.9999839806732 15.00041293808545 0  109.9999892479589 15.0003444919236 0  114.9999948944779 15.00027789176492 0  120.0000008446909 15.00021370558884 0  125.0000069858283 15.00015266753797 0  130.0000131729352 15.00009571125341 0  135.0000192566224 15.00004398144193 0  140.0000251566265 14.99999876942492 0  145.0000310125981 14.99996122674378 0  150.0000374189917 14.9999314298521 0  165.000039393611 14.99982520959013 0  160.0000462569933 14.99990563180192 0  170.0000279686254 14.99973523011796 0  175.0000145242339 14.99964135762838 0  180.0000010861517 14.99954699607907 0  184.9999887256393 14.99945372375274 0  189.9999778768463 14.99936214541748 0  194.9999686226766 14.99927240066782 0  199.999960873647 14.99918442310138 0  204.9999544680486 14.99909806574876 0  209.9999492243271 14.99901315947104 0  214.9999449665264 14.99892953862887 0  219.9999415352381 14.99884705112514 0  224.9999387910999 14.99876556122737 0  229.9999366146815 14.99868494924098 0  234.999934904803 14.99860510996168 0  239.9999335763091 14.99852595078557 0  244.9999325578035 14.99844738985124 0  249.9999317895684 14.99836935435062 0  254.9999312217448 14.99829177903811 0  259.9999308127847 14.99821460492374 0  264.9999305281574 14.99813777812039 0  269.9999303392781 14.99806124881423 0  274.9999302226179 14.99798497033324 0  279.9999301589579 14.99790889829718 0  284.999930132756 14.99783298984489 0  289.9999301315707 14.99775720294227 0  294.9999301455408 14.99768149576675 0  299.9999301669075 14.99760582609139 0  304.9999301896818 14.99753015032025 0  309.9999302096625 14.99745442096717 0  5.000056037495904 22.50186967835007 0  5.600083729512262e-05 22.50194186779139 0  10.0000561072913 22.50179727388872 0  15.00005623018689 22.50172466941532 0  20.0000564197058 22.501651877077 0  25.00005668605204 22.50157890971935 0  30.00005703800614 22.5015057824899 0  35.0000574839439 22.50143251345993 0  40.00005803228912 22.50135912387519 0  45.00005869162038 22.50128563838386 0  50.00005947056629 22.50121208543032 0  55.00006037755308 22.50113849791835 0  60.0000614204257 22.50106491421396 0  65.00006260593129 22.50099137955258 0  70.0000639390317 22.50091794792784 0  75.00006542199851 22.50084468456414 0  80.00006705323 22.50077166910711 0  85.00006882572819 22.50069899970364 0  90.00007072518213 22.50062679818096 0  95.00007272763531 22.50055521656134 0  100.0000747968002 22.50048444513858 0  105.0000768812427 22.50041472224371 0  110.0000789119723 22.50034634552863 0  115.0000808015026 22.50027968388834 0  120.0000824462919 22.50021518761865 0  125.0000837356863 22.50015339132243 0  130.0000845718705 22.50009489811523 0  135.0000849059865 22.50004032268961 0  140.0000847927282 22.49999015196908 0  145.0000844520233 22.49994445532619 0  150.0000842857612 22.49990236636421 0  165.0000975578975 22.49978095748091 0  160.0000917400126 22.49985232070098 0  170.000098928865 22.4997012014942 0  175.0000968849471 22.49961629360737 0  180.0000926766607 22.49952884011899 0  185.0000873764211 22.49944059425034 0  190.0000817413818 22.4993525889859 0  195.0000762442482 22.49926536934053 0  200.0000711486197 22.49917918314996 0  205.0000665793055 22.49909410870378 0  210.000062575148 22.49901013281717 0  215.0000591250314 22.49892719628093 0  220.0000561910567 22.49884521941178 0  225.0000537228493 22.49876411594559 0  230.000051666049 22.49868380027688 0  235.0000499671281 22.49860419097509 0  240.0000485759476 22.49852521225687 0  245.0000474469586 22.49844679436109 0  250.0000465396131 22.4983688733531 0  255.0000458183343 22.49829139064621 0  260.0000452522463 22.49821429239597 0  265.0000448147943 22.49813752884802 0  270.0000444833112 22.4980610536805 0  275.0000442385725 22.49798482336114 0  280.0000440643424 22.49790879652545 0  285.0000439469165 22.49783293337268 0  290.0000438746475 22.4977571950551 0  295.0000438374627 22.49768154298976 0  300.0000438
[...]
<PointData  Scalars="p"> 
<DataArray  type="Float64"  Name="p"  format="ascii">1.0000000000000001e-01  1.0000000000000003e-01  1.0000389870107082e-01  1.0000000000000003e-01  1.0000000000000003e-01  1.0000453207092029e-01  1.0000000000000003e-01  1.0000684398130992e-01  1.0000000000000003e-01  1.0000801770756174e-01  1.0000000000000003e-01  1.0000968403752922e-01  1.0000000000000003e-01  1.0001242148807910e-01  1.0000000000000003e-01  1.0001364575308881e-01  1.0000000000000003e-01  1.0001552189376138e-01  1.0000000000000003e-01  1.0001860907445102e-01  1.0000000000000003e-01  1.0001906472395845e-01  1.0000000000000003e-01  1.0002672298622717e-01  1.0000000000000003e-01  1.0003094906633532e-01  1.0000000000000003e-01  1.0003546942597501e-01  1.0000000000000003e-01  1.0003911237243231e-01  1.0000000000000003e-01  1.0004648971188625e-01  1.0000000000000003e-01  1.0004947228677442e-01  1.0000000000000003e-01  1.0005489921311725e-01  1.0000000000000003e-01  1.0006322751176142e-01  1.0000000000000003e-01  1.0006569287006065e-01  1.0000000000000003e-01  1.0007398996590318e-01  1.0000000000000003e-01  1.0007904538455720e-01  1.0000000000000003e-01  1.0008810598112611e-01  1.0000000000000003e-01  1.0008597422487873e-01  1.0000000000000003e-01  1.0010864888073238e-01  1.0000000000000003e-01  1.0008788332976687e-01  1.0000000000000003e-01  1.0013415603761222e-01  1.0000000000000003e-01  1.0008158117245212e-01  1.0000000000000003e-01  1.0016940402155995e-01  1.0000000000000003e-01  1.0006434294682062e-01  1.0000000000000001e-01  1.0022914753568885e-01  1.0000000000000001e-01  1.0000000000000003e-01  9.9813970864402482e-02  9.9617559638657954e-02  1.0000000000000003e-01  9.9945781986888554e-02  1.0000000000000003e-01  9.9853039569473542e-02  1.0000000000000003e-01  9.9902883134488529e-02  1.0000000000000003e-01  9.9887902874916001e-02  1.0000000000000003e-01  9.9900755906137090e-02  1.0000000000000003e-01  9.9894659246391848e-02  1.0000000000000003e-01  9.9905519951620364e-02  1.0000000000000003e-01  9.9903879963645539e-02  1.0000000000000003e-01  9.9907539807789297e-02  1.0000000000000003e-01  9.9910710919545620e-02  1.0000000000000003e-01  9.9913037200544369e-02  1.0000000000000003e-01  9.9914579286276839e-02  1.0000000000000003e-01  9.9917789949749952e-02  1.0000000000000003e-01  9.9919300483591655e-02  1.0000000000000003e-01  9.9920949358073274e-02  1.0000000000000003e-01  9.9922994937260007e-02  1.0000000000000003e-01  9.9924494561169322e-02  1.0000000000000003e-01  9.9925482715056316e-02  1.0000000000000003e-01  9.9927423442001020e-02  1.0000000000000003e-01  9.9927833121497667e-02  1.0000000000000003e-01  9.9929932159601192e-02  1.0000000000000003e-01  9.9929129221185936e-02  1.0000000000000003e-01  9.9933318364485144e-02  1.0000000000000003e-01  9.9928277825641232e-02  1.0000000000000003e-01  9.9939026440464346e-02  1.0000000000000003e-01  9.9922998706372945e-02  1.0000000000000003e-01  9.9951373818989622e-02  1.0000000000000003e-01  9.9902865076886380e-02  1.0000000000000001e-01  1.0000000000000003e-01  1.0000641932262090e-01  1.0000000000000003e-01  1.0000636055928866e-01  1.0000681826418965e-01  1.0000770477233219e-01  1.0001001982558579e-01  1.0000984933770057e-01  1.0001028387139552e-01  1.0001363337298143e-01  1.0001208298143512e-01  1.0001342335292362e-01  1.0001648145029254e-01  1.0002438063749944e-01  1.0002209310291969e-01  1.0003063253895339e-01  1.0002688906231767e-01  1.0003018205693734e-01  1.0003689563405360e-01  1.0003498575931476e-01  1.0003719084543368e-01  1.0004724758194748e-01  1.0004094072178706e-01  1.0004977129164022e-01  1.0004898080687268e-01  1.0005922054895566e-01  1.0004009172544950e-01  1.0008604585798971e-01  1.0001097163612592e-01  1.0014174620421461e-01  9.9942202486877213e-02  1.0023250758839944e-01  1.0016161148845792e-01  9.9413975800699939e-02  9.9824110287164328e-02  9.9972101333565142e-02  9.9948291003811682e-02  9.9958420985450908e-02  9.9938224654499364e-02  9.9961940520541109e-02  9.9950236877593732e-02  9.9953189724381095e-02  9.9957902470407603e-02  9.9958129419792499e-02  9.9957542647822806e-02  9.9962435162514185e-02  9.9962529005976616e-02  9.9963077680714357e-02  9.9965919143056373e-02  9.9966471074420998e-02  9.9967015314328014e-02  9.9968778202500386e-02  9.9969649965420057e-02  9.9969642074761084e-02  9.9971851515956514e-02  9.9970880737300732e-02  9.9973951655785612e-02  9.9970466333212119e-02  9.9978722553431945e-02  9.9965157820888370e-02  9.9989874209596916e-02  9.9952634645003147e-02  1.0000000000000003e-01  1.0000947993497604e-01  1.0000000000000003e-01  1.0000641000451341e-01  1.0000954098691311e-01  1.0001192849611955e-01  1.0001238290312320e-01  1.0001286044170930e-01  1.0001774225719498e-01  1.0001658660312114e-01  1.0001685338016007e-01  1.0002242248392969e-01  1.0002360430533913e-01  1.0001992963489126e-01  1.0004283803137393e-01  1.0003499115097630e-01  1.0003977785913415e-01  1.0005017760328044e-01  1.0004541832272934e-01  1.0004971644184801e-01  1.0006284504943753e-01  1.0005778986563502e-01  1.0006100178478654e-01  1.0007943950420847e-01  1.0006408734251937e-01  1.0008455119508419e-01  1.0007236907590376e-01  1.0010416272273134e-01  1.0004652266885924e-01  1.0017062038167283e-01  9.9946478554592877e-02  1.0036483320454988e-01  1.0011672401513200e-01  9.9457643949318511e-02  9.9717700377472712e-02  9.9941304185779720e-02  9.9926073238884999e-02  9.9879555595422650e-02  9.9942921760365469e-02  9.9907247688425224e-02  9.9915035781321021e-02  9.9924502971980730e-02  9.9923299868360876e-02  9.9920562756435155e-02  9.9930597105251054e-02  9.9929337454592093e-02  9.9930012832845375e-02  9.9935639653152650e-02  9.9936304309488758e-02  9.9936674398594660e-02  9.9940602044731458e-02  9.9941145535717743e-02  9.9942045996557843e-02  9.9944094622682098e-02  9.9945662708025379e-02  9.9944970035240832e-02  9.9949086136162477e-02  9.9945766593060703e-02  9.9953130887952449e-02  9.9942847630335882e-02  9.9964294555139291e-02  9.9925035714132970e-02  1.0000000000000003e-01  1.0001136188728633e-01  1.0000000000000003e-01  1.0000727601034287e-01  1.0001263542508600e-01  1.0001208457579075e-01  1.0001262113228804e-01  1.0001769261525330e-01  1.0001634683212741e-01  1.0001633520662415e-01  1.0002259539820722e-01  1.0001999245411364e-01  1.0001971005959497e-01  1.0003311722010683e-01  1.0002111865718771e-01  1.0003967364423234e-01  1.0004568307934557e-01  1.0004188780963698e-01  1.0004200914180410e-01  1.0005784900159770e-01  1.0004721295827088e-01  1.0005379856998221e-01  1.0006631583702913e-01  1.0006112525417264e-01  1.0005738116025557e-01  1.0008798241713489e-01  1.0004762043372151e-01  1.0010552923118135e-01  1.0002502900574023e-01  1.0017120280123176e-01  9.9910800031248109e-02  1.0038735605751914e-01  1.0012066233164699e-01  9.9331024894604242e-02  9.9812441893964127e-02  9.9982259506126853e-02  9.9809333915530776e-02  1.0000138870348388e-01  9.9907894178733789e-02  9.9932365749854729e-02  9.9937384013693301e-02  9.9938128783822702e-02  9.9928721708952103e-02  9.9945143565859235e-02  9.9940292682228635e-02  9.9940411708584601e-02  9.9947789517293967e-02  9.9948052475293023e-02  9.9947897035157024e-02  9.9953186770339139e-02  9.9953644286674179e-02  9.9953869202299164e-02  9.9957463640403560e-02  9.9957622610766628e-02  9.9959044878650510e-02  9.9959749357572222e-02  9.9963076264398557e-02  9.9959169617466037e-02  9.9968637874109284e-02  9.9955605901255198e-02  9.9979052685908315e-02  9.9942984802509890e-02  1.0000000000000003e-01  1.0001329456875541e-01  1.0000000000000003e-01  1.0000927250941737e-01  1.0001300319517505e-01  1.0001215626933885e-01  1.0001825793789261e-01  1.0001672278739433e-01  1.0001746710719966e-01  1.0002426628068993e-01  1.0002130388371347e-01  1.0002074859877262e-01  1.0003241043131353e-01  1.0002590694882459e-01  1.0003114749628979e-01  1.0003452321102764e-01  1.0004833534656694e-01  1.0004357468109057e-01  1.0006270154726166e-01  1.0005006379125746e-01  1.0005407794797248e-01  1.0007380813909104e-01  1.0005822744429305e-01  1.0006854568799106e-01  1.0007944631815739e-01  1.0007973573249650e-01  1.0005919256509882e-01  1.0012304754163605e-01  1.0002026872562299e-01  1.0019329694908921e-01  9.9895594569264196e-02  1.0045045240796813e-01  1.0023286470851128e-01  9.9241964868265781e-02  9.9757800783647183e-02  9.9921131008912589e-02  9.9891708055070000e-02  9.9888928966131552e-02  9.9918445952949020e-02  9.9922864297514416e-02  9.9932011730858819e-02  9.9905859248304238e-02  9.9936326887944849e-02  9.9925058000753991e-02  9.9924740371826984e-02  9.9935227837323753e-02  9.9934660514334805e-02  9.9933078232741418e-02  9.9941497392056308e-02  9.9941463593090793e-02  9.9941636738896028e-02  9.9946471893545899e-02  9.9947354345084574e-02  9.9947249918824532e-02  9.9951274885877017e-02  9.9950706685751997e-02  9.9953575499911282e-02  9.9951936360838725e-02  9.9959213980831296e-02  9.9948361669955729e-02  9.9970763469703419e-02  9.9933599910963553e-02  1.0000000000000003e-01  1.0001558723361224e-01  1.0000000000000003e-01  1.0000935209710918e-01  1.0001356207068157e-01  1.0001628422915762e-01  1.0001682551569389e-01  1.0001691868914442e-01  1.0002390344786996e-01  1.0002192645685117e-01  1.0002088602172537e-01  1.0003082354109458e-01  1.0002664501860650e-01  1.0002773675752342e-01  1.0003902308061242e-01  1.0003623876179510e-01  1.0002430208114046e-01  1.0006825702386901e-01  1.0004712112520500e-01  1.0005384919897516e-01  1.0007175701023126e-01  1.0005762765044786e-01  1.0005876387849268e-01  1.0008840601310305e-01  1.0005901680915472e-01  1.0008223754818651e-01  1.0007416194866810e-01  1.0010823075471682e-01  1.0001632030398090e-01  1.0021404706945422e-01  9.9858494497911329e-02  1.0050168182452690e-01  1.0022481100073231e-01  9.9265349152416027e-02  9.9704537239261218e-02  1.0001696751516412e-01  9.9868054176647264e-02  9.9894491893267864e-02  9.9885646635251346e-02  9.9963626705572989e-02  9.9889040667706375e-02  9.9952135140090950e-02  9.9923219586965872e-02  9.9925208419301581e-02  9.9937971424482977e-02  9.9937128513786416e-02  9.9932272200079691e-02  9.9944390670420824e-02  9.9942956250470075e-02  9.9942476790441381e-02  9.9949728857150200e-02  9.9949944938666685e-02  9.9950003158844697e-02  9.9954238685908997e-02  9.9955540359716183e-02  9.9954566558210334e-02  9.9959892429499805e-02  9.9956455832735172e-02  9.9964262248387684e-02  9.9953948048962835e-02  9.9975544181932358e-02  9.9940739502748815e-02  1.0000000000000003e-01  1.0001684196761464e-01  1.0000000000000003e-01  1.0000951295982406e-01  1.0001739043463984e-01  1.0001535880386855e-01  1.0001682576949567e-01  1.0002279863526455e-01  1.0002213358531765e-01  1.0002109369766410e-01  1.0003097227286022e-01  1.0002657334334698e-01  1.0002682254988010e-01  1.0004032149936211e-01  1.0003442932567420e-01  1.0003052814791605e-01  1.0005448387393497e-01  1.0002828481399453e-01  1.0005903051593794e-01  1.0007252869224367e-01  1.0005878191245379e-01  1.0006064968355319e-01  1.0008516516753461e-01  1.0006734580707570e-01  1.0006483284332553e-01  1.0010773082189092e-01  1.0005429141182541e-01  1.0011501414727164e-01  1.0003617162290568e-01  1.0020507427693021e-01  9.9851045069867986e-02  1.0055281973281775e-01  1.0020801642119354e-01  9.9206764938758255e-02  9.9758863175208823e-02  9.9993332947021771e-02  9.9830734547914954e-02  9.9938916031759154e-02  9.9900264098419539e-02  9.9856298413604189e-02  9.9962402572908254e-02  9.9911500197236616e-02  9.9922138808625216e-02  9.9929824700888945e-02  9.9933010972086331e-02  9.9922397505330982e-02  9.9939750988334741e-02  9.9936303715633765e-02  9.9934804030272439e-02  9.9943717252429815e-02  9.9944329869549278e-02  9.9943506231889565e-02  9.9950032324308505e-02  9.9950083876421028e-02  9.9950991672734274e-02  9.9953566807064742e-02  9.9956431559421424e-02  9.9953368485373173e-02  9.9962147263448806e-02  9.9951578852719686e-02  9.9972683208045893e-02  9.9938460296739404e-02  1.0000000000000003e-01  1.0001793744170076e-01  1.0000000000000003e-01  1.0001153283502498e-01  1.0001705324826819e-01  1.0001514180711461e-01  1.0002190157495097e-01  1.0002063970500855e-01  1.0002074561470391e-01  1.0002978911065909e-01  1.0002624101482301e-01  1.0002562795529778e-01  1.0003900664133752e-01  1.0003338914728917e-01  1.0003196544536164e-01  1.0005070317814836e-01  1.0003528508721871e-01  1.0004250610215823e-01  1.0004776671883646e-01  1.0006563137850531e-01  1.0005627209669145e-01  1.0009010631365736e-01  1.0006040362925464e-01  1.0007121582657880e-01  1.0009246606861132e-01  1.0008110869286638e-01  1.0005657368954651e-01  1.0014295469988795e-01  1.0000913849325488e-01  1.0021536431942429e-01  9.9855338068087163e-02  1.0056835063740710e-01  1.0027734799769045e-01  9.9144170020319292e-02  9.9730394296634564e-02  9.9965898503858036e-02  9.9882677745441906e-02  9.9937900843812572e-02  9.9865078408107447e-02  9.9928557067760521e-02  9.9880929884136924e-02  9.9937531230018806e-02  9.9921370421906852e-02  9.9941805561033339e-02  9.9914448922968954e-02  9.9942444388287671e-02  9.9934725109969230e-02  9.9932552548018874e-02  9.9943531217789580e-02  9.9943351707703673e-02  9.9941048639079183e-02  9.9949827632295873e-02  9.9950280092703139e-02  9.9949586056392745e-02  9.9955520447361557e-02  9.9954944964377596e-02  9.9957334687371044e-02  9.9956843377572227e-02  9.9963984733695957e-02  9.9953596025633334e-02  9.9974997836290019e-02  9.9941777559962156e-02  1.0000000000000003e-01  1.0001959590733611e-01  1.0000000000000003e-01  1.0001122754482632e-01  1.0001700085349502e-01  1.0001900437447087e-01  1.0002045242814953e-01  1.0001938846449986e-01  1.0002789500827312e-01  1.0002569541847836e-01  1.0002484447166743e-01  1.0003614995673020e-01  1.0003284082520243e-01  1.0003126940580655e-01  1.0004842269314485e-01  1.0003828362002362e-01  1.0003779643045553e-01  1.0005571490149130e-01  1.0004753832141633e-01  1.0002862112988477e-01  1.0009570202031812e-01  1.0006130570404742e-01  1.0006688419622903e-01  1.0010237067700627e-01  1.0006316473501151e-01  1.0008352567411580e-01  1.0009182374596974e-01  1.0011125522227685e-01  1.0001200543195458e-01  1.0024786133343312e-01  9.9822966102757288e-02  1.0059454064594901e-01  1.0028085934311759e-01  9.9157810169609478e-02  9.9691527292014442e-02  1.0001671461535688e-01  9.9868119510174019e-02  9.9903230461394071e-02  9.9914319941698179e-02  9.9914793506850577e-02  9.9885524107952053e-02  9.9895291670373448e-02  9.9956272145771338e-02  9.9900388788590866e-02  9.9947807320304699e-02  9.9928940135524766e-02  9.9928569761610783e-02  9.9940400631423620e-02  9.9941159058642801e-02  9.9935840999298697e-02  9.9947200933412361e-02  9.9946424775433598e-02  9.9945891179009441e-02  9.9952586443181002e-02  9.9953873932410911e-02  9.9952485699613153e-02  9.9958906874345610e-02  9.9956041025961159e-02  9.9962637592165532e-02  9.9954410698371202e-02  9.9974132182841027e-02  9.9941846325718120e-02  1.0000000000000003e-01  1.0002024272589337e-01  1.0000000000000003e-01  1.0001104871636811e-01  1.0002026989676560e-01  1.0001785827486286e-01  1.0001958115816441e-01  1.0002549125419830e-01  1.0002484961027933e-01  1.0002378252826989e-01  1.0003408203119724e-01  1.0003091654572584e-01  1.0002963451722981e-01  1.0004595127765169e-01  1.0003868878910013e-01  1.0003622061482952e-01  1.0005624245673196e-01  1.0004473570347538e-01  1.0003647826667042e-01  1.0007444918881661e-01  1.0003043347904504e-01  1.0007512569517744e-01  1.0009545886201192e-01  1.0007364455461139e-01  1.0006543742685869e-01  1.0012292182912258e-01  1.0005292082348777e-01  1.0011412053398216e-01  1.0004982738739014e-01  1.0021434684429663e-01  9.9821306365399445e-02  1.0063796648391360e-01  1.0026555575101816e-01  9.9133634497734102e-02  9.9725067219808464e-02  1.0001211548036547e-01  9.9835398024801902e-02  9.9948236238327909e-02  9.9905569087122101e-02  9.9896989725716479e-02  9.9914918776553688e-02  9.9920279161962722e-02  9.9870824577346903e-02  9.9964313202765914e-02  9.9921119935004882e-02  9.9932624344995905e-02  9.9936596329324764e-02  9.9942386920093884e-02  9.9932214670243200e-02  9.9947296986199058e-02  9.9945444967648872e-02  9.9943057322784190e-02  9.9951510707389973e-02  9.9952220982901185e-02  9.9952082017108673e-02  9.9956718414624557e-02  9.9959316453632638e-02  9.9956199002645740e-02  9.9965199965172280e-02  9.9955698732317855e-02  9.9974811902893118e-02  9.9944282388561304e-02  1.0000000000000003e-01  1.0002074871736936e-01  1.0000000000000003e-01  1.0001257301783645e-01  1.0001959261115397e-01  1.0001699001102388e-01  1.0002410251730343e-01  1.0002295574046779e-01  1.0002303640271849e-01  1.0003143627150206e-01  1.0002924772957826e-01  1.0002750560185854e-01  1.0004206799764315e-01  1.0003697770951263e-01  1.0003526504499287e-01  1.0005396369542288e-01  1.0004336597315779e-01  1.0003906056176473e-01  1.0006693889131388e-01  1.0004228520453863e-01  1.0004979051264618e-01  1.0006251179867479e-01  1.0007746828345740e-01  1.0006951989788307e-01  1.0011106447617187e-01  1.0007875245003357e-01  1.0005823243167622e-01  1.0015757441043557e-01  1.0000812760325205e-01  1.0021351192575614e-01  9.9862692050559185e-02  1.0060624670908085e-01  1.0030741454942478e-01  9.9091330224782559e-02  9.9718279292913256e-02  9.9986596968961325e-02  9.9870861488272997e-02  9.9942851695775478e-02  9.9878279677802759e-02  9.9929568541709174e-02  9.9918991728246004e-02  9.9894041933055316e-02  9.9925086789121639e-02  9.9897646093710185e-02  9.9944016038263389e-02  9.9928757516543135e-02  9.9948295505614765e-02  9.9925486892197143e-02  9.9948054164387193e-02  9.9943331800821655e-02  9.9940752338635488e-02  9.9950053346202147e-02  9.9950560049446496e-02  9.9947890423502300e-02  9.9956411294449446e-02  9.9955977966832268e-02  9.9957623704316031e-02  9.9958778594428685e-02  9.9965138348638294e-02  9.9955713940222471e-02  9.9975548271249409e-02  9.9945395432901277e-02  1.0000000000000003e-01  1.0002190138296524e-01  1.0000000000000003e-01  1.0001219360977655e-01  1.0001912902638517e-01  1.0002026807419608e-01  1.0002253317171308e-01  1.0002126790886917e-01  1.0002936149130190e-01  1.0002786531542619e-01  1.0002625086996521e-01  1.0003767850918605e-01  1.0003505859712641e-01  1.0003312348971942e-01  1.0005002801058122e-01  1.0004320354522288e-01  1.0003829663051633e-01  1.0006276243014424e-01  1.0004629266217704e-01  1.0004386974939740e-01  1.0007027177874692e-01  1.0005640254685488e-01  1.0002623154729877e-01  1.0012628817159443e-01  1.0006223664686729e-01  1.0008620334451374e-01  1.0010798829205837e-01  1.0010470903652222e-01  1.0001122399455888e-01  1.0026193153239320e-01  9.9820455919465423e-02  1.0060142198972848e-01  1.0032162965207907e-01  9.9108366550383117e-02  9.9687616508837895e-02  1.0002006150967446e-01  9.9869456036436474e-02  9.9916530914451185e-02  9.9910058938929097e-02  9.9929701340013749e-02  9.9893537082017286e-02  9.9930573116168445e-02  9.9920228962638066e-02  9.9907210294792742e-02  9.9905800158148886e-02  9.9963770426618803e-02  9.9916092927505820e-02  9.9954417712682916e-02  9.9940448904617674e-02  9.9939984747814195e-02  9.9949270412043240e-02  9.9950804008649516e-02  9.9946199250889073e-02  9.9954900115097708e-02  9.9955480547739589e-02  9.9954003128276805e-02  9.9961543402838388e-02  9.9959378548408487e-02  9.9964757096820372e-02  9.9958489662482858e-02  9.9976084813743482e-02  9.9947207046325648e-02  1.0000000000000003e-01  1.0002212629648134e-01  1.0000000000000003e-01  1.0001173931654581e-01  1.0002161311724191e-01  1.0001896952027363e-01  1.0002121913297329e-01  1.0002623432967957e-01  1.0002646739084442e-01  1.0002517237833601e-01  1.0003469323700989e-01  1.0003223350632151e-01  1.0003084716137789e-01  1.0004562036660462e-01  1.0004121500733247e-01  1.0003680280519960e-01  1.0005828600768141e-01  1.0004752014622662e-01  1.0004098556003863e-01  1.0007027731367692e-01  1.0005168302070275e-01  1.0003909760413088e-01  1.0009211687336678e-01  1.0003144554012240e-01  1.0007941797432919e-01  1