<?xml version="1.0"?>
<VTKFile type="UnstructuredGrid"  version="0.1"  >
<UnstructuredGrid>
<Piece  NumberOfPoints="1933" NumberOfCells="3640">
<Points>
<DataArray  type="Float64"  NumberOfComponents="3"  format="ascii">-0.475259927376004 -0.002399395591389326 0  4.524740111888105 -0.002332454836150796 0  4.524639671780762 7.497667628183502 0  -0.4753603745589083 7.497600677832179 0  9.524740183648888 -0.00226557005183004 0  9.524639743967422 7.497734510110498 0  14.52474031777059 -0.002198716695758524 0  14.52463984944341 7.497801357967476 0  19.52474053453562 -0.002131854712451478 0  19.52463999237518 7.497868214708983 0  24.52474084519591 -0.002064937473219208 0  24.524640173563 7.497935127627418 0  29.52474125368535 -0.001997915394556398 0  29.52464039012861 7.498002146254532 0  34.52474175813892 -0.001930737110601747 0  34.52464063527457 7.498069321702348 0  39.52474235190459 -0.001863349453194694 0  39.52464089804879 7.498136706850553 0  44.5247430240401 -0.001795696815385335 0  44.52464116301176 7.49820435702635 0  49.52474375935591 -0.001727720158968596 0  49.52464140972387 7.498272330994461 0  54.52474453805311 -0.001659355767543445 0  54.52464161198566 7.498340692182909 0  59.52474533497222 -0.001590533758691547 0  59.52464173676577 7.498409510137741 0  64.52474611842689 -0.001521176312363636 0  64.524641742735 7.498478862246857 0  69.52474684854279 -0.001451195526321294 0  69.52464157829957 7.498548835811825 0  74.52474747496098 -0.001380490760325135 0  74.52464117898326 7.498619530585279 0  79.52474793366554 -0.001308945267804424 0  79.52464046394647 7.498691061937202 0  84.52474814255717 -0.001236421825482704 0  84.52463933135211 7.498763564868078 0  89.52474799514847 -0.001162756943553022 0  89.52463765217921 7.498837199151547 0  94.52474735137035 -0.001087753053151096 0  94.52463526196054 7.498912155952898 0  99.52474602377706 -0.00101116780298887 0  99.52463194979715 7.498988666299349 0  104.5247437562296 -0.0009326992383032718 0  104.5246274439536 7.49906701168685 0  109.5247401899428 -0.0008519652040876949 0  109.5246213935517 7.49914753668115 0  114.5247348078116 -0.000768474956737321 0  114.524613346817 7.499230662124149 0  119.5247268406446 -0.0006815911961245103 0  119.5246027289944 7.499316894404154 0  124.5247151055175 -0.000590483081858707 0  124.5245888296963 7.499406818865469 0  129.5246977217144 -0.000494079673259792 0  129.5245708247844 7.499501048987408 0  134.5246716041483 -0.0003910613630771918 0  134.5245478916948 7.499600068102157 0  139.5246315499753 -0.0002800135308758462 0  139.5245195492803 7.499703832149515 0  144.5245685746771 -0.0001601476650980297 0  144.5244865051221 7.499810893829436 0  149.5244668183451 -3.401357791655247e-05 0  149.5244526229971 7.499916782740692 0  159.5244717418523 1.167725976835669e-18 0  164.5244791287379 -3.217075361385272e-05 0  164.5244743554036 7.49995698749774 0  159.52446506561 7.499974839675651 0  169.5244992578051 -3.76107345429482e-05 0  169.5244833456502 7.499957284926971 0  174.5245231021202 -2.475190625402094e-05 0  174.524493431928 7.499972767727317 0  179.5245467878205 1.109668083557584e-06 0  179.5245043302401 7.499999913164832 0  184.524568738978 3.638264404752045e-05 0  184.5245154732781 7.500035834586491 0  189.5245884249506 7.856642405962614e-05 0  189.5245263831808 7.500078350439573 0  194.5246057833129 0.0001258932970312178 0  194.524536738195 7.50012584776625 0  199.5246209495812 0.0001770956454487418 0  199.5245463522894 7.50017713670865 0  204.5246341310766 0.0002312505572822603 0  204.5245551377731 7.500231334233634 0  209.524645549378 0.0002876754680126308 0  209.5245630719315 7.50028777853338 0  214.5246554154379 0.0003458576708750695 0  214.5245701721412 7.50034596784804 0  219.5246639201084 0.0004054062574197643 0  219.5245764788015 7.500405517118983 0  224.52467123178 0.0004660189299934056 0  224.5245820441828 7.500466127218047 0  229.5246774971617 0.0005274587359626871 0  229.5245869254254 7.500527562936301 0  234.5246828433204 0.000589537491889132 0  234.5245911803132 7.500589637067802 0  239.5246873801073 0.0006521037824415724 0  239.5245948648635 7.500652198760881 0  244.5246912025979 0.0007150341406906309 0  244.5245980320806 7.50071512489068 0  249.5246943933887 0.0007782264846845245 0  249.5246007314505 7.50077831360344 0  254.5246970247248 0.0008415951926634435 0  254.5246030089072 7.500841679454281 0  259.524699160459 0.0009050674060659282 0  259.5246049070823 7.500905149747456 0  264.5247008578945 0.0009685802947238686 0  264.5246064657333 7.50096866182244 0  269.5247021695327 0.001032079128570282 0  269.5246077222714 7.501032161130878 0  274.5247031447861 0.001095516093920347 0  274.5246087123143 7.501095600034345 0  279.5247038316559 0.001158849885867848 0  279.5246094702249 7.501158937331661 0  284.5247042783723 0.001222046216999402 0  284.5246100295618 7.501222138606442 0  289.5247045348607 0.001285079522886618 0  289.5246104233769 7.501285177575067 0  294.5247046537544 0.001347936329877688 0  294.5246106843109 7.501348038709227 0  299.5247046902481 0.001410620966919271 0  299.5246108444916 7.501410721491467 0  304.5247046993143 0.001473164399063166 0  304.5246109355163 7.501473246715554 0  309.5247047271457 0.001535636139208445 0  309.524610989468 7.501535665393365 0  4.524539130353285 14.99766779388839 0  -0.475460912704968 14.997600854361 0  9.524539179968233 14.99773464635464 0  14.52453923739742 14.99780146347472 0  19.52453929972794 14.99786829321454 0  24.52453936154041 14.99793518327511 0  29.52453941505783 14.99800218206667 0  34.52453944978033 14.99806933919415 0  39.52453945195576 14.99813670601021 0  44.52453940397395 14.99820433635109 0  49.52453928367776 14.99827228745821 0  54.52453906355276 14.99834062107662 0  59.52453870974867 14.99840940473622 0  64.52453818088638 14.99847871324058 0  69.52453742660333 14.9985486304039 0  74.5245363858006 14.99861925108894 0  79.52453498456775 14.99869068360055 0  84.5245331338093 14.99876305247349 0  89.52453072668214 14.99883650163897 0  94.52452763613927 14.99891119781916 0  99.5245237132152 14.99898733370325 0  104.524518787331 14.99906512984671 0  109.5245126710023 14.9991448330197 0  114.5245051732317 14.9992267063914 0  119.5244961288591 14.9993110025742 0  124.5244854554964 14.99939790271759 0  129.5244732549094 14.99948739149219 0  134.5244599790137 14.99957901691506 0  139.5244466727803 14.99967145612833 0  144.5244352616001 14.99976178265616 0  149.5244287020892 14.99984432162329 0  164.5244493816733 14.99992722396042 0  159.5244438328871 14.99991898782973 0  169.5244524718784 14.99994204290112 0  174.5244551531037 14.99996523519192 0  179.5244582675046 14.99999641241086 0  184.5244619883948 15.00003442172284 0  189.5244662054841 15.00007800236964 0  194.5244707237253 15.00012602632394 0  199.5244753511982 15.00017755929695 0  204.5244799309353 15.0002318533898 0  209.5244843471156 15.00028831851415 0  214.5244885209433 15.00034649108811 0  219.5244924033915 15.00040600639804 0  224.5244959678938 15.00046657613061 0  229.5244992041125 15.00052797077766 0  234.5245021130419 15.00059000608701 0  239.5245047033318 15.00065253269347 0  244.5245069886216 15.00071542818954 0  249.5245089856589 15.00077859105402 0  254.5245107130039 15.00084193600009 0  259.5245121901621 15.00090539042501 0  264.5245134370172 15.0009688917369 0  269.5245144734731 15.00103238541108 0  274.5245153192297 15.00109582368825 0  279.5245159936422 15.00115916487648 0  284.5245165156585 15.0012223732558 0  289.524516903836 15.00128541960063 0  294.5245171765811 15.00134828231186 0  299.5245173528448 15.00141094905096 0  304.5245174538092 15.00147341852498 0  309.5245175064995 15.00153570158395 0  4.524438622220307 22.49766806567588 0  -0.4755614162242828 22.49760120148985 0  9.524438652782479 22.49773484546172 0  14.52443867061249 22.49780159646436 0  19.52443866926408 22.49786836771218 0  24.52443864076608 22.49793520560587 0  29.52443857557327 22.49800215607408 0  34.52443846227389 22.49806926578769 0  39.52443828715674 22.49813658300797 0  44.52443803371501 22.49820415834552 0  49.52443768212576 22.49827204554709 0  54.52443720871378 22.49834030235325 0  59.52443658540803 22.49840899144045 0  64.52443577920639 22.49847818144666 0  69.52443475168556 22.49854794806564 0  74.52443345863776 22.49861837517139 0  79.52443184997156 22.49868955588952 0  84.52442987012255 22.49876159344693 0  89.52442745937016 22.49883460148196 0  94.52442455669669 22.4989087032333 0  99.52442110517046 22.49898402857276 0  104.5244170613222 22.49906070709273 0  109.5244124106027 22.49913885422356 0  114.5244071916856 22.49921854542788 0  119.5244015327979 22.49929977068116 0  124.5243957027211 22.49938235772806 0  129.5243901760103 22.49946584889435 0  134.5243857033781 22.49954931591039 0  139.5243833594098 22.49963110990763 0  144.5243845056515 22.49970859412412 0  149.524390560271 22.49977805713222 0  164.5244057970971 22.4998925842244 0  159.5244035595609 22.49986566911669 0  169.5244058936734 22.49992093586398 0  174.5244049944828 22.49995305210015 0  179.5244039532135 22.49998980285702 0  184.5244032409965 22.50003117590177 0  189.5244030420643 22.50007673229038 0  194.5244033699473 22.50012588327619 0  199.5244041535811 22.5001780329464 0  204.5244052902997 22.50023264085916 0  209.5244066746463 22.50028924256076 0  214.5244082120458 22.50034745005369 0  219.524409823872 22.50040694393073 0  224.5244114480319 22.5004674629648 0  229.5244130374667 22.50052879379476 0  234.5244145578829 22.50059076175541 0  239.5244159853837 22.50065322314273 0  244.5244173043043 22.50071605887264 0  249.5244185053592 22.50077916936692 0  254.5244195841229 22.50084247047405 0  259.5244205397991 22.50090589024744 0  264.5244213742507 22.50096936643178 0  269.5244220912288 22.50103284454071 0  274.5244226957845 22.50109627643242 0  279.5244231938336 22.50115961930549 0  284.5244235919033 22.5012228350322 0  289.5244238971169 22.50128588971087 0  294.5244241175531 22.50134875323202 0  299.5244242631715 22.5
[...]
<PointData  Scalars="p"> 
<DataArray  type="Float64"  Name="p"  format="ascii">1.0000000000000001e-01  1.0000000000000003e-01  9.9997878426078088e-02  1.0000000000000003e-01  1.0000000000000003e-01  9.9998660724588351e-02  1.0000000000000003e-01  9.9997973118581246e-02  1.0000000000000003e-01  9.9998123577964837e-02  1.0000000000000003e-01  9.9997720718856972e-02  1.0000000000000003e-01  9.9996246952151951e-02  1.0000000000000003e-01  9.9996177182331072e-02  1.0000000000000003e-01  9.9995172651571609e-02  1.0000000000000003e-01  9.9993436901407620e-02  1.0000000000000003e-01  9.9994712920566040e-02  1.0000000000000003e-01  9.9987492326732083e-02  1.0000000000000003e-01  9.9986126183786148e-02  1.0000000000000003e-01  9.9982875256633824e-02  1.0000000000000003e-01  9.9980954071911488e-02  1.0000000000000003e-01  9.9974821521623153e-02  1.0000000000000003e-01  9.9972877666605509e-02  1.0000000000000003e-01  9.9967604422576559e-02  1.0000000000000003e-01  9.9959819300666261e-02  1.0000000000000003e-01  9.9956850980911005e-02  1.0000000000000003e-01  9.9947551874231808e-02  1.0000000000000003e-01  9.9941399031213338e-02  1.0000000000000003e-01  9.9930557582388405e-02  1.0000000000000003e-01  9.9929926735154717e-02  1.0000000000000003e-01  9.9905157322757579e-02  1.0000000000000003e-01  9.9922490239105502e-02  1.0000000000000003e-01  9.9873183665572018e-02  1.0000000000000003e-01  9.9922606755704912e-02  1.0000000000000003e-01  9.9831541458776860e-02  1.0000000000000003e-01  9.9934490195742187e-02  1.0000000000000001e-01  9.9765826584579470e-02  1.0000000000000001e-01  1.0000000000000003e-01  1.0013662493215574e-01  1.0034093823460642e-01  1.0000000000000003e-01  1.0001539242551527e-01  1.0000000000000003e-01  1.0010366447884925e-01  1.0000000000000003e-01  1.0005103664006412e-01  1.0000000000000003e-01  1.0006413963041962e-01  1.0000000000000003e-01  1.0004990494005007e-01  1.0000000000000003e-01  1.0005332569748110e-01  1.0000000000000003e-01  1.0004116900603735e-01  1.0000000000000003e-01  1.0004157773129262e-01  1.0000000000000003e-01  1.0003663915787907e-01  1.0000000000000003e-01  1.0003266843501951e-01  1.0000000000000003e-01  1.0002986536062100e-01  1.0000000000000003e-01  1.0002780247862617e-01  1.0000000000000003e-01  1.0002440950107551e-01  1.0000000000000003e-01  1.0002286323295069e-01  1.0000000000000003e-01  1.0002122235962206e-01  1.0000000000000003e-01  1.0001924847531452e-01  1.0000000000000003e-01  1.0001808285913347e-01  1.0000000000000003e-01  1.0001712434805396e-01  1.0000000000000003e-01  1.0001580404341619e-01  1.0000000000000003e-01  1.0001519013257475e-01  1.0000000000000003e-01  1.0001434474405448e-01  1.0000000000000003e-01  1.0001393003345671e-01  1.0000000000000003e-01  1.0001287389593126e-01  1.0000000000000003e-01  1.0001343693772659e-01  1.0000000000000003e-01  1.0001128353312821e-01  1.0000000000000003e-01  1.0001379218796935e-01  1.0000000000000003e-01  1.0000872086732504e-01  1.0000000000000003e-01  1.0001679779912849e-01  1.0000000000000001e-01  1.0000000000000003e-01  9.9995283203790281e-02  1.0000000000000003e-01  9.9996016318507824e-02  9.9995839692080882e-02  9.9995285108956222e-02  9.9993353850552136e-02  9.9993654963430198e-02  9.9993063761810330e-02  9.9990034956961821e-02  9.9991822330110336e-02  9.9990318675512779e-02  9.9989292893402262e-02  9.9980413783043301e-02  9.9985117547883459e-02  9.9976984481935025e-02  9.9981295947752832e-02  9.9976890273623303e-02  9.9970624212179518e-02  9.9971537082244114e-02  9.9967714383251638e-02  9.9957332375074745e-02  9.9961822617659180e-02  9.9950835812018829e-02  9.9950310085908226e-02  9.9938448037370051e-02  9.9954308620768942e-02  9.9908796097979646e-02  9.9980642440433060e-02  9.9851497327348895e-02  1.0004900155425948e-01  9.9763631547785850e-02  9.9835454241852403e-02  1.0048256564090262e-01  1.0017453205624978e-01  1.0001804530319691e-01  1.0004620242386270e-01  1.0003683562045357e-01  1.0005219038404858e-01  1.0002780660091902e-01  1.0003834009565775e-01  1.0003292196966818e-01  1.0002712556402321e-01  1.0002629354101619e-01  1.0002562943127634e-01  1.0002022005769456e-01  1.0001992740657559e-01  1.0001883472041800e-01  1.0001581076292325e-01  1.0001512878664373e-01  1.0001439093532048e-01  1.0001236176248321e-01  1.0001166576682452e-01  1.0001105766529474e-01  1.0000951086173999e-01  1.0000911912650719e-01  1.0000800339276458e-01  1.0000777790393589e-01  1.0000580495281389e-01  1.0000757386192899e-01  1.0000274618219193e-01  1.0000858273066342e-01  1.0000000000000003e-01  9.9992443881537454e-02  1.0000000000000003e-01  9.9995540681631787e-02  9.9993608347825336e-02  9.9991774199389941e-02  9.9991890558696173e-02  9.9991224452033595e-02  9.9986948416157378e-02  9.9988131995986829e-02  9.9987344578046755e-02  9.9983034932811049e-02  9.9981574546356325e-02  9.9987547516057401e-02  9.9963886281856942e-02  9.9975396683320228e-02  9.9969546071333182e-02  9.9961037761656615e-02  9.9964725370478610e-02  9.9958668975230466e-02  9.9945601756655372e-02  9.9948837367112076e-02  9.9942213156366866e-02  9.9923319412188488e-02  9.9935093125523844e-02  9.9911415018567165e-02  9.9921044600638165e-02  9.9888207285837194e-02  9.9939664118075297e-02  9.9820906577190865e-02  1.0003674294069219e-01  9.9632233908157605e-02  9.9924380856742698e-02  1.0038644752147077e-01  1.0022887793730681e-01  1.0004023797757479e-01  1.0006170009038549e-01  1.0009684187355650e-01  1.0003565472958084e-01  1.0006997090965647e-01  1.0005717378185718e-01  1.0004600280431150e-01  1.0004616750541794e-01  1.0004611519164783e-01  1.0003509135188036e-01  1.0003581458711887e-01  1.0003389356814654e-01  1.0002783008794917e-01  1.0002708040360478e-01  1.0002610306544119e-01  1.0002203995065000e-01  1.0002130329476269e-01  1.0002027458086779e-01  1.0001771606724548e-01  1.0001668706510272e-01  1.0001596472462286e-01  1.0001373793354978e-01  1.0001352563667758e-01  1.0001140157606440e-01  1.0001214069982885e-01  1.0000765690223536e-01  1.0001360179711132e-01  1.0000000000000003e-01  9.9990584897257026e-02  1.0000000000000003e-01  9.9994267079332233e-02  9.9989784006313392e-02  9.9990685356355968e-02  9.9989811542242096e-02  9.9985121961468845e-02  9.9986221160589028e-02  9.9985120277384487e-02  9.9979284813013394e-02  9.9981499261208889e-02  9.9981156229835666e-02  9.9968230581716055e-02  9.9983606693556604e-02  9.9960853589069157e-02  9.9960316753005748e-02  9.9962966813146883e-02  9.9961633470509514e-02  9.9945859803029155e-02  9.9954649593755732e-02  9.9944578335886505e-02  9.9931500219163513e-02  9.9933889959577679e-02  9.9932579943198138e-02  9.9902082217326674e-02  9.9936955742789810e-02  9.9878475578051448e-02  9.9953426314933883e-02  9.9815134821525459e-02  1.0006103794860532e-01  9.9613270879083116e-02  9.9943093631705809e-02  1.0049438335893859e-01  1.0013819829414382e-01  1.0002492767407227e-01  1.0017843279313969e-01  9.9994953914475895e-02  1.0009022289568348e-01  1.0005916238449988e-01  1.0005237270770355e-01  1.0005066264292654e-01  1.0005574697912624e-01  1.0003778614570011e-01  1.0004174774764510e-01  1.0003957354006882e-01  1.0003132889460399e-01  1.0003073767287651e-01  1.0002995456571373e-01  1.0002422319161612e-01  1.0002370344194898e-01  1.0002272079744701e-01  1.0001904188997025e-01  1.0001820515070388e-01  1.0001698419062953e-01  1.0001471591109440e-01  1.0001316518219189e-01  1.0001278011355721e-01  1.0000959935614992e-01  1.0001084414731140e-01  1.0000571111426587e-01  1.0001084308737729e-01  1.0000000000000003e-01  9.9988686696807119e-02  1.0000000000000003e-01  9.9991928975225380e-02  9.9989015608368537e-02  9.9989438345969461e-02  9.9984262021715897e-02  9.9985496425021692e-02  9.9983982287376955e-02  9.9977302532494886e-02  9.9979695826493464e-02  9.9979013977885070e-02  9.9967655904794422e-02  9.9974713693669601e-02  9.9967286012510440e-02  9.9969409837143988e-02  9.9951112738196984e-02  9.9959081319570528e-02  9.9940617967066589e-02  9.9952743505085692e-02  9.9944665101211708e-02  9.9925523434679198e-02  9.9937477655213228e-02  9.9922834538275454e-02  9.9910270333112935e-02  9.9907407733302714e-02  9.9919911580402102e-02  9.9860125369055516e-02  9.9951764490763498e-02  9.9790252909560936e-02  1.0006739450054830e-01  9.9555854808339408e-02  9.9851045292928431e-02  1.0054857341516533e-01  1.0019599414147837e-01  1.0008517658512879e-01  1.0007985636512923e-01  1.0011086699400408e-01  1.0007197809259023e-01  1.0006612498440889e-01  1.0005880118936578e-01  1.0007803400295344e-01  1.0004555097448643e-01  1.0005574330440466e-01  1.0005259738717756e-01  1.0004060267965857e-01  1.0004073677291454e-01  1.0004054366656553e-01  1.0003143860077640e-01  1.0003130171395444e-01  1.0003032715363741e-01  1.0002496914740512e-01  1.0002406019616457e-01  1.0002313998143443e-01  1.0001930653086208e-01  1.0001839343094240e-01  1.0001670961592067e-01  1.0001481614477727e-01  1.0001233073417737e-01  1.0001299927892447e-01  1.0000751199051446e-01  1.0001280133811281e-01  1.0000000000000003e-01  9.9986463019624036e-02  1.0000000000000003e-01  9.9991593624909642e-02  9.9987653819930397e-02  9.9984971155763200e-02  9.9984532973918613e-02  9.9983780170072103e-02  9.9977012069614804e-02  9.9978496052157820e-02  9.9977807043137190e-02  9.9968168150902134e-02  9.9971760347097177e-02  9.9968502360111969e-02  9.9959325283652534e-02  9.9960338010340669e-02  9.9974891677237443e-02  9.9927501076776989e-02  9.9953503659560239e-02  9.9942799594911189e-02  9.9927180115936903e-02  9.9938004733235081e-02  9.9931674555923153e-02  9.9902476499630383e-02  9.9926540128938382e-02  9.9899031539836924e-02  9.9903194460698688e-02  9.9871175874434934e-02  9.9947119568403978e-02  9.9771059027458572e-02  1.0009247208670030e-01  9.9511878951365401e-02  9.9885408552620764e-02  1.0050783685663948e-01  1.0024441466340592e-01  1.0000216504546981e-01  1.0012177199051291e-01  1.0009897991762810e-01  1.0010671474264073e-01  1.0003911018170358e-01  1.0010474949054157e-01  1.0004039043871919e-01  1.0006870802269699e-01  1.0006159963759879e-01  1.0004673737737639e-01  1.0004694024593735e-01  1.0004895145248285e-01  1.0003579280377811e-01  1.0003692452421717e-01  1.0003593453996204e-01  1.0002823737248911e-01  1.0002774182430760e-01  1.0002704621540369e-01  1.0002192936382419e-01  1.0002088481175214e-01  1.0001992817965252e-01  1.0001599921901128e-01  1.0001540203907668e-01  1.0001263489416620e-01  1.0001240975223195e-01  1.0000721743157391e-01  1.0001196142955543e-01  1.0000000000000003e-01  9.9985263972188460e-02  1.0000000000000003e-01  9.9990958468116023e-02  9.9983775479045328e-02  9.9985291582357999e-02  9.9983345475397070e-02  9.9977481371781349e-02  9.9978232562441441e-02  9.9977535760290073e-02  9.9968041598955643e-02  9.9971780941778360e-02  9.9969036695997646e-02  9.9956631688144643e-02  9.9961489972169651e-02  9.9963812234770355e-02  9.9939766921504192e-02  9.9970645095320956e-02  9.9930651729671485e-02  9.9925911048719548e-02  9.9936803764602886e-02  9.9931715096372428e-02  9.9907065166468856e-02  9.9921690432740934e-02  9.9916346400257261e-02  9.9875643228164099e-02  9.9919865971449182e-02  9.9860583877493928e-02  9.9925900472353266e-02  9.9780570000093396e-02  1.0008690336269807e-01  9.9475488636475748e-02  9.9908919800539564e-02  1.0055676507480495e-01  1.0018785302039791e-01  1.0004087773108311e-01  1.0015511946873952e-01  1.0005962368873222e-01  1.0008926253667559e-01  1.0013917609087308e-01  1.0003194177672135e-01  1.0008424583633857e-01  1.0006868753228845e-01  1.0005785258828348e-01  1.0005407950267245e-01  1.0006072850022160e-01  1.0004163927946270e-01  1.0004448471655887e-01  1.0004403518564724e-01  1.0003410279397221e-01  1.0003330012863872e-01  1.0003294970282622e-01  1.0002606640494646e-01  1.0002539962695668e-01  1.0002418446672666e-01  1.0001997551339076e-01  1.0001823445933079e-01  1.0001739603364258e-01  1.0001317533030039e-01  1.0001363454693085e-01  1.0000824272932546e-01  1.0001261502653779e-01  1.0000000000000003e-01  9.9984080055735780e-02  1.0000000000000003e-01  9.9988914170991192e-02  9.9983887946084385e-02  9.9984626056718276e-02  9.9978106831613636e-02  9.9979008766344801e-02  9.9977627914831710e-02  9.9969034244880808e-02  9.9971962870565742e-02  9.9970585991063690e-02  9.9957589152598739e-02  9.9962315701275006e-02  9.9961281491508056e-02  9.9943118976415099e-02  9.9958556625738798e-02  9.9945991084982408e-02  9.9949030040659220e-02  9.9922525799761019e-02  9.9935319716312435e-02  9.9902758709689066e-02  9.9930350734314569e-02  9.9913098142092344e-02  9.9891654837960850e-02  9.9900050717381075e-02  9.9912626038258137e-02  9.9835721362837221e-02  9.9948469233312118e-02  9.9769307731852025e-02  1.0007574772772003e-01  9.9473140517393921e-02  9.9850338684387974e-02  1.0060592750220627e-01  1.0022255401519936e-01  1.0007113068027045e-01  1.0010871758953149e-01  1.0007389019161340e-01  1.0012821001244936e-01  1.0006143791496917e-01  1.0011701210594799e-01  1.0005984101575449e-01  1.0007212595463089e-01  1.0005305523068239e-01  1.0007527627265372e-01  1.0004478892753889e-01  1.0005187121219293e-01  1.0005108593554671e-01  1.0003858069265818e-01  1.0003850201686838e-01  1.0003918141352468e-01  1.0002944492552049e-01  1.0002903330123727e-01  1.0002839386034397e-01  1.0002241836703571e-01  1.0002147181954328e-01  1.0001987936607430e-01  1.0001654826908167e-01  1.0001381301621054e-01  1.0001415592139366e-01  1.0000793200097641e-01  1.0001241048884824e-01  1.0000000000000003e-01  9.9982493063204461e-02  1.0000000000000003e-01  9.9989123269779628e-02  9.9983385251382340e-02  9.9980779405777709e-02  9.9979247348343528e-02  9.9978843242782126e-02  9.9970642276753896e-02  9.9972294635288492e-02  9.9971534557472194e-02  9.9960684102565783e-02  9.9963369945777134e-02  9.9962264405817292e-02  9.9945849238610121e-02  9.9955189217884682e-02  9.9951248858439284e-02  9.9936138989595941e-02  9.9940579848640923e-02  9.9962237963532041e-02  9.9889552264337905e-02  9.9930367693172872e-02  9.9917774941817430e-02  9.9886654895724500e-02  9.9919186253173392e-02  9.9893745445955848e-02  9.9881533862956506e-02  9.9866475545680428e-02  9.9939908225158830e-02  9.9743560524412606e-02  1.0009918240569278e-01  9.9458083620064072e-02  9.9858024358168943e-02  1.0058548643236032e-01  1.0025762971477888e-01  1.0002467244747305e-01  1.0013042631324622e-01  1.0011022573316894e-01  1.0008148741711392e-01  1.0008540993148418e-01  1.0010233728301375e-01  1.0009818288424630e-01  1.0004185267912459e-01  1.0009300385787763e-01  1.0004364784903579e-01  1.0006188461718704e-01  1.0005843749750701e-01  1.0004443577939139e-01  1.0004325950748444e-01  1.0004612548979359e-01  1.0003375468907526e-01  1.0003408192291814e-01  1.0003339177562713e-01  1.0002572770013714e-01  1.0002465717164992e-01  1.0002411688934471e-01  1.0001853559081764e-01  1.0001784836009896e-01  1.0001514205818073e-01  1.0001378841514771e-01  1.0000852945553804e-01  1.0001277775048861e-01  1.0000000000000003e-01  9.9981851086971149e-02  1.0000000000000003e-01  9.9988999177055796e-02  9.9980281218064987e-02  9.9981803505623315e-02  9.9979181719261706e-02  9.9973016571713078e-02  9.9973281392003302e-02  9.9972546664888556e-02  9.9962562945348485e-02  9.9965634257062064e-02  9.9964342058689939e-02  9.9949018466863812e-02  9.9955567447421637e-02  9.9954068619387673e-02  9.9935460625102404e-02  9.9944705428296407e-02  9.9949585087713344e-02  9.9911280361332552e-02  9.9961258457327548e-02  9.9902023478012025e-02  9.9893955293427830e-02  9.9911867048629047e-02  9.9913332509302941e-02  9.9859566005345360e-02  9.9919455608550575e-02  9.9859567404693567e-02  9.9906951109422895e-02  9.9777933731267976e-02  1.0009163997263339e-01  9.9431433298502625e-02  9.9877187666110298e-02  1.0061149832855941e-01  1.0022441977238737e-01  1.0003714512207283e-01  1.0016323059972812e-01  1.0006846512806890e-01  1.0009971735935914e-01  1.0010525591530411e-01  1.0007811210326720e-01  1.0007082376793741e-01  1.0012292173017374e-01  1.0003092111099811e-01  1.0007414553612638e-01  1.0005983728658430e-01  1.0005289449935796e-01  1.0004655743958030e-01  1.0005374745837013e-01  1.0003689303539048e-01  1.0003827640636018e-01  1.0003889546621092e-01  1.0002949519912351e-01  1.0002808188126866e-01  1.0002768626235095e-01  1.0002137815143991e-01  1.0001983116366059e-01  1.0001914635486921e-01  1.0001398731609447e-01  1.0001422525648318e-01  1.0000890032421317e-01  1.0001246281134693e-01  1.0000000000000003e-01  9.9981305864133008e-02  1.0000000000000003e-01  9.9987608497461217e-02  9.9981028994228630e-02  9.9982118501889067e-02  9.9975017993134782e-02  9.9975492355260862e-02  9.9973931678187272e-02  9.9965429740023523e-02  9.9967273577105289e-02  9.9966892560676118e-02  9.9953220608862040e-02  9.9957967869055642e-02  9.9956721731453840e-02  9.9938975788082723e-02  9.9947967897704770e-02  9.9947828240517983e-02  9.9920678870426896e-02  9.9944972564154452e-02  9.9928881318210871e-02  9.9928089483088470e-02  9.9899979487517013e-02  9.9911938572873643e-02  9.9871841512026799e-02  9.9903530552776190e-02  9.9909739660412014e-02  9.9823592976237538e-02  9.9947869763370112e-02  9.9775904653292433e-02  1.0005368505902759e-01  9.9471084363016812e-02  9.9835816345077738e-02  1.0066113154901177e-01  1.0023448744997342e-01  1.0006406419003944e-01  1.0012815667307839e-01  1.0007974021642345e-01  1.0012702681541477e-01  1.0007575431676095e-01  1.0008069042145959e-01  1.0010007182827921e-01  1.0006113637316784e-01  1.0009683150331321e-01  1.0005097552842346e-01  1.0006362129445907e-01  1.0004489190915623e-01  1.0006412458589618e-01  1.0003925973661207e-01  1.0004336347113318e-01  1.0004366761693836e-01  1.0003269340607918e-01  1.0003207440731315e-01  1.0003289555724448e-01  1.0002383140922111e-01  1.0002306809369570e-01  1.0002185785878832e-01  1.0001727310210749e-01  1.0001465555579912e-01  1.0001505605680641e-01  1.0000842911605816e-01  1.0001257127084855e-01  1.0000000000000003e-01  9.9980232844831457e-02  1.0000000000000003e-01  9.9988050573665957e-02  9.9981168503611703e-02  9.9979171896113939e-02  9.9976708511962081e-02  9.9976336759160317e-02  9.9968206867658962e-02  9.9969106349621223e-02  9.9968702595968129e-02  9.9957771636490569e-02  9.9960055711595663e-02  9.9959751241090383e-02  9.9943931307033454e-02  9.9950173455711375e-02  9.9950726626070033e-02  9.9927063638586805e-02  9.9942233520127155e-02  9.9937746209900549e-02  9.9915517513854676e-02  9.9924086819262972e-02  9.9956535436998131e-02  9.9849837557189083e-02  9.9920344592848306e-02  9.9888855995567696e-02  9.9869351812536283e-02  9.9875184821464819e-02  9.9941291881026878e-02  9.9735685560912418e-02  1.0009534088676576e-01  9.9475886554252616e-02  9.9819015444353232e-02  1.0065861147447577e-01  1.0026881239573716e-01  1.0003109988552041e-01  1.0013315308921625e-01  1.0010674307941728e-01  1.0009597004826247e-01  1.0008086942806767e-01  1.0010847665976309e-01  1.0006576047131657e-01  1.0007364669968252e-01  1.0007974641228860e-01  1.0008525185719469e-01  1.0003201215185047e-01  1.0007663653757801e-01  1.0003685267473075e-01  1.0005015632480652e-01  1.0004779522101953e-01  1.0003656766166562e-01  1.0003442639605292e-01  1.0003716920699803e-01  1.0002707606245845e-01  1.0002639855535581e-01  1.0002570174825774e-01  1.0001875869594910e-01  1.0001789259586422e-01  1.0001580824206535e-01  1.0001353623783249e-01  1.0000864698605652e-01  1.0001255695187447e-01  1.0000000000000003e-01  9.9980192942668300e-02  1.0000000000000003e-01  9.9988487208038837e-02  9.9979157117362147e-02  9.9980803160817436e-02  9.9977697746217370e-02  9.9972186522318082e-02  9.9971556974821754e-02  9.9970949501098985e-02  9.9961547730599232e-02  9.9963687591150735e-02  9.9962795616031205e-02  9.9948942081743763e-02  9.9953537702086065e-02  9.9954494670683208e-02  9.9934163668080278e-02  9.9943847600504745e-02  9.9944331563038280e-02  9.9917182914085079e-02  9.9932806904627303e-02  9.9940198896052407e-02  9.9887254492198707e-02  9.9955711650707699e-02  9.9885996734258145e-02  9