<?xml version="1.0"?>
<VTKFile type="UnstructuredGrid"  version="0.1"  >
<UnstructuredGrid>
<Piece  NumberOfPoints="1933" NumberOfCells="3640">
<Points>
<DataArray  type="Float64"  NumberOfComponents="3"  format="ascii">0.4754729904114594 -0.0002311453961820812 0  5.475473038729404 -0.0002487863593950046 0  5.475499543140669 7.499751359696512 0  0.475499454323175 7.499768930694063 0  10.47547310353342 -0.000266557635806875 0  10.47549970278492 7.499733612040966 0  15.47547325424979 -0.0002845156039629035 0  15.47549997017221 7.499715660212956 0  20.4754735653985 -0.000302659571757903 0  20.47550038105872 7.499697516180984 0  25.47547410576879 -0.0003209551675095504 0  25.47550097045797 7.499679219036457 0  30.47547493612091 -0.0003393470302374632 0  30.47550177176739 7.499660826148129 0  35.47547611004367 -0.0003577656813158353 0  35.47550281613194 7.499642407828952 0  40.47547767581758 -0.000376130902846972 0  40.47550413220107 7.499624044626652 0  45.47547967843204 -0.0003943528740092566 0  45.47550574613457 7.499605826489998 0  50.47548216144025 -0.0004123317557128473 0  50.47550768167122 7.499587853321906 0  55.47548516855825 -0.0004299560806407844 0  55.47550996010865 7.499570236649275 0  60.47548874498814 -0.0004471000875967251 0  60.47551260005635 7.499553102308217 0  65.4754929384669 -0.000463619978201167 0  65.47551561682273 7.499536594180527 0  70.47549780000999 -0.0004793489341386476 0  70.47551902127394 7.499520879141503 0  75.47550338427949 -0.0004940905866180022 0  75.47552281794367 7.499506153510617 0  80.47550974940953 -0.0005076104496269634 0  80.47552700207616 7.499492651453561 0  85.47551695598501 -0.0005196245827284038 0  85.47553155515665 7.499480655986607 0  90.4755250646014 -0.0005297843928358046 0  90.47553643826951 7.49947051350595 0  95.47553413098966 -0.0005376559513258581 0  95.47554158235482 7.499462653127758 0  100.4755441968435 -0.0005426913929247223 0  100.4755468740923 7.499457612592981 0  105.4755552729611 -0.0005441887284140905 0  105.4755521357565 7.499456073042258 0  110.4755673083888 -0.0005412345395075877 0  110.4755570971814 7.499458905461986 0  115.4755801337792 -0.0005326212905881543 0  115.4755613584411 7.499467231628675 0  120.4755933566226 -0.0005167272443539964 0  120.4755643442809 7.49948250083024 0  125.4756061657641 -0.0004913426660308409 0  125.4755652588664 7.499506577890958 0  130.475616963418 -0.000453423989144007 0  130.4755630690854 7.499541822222581 0  135.4756226665401 -0.0003987697209075954 0  135.4755565924657 7.499591100234373 0  140.4756173678312 -0.0003216861799124409 0  140.4755448781227 7.499657598640193 0  145.4755897285563 -0.0002150597128721422 0  145.4755283348572 7.499744215584352 0  150.4755177045342 -7.290846142425093e-05 0  150.4755117371867 7.499852571789222 0  160.4755282581469 9.940234736828086e-19 0  165.4754048151942 -0.0001925072426621026 0  165.4755076032381 7.499775462938338 0  160.4755403388222 7.49992497484682 0  170.4753454578965 -0.0003453346234008785 0  170.4754742315754 7.499638643997399 0  175.4753188709394 -0.0004699180393188975 0  175.4754481617686 7.499521408410193 0  180.4753094594693 -0.0005730931228310264 0  180.4754299764929 7.499422013847807 0  185.4753090994486 -0.0006598835541157921 0  185.4754183305786 7.499337282751565 0  190.4753134488525 -0.0007340799949936614 0  190.475411610842 7.499264246678701 0  195.475320144238 -0.0007985254647111994 0  195.4754084219369 7.499200472819073 0  200.4753278798802 -0.0008553460377239365 0  200.4754076809855 7.499144051156418 0  205.4753359260426 -0.0009061382178367073 0  205.4754085876967 7.499093502276283 0  210.4753438724085 -0.0009521121218182183 0  210.4754105648407 7.499047680804973 0  215.4753514890941 -0.0009941964683087764 0  215.475413201173 7.499005694506121 0  220.4753586499795 -0.001033113992574641 0  220.4754162055315 7.498966841626419 0  225.4753652895857 -0.001069435272791449 0  225.4754193725103 7.498930563933635 0  230.4753713783277 -0.001103617253628191 0  230.4754225576868 7.498896411933979 0  235.475376908033 -0.001136031052725091 0  235.4754256600523 7.498864019133659 0  240.4753818833301 -0.001166982272170429 0  240.4754286096521 7.498833082890137 0  245.4753863164874 -0.00119672604006545 0  245.4754313589236 7.498803350038538 0  250.4753902243357 -0.001225478308937401 0  250.4754338766396 7.498774605987276 0  255.4753936265128 -0.001253424457241968 0  255.4754361436987 7.498746666357715 0  260.4753965445818 -0.001280725908919795 0  260.4754381502238 7.498719370519435 0  265.4753990017905 -0.001307525252336377 0  265.4754398936067 7.498692576576396 0  270.4754010233268 -0.001333950165537176 0  270.4754413772465 7.4986661575153 0  275.4754026370284 -0.001360116309418024 0  275.4754426097777 7.498639998357349 0  280.4754038745335 -0.001386129206074486 0  280.4754436046533 7.498613994277835 0  285.4754047728805 -0.001412084944069518 0  285.4754443799447 7.498588049794046 0  290.4754053765016 -0.001438069299457082 0  290.4754449582096 7.498562079288606 0  295.4754057394527 -0.001464154457906909 0  295.475445366318 7.498536009349874 0  300.4754059272599 -0.001490391849433203 0  300.4754456351653 7.498509783678993 0  305.4754060168598 -0.001516798492798268 0  305.4754457995931 7.498483371611527 0  310.4754060907886 -0.001543332637667655 0  310.4754458999259 7.498456781629711 0  5.4755256463014 14.99975169028424 0  0.47552555037894 14.99976911610196 0  10.47552580277348 14.99973398294889 0  15.47552605065169 14.99971602751694 0  20.47552641014837 14.99969786486856 0  25.47552689706129 14.99967954711467 0  30.47552752500771 14.99966113703093 0  35.47552830588592 14.99964270677267 0  40.47552924962513 14.99962433710363 0  45.47553036365248 14.99960611746253 0  50.47553165220759 14.99958814689865 0  55.47553311549772 14.99957053585247 0  60.47553474862689 14.9995534087883 0  65.47553654019978 14.99953690774523 0  70.47553847047833 14.99952119694486 0  75.47554050895427 14.99950646867393 0  80.47554261118441 14.99949295074617 0  85.47554471474611 14.99948091593672 0  90.47554673421642 14.99947069386022 0  95.47554855523725 14.99946268579163 0  100.4755500280645 14.99945738281713 0  105.4755509617543 14.99945538725972 0  110.4755511215563 14.99945743615462 0  115.4755502347651 14.99946442286885 0  120.4755480149275 14.99947740725429 0  125.4755442219329 14.99949759318134 0  130.4755387866744 14.99952622985818 0  135.4755320420181 14.99956435113435 0  140.4755251069315 14.99961218861548 0  145.4755204323922 14.99966793792839 0  150.4755223170041 14.99972513698301 0  165.4755538672992 14.99968704880963 0  160.4755566965418 14.99978258383711 0  170.4755420574166 14.99958663463082 0  175.4755271787946 14.99949099660535 0  180.4755128698336 14.99940408344857 0  185.4755007210564 14.99932657140596 0  190.4754911610192 14.99925775428608 0  195.4754840632856 14.99919648307406 0  200.475479082046 14.99914157221792 0  205.4754758195274 14.99909195290224 0  210.4754739012134 14.99904671464434 0  215.4754730039228 14.99900510131476 0  220.4754728613702 14.99896649127548 0  225.4754732600037 14.99893037431723 0  230.4754740314365 14.99889633032464 0  235.4754750444304 14.99886401118464 0  240.4754761976284 14.99883312604502 0  245.4754774134417 14.99880342952294 0  250.4754786331086 14.99877471234402 0  255.4754798127862 14.99874679392466 0  260.4754809205132 14.99871951649662 0  265.4754819338491 14.99869274046394 0  270.4754828380615 14.99866634077249 0  275.4754836246992 14.99864020414926 0  280.4754842904673 14.99861422713969 0  285.4754848363208 14.99858831492831 0  290.475485266746 14.99856238096035 0  295.4754855893482 14.99853634734557 0  300.4754858150075 14.9985101458236 0  305.4754859593236 14.99848371844862 0  310.4754860466487 14.99845701549465 0  5.475551353413056 22.4997523450209 0  0.4755512599744582 22.49976965687491 0  10.47555148162901 22.49973465773287 0  15.47555166544048 22.49971667586052 0  20.47555191545262 22.49969846912073 0  25.47555223624423 22.49968010519214 0  30.47555262880428 22.49966165424214 0  35.4755530915436 22.49964319112551 0  40.47555362040408 22.49962479669466 0  45.47555420844142 22.49960655898893 0  50.47555484509813 22.49958857468131 0  55.47555551526201 22.4995709509715 0  60.47555619814679 22.49955380803448 0  65.4755568659955 22.49953728211419 0  70.47555748260807 22.49952152935121 0  75.47555800172044 22.49950673044204 0  80.47555836531855 22.49949309621559 0  85.47555850208479 22.49948087416905 0  90.47555832636459 22.49947035588038 0  95.47555773836586 22.49946188494646 0  100.4755566268131 22.49945586455797 0  105.47555487607 22.49945276281083 0  110.4755523808876 22.49945311201925 0  115.4755490734405 22.49945749509543 0  120.4755449689751 22.49946650670223 0  125.4755402374385 22.49948066837288 0  130.4755353068078 22.4995002643426 0  135.4755309948958 22.49952504932383 0  140.4755286408808 22.49955376780759 0  145.4755301495661 22.49958344385251 0  150.4755377499665 22.49960855426843 0  165.4755779062897 22.49958782304958 0  160.4755676562423 22.49964897390107 0  170.475579682177 22.49951706026998 0  175.4755757545561 22.49944380518601 0  180.4755688120375 22.49937255264316 0  185.475560830369 22.49930560070586 0  190.4755530228498 22.49924379126065 0  195.4755460254061 22.49918714952187 0  200.4755400994383 22.49913530380042 0  205.4755352872187 22.49908772650652 0  210.4755315152563 22.49904386028612 0  215.4755286575959 22.49900317781242 0  220.4755265721101 22.49896520575764 0  225.4755251198709 22.49892953056428 0  230.4755241744592 22.4988957956704 0  235.475523625565 22.49886369524939 0  240.475523379518 22.49883296699733 0  245.4755233582947 22.49880338514702 0  250.4755234978637 22.49877475419616 0  255.4755237463536 22.49874690349246 0  260.4755240622515 22.49871968266555 0  265.4755244127651 22.49869295783124 0  270.4755247723569 22.49866660848057 0  275.4755251214665 22.49864052496666 0  280.4755254454184 22.49861460650532 0  285.4755257335181 22.49858875958637 0  290.475525978408 22.4985628966302 0  295.475526175
[...]
<PointData  Scalars="p"> 
<DataArray  type="Float64"  Name="p"  format="ascii">1.0000000000000001e-01  1.0000000000000003e-01  9.9999711941750127e-02  1.0000000000000003e-01  1.0000000000000003e-01  9.9998538300393680e-02  1.0000000000000003e-01  9.9997797000349248e-02  1.0000000000000003e-01  9.9996921218039950e-02  1.0000000000000003e-01  9.9996294293838606e-02  1.0000000000000003e-01  9.9996076063533376e-02  1.0000000000000003e-01  9.9995389344044630e-02  1.0000000000000003e-01  9.9995234413308029e-02  1.0000000000000003e-01  9.9995062047590400e-02  1.0000000000000003e-01  9.9993504940252886e-02  1.0000000000000003e-01  9.9995991678818716e-02  1.0000000000000003e-01  9.9994745984203021e-02  1.0000000000000003e-01  9.9995203069081065e-02  1.0000000000000003e-01  9.9994872992308859e-02  1.0000000000000003e-01  9.9996445504609274e-02  1.0000000000000003e-01  9.9996546434986483e-02  1.0000000000000003e-01  9.9998465536312392e-02  1.0000000000000003e-01  1.0000110302201082e-01  1.0000000000000003e-01  1.0000254803040341e-01  1.0000000000000003e-01  1.0000671919260566e-01  1.0000000000000003e-01  1.0000974708860999e-01  1.0000000000000003e-01  1.0001498920779130e-01  1.0000000000000003e-01  1.0001693752316121e-01  1.0000000000000003e-01  1.0002769276080352e-01  1.0000000000000003e-01  1.0002319407192405e-01  1.0000000000000003e-01  1.0004390263724705e-01  1.0000000000000003e-01  1.0002697210812377e-01  1.0000000000000003e-01  1.0006376053453410e-01  1.0000000000000003e-01  1.0002574289420323e-01  1.0000000000000001e-01  1.0009255182908225e-01  1.0000000000000001e-01  1.0000000000000003e-01  9.9978349905564187e-02  9.9895433868365968e-02  1.0000000000000003e-01  1.0001811690671147e-01  1.0000000000000003e-01  9.9987164614399021e-02  1.0000000000000003e-01  1.0000898668418447e-01  1.0000000000000003e-01  1.0000514246227635e-01  1.0000000000000003e-01  1.0001143324075881e-01  1.0000000000000003e-01  1.0001178072293568e-01  1.0000000000000003e-01  1.0001722504250471e-01  1.0000000000000003e-01  1.0001782992996387e-01  1.0000000000000003e-01  1.0002050664407079e-01  1.0000000000000003e-01  1.0002251756097968e-01  1.0000000000000003e-01  1.0002388286878904e-01  1.0000000000000003e-01  1.0002499273518387e-01  1.0000000000000003e-01  1.0002640141504091e-01  1.0000000000000003e-01  1.0002701409208574e-01  1.0000000000000003e-01  1.0002763591471382e-01  1.0000000000000003e-01  1.0002834555890910e-01  1.0000000000000003e-01  1.0002858431895971e-01  1.0000000000000003e-01  1.0002893212146931e-01  1.0000000000000003e-01  1.0002905296317496e-01  1.0000000000000003e-01  1.0002941366697822e-01  1.0000000000000003e-01  1.0002896172954076e-01  1.0000000000000003e-01  1.0002987271781186e-01  1.0000000000000003e-01  1.0002833969009352e-01  1.0000000000000003e-01  1.0003089202402693e-01  1.0000000000000003e-01  1.0002640208745146e-01  1.0000000000000003e-01  1.0003379959458729e-01  1.0000000000000003e-01  1.0002133325560986e-01  1.0000000000000003e-01  1.0004323785492504e-01  1.0000000000000001e-01  1.0000000000000003e-01  1.0000074917561549e-01  1.0000000000000003e-01  1.0000005236330188e-01  9.9999946177719942e-02  9.9999952912295687e-02  1.0000045309991294e-01  1.0000025753394892e-01  1.0000058026748078e-01  1.0000153849038161e-01  1.0000070978280202e-01  1.0000138503501464e-01  1.0000052072314734e-01  1.0000451683816883e-01  1.0000122797297997e-01  1.0000408206938666e-01  1.0000208529014827e-01  1.0000445558082134e-01  1.0000657145856200e-01  1.0000683982788863e-01  1.0000929967539313e-01  1.0001346501086238e-01  1.0001287374234591e-01  1.0001840282073315e-01  1.0001941589254877e-01  1.0002495039875127e-01  1.0002091217351035e-01  1.0003802213939444e-01  1.0001257539239317e-01  1.0006089723914713e-01  9.9986717055743815e-02  1.0009267017174896e-01  1.0006465765877386e-01  9.9879641322220131e-02  9.9934177873548719e-02  9.9999198456931712e-02  9.9985757438322054e-02  9.9988863100643310e-02  9.9985990994793231e-02  9.9995717171156739e-02  9.9992416932828759e-02  9.9996010124241641e-02  9.9998893902905964e-02  9.9999585494747870e-02  1.0000061231526315e-01  1.0000299790279392e-01  1.0000323242875163e-01  1.0000398603253878e-01  1.0000525384114727e-01  1.0000559459452381e-01  1.0000599607894128e-01  1.0000693568934060e-01  1.0000709280810309e-01  1.0000770577534229e-01  1.0000788699305670e-01  1.0000887867639910e-01  1.0000809636047749e-01  1.0001047597666002e-01  1.0000734600665322e-01  1.0001396094266748e-01  1.0000351226880691e-01  1.0002069214081435e-01  1.0000000000000003e-01  1.0000169668400234e-01  1.0000000000000003e-01  1.0000049743380866e-01  1.0000049475132346e-01  1.0000085297846500e-01  1.0000045598114481e-01  1.0000082709975189e-01  1.0000208534637638e-01  1.0000161642201913e-01  1.0000223917965570e-01  1.0000310622382555e-01  1.0000383636100642e-01  1.0000013596948028e-01  1.0000963529137653e-01  1.0000297698958568e-01  1.0000586891454188e-01  1.0000794844342643e-01  1.0000720359340409e-01  1.0001060364163931e-01  1.0001555479036649e-01  1.0001544534785793e-01  1.0002008433789614e-01  1.0002758064239099e-01  1.0002529717388378e-01  1.0003632763911623e-01  1.0003422512636835e-01  1.0004741432519861e-01  1.0003158172688295e-01  1.0007363997600731e-01  9.9996334019698929e-02  1.0014228478803559e-01  1.0000346883549939e-01  9.9948779925985984e-02  9.9945603531075095e-02  9.9996039833210149e-02  9.9983992035441324e-02  9.9977601077886002e-02  9.9999624625714156e-02  9.9987356428533236e-02  9.9995340311186884e-02  1.0000066022097669e-01  1.0000123870008397e-01  1.0000298283313427e-01  1.0000780505301791e-01  1.0000786005710023e-01  1.0000936370807363e-01  1.0001194958418602e-01  1.0001228826401276e-01  1.0001303689278419e-01  1.0001467252417851e-01  1.0001507311640144e-01  1.0001554527808880e-01  1.0001683761131820e-01  1.0001689732067903e-01  1.0001804774378564e-01  1.0001773048640110e-01  1.0001999438637399e-01  1.0001756678488247e-01  1.0002318332441523e-01  1.0001441146823216e-01  1.0003273101554139e-01  1.0000000000000003e-01  1.0000239244040718e-01  1.0000000000000003e-01  1.0000123579011466e-01  1.0000240610137609e-01  1.0000184540061642e-01  1.0000238776275297e-01  1.0000394225742737e-01  1.0000367519740479e-01  1.0000478347031520e-01  1.0000674894003657e-01  1.0000614385866614e-01  1.0000666187070621e-01  1.0001129928464768e-01  1.0000334168864222e-01  1.0001462425211388e-01  1.0001144686862284e-01  1.0001114351494796e-01  1.0001240239010607e-01  1.0001838383982127e-01  1.0001616978666379e-01  1.0002217062957816e-01  1.0002750999885353e-01  1.0002833055968283e-01  1.0003195449915565e-01  1.0004353651706341e-01  1.0003361099722725e-01  1.0005630064996521e-01  1.0003110067351988e-01  1.0007905206790703e-01  9.9994090004891581e-02  1.0014732372271253e-01  9.9982319858487961e-02  9.9919107450773620e-02  9.9977731279684373e-02  9.9986036342926063e-02  9.9939412211485348e-02  1.0000419070678625e-01  9.9966705563689182e-02  9.9982641702148475e-02  9.9986330012778776e-02  9.9987579075781527e-02  9.9988308987674607e-02  9.9996120362624744e-02  9.9995156409702093e-02  9.9997257154326752e-02  1.0000094198145712e-01  1.0000137032906418e-01  1.0000224953313319e-01  1.0000471157938534e-01  1.0000494831787535e-01  1.0000579192905706e-01  1.0000724924325799e-01  1.0000798754615542e-01  1.0000832940164202e-01  1.0001016222247440e-01  1.0000965656858121e-01  1.0001245612613220e-01  1.0000978481340707e-01  1.0001659451747730e-01  1.0000723583650310e-01  1.0002439607002001e-01  1.0000000000000003e-01  1.0000309606635537e-01  1.0000000000000003e-01  1.0000233966920931e-01  1.0000294727720270e-01  1.0000304815533807e-01  1.0000445276748500e-01  1.0000416749390972e-01  1.0000522179159867e-01  1.0000769833367075e-01  1.0000713661781588e-01  1.0000816203030506e-01  1.0001231079102332e-01  1.0000927401401587e-01  1.0001346229438937e-01  1.0000925234791458e-01  1.0001901093477022e-01  1.0001398683018009e-01  1.0002062578764451e-01  1.0001631380182108e-01  1.0002191097489409e-01  1.0002885551821374e-01  1.0002653366457176e-01  1.0003479943122927e-01  1.0004062319570342e-01  1.0004330981820021e-01  1.0004350279641687e-01  1.0006381987119793e-01  1.0003570665001178e-01  1.0009027770283402e-01  9.9997129298768347e-02  1.0016574261148031e-01  1.0000501985972050e-01  9.9919969887762056e-02  9.9953707815476342e-02  9.9963568789431578e-02  9.9987079674992971e-02  9.9957782702070175e-02  9.9978430432038148e-02  9.9981552785392294e-02  9.9983222008440661e-02  9.9980153059994761e-02  9.9993805632145910e-02  9.9990577381523754e-02  9.9993919711059559e-02  9.9999432721057130e-02  9.9999648800210741e-02  1.0000081986469624e-01  1.0000472145045808e-01  1.0000487886937846e-01  1.0000574639933701e-01  1.0000811600347713e-01  1.0000847927311596e-01  1.0000946397683345e-01  1.0001080969747131e-01  1.0001207377960715e-01  1.0001198439545791e-01  1.0001489088040492e-01  1.0001287809068270e-01  1.0001891688048938e-01  1.0001055829167843e-01  1.0002823832733640e-01  1.0000000000000003e-01  1.0000390256636196e-01  1.0000000000000003e-01  1.0000262588526598e-01  1.0000396370826495e-01  1.0000496346321115e-01  1.0000506732768769e-01  1.0000576280761694e-01  1.0000821300514159e-01  1.0000795139940788e-01  1.0000928384291061e-01  1.0001277936899705e-01  1.0001177066189165e-01  1.0001435407149654e-01  1.0001655410546928e-01  1.0001726295113629e-01  1.0001008974010617e-01  1.0003030681883103e-01  1.0001737213902952e-01  1.0002391736248781e-01  1.0002846599219921e-01  1.0002637701782748e-01  1.0003200498599836e-01  1.0004287840448331e-01  1.0003698276074303e-01  1.0005013931519448e-01  1.0005096360830244e-01  1.0006192915649222e-01  1.0004279193935628e-01  1.0009664197638984e-01  9.9994984610563428e-02  1.0017805333549654e-01  9.9975629603185706e-02  9.9946263124095380e-02  9.9938210415791831e-02  9.9987349661809791e-02  9.9959782987362078e-02  9.9966233221246231e-02  9.9963966749035071e-02  9.9983373932988451e-02  9.9963833292886314e-02  9.9989196852139570e-02  9.9978749539847867e-02  9.9984628888206542e-02  9.9991603122747935e-02  9.9991920439171530e-02  9.9992910768928675e-02  9.9998579693889422e-02  9.9998333950423374e-02  9.9999620237620240e-02  1.0000283525657575e-01  1.0000319684967870e-01  1.0000385643099893e-01  1.0000635544476620e-01  1.0000659518175946e-01  1.0000815359697575e-01  1.0000879074644073e-01  1.0001151174748893e-01  1.0000945389747128e-01  1.0001605377941708e-01  1.0000789810671695e-01  1.0002466556435485e-01  1.0000000000000003e-01  1.0000432608657620e-01  1.0000000000000003e-01  1.0000316166374541e-01  1.0000547542360284e-01  1.0000521518475101e-01  1.0000625481009426e-01  1.0000842652698611e-01  1.0000808680772504e-01  1.0000942664916293e-01  1.0001281394437471e-01  1.0001179424779927e-01  1.0001438474575833e-01  1.0001844476598715e-01  1.0001722935124524e-01  1.0001731935418491e-01  1.0002655490155421e-01  1.0001187443717624e-01  1.0003286063283016e-01  1.0002925783841914e-01  1.0002686388861347e-01  1.0003079878489123e-01  1.0004029224187774e-01  1.0003668443290464e-01  1.0004358138600603e-01  1.0005776620811847e-01  1.0004657683978009e-01  1.0006832794076215e-01  1.0005173733399125e-01  1.0009267862924015e-01  1.0000515881789825e-01  1.0018283047676259e-01  9.9962496568032078e-02  9.9933548314390913e-02  9.9961200286111468e-02  9.9963242570910563e-02  9.9949503228887793e-02  9.9978134723979151e-02  9.9972384421565003e-02  9.9949643349508122e-02  9.9991301130766277e-02  9.9970455678603493e-02  9.9979439067264364e-02  9.9985523980678878e-02  9.9987326721832359e-02  9.9987237515017091e-02  9.9995601478137922e-02  9.9994885906697181e-02  9.9996262397573435e-02  1.0000068594472547e-01  1.0000110941139703e-01  1.0000196886010838e-01  1.0000481862554084e-01  1.0000545316771060e-01  1.0000610715895659e-01  1.0000872444731489e-01  1.0000869460916705e-01  1.0001142609339547e-01  1.0001022080569233e-01  1.0001629335979161e-01  1.0000864114026965e-01  1.0002542073059410e-01  1.0000000000000003e-01  1.0000483290974170e-01  1.0000000000000003e-01  1.0000395729779250e-01  1.0000557150213117e-01  1.0000601496029082e-01  1.0000835557581521e-01  1.0000823384582699e-01  1.0000954951934060e-01  1.0001255262463622e-01  1.0001181761486456e-01  1.0001357378270474e-01  1.0001829992354992e-01  1.0001704645175118e-01  1.0001896118225398e-01  1.0002553983497042e-01  1.0001963424688944e-01  1.0002773588664998e-01  1.0002144552349412e-01  1.0003690583808898e-01  1.0002989963537452e-01  1.0004154389174706e-01  1.0003231479933708e-01  1.0004288419610308e-01  1.0005118865164883e-01  1.0004981681992342e-01  1.0005240598423752e-01  1.0007591540692572e-01  1.0004588093745449e-01  1.0009757970172799e-01  1.0001365777832118e-01  1.0017557894461647e-01  9.9978226915321947e-02  9.9923081225030963e-02  9.9944094900085614e-02  9.9949946361569758e-02  9.9963804474402271e-02  9.9964494577222215e-02  9.9955184948969766e-02  9.9982724030622680e-02  9.9956584075483426e-02  9.9978773147170394e-02  9.9976476882846943e-02  9.9982916202638897e-02  9.9977603148875993e-02  9.9990787992102620e-02  9.9988475647941860e-02  9.9990603716366783e-02  9.9996323622870198e-02  9.9996512608549984e-02  9.9997256576888446e-02  1.0000156710256447e-01  1.0000169858334675e-01  1.0000276689613308e-01  1.0000507451720571e-01  1.0000637638512037e-01  1.0000649170375488e-01  1.0001012635047613e-01  1.0000844749470729e-01  1.0001452535354728e-01  1.0000752135802120e-01  1.0002357504786349e-01  1.0000000000000003e-01  1.0000539474440873e-01  1.0000000000000003e-01  1.0000393696835151e-01  1.0000610670013685e-01  1.0000747377047110e-01  1.0000811099652281e-01  1.0000917296694571e-01  1.0001211534593064e-01  1.0001182293280875e-01  1.0001310943194634e-01  1.0001697081574923e-01  1.0001633097884569e-01  1.0001840833308157e-01  1.0002421925884430e-01  1.0002114763290572e-01  1.0002538939259645e-01  1.0002942198985477e-01  1.0003003606089284e-01  1.0002007413494615e-01  1.0005128904558824e-01  1.0003173999851057e-01  1.0004088415936731e-01  1.0005006633557766e-01  1.0004177198158773e-01  1.0005462787467755e-01  1.0006170494078297e-01  1.0006475805622612e-01  1.0005267042259369e-01  1.0010323409782232e-01  1.0001023724002421e-01  1.0017444453008857e-01  9.9968365699958331e-02  9.9935102777878176e-02  9.9933044425082121e-02  9.9964999880067226e-02  9.9951092638776801e-02  9.9949588471718170e-02  9.9971476252888422e-02  9.9967257475015975e-02  9.9968421044159816e-02  9.9966538660963083e-02  9.9985178554833423e-02  9.9968566279222071e-02  9.9988615532805414e-02  9.9982038324294004e-02  9.9985714415273264e-02  9.9992404185545308e-02  9.9993110750120712e-02  9.9993531607521627e-02  9.9998881464745767e-02  9.9999033226314732e-02  1.0000005304300588e-01  1.0000357903927380e-01  1.0000385332399817e-01  1.0000525151808615e-01  1.0000686402078922e-01  1.0000932218968404e-01  1.0000795120297114e-01  1.0001438948045788e-01  1.0000745896517677e-01  1.0002316536318329e-01  1.0000000000000003e-01  1.0000563695474153e-01  1.0000000000000003e-01  1.0000417165452273e-01  1.0000718984447342e-01  1.0000715823340460e-01  1.0000871533186678e-01  1.0001122684656115e-01  1.0001135892000583e-01  1.0001275352603453e-01  1.0001637015716570e-01  1.0001525604796072e-01  1.0001734108646812e-01  1.0002257769762281e-01  1.0002051868221778e-01  1.0002354364067659e-01  1.0002977392127058e-01  1.0002764282552283e-01  1.0002786844178385e-01  1.0004269878203090e-01  1.0001993295911335e-01  1.0005153884743952e-01  1.0004703783985083e-01  1.0004261294886715e-01  1.0004622089486201e-01  1.0006445062337005e-01  1.0004783395406648e-01  1.0006989439833754e-01  1.0006224435282209e-01  1.0008957899412273e-01  1.0001880768481267e-01  1.0017424366864087e-01  9.9958658777685491e-02  9.9924037405969557e-02  9.9945530465755689e-02  9.9955367022813005e-02  9.9938513922204486e-02  9.9963535810641435e-02  9.9958653556002960e-02  9.9958416557324639e-02  9.9974480701073384e-02  9.9978453562849526e-02  9.9956921117526104e-02  9.9991141885720100e-02  9.9974611436015090e-02  9.9981809451531636e-02  9.9986297570685959e-02  9.9989054523137999e-02  9.9988151506161124e-02  9.9995684314371377e-02  9.9995444737602357e-02  9.9996301400590043e-02  1.0000047693804870e-01  1.0000145060380849e-01  1.0000193200768853e-01  1.0000537446038232e-01  1.0000531526447796e-01  1.0000792671684990e-01  1.0000752240401771e-01  1.0001315657552456e-01  1.0000666805970064e-01  1.0002197474591178e-01  1.0000000000000003e-01  1.0000586947826631e-01  1.0000000000000003e-01  1.0000462002363573e-01  1.0000686083900652e-01  1.0000738006238107e-01  1.0001008394584333e-01  1.0001031855586570e-01  1.0001182964336099e-01  1.0001513879431009e-01  1.0001464812160973e-01  1.0001610638132671e-01  1.0002077599459396e-01  1.0001917581052128e-01  1.0002148107107416e-01  1.0002766736924314e-01  1.0002522699586909e-01  1.0002802858774754e-01  1.0003794299252164e-01  1.0002889091553002e-01  1.0004034225919095e-01  1.0003327054592411e-01  1.0005213399820327e-01  1.0004509126592472e-01  1.0005950346084083e-01  1.0004779242962714e-01  1.0005426641618091e-01  1.0007900290240643e-01  1.0004710627130899e-01  1.0009212253436799e-01  1.0003117837114447e-01  1.0015419764378219e-01  9.9974159969517931e-02  9.9900559039891132e-02  9.9939657495505013e-02  9.9944220316138754e-02  9.9951673455894174e-02  9.9955586634225824e-02  9.9948211894202083e-02  9.9967785144820326e-02  9.9969383914570956e-02  9.9965422483248273e-02  9.9985171603116166e-02  9.9966433840603205e-02  9.9983631437171733e-02  9.9980416494263230e-02  9.9987068910181831e-02  9.9981933171440301e-02  9.9992850367292177e-02  9.9991664238102074e-02  9.9992954295344563e-02  9.9998179976217946e-02  9.9998485136153961e-02  9.9999313831483416e-02  1.0000311143981475e-01  1.0000414206518690e-01  1.0000433496763632e-01  1.0000820582971405e-01  1.0000689222717875e-01  1.0001231649021279e-01  1.0000668423176258e-01  1.0002117841687877e-01  1.0000000000000003e-01  1.0000623000417361e-01  1.0000000000000003e-01  1.0000441252006424e-01  1.0000700799499314e-01  1.0000830015914101e-01  1.0000936363501683e-01  1.0001051762988825e-01  1.0001364421722353e-01  1.0001366976795599e-01  1.0001507180574913e-01  1.0001893823860653e-01  1.0001827402888204e-01  1.0001977521297385e-01  1.0002514471979587e-01  1.0002312169944604e-01  1.0002560225223034e-01  1.0003414013797991e-01  1.0002915213688238e-01  1.0003513746712805e-01  1.0004104399384699e-01  1.0004104887652066e-01  1.0002725353759682e-01  1.0007209453465674e-01  1.0004118667666961e-01  1.0005786020116542e-01  1.0006389353602167e-01  1.0006009290271480e-01  1.0005177096255762e-01  1.0010240404265794e-01  1.0001563726638682e-01  1.0015237179052899e-01  9.9982168358899629e-02  9.9892562324137221e-02  9.9924286989394248e-02  9.9956505045336430e-02  9.9947543752891541e-02  9.9944852562027842e-02  9.9959630520803269e-02  9.9962586183775140e-02  9.9957331219384132e-02  9.9977157814704787e-02  9.9975662326416928e-02  9.9977609018243499e-02  9.9972975422819924e-02  9.9990385092010872e-02  9.9975227880699527e-02  9.9991325286062999e-02  9.9986653726403224e-02  9.9989301665914118e-02  9.9994790266378378e-02  9.9995982713474652e-02  9.9996085806822566e-02  1.0000080140513502e-01  1.0000111943203457e-01  1.0000272917696237e-01  1.0000501177705623e-01  1.0000721543216118e-01  1.0000597529698280e-01  1.0001212087725507e-01  1.0000613474559085e-01  1.0002007312324521e-01  1.0000000000000003e-01  1.0000613098437111e-01  1.0000000000000003e-01  1.0000425678833684e-01  1.0000748377949190e-01  1.0000747171990311e-01  1.0000918683905999e-01  1.0001159761900143e-01  1.0001208330342937e-01  1.0001349148841195e-01  1.0001700753081615e-01  1.0001638841952122e-01  1.0001813772648746e-01  1.0002285853372639e-01  1.0002098661784854e-01  1.0002275753984127e-01  1.0002980746064652e-01  1.0002677914311557e-01  1.0003033506200841e-01  1.0003937513672044e-01  1.0003524619742910e-01  1.0003563519798783e-01  1.0005580156614421e-01  1.0002485391467579e-01  1.0006491076765134e-01  1