<?xml version="1.0"?>
<VTKFile type="UnstructuredGrid"  version="0.1"  >
<UnstructuredGrid>
<Piece  NumberOfPoints="1933" NumberOfCells="3640">
<Points>
<DataArray  type="Float64"  NumberOfComponents="3"  format="ascii">0.2940193043324775 -0.001025428612493674 0  5.294019314598406 -0.0009933890730185681 0  5.293971237475652 7.499006627849751 0  0.2939712290797218 7.498974592659737 0  10.29401933696396 -0.0009613579609890396 0  10.2939712484548 7.499038654845804 0  15.29401937595035 -0.0009293177453397166 0  15.29397126075267 7.49907069190571 0  20.2940194312874 -0.000897251061655828 0  20.29397127180515 7.499102756273818 0  25.29401949944289 -0.0008651417375258163 0  25.29397127764216 7.499134863834252 0  30.2940195746172 -0.0008329748265671819 0  30.29397127284335 7.499167029265155 0  35.2940196492712 -0.0008007362983962267 0  35.29397125049658 7.499199266382785 0  40.29401971431191 -0.000768412642861013 0  40.293971202111 7.499231588527878 0  45.29401975903517 -0.0007359904856581732 0  45.29397111745804 7.499264008931631 0  50.29401977088828 -0.0007034562454188348 0  50.2939709843263 7.499296541040433 0  55.29401973508407 -0.0006707958351335167 0  55.29397078818058 7.499329198797592 0  60.29401963407357 -0.0006379944004839029 0  60.29397051171343 7.499361996887772 0  65.29401944686499 -0.0006050360842361679 0  65.29397013427189 7.499394950952144 0  70.29401914815591 -0.0005719038048648923 0  70.29396963113464 7.499428077781818 0  75.29401870722532 -0.0005385790369591186 0  75.2939689726047 7.499461395495337 0  80.294018086501 -0.000505041579772673 0  80.29396812286824 7.499494923702632 0  85.29401723967483 -0.0004712692981810861 0  85.29396703855846 7.499528683651337 0  90.29401610916896 -0.0004372378177083192 0  90.293965666942 7.49956269833808 0  95.29401462264474 -0.000402920154218067 0  95.29396394363532 7.499596992538643 0  100.2940126880584 -0.0003682862654932655 0  100.2939617897545 7.499631592649592 0  105.2940101864495 -0.0003333025428182061 0  105.293959108442 7.499666526102401 0  110.2940069610954 -0.0002979313581214125 0  110.2939557808469 7.499701819832077 0  115.2940028006987 -0.0002621310510273112 0  115.2939516620044 7.499737496695364 0  120.2939974125731 -0.0002258574362988256 0  120.2939465779118 7.49977356750867 0  125.293990378794 -0.000189069656622906 0  125.2939403270108 7.499810013840547 0  130.2939810830449 -0.000151747500079285 0  130.2939326933111 7.499846751491461 0  135.2939685869456 -0.000113937756458574 0  135.2939234865517 7.499883553998558 0  140.2939514200919 -7.587229097890407e-05 0  140.2939126404694 7.499919893948509 0  145.2939272271232 -3.825867795769584e-05 0  145.2939004277444 7.499954614913815 0  150.2938921970788 -2.964149921981241e-06 0  150.2938878884823 7.499985242801442 0  160.2938926261462 6.989674891123813e-19 0  165.2939128472789 1.320729189444315e-05 0  165.2938956857715 7.50001279770034 0  160.2938871527536 7.499998161087913 0  170.2939296212575 3.277098842180052e-05 0  170.293904024401 7.500032812239549 0  175.2939433802214 5.62505707091874e-05 0  175.2939118114418 7.500056418584307 0  180.2939546649274 8.226308683462446e-05 0  180.2939188642159 7.500082448686921 0  185.2939639567099 0.0001099756463416402 0  185.2939251289197 7.500110144580507 0  190.2939716456609 0.0001388622655093048 0  190.2939306257943 7.50013900671232 0  195.2939780384075 0.0001685772209606193 0  195.2939354113825 7.500168698205125 0  200.2939833744463 0.00019888528920888 0  200.2939395563363 7.500198986267329 0  205.2939878416299 0.0002296216213505063 0  205.2939431334877 7.500229706242518 0  210.2939915885845 0.0002606677676659435 0  210.2939462119712 7.500260739195782 0  215.2939947340961 0.0002919368287206498 0  215.2939488546991 7.500291997627014 0  220.2939973740615 0.0003233639375931248 0  220.2939511176071 7.500323416134322 0  225.2939995866286 0.0003548999581755293 0  225.2939530497838 7.500354945153189 0  230.2940014360248 0.000386507186686294 0  230.2939546940041 7.500386546651899 0  235.2940029754484 0.0004181563411338443 0  235.2939560874151 7.500418191102824 0  240.2940042492869 0.0004498244051962113 0  240.2939572622503 7.500449855308212 0  245.2940052948501 0.0004814930569089596 0  245.2939582465124 7.500481520814215 0  250.2940061437507 0.0005131475109118866 0  250.2939590645996 7.5005131727422 0  255.2940068230299 0.0005447756642268028 0  255.2939597378719 7.500544798926517 0  260.2940073560924 0.000576367475544153 0  260.2939602851533 7.500576389287574 0  265.2940077635067 0.0006079145360592392 0  265.2939607231789 7.500607935396728 0  270.2940080637018 0.0006394098117343597 0  270.2939610669866 7.5006394302105 0  275.2940082735907 0.0006708475563236813 0  275.2939613302534 7.500670867969487 0  280.2940084091243 0.0007022234145805499 0  280.2939615255781 7.500702244273817 0  285.2940084857734 0.0007335347580427159 0  285.2939616646948 7.500733556363882 0  290.2940085188898 0.0007647813227291513 0  290.2939617586134 7.500764803651136 0  295.2940085238442 0.0007959662453574544 0  295.2939618176773 7.500795988556342 0  300.2940085157242 0.0008270976016478762 0  300.2939618515499 7.500827117714048 0  305.2940085081556 0.0008581904520824917 0  305.2939618692108 7.500858203587138 0  310.2940085104003 0.0008892688553650975 0  310.2939618791839 7.500889266556523 0  5.293923165291374 14.99900665818715 0  0.2939231591794986 14.99897464532315 0  10.29392316690866 14.99903866746685 0  15.29392316085471 14.9990706915046 0  20.29392314342534 14.99910274619412 0  25.29392311034208 14.99913484601371 0  30.29392305653888 14.99916700449802 0  35.29392297594337 14.99919923458272 0  40.29392286127521 14.99923154891255 0  45.29392270384727 14.99926396012184 0  50.2939224933513 14.99929648108334 0  55.29392221761329 14.99932912512179 0  60.29392186230775 14.99936190619077 0  65.29392141062448 14.99939483901035 0  70.29392084288521 14.99942793916051 0  75.29392013611368 14.99946122311796 0  80.29391926357275 14.99949470821188 0  85.293918194301 14.99952841245273 0  90.29391689271537 14.99956235415072 0  95.29391531840571 14.99959655117309 0  100.293913426353 14.99963101956992 0  105.2939111679779 14.99966577108386 0  110.293908493715 14.99970080868046 0  115.2939053582567 14.99973611857466 0  120.29390173025 14.99977165610801 0  125.2938976090211 14.99980732102055 0  130.2938930514986 14.99984291500736 0  135.2938882118449 14.99987807140865 0  140.2938833914874 14.9999121464218 0  145.2938790816851 14.99994407539298 0  150.2938759420893 14.99997227151444 0  165.2938776450865 15.00001280168734 0  160.2938751945198 14.99999538510749 0  170.2938804341682 15.0000337418939 0  175.2938835088115 15.00005754265263 0  180.2938867087734 15.00008350428662 0  185.293889884087 15.00011105573633 0  190.2938929264825 15.00013976764487 0  195.2938957689834 15.00016932623314 0  200.2938983766138 15.00019950360245 0  205.2939007365856 15.00023013356659 0  210.2939028504104 15.00026109389018 0  215.2939047282192 15.00029229371854 0  220.2939063849078 15.00032366477954 0  225.2939078376305 15.00035515521318 0  230.2939091042239 15.00038672520608 0  235.2939102022606 15.00041834386596 0  240.2939111485092 15.0004499869558 0  245.2939119586597 15.00048163523237 0  250.2939126472145 15.0005132732187 0  255.2939132274807 15.0005448882958 0  260.2939137116217 15.00057647003768 0  265.2939141107399 15.00060800974054 0  270.2939144349721 15.00063950011628 0  275.2939146935862 15.00067093513557 0  280.2939148950725 15.00070231001644 0  285.2939150472343 15.00073362136235 0  290.2939151572899 15.00076486745584 0  295.2939152320252 15.00079604870814 0  300.293915278069 15.00082716824773 0  305.293915302422 15.00085823260477 0  310.2939153134769 15.00088925244741 0  5.29387515563506 22.49900669514397 0  0.2938751511963735 22.49897472868422 0  10.29387515254131 22.49903867038052 0  15.29387513737357 22.49907066864959 0  20.29387510612921 22.49910270280536 0  25.29387505486444 22.4991347848793 0  30.2938749793784 22.4991669264377 0  35.29387487496754 22.49919913881592 0  40.29387473623081 22.49923143330054 0  45.29387455691367 22.49926382128443 0  50.29387432978202 22.49929631439693 0  55.29387404651873 22.49932892460279 0  60.29387369764363 22.49936166425918 0  65.29387327246411 22.49939454611627 0  70.29387275907422 22.49942758323928 0  75.29387214443456 22.49946078881835 0  80.29387141458419 22.49949417581276 0  85.29387055506508 22.49952775634485 0  90.29386955168097 22.49956154070859 0  95.2938683917701 22.49959553577888 0  100.2938670662514 22.49962974248357 0  105.2938655727991 22.49966415181184 0  110.2938639206076 22.49969873855277 0  115.2938621372722 22.49973345157608 0  120.2938602782366 22.49976819900919 0  125.2938584388252 22.4998028263072 0  130.2938567676756 22.49983708550793 0  135.2938554777891 22.4998705963868 0  140.2938548467337 22.49990280829954 0  145.2938551910894 22.49993299277511 0  150.2938567970734 22.49996034439819 0  165.2938549466167 22.50001235508564 0  160.2938558418063 22.49999209627203 0  170.2938544504981 22.50003470292443 0  175.2938544093397 22.50005906381432 0  180.2938547790709 22.50008514800615 0  185.2938554678145 22.50011261975933 0  190.2938563754429 22.50014117256626 0  195.2938574132886 22.50017055244638 0  200.2938585108213 22.50020055834126 0  205.2938596157288 22.50023103450427 0  210.2938606913265 22.50026186137998 0  215.2938617132973 22.50029294738242 0  220.293862666639 22.50032422221155 0  225.2938635431273 22.50035563166708 0  230.2938643393319 22.50038713370913 0  235.2938650551234 22.50041869549155 0  240.2938656925769 22.50045029113192 0  245.2938662551802 22.50048190003294 0  250.2938667472711 22.50051350561727 0  255.2938671736412 22.50054509437416 0  260.2938675392594 22.50057665514625 0  265.2938678490831 22.50060817860427 0  270.293868107929 22.50063965687406 0  275.2938683203956 22.50067108328956 0  280.2938684908261 22.50070245225154 0  285.29386862332 22.50073375917172 0  290.2938687218141 22.50076500047451 0  295.2938687902694 22.50079617361128 0  300.29
[...]
<PointData  Scalars="p"> 
<DataArray  type="Float64"  Name="p"  format="ascii">1.0000000000000001e-01  1.0000000000000003e-01  9.9997414343978200e-02  1.0000000000000003e-01  1.0000000000000003e-01  9.9996293886082943e-02  1.0000000000000003e-01  9.9994404783122062e-02  1.0000000000000003e-01  9.9993135644831060e-02  1.0000000000000003e-01  9.9991716174530301e-02  1.0000000000000003e-01  9.9989887396446778e-02  1.0000000000000003e-01  9.9988704332110268e-02  1.0000000000000003e-01  9.9987446928739648e-02  1.0000000000000003e-01  9.9985430594389441e-02  1.0000000000000003e-01  9.9984184550863317e-02  1.0000000000000003e-01  9.9980986480622189e-02  1.0000000000000003e-01  9.9977602928788337e-02  1.0000000000000003e-01  9.9975089915084761e-02  1.0000000000000003e-01  9.9972632492866920e-02  1.0000000000000003e-01  9.9969043842958724e-02  1.0000000000000003e-01  9.9967261423408171e-02  1.0000000000000003e-01  9.9965092295067393e-02  1.0000000000000003e-01  9.9961574474707438e-02  1.0000000000000003e-01  9.9960943396521187e-02  1.0000000000000003e-01  9.9958391969602670e-02  1.0000000000000003e-01  9.9957139892857857e-02  1.0000000000000003e-01  9.9954777839342812e-02  1.0000000000000003e-01  9.9957301463414888e-02  1.0000000000000003e-01  9.9949930722305347e-02  1.0000000000000003e-01  9.9959991019457975e-02  1.0000000000000003e-01  9.9944179485318585e-02  1.0000000000000003e-01  9.9966226112588957e-02  1.0000000000000003e-01  9.9934661189202592e-02  1.0000000000000003e-01  9.9976126874362511e-02  1.0000000000000001e-01  9.9915518559272512e-02  1.0000000000000001e-01  1.0000000000000003e-01  1.0010167956067147e-01  1.0017190579525972e-01  1.0000000000000003e-01  1.0004474279257911e-01  1.0000000000000003e-01  1.0008296584343576e-01  1.0000000000000003e-01  1.0006563137310939e-01  1.0000000000000003e-01  1.0007251930900744e-01  1.0000000000000003e-01  1.0006845971685258e-01  1.0000000000000003e-01  1.0007244557622109e-01  1.0000000000000003e-01  1.0006909471669911e-01  1.0000000000000003e-01  1.0007048356705700e-01  1.0000000000000003e-01  1.0006987539926455e-01  1.0000000000000003e-01  1.0006915788228202e-01  1.0000000000000003e-01  1.0006856390777653e-01  1.0000000000000003e-01  1.0006829685229308e-01  1.0000000000000003e-01  1.0006718249784005e-01  1.0000000000000003e-01  1.0006662753323727e-01  1.0000000000000003e-01  1.0006599245263505e-01  1.0000000000000003e-01  1.0006516624500247e-01  1.0000000000000003e-01  1.0006438649776667e-01  1.0000000000000003e-01  1.0006399041207141e-01  1.0000000000000003e-01  1.0006286466289531e-01  1.0000000000000003e-01  1.0006283432575948e-01  1.0000000000000003e-01  1.0006125627418995e-01  1.0000000000000003e-01  1.0006231629250224e-01  1.0000000000000003e-01  1.0005877667734460e-01  1.0000000000000003e-01  1.0006347316371787e-01  1.0000000000000003e-01  1.0005404711938713e-01  1.0000000000000003e-01  1.0006853689083287e-01  1.0000000000000003e-01  1.0004327402540189e-01  1.0000000000000003e-01  1.0008682870668929e-01  1.0000000000000001e-01  1.0000000000000003e-01  9.9996502539929893e-02  1.0000000000000003e-01  9.9996103812816900e-02  9.9995755100485875e-02  9.9995210272281990e-02  9.9994087771505730e-02  9.9994071304725166e-02  9.9994000985246606e-02  9.9992522344653306e-02  9.9992967178519160e-02  9.9992554608160603e-02  9.9990129548245252e-02  9.9987716399415838e-02  9.9987095641717413e-02  9.9983581731063212e-02  9.9984660235916942e-02  9.9984088865167617e-02  9.9981247906057516e-02  9.9982593466349093e-02  9.9982750387723682e-02  9.9979109773207731e-02  9.9982642692813345e-02  9.9980599826370961e-02  9.9981718130630268e-02  9.9978805375179391e-02  9.9988137761424817e-02  9.9970299617412633e-02  1.0000099234199625e-01  9.9949994345055679e-02  1.0002753406827662e-01  9.9913512073666597e-02  9.9940014432905469e-02  1.0028812125725586e-01  1.0006809030450342e-01  1.0001676314125293e-01  1.0002317572414211e-01  1.0001882986005844e-01  1.0002954500315657e-01  1.0002088973621782e-01  1.0002608798945810e-01  1.0002648357152424e-01  1.0002535210018773e-01  1.0002564025897705e-01  1.0002663877862512e-01  1.0002508857127135e-01  1.0002517657393117e-01  1.0002530380823188e-01  1.0002433080134160e-01  1.0002420076233287e-01  1.0002411263723358e-01  1.0002360348077248e-01  1.0002316161013917e-01  1.0002354556772493e-01  1.0002229088309393e-01  1.0002350471396738e-01  1.0002112109643403e-01  1.0002474872102708e-01  1.0001770558552581e-01  1.0003018771704238e-01  1.0000843600235051e-01  1.0004209749806349e-01  1.0000000000000003e-01  9.9995200866896200e-02  1.0000000000000003e-01  9.9996349375453153e-02  9.9994413723656597e-02  9.9993156949559028e-02  9.9992629910847231e-02  9.9992562167441984e-02  9.9990321777591831e-02  9.9990744616359289e-02  9.9990962553526075e-02  9.9988055467647080e-02  9.9987774634081900e-02  9.9987755849663684e-02  9.9979468558193729e-02  9.9980200868852093e-02  9.9979027744964491e-02  9.9973885816008121e-02  9.9976365898430730e-02  9.9975809111125927e-02  9.9970756938297295e-02  9.9973812408986146e-02  9.9974693761002667e-02  9.9967932147537492e-02  9.9976010831973383e-02  9.9970174486229343e-02  9.9976413318023774e-02  9.9964902044764714e-02  9.9990758584709669e-02  9.9940020256978637e-02  1.0003083720627577e-01  9.9862354564427977e-02  9.9929908887203669e-02  1.0030394903140070e-01  1.0014099447091980e-01  1.0003385626630526e-01  1.0003582798725133e-01  1.0006064760111402e-01  1.0003507070609585e-01  1.0004954905314803e-01  1.0004966850229008e-01  1.0004710211274649e-01  1.0004820508805459e-01  1.0005097711729292e-01  1.0004775329828021e-01  1.0004856813477175e-01  1.0004908121629250e-01  1.0004720090722433e-01  1.0004700056992674e-01  1.0004723518358861e-01  1.0004581775324498e-01  1.0004572994324126e-01  1.0004546502342102e-01  1.0004499711842270e-01  1.0004406416182186e-01  1.0004520396175640e-01  1.0004246141479797e-01  1.0004591490600190e-01  1.0003985779964526e-01  1.0004969247586047e-01  1.0003100031933120e-01  1.0006661572293153e-01  1.0000000000000003e-01  9.9994471582716557e-02  1.0000000000000003e-01  9.9996272250569160e-02  9.9993686003852070e-02  9.9993677160332542e-02  9.9993680082844733e-02  9.9991505713586351e-02  9.9992171379165676e-02  9.9992861833002031e-02  9.9990206990220223e-02  9.9991440284193059e-02  9.9991932619310525e-02  9.9986512266186905e-02  9.9989007418016876e-02  9.9984511108693011e-02  9.9978833032464312e-02  9.9980989865611325e-02  9.9981691005827947e-02  9.9975599722844033e-02  9.9980804404396981e-02  9.9980441074422152e-02  9.9976008334864475e-02  9.9979721199544014e-02  9.9984276009636414e-02  9.9972518975385991e-02  9.9991337936994190e-02  9.9969552408949308e-02  1.0000376074472457e-01  9.9943005043747909e-02  1.0005151574410283e-01  9.9851543663524486e-02  9.9914350621665343e-02  1.0036400355151139e-01  1.0010228839604525e-01  1.0000233222579644e-01  1.0008046821838205e-01  1.0000173101622192e-01  1.0003637743765975e-01  1.0003109458237143e-01  1.0003026959744327e-01  1.0003058191294939e-01  1.0003685176434360e-01  1.0003152523975005e-01  1.0003393142627845e-01  1.0003515783571063e-01  1.0003287435943330e-01  1.0003297864823352e-01  1.0003361952899879e-01  1.0003187114941263e-01  1.0003173574108312e-01  1.0003211872835069e-01  1.0003079690503623e-01  1.0003115557166470e-01  1.0003048707379394e-01  1.0003118473004029e-01  1.0002881393700248e-01  1.0003296170350606e-01  1.0002545236442256e-01  1.0003772526937176e-01  1.0001743303684781e-01  1.0005035742071335e-01  1.0000000000000003e-01  9.9993715480933748e-02  1.0000000000000003e-01  9.9995722309492677e-02  9.9993795824275075e-02  9.9994377603891085e-02  9.9991475363347876e-02  9.9992245943335251e-02  9.9992436467904081e-02  9.9989764261620109e-02  9.9991246765669464e-02  9.9992221393431113e-02  9.9987577758903032e-02  9.9989718289754032e-02  9.9989065353152912e-02  9.9984376444858608e-02  9.9981870373844747e-02  9.9981704132032723e-02  9.9973987730205757e-02  9.9979131854758929e-02  9.9980108704414511e-02  9.9972209088611139e-02  9.9980403705084833e-02  9.9979131850937875e-02  9.9976000357132278e-02  9.9977476112850058e-02  9.9990297766078720e-02  9.9963377438766640e-02  1.0000955066360766e-01  9.9936282544368843e-02  1.0006280637300949e-01  9.9823909728702420e-02  9.9858943768579886e-02  1.0041969273689350e-01  1.0012125612775141e-01  1.0002624176163809e-01  1.0005900618693840e-01  1.0004259020160640e-01  1.0003710300121040e-01  1.0003629755676033e-01  1.0003167119823794e-01  1.0004594828984011e-01  1.0003554537041309e-01  1.0004052079768493e-01  1.0004278483948784e-01  1.0003970840817868e-01  1.0004019527732520e-01  1.0004189948030232e-01  1.0003910620637886e-01  1.0003922644356834e-01  1.0003965667791839e-01  1.0003813206052543e-01  1.0003781174387710e-01  1.0003848538254531e-01  1.0003682792971605e-01  1.0003796127602768e-01  1.0003613102084311e-01  1.0003894223150828e-01  1.0003319529150932e-01  1.0004364283995015e-01  1.0002461557635273e-01  1.0005853904346668e-01  1.0000000000000003e-01  9.9992800214580541e-02  1.0000000000000003e-01  9.9995851436278371e-02  9.9994080864498139e-02  9.9993012590509647e-02  9.9992742825058253e-02  9.9993112999627681e-02  9.9990310537270796e-02  9.9991369759715079e-02  9.9992834366074271e-02  9.9988852930872688e-02  9.9990810560075083e-02  9.9991729761311002e-02  9.9986114086236935e-02  9.9988271322351677e-02  9.9991211379367562e-02  9.9976542885733613e-02  9.9981609083422185e-02  9.9981493392988743e-02  9.9973240029860605e-02  9.9980680029873509e-02  9.9983454858779339e-02  9.9971857830338254e-02  9.9986379711905451e-02  9.9980151623629623e-02  9.9985666329872963e-02  9.9971368325460386e-02  1.0001637331669977e-01  9.9927396427254331e-02  1.0008442186911326e-01  9.9799839754644709e-02  9.9845718646207768e-02  1.0042153143183752e-01  1.0014463477262076e-01  9.9981659620869495e-02  1.0005677004098205e-01  1.0004437587616434e-01  1.0004844613380751e-01  1.0001221199631141e-01  1.0004625913605397e-01  1.0002291628744849e-01  1.0003434169777847e-01  1.0003674705360077e-01  1.0003316604445560e-01  1.0003388633493596e-01  1.0003750368753174e-01  1.0003351505199161e-01  1.0003425305268063e-01  1.0003534639922444e-01  1.0003285014492731e-01  1.0003294180368687e-01  1.0003331407270070e-01  1.0003223997516104e-01  1.0003158350129879e-01  1.0003314937126477e-01  1.0003024862200900e-01  1.0003405706971637e-01  1.0002795487451858e-01  1.0003841645126017e-01  1.0002001308158633e-01  1.0005191264523153e-01  1.0000000000000003e-01  9.9992289337270571e-02  1.0000000000000003e-01  9.9996084242523181e-02  9.9992651719657391e-02  9.9993741859619872e-02  9.9993478216720305e-02  9.9991127634128207e-02  9.9991328556537737e-02  9.9992797213236700e-02  9.9988785795139243e-02  9.9990873001458633e-02  9.9992317736980543e-02  9.9986484275137885e-02  9.9989373115609903e-02  9.9991836392347447e-02  9.9982739977398330e-02  9.9989855992766025e-02  9.9983822592237218e-02  9.9973254755915009e-02  9.9980270218211598e-02  9.9981544485434060e-02  9.9972265639210176e-02  9.9981046259763826e-02  9.9986862403904544e-02  9.9969116487682072e-02  9.9995236832889009e-02  9.9971129390703892e-02  1.0000964192140693e-01  9.9930490904279010e-02  1.0009531957194180e-01  9.9771180218387934e-02  9.9847962368812909e-02  1.0044992497312384e-01  1.0012525723533459e-01  9.9981365565546959e-02  1.0007350247789930e-01  1.0002426010192711e-01  1.0004462004912093e-01  1.0005773707555037e-01  1.0001786966023855e-01  1.0003646292378329e-01  1.0003543623125262e-01  1.0003444434471780e-01  1.0003359067836332e-01  1.0004010081479379e-01  1.0003454064611440e-01  1.0003623344051592e-01  1.0003801345702584e-01  1.0003523745596707e-01  1.0003512295580587e-01  1.0003616484042478e-01  1.0003389133503340e-01  1.0003425293119278e-01  1.0003409575998824e-01  1.0003412140633716e-01  1.0003233080864944e-01  1.0003591423314451e-01  1.0002973784078338e-01  1.0004003042635287e-01  1.0002224247992350e-01  1.0005378936381649e-01  1.0000000000000003e-01  9.9991927969795127e-02  1.0000000000000003e-01  9.9995328918174808e-02  9.9992921538273202e-02  9.9994371493418305e-02  9.9991641998523242e-02  9.9992344739387437e-02  9.9993091497261002e-02  9.9989358222482977e-02  9.9991096023941434e-02  9.9992558380392838e-02  9.9987211193432970e-02  9.9989907066828934e-02  9.9991967435512058e-02  9.9984453589879368e-02  9.9990330682449835e-02  9.9990871859255440e-02  9.9983733863417412e-02  9.9982247641082003e-02  9.9983697769579882e-02  9.9969987172160504e-02  9.9982639862669684e-02  9.9982485539063040e-02  9.9974493266361708e-02  9.9980657749882809e-02  9.9997428457769044e-02  9.9958558382774260e-02  1.0002273280530617e-01  9.9927156900833716e-02  1.0009793435243983e-01  9.9757088308832967e-02  9.9814797841778297e-02  1.0048214953583955e-01  1.0013229494100832e-01  9.9990103363633828e-02  1.0005021844057257e-01  1.0001645685453038e-01  1.0005575308623876e-01  1.0003350347295914e-01  1.0004679722034782e-01  1.0002550556596138e-01  1.0003407954429944e-01  1.0002542339307721e-01  1.0003905779821685e-01  1.0002989573489915e-01  1.0003324341118822e-01  1.0003590422540787e-01  1.0003265232593937e-01  1.0003288300352356e-01  1.0003476880379539e-01  1.0003200580320314e-01  1.0003180910300605e-01  1.0003289946864127e-01  1.0003065606197181e-01  1.0003181756617041e-01  1.0003041005377772e-01  1.0003296128725428e-01  1.0002750498028681e-01  1.0003768925231084e-01  1.0002011822752632e-01  1.0005059557921508e-01  1.0000000000000003e-01  9.9991252488151494e-02  1.0000000000000003e-01  9.9995506008793394e-02  9.9993286191718725e-02  9.9992887678137465e-02  9.9992388213916067e-02  9.9993699344060258e-02  9.9990261206965081e-02  9.9991438793569129e-02  9.9992758313725838e-02  9.9988157794640861e-02  9.9989806944478288e-02  9.9992059310313436e-02  9.9985050332918421e-02  9.9989416853486210e-02  9.9992336283456634e-02  9.9983755804471525e-02  9.9989187542331867e-02  9.9994716988771590e-02  9.9972556202387139e-02  9.9981728770081449e-02  9.9983929950800562e-02  9.9967676828509974e-02  9.9986782715708003e-02  9.9982135379004911e-02  9.9981398137399799e-02  9.9971254090798628e-02  1.0002515594542520e-01  9.9910574274567301e-02  1.0011583273087558e-01  9.9740189002281238e-02  9.9806547608788765e-02  1.0048109478429414e-01  1.0014949247053857e-01  9.9967974120537637e-02  1.0005136649099863e-01  1.0002868038802110e-01  1.0003537150756921e-01  1.0003246167011126e-01  1.0005128032951198e-01  1.0004406544662652e-01  1.0001787774734422e-01  1.0004216700168095e-01  1.0002523478221716e-01  1.0003283997242550e-01  1.0003534243768683e-01  1.0003216263397828e-01  1.0003213380840982e-01  1.0003568451442624e-01  1.0003196757089407e-01  1.0003254414151970e-01  1.0003350575321318e-01  1.0003154577783661e-01  1.0003092016024670e-01  1.0003264328649805e-01  1.0002966823594639e-01  1.0003296096873823e-01  1.0002803162772438e-01  1.0003710144245584e-01  1.0002061533745547e-01  1.0005029938138824e-01  1.0000000000000003e-01  9.9991004370236808e-02  1.0000000000000003e-01  9.9995762236259514e-02  9.9991937139179102e-02  9.9993402255804831e-02  9.9993301169214177e-02  9.9991199075533652e-02  9.9991677401344778e-02  9.9993196791118538e-02  9.9989067003192905e-02  9.9990334133511743e-02  9.9992412907858208e-02  9.9985565962135800e-02  9.9988780937083202e-02  9.9992172968391260e-02  9.9983650895965961e-02  9.9989444210593664e-02  9.9994683056390102e-02  9.9980384678867995e-02  9.9993514943300096e-02  9.9985424778980925e-02  9.9970080742067965e-02  9.9980824710051319e-02  9.9988125624737481e-02  9.9963866737208501e-02  9.9996868194361710e-02  9.9972654977927775e-02  1.0000770780133519e-01  9.9922846498424589e-02  1.0012215735104024e-01  9.9713226902926333e-02  9.9810034920454899e-02  1.0048914360554714e-01  1.0013644896313353e-01  9.9964869700667744e-02  1.0006382035901983e-01  1.0000946220681568e-01  1.0003285990158510e-01  1.0003800680077383e-01  1.0003685046502236e-01  1.0003598756003219e-01  1.0005325467038387e-01  1.0001658940693950e-01  1.0003308551028568e-01  1.0003041949636632e-01  1.0003073797275047e-01  1.0002886445996816e-01  1.0003459841513770e-01  1.0002992905601306e-01  1.0003092942695051e-01  1.0003293663579703e-01  1.0003029118731382e-01  1.0003045605876459e-01  1.0003083990145197e-01  1.0003010115625084e-01  1.0002845771421760e-01  1.0003200028379013e-01  1.0002618164067648e-01  1.0003554247196818e-01  1.0001970576539400e-01  1.0004805581344965e-01  1.0000000000000003e-01  9.9990836978415279e-02  1.0000000000000003e-01  9.9995098136980085e-02  9.9992153819842000e-02  9.9994076634537535e-02  9.9991354479953845e-02  9.9992205985381846e-02  9.9993089497712476e-02  9.9989942857324488e-02  9.9990991885412911e-02  9.9992967703495902e-02  9.9986854458830737e-02  9.9989010639045514e-02  9.9991491546806338e-02  9.9983759819780402e-02  9.9988800621575669e-02  9.9993189589068956e-02  9.9982090125915760e-02  9.9991730656898689e-02  9.9994166065395740e-02  9.9981935683246731e-02  9.9984351478401623e-02  9.9984903659763633e-02  9.9968144656481031e-02  9.9980868654796468e-02  9.9997557723804961e-02  9.9951438088868555e-02  1.0002412289666995e-01  9.9924930740527856e-02  1.0010423702678063e-01  9.9720435700470969e-02  9.9793762687622856e-02  1.0050069826651303e-01  1.0013700488084393e-01  9.9973762029388943e-02  1.0005001187378365e-01  1.0000788154984910e-01  1.0004327688983318e-01  1.0002364616295084e-01  1.0003118678421004e-01  1.0004416163749633e-01  1.0003716617759112e-01  1.0004254996031996e-01  1.0002450232450801e-01  1.0003195019424756e-01  1.0002398207429271e-01  1.0003491317918625e-01  1.0002770646234949e-01  1.0002989703056674e-01  1.0003229084089355e-01  1.0002977055428887e-01  1.0002964794020426e-01  1.0003181213898614e-01  1.0002889089428395e-01  1.0002979736738443e-01  1.0002889820937674e-01  1.0003057724543862e-01  1.0002583041605936e-01  1.0003501340565038e-01  1.0001926031073714e-01  1.0004687455260293e-01  1.0000000000000003e-01  9.9990348966533318e-02  1.0000000000000003e-01  9.9995205031074744e-02  9.9992532240885862e-02  9.9992620634457643e-02  9.9991880446977738e-02  9.9993372585791190e-02  9.9990303730629143e-02  9.9991243152143319e-02  9.9993105974743951e-02  9.9988433177975219e-02  9.9989641368988885e-02  9.9991762819841221e-02  9.9984634918408311e-02  9.9987602080844479e-02  9.9992164801592093e-02  9.9982323259711167e-02  9.9989418733454460e-02  9.9994611459182162e-02  9.9981948279043081e-02  9.9990521751816899e-02  1.0000063643245452e-01  9.9966518840851545e-02  9.9987000930647746e-02  9.9982483555806037e-02  9.9972766659434831e-02  9.9972422292865862e-02  1.0002508752807886e-01  9.9901371069698736e-02  1.0012073500861847e-01  9.9722282860386868e-02  9.9789982118163728e-02  1.0048510825371924e-01  1.0014643730031078e-01  9.9960661388374478e-02  1.0004832838663753e-01  1.0001751863326575e-01  1.0003067319551130e-01  1.0002035293173141e-01  1.0003947464818508e-01  1.0002882274057247e-01  1.0003430045536375e-01  1.0004354855321763e-01  1.0004154968978757e-01  1.0001646324946688e-01  1.0003657768542494e-01  1.0002282658280787e-01  1.0002858077075268e-01  1.0003050519836459e-01  1.0002815657209495e-01  1.0002794821364554e-01  1.0003086045922806e-01  1.0002839523361304e-01  1.0002823457420884e-01  1.0003014407984746e-01  1.0002689160639684e-01  1.0002959377357465e-01  1.0002549880614417e-01  1.0003317526268450e-01  1.0001858864606052e-01  1.0004507000510018e-01  1.0000000000000003e-01  9.9990150072751818e-02  1.0000000000000003e-01  9.9995389925971470e-02  9.9991292417573915e-02  9.9992912042796131e-02  9.9992583867356585e-02  9.9990972164647321e-02  9.9991128774078591e-02  9.9992797381039292e-02  9.9989086723243692e-02  9.9990223573547712e-02  9.9992159654025470e-02  9.9985947548347720e-02  9.9987513013633705e-02  9.9991331780199477e-02  9.9982413640375509e-02  9.9987195483188948e-02  9.9993428587511549e-02  9.9980915619433258e-02  9.9989855463079536e-02  9.9997868668545903e-02  9.9977571063757473e-02  9.9995936331927757e-02  9.9991043554918502e-02  9