<?xml version="1.0"?>
<VTKFile type="UnstructuredGrid"  version="0.1"  >
<UnstructuredGrid>
<Piece  NumberOfPoints="1933" NumberOfCells="3640">
<Points>
<DataArray  type="Float64"  NumberOfComponents="3"  format="ascii">-0.0002569691412405151 0.001504385005550347 0  4.999743058745034 0.001433858838826947 0  4.999848918602832 7.501433970148404 0  -0.0001511518528886091 7.501504420940414 0  9.999743083305919 0.001363218856620236 0  9.999849054111243 7.501363359855418 0  14.99974316514514 0.001292381824400124 0  14.9998492927822 7.501292533837256 0  19.99974337750904 0.001221320647131242 0  19.99984967363926 7.501221476204488 0  24.99974379319361 0.001150043158716113 0  24.99985023716777 7.501150199865668 0  29.99974448064584 0.001078579746302142 0  29.99985102450588 7.501078737600407 0  34.99974550390329 0.001006976090194338 0  34.9998520768649 7.501007136245735 0  39.99974692407022 0.0009352891664222947 0  39.99985343541032 7.500935453366679 0  44.99974880133462 0.0008635854453453503 0  44.99985514150387 7.500863755779852 0  49.99975119711498 0.0007919406571233507 0  49.99985723714978 7.500792119482629 0  54.99975417619118 0.0007204407743331807 0  54.9998597655122 7.500720630721337 0  59.9997578087887 0.0006491840560328009 0  59.99986277139143 7.50064938808229 0  64.99976217263622 0.0005782841461541504 0  64.99986630155374 7.500578505616759 0  69.99976735502017 0.0005078743499802364 0  69.99987040480347 7.500508117129514 0  74.99977345485726 0.0004381133487403053 0  74.99987513164653 7.50043838188598 0  79.99978058476418 0.0003691927778513342 0  79.99988053332949 7.500369492144578 0  84.99978887304412 0.0003013473185155581 0  84.99988665994049 7.500301683118261 0  89.99979846537333 0.00023486827739688 0  89.99989355709072 7.500235246240935 0  94.99980952573537 0.0001701221194596836 0  94.99990126046903 7.500170546994434 0  99.99982223566433 0.0001075761770834716 0  99.99990978724875 7.500108049079503 0  104.999836789949 4.783494709510361e-05 0  104.9999191229138 7.500048347428104 0  109.9998533851226 -8.30773674354627e-06 0  109.9999292016755 7.49999221344702 0  114.9998721935166 -5.979241385172652e-05 0  114.9999398785197 7.499940656820925 0  119.9998933085849 -0.0001051807649112692 0  119.9999508918454 7.49989500867702 0  124.9999166331962 -0.0001424857940295561 0  124.9999618196768 7.499857029519618 0  129.999941654586 -0.0001689167502098947 0  129.9999720443945 7.499829038680864 0  134.9999669932415 -0.0001805029811021477 0  134.9999807725509 7.499814043121563 0  139.9999894966652 -0.0001715810891900213 0  139.999987235778 7.499815803304773 0  145.00000239421 -0.0001343146103024046 0  144.9999913994637 7.499838735679616 0  149.9999913849999 -5.95153647749712e-05 0  149.999996052597 7.499887824436918 0  160.0000000000012 7.781717291600707e-19 0  164.9998480998683 -0.0002051501968637766 0  164.9999738563576 7.499764692081094 0  160.0000190053145 7.49992855297783 0  169.9997629425726 -0.0003828185557776791 0  169.9999279718307 7.499601924596527 0  174.9997139551731 -0.000540540280080933 0  174.9998898785049 7.499451001425246 0  179.9996854823632 -0.0006825142955579093 0  179.9998605093312 7.499312563611844 0  184.9996690435023 -0.0008120241400115351 0  184.9998386973015 7.499185015941536 0  189.9996598729044 -0.0009317005726401303 0  189.9998228856805 7.499066469874026 0  194.9996552066011 -0.001043598557405452 0  194.9998116586955 7.498955242591257 0  199.9996533901558 -0.001149297355882337 0  199.999803869947 7.498849953320923 0  204.9996534005838 -0.001250006217990399 0  204.9997986350914 7.498749502013154 0  209.999654584439 -0.00134665581685399 0  209.9997952861775 7.498653019342216 0  214.9996565111422 -0.00143996983393539 0  214.9997933224941 7.498559816765306 0  219.9996588888299 -0.001530518347325131 0  219.999792368822 7.498469344756558 0  224.9996615147595 -0.001618756807355762 0  224.9997921429925 7.498381160169921 0  229.9996642452258 -0.00170505432533838 0  229.9997924316838 7.49829490145191 0  234.9996669767584 -0.001789714278745629 0  234.9997930726971 7.498210269997708 0  239.9996696340241 -0.001872989460744786 0  239.9997939420643 7.498127016118624 0  244.9996721618358 -0.001955093363634265 0  244.9997949446794 7.498044928408242 0  249.9996745197599 -0.002036208710381061 0  249.9997960074759 7.497963825598597 0  254.9996766784347 -0.002116494009969987 0  254.9997970744505 7.497883550244772 0  259.999678617058 -0.002196088674756033 0  259.9997981030285 7.497803963763809 0  264.9996803217381 -0.002275117069640717 0  264.9997990614268 7.497724942494853 0  269.9996817845046 -0.002353691737841146 0  269.9997999267659 7.497646374556601 0  274.9996830029012 -0.002431915944736495 0  274.9998006837459 7.497568157369493 0  279.9996839801236 -0.002509885578239118 0  279.9998013237587 7.497490195798632 0  284.9996847257274 -0.00258769031449047 0  284.9998018443124 7.497412400975191 0  289.999685256923 -0.002665413758554973 0  289.9998022486501 7.49733468998708 0  294.9996856004742 -0.002743131924168403 0  294.9998025454648 7.49725698681596 0  299.9996857949594 -0.002820908773452608 0  299.9998027486143 7.497179225154355 0  304.999685892635 -0.002898786289149008 0  304.9998028770264 7.497101354050582 0  309.9996859585673 -0.00297676407346046 0  309.9998029557804 7.49702334760957 0  4.999954378485763 15.00143424024093 0  -4.570260337555254e-05 15.00150451318234 0  9.999954526053337 15.00136369775134 0  14.99995477543404 15.00129288886071 0  19.99995515237844 15.00122182810621 0  24.99995567919902 15.00115054339257 0  29.99995637728803 15.00107907463302 0  34.99995726791598 15.00100747188602 0  39.9999583723115 15.00093579404561 0  44.99995971146465 15.00086410838349 0  49.99996130581129 15.00079249097706 0  54.99996317481944 15.00072102799952 0  59.99996533643056 15.00064981787471 0  64.99996780627524 15.00057897435524 0  69.9999705965518 15.00050863065557 0  74.99997371443607 15.00043894485674 0  79.99997715985789 15.00037010689922 0  84.9999809224619 15.00030234759543 0  89.99998497755807 15.00023595022618 0  94.99998928092168 15.00017126541413 0  99.99999376244574 15.00010873005343 0  104.9999983190717 15.00004889099893 0  110.0000028082748 14.99999243373111 0  115.0000070451515 14.99994021476628 0  120.0000108094241 14.99989329305474 0  125.0000138744527 14.99985294774373 0  130.0000160796041 14.99982065300199 0  135.0000174801328 14.9997979461351 0  140.0000186201596 14.99978605331436 0  145.0000209611416 14.99978497301614 0  150.0000273689652 14.99979124145472 0  165.0000478678357 14.99968203047999 0  160.0000549645111 14.99980185138123 0  170.0000319546673 14.99955155643224 0  175.0000126532459 14.99942050506839 0  179.9999936603666 14.99929387424511 0  184.999976744687 14.99917334040317 0  189.9999625041493 14.99905901119316 0  194.9999509386683 14.9989503650106 0  199.9999417838789 14.99884668995538 0  204.9999346867256 14.99874727240304 0  209.9999292904967 14.99865146833801 0  214.9999252714563 14.9985587223581 0  219.9999223509973 14.99846856494105 0  224.9999202962367 14.99838060196102 0  229.9999189157315 14.99829450256034 0  234.9999180536468 14.99820998781419 0  239.9999175838894 14.99812682097536 0  244.9999174048495 14.99804479938583 0  249.9999174349442 14.99796374788015 0  254.9999176089489 14.99788351343341 0  259.9999178750392 14.99780396081892 0  264.9999181924155 14.99772496907801 0  269.999918529414 14.99764642865361 0  274.9999188619875 14.99756823908657 0  279.9999191724648 14.99749030722013 0  284.9999194485316 14.99741254589952 0  289.9999196823576 14.99733487317841 0  294.9999198699404 14.99725721201733 0  299.9999200107951 14.99717949028979 0  304.9999201084659 14.99710164034796 0  309.9999201727454 14.99702359578463 0  5.000059350513524 22.50143481661375 0  5.92691007640922e-05 22.5015049033045 0  10.00005947827978 22.50136434824314 0  15.00005968024275 22.50129355427793 0  20.00005997337046 22.50122248236424 0  25.00006036861931 22.50115117959794 0  30.00006087382932 22.50107969631637 0  35.00006149511791 22.50100808781522 0  40.00006223731361 22.50093641527782 0  45.00006310381643 22.50086474662187 0  50.00006409611243 22.50079315762636 0  55.00006521304833 22.50072173352843 0  60.0000664499017 22.50065057120876 0  65.00006779723749 22.50057978206991 0  70.00006923952391 22.50050949572286 0  75.00007075348077 22.50043986462195 0  80.00007230615783 22.50037106981016 0  85.00007385279449 22.50030332794473 0  90.00007533462875 22.50023689973685 0  95.00007667702631 22.50017209981679 0  100.0000777886483 22.5001093077326 0  105.0000785629499 22.50004897915617 0  110.0000788841897 22.49999165511325 0  115.0000786414072 22.49993796470567 0  120.0000777554551 22.49988861256869 0  125.0000762257928 22.49984433502756 0  130.0000742040365 22.49980579702173 0  135.0000720969839 22.49977338396372 0  140.0000706854931 22.49974682007221 0  145.0000712021215 22.4997245318189 0  150.0000752144933 22.49970274906837 0  165.0001098620606 22.49959027211327 0  160.000099151581 22.49968342615302 0  170.0001121341139 22.49948476971231 0  175.0001083778596 22.49937357925669 0  180.0001011330589 22.49926136377719 0  185.0000923898287 22.49915085300848 0  190.0000834516074 22.49904337064889 0  195.0000750649981 22.49893938312247 0  200.0000675952082 22.49883889067564 0  205.0000611706494 22.49874166674655 0  210.0000557840951 22.49864739255689 0  215.0000513576534 22.49855572789684 0  220.0000477821247 22.49846634556601 0  225.0000449396177 22.49837894606681 0  230.0000427157624 22.49829326204885 0  235.0000410057123 22.49820905773853 0  240.0000397165661 22.49812612614985 0  245.0000387678216 22.49804428551493 0  250.000038090807 22.49796337563993 0  255.0000376276463 22.49788325450418 0  260.0000373300435 22.49780379522458 0  265.000037158065 22.49772488341104 0  270.0000370789735 22.49764641489742 0  275.0000370661562 22.49756829381581 0  280.0000370981466 22.49749043097289 0  285.0000371577508 22.49741274246794 0  290.0000372312984 22.49733514844171 0  295.0000373081015 22.49725757171901 0  30
[...]
<PointData  Scalars="p"> 
<DataArray  type="Float64"  Name="p"  format="ascii">1.0000000000000001e-01  1.0000000000000003e-01  1.0000389868458731e-01  1.0000000000000003e-01  1.0000000000000003e-01  1.0000453204267097e-01  1.0000000000000003e-01  1.0000684393664612e-01  1.0000000000000003e-01  1.0000801765040386e-01  1.0000000000000003e-01  1.0000968396823466e-01  1.0000000000000003e-01  1.0001242140268546e-01  1.0000000000000003e-01  1.0001364565541805e-01  1.0000000000000003e-01  1.0001552178634547e-01  1.0000000000000003e-01  1.0001860894888062e-01  1.0000000000000003e-01  1.0001906458851743e-01  1.0000000000000003e-01  1.0002672285043666e-01  1.0000000000000003e-01  1.0003094891359630e-01  1.0000000000000003e-01  1.0003546927046610e-01  1.0000000000000003e-01  1.0003911221253972e-01  1.0000000000000003e-01  1.0004648953816105e-01  1.0000000000000003e-01  1.0004947211039772e-01  1.0000000000000003e-01  1.0005489903804907e-01  1.0000000000000003e-01  1.0006322732073625e-01  1.0000000000000003e-01  1.0006569268511767e-01  1.0000000000000003e-01  1.0007398977550550e-01  1.0000000000000003e-01  1.0007904519090384e-01  1.0000000000000003e-01  1.0008810577407054e-01  1.0000000000000003e-01  1.0008597403650235e-01  1.0000000000000003e-01  1.0010864863265935e-01  1.0000000000000003e-01  1.0008788315764257e-01  1.0000000000000003e-01  1.0013415571138348e-01  1.0000000000000003e-01  1.0008158105881776e-01  1.0000000000000003e-01  1.0016940366049011e-01  1.0000000000000003e-01  1.0006434301068744e-01  1.0000000000000001e-01  1.0022914750721415e-01  1.0000000000000001e-01  1.0000000000000003e-01  9.9813970860499715e-02  9.9617561468284710e-02  1.0000000000000003e-01  9.9945781191668734e-02  1.0000000000000003e-01  9.9853039994399234e-02  1.0000000000000003e-01  9.9902883067515116e-02  1.0000000000000003e-01  9.9887903085597016e-02  1.0000000000000003e-01  9.9900756099248894e-02  1.0000000000000003e-01  9.9894659563071184e-02  1.0000000000000003e-01  9.9905520188834543e-02  1.0000000000000003e-01  9.9903880305430487e-02  1.0000000000000003e-01  9.9907540139856726e-02  1.0000000000000003e-01  9.9910711252175335e-02  1.0000000000000003e-01  9.9913037558943832e-02  1.0000000000000003e-01  9.9914579654758653e-02  1.0000000000000003e-01  9.9917790307904250e-02  1.0000000000000003e-01  9.9919300859803051e-02  1.0000000000000003e-01  9.9920949735486653e-02  1.0000000000000003e-01  9.9922995309549095e-02  1.0000000000000003e-01  9.9924494940014985e-02  1.0000000000000003e-01  9.9925483095158987e-02  1.0000000000000003e-01  9.9927423814715838e-02  1.0000000000000003e-01  9.9927833500833396e-02  1.0000000000000003e-01  9.9929932530357007e-02  1.0000000000000003e-01  9.9929129599954092e-02  1.0000000000000003e-01  9.9933318723193998e-02  1.0000000000000003e-01  9.9928278217320879e-02  1.0000000000000003e-01  9.9939026772345993e-02  1.0000000000000003e-01  9.9922999134378049e-02  1.0000000000000003e-01  9.9951374088522782e-02  1.0000000000000003e-01  9.9902865621597309e-02  1.0000000000000001e-01  1.0000000000000003e-01  1.0000641930669830e-01  1.0000000000000003e-01  1.0000636053711960e-01  1.0000681823897506e-01  1.0000770474481051e-01  1.0001001978705386e-01  1.0000984929631720e-01  1.0001028383144794e-01  1.0001363331811744e-01  1.0001208292505778e-01  1.0001342330070394e-01  1.0001648138075771e-01  1.0002438058206876e-01  1.0002209304884178e-01  1.0003063246565431e-01  1.0002688899196205e-01  1.0003018199530188e-01  1.0003689554627701e-01  1.0003498567765191e-01  1.0003719077335602e-01  1.0004724747612971e-01  1.0004094063259406e-01  1.0004977118612844e-01  1.0004898069885867e-01  1.0005922042402005e-01  1.0004009162373491e-01  1.0008604575390280e-01  1.0001097159237464e-01  1.0014174630945098e-01  9.9942202419000717e-02  1.0023250877319256e-01  1.0016160923390928e-01  9.9413976938766080e-02  9.9824111765704493e-02  9.9972101192953924e-02  9.9948291045504345e-02  9.9958421163834618e-02  9.9938224971027251e-02  9.9961940534009502e-02  9.9950237128339683e-02  9.9953189906777345e-02  9.9957902590516692e-02  9.9958129596577031e-02  9.9957542825524215e-02  9.9962435286669607e-02  9.9962529171547757e-02  9.9963077841660475e-02  9.9965919276967463e-02  9.9966471229163842e-02  9.9967015466684142e-02  9.9968778339286662e-02  9.9969650111257025e-02  9.9969642221945307e-02  9.9971851648234578e-02  9.9970880884122815e-02  9.9973951785875190e-02  9.9970466486379139e-02  9.9978722662521863e-02  9.9965158015387801e-02  9.9989874262119582e-02  9.9952634921125244e-02  1.0000000000000003e-01  1.0000947991250117e-01  1.0000000000000003e-01  1.0000640998285709e-01  1.0000954095478104e-01  1.0001192845044603e-01  1.0001238284995739e-01  1.0001286038959510e-01  1.0001774218161325e-01  1.0001658652493933e-01  1.0001685330597634e-01  1.0002242238020893e-01  1.0002360420708259e-01  1.0001992954379013e-01  1.0004283792427661e-01  1.0003499104292646e-01  1.0003977776869566e-01  1.0005017746806028e-01  1.0004541820137026e-01  1.0004971633425302e-01  1.0006284490154528e-01  1.0005778972942912e-01  1.0006100167246801e-01  1.0007943934019624e-01  1.0006408722825390e-01  1.0008455104752359e-01  1.0007236898707804e-01  1.0010416262331956e-01  1.0004652259903084e-01  1.0017062051025960e-01  9.9946478324854232e-02  1.0036483406473139e-01  1.0011672377402088e-01  9.9457642716679062e-02  9.9717701568722547e-02  9.9941303422302077e-02  9.9926073492360934e-02  9.9879556028287006e-02  9.9942921484651365e-02  9.9907248089714448e-02  9.9915035992972051e-02  9.9924503073066079e-02  9.9923300122341366e-02  9.9920563018631517e-02  9.9930597253944944e-02  9.9929337712186053e-02  9.9930013083279076e-02  9.9935639850936994e-02  9.9936304562404779e-02  9.9936674653420196e-02  9.9940602266880604e-02  9.9941145791321628e-02  9.9942046251204300e-02  9.9944094862949057e-02  9.9945662961054255e-02  9.9944970298165847e-02  9.9949086376722479e-02  9.9945766868901428e-02  9.9953131125925299e-02  9.9942847939787846e-02  9.9964294745474136e-02  9.9925036151376684e-02  1.0000000000000003e-01  1.0001136186121860e-01  1.0000000000000003e-01  1.0000727598941089e-01  1.0001263538758304e-01  1.0001208453439282e-01  1.0001262109318511e-01  1.0001769255597175e-01  1.0001634677059694e-01  1.0001633515213590e-01  1.0002259531567685e-01  1.0001999237371463e-01  1.0001970999395458e-01  1.0003311712264268e-01  1.0002111856106924e-01  1.0003967359240198e-01  1.0004568297091423e-01  1.0004188771842386e-01  1.0004200906651936e-01  1.0005784887412715e-01  1.0004721285019239e-01  1.0005379847735885e-01  1.0006631570368579e-01  1.0006112512653502e-01  1.0005738107714440e-01  1.0008798226661758e-01  1.0004762037239215e-01  1.0010552913285664e-01  1.0002502894496555e-01  1.0017120298414238e-01  9.9910799531324965e-02  1.0038735739602068e-01  1.0012066217309415e-01  9.9331025244267845e-02  9.9812441508375177e-02  9.9982259540347562e-02  9.9809334972815911e-02  1.0000138792984502e-01  9.9907894762553573e-02  9.9932365882999016e-02  9.9937384042407082e-02  9.9938128993892275e-02  9.9928721952198318e-02  9.9945143598548947e-02  9.9940292892188642e-02  9.9940411890379929e-02  9.9947789616133223e-02  9.9948052654044300e-02  9.9947897213658252e-02  9.9953186896382287e-02  9.9953644462098257e-02  9.9953869378042653e-02  9.9957463786403716e-02  9.9957622787554393e-02  9.9959045050883724e-02  9.9959749525513564e-02  9.9963076431961909e-02  9.9959169816006957e-02  9.9968638021159517e-02  9.9955606143493733e-02  9.9979052794713974e-02  9.9942985147834174e-02  1.0000000000000003e-01  1.0001329453890867e-01  1.0000000000000003e-01  1.0000927248290542e-01  1.0001300315581119e-01  1.0001215623504497e-01  1.0001825787966795e-01  1.0001672272867623e-01  1.0001746705393535e-01  1.0002426619847804e-01  1.0002130380067698e-01  1.0002074853001049e-01  1.0003241032696582e-01  1.0002590685055578e-01  1.0003114742276728e-01  1.0003452307655168e-01  1.0004833526300412e-01  1.0004357460618338e-01  1.0006270141777328e-01  1.0005006367288853e-01  1.0005407786249079e-01  1.0007380798097711e-01  1.0005822732190978e-01  1.0006854557522357e-01  1.0007944618737877e-01  1.0007973558413637e-01  1.0005919251287475e-01  1.0012304740092237e-01  1.0002026869694459e-01  1.0019329696504889e-01  9.9895594205993768e-02  1.0045045350882044e-01  1.0023286318933687e-01  9.9241965187633924e-02  9.9757801491946546e-02  9.9921131426415372e-02  9.9891707571543864e-02  9.9888929533156076e-02  9.9918446146057757e-02  9.9922864244757020e-02  9.9932011915057448e-02  9.9905859618445836e-02  9.9936326846003093e-02  9.9925058273546349e-02  9.9924740598785464e-02  9.9935227930909643e-02  9.9934660730553904e-02  9.9933078456502747e-02  9.9941497525401463e-02  9.9941463808337766e-02  9.9941636954900742e-02  9.9946472063243585e-02  9.9947354559003790e-02  9.9947250138130439e-02  9.9951275075391768e-02  9.9950706909554696e-02  9.9953575712976014e-02  9.9951936588478493e-02  9.9959214183185055e-02  9.9948361952206993e-02  9.9970763623440123e-02  9.9933600316181356e-02  1.0000000000000003e-01  1.0001558719680771e-01  1.0000000000000003e-01  1.0000935207006566e-01  1.0001356203655626e-01  1.0001628418154655e-01  1.0001682546354712e-01  1.0001691864486056e-01  1.0002390337549229e-01  1.0002192638446958e-01  1.0002088596404911e-01  1.0003082344272995e-01  1.0002664492995708e-01  1.0002773669520394e-01  1.0003902296215823e-01  1.0003623866212810e-01  1.0002430199649005e-01  1.0006825692047933e-01  1.0004712102113397e-01  1.0005384913762572e-01  1.0007175686343940e-01  1.0005762752564926e-01  1.0005876380125879e-01  1.0008840584316260e-01  1.0005901669906406e-01  1.0008223742920172e-01  1.0007416186374048e-01  1.0010823060608383e-01  1.0001632027583358e-01  1.0021404704639382e-01  9.9858494182205812e-02  1.0050168266002939e-01  1.0022481062066127e-01  9.9265348536924425e-02  9.9704538102565063e-02  1.0001696666358986e-01  9.9868054718239757e-02  9.9894492262769932e-02  9.9885646665437977e-02  9.9963626729262678e-02  9.9889041226248726e-02  9.9952134893491917e-02  9.9923219948093930e-02  9.9925208646141642e-02  9.9937971460814984e-02  9.9937128727933561e-02  9.9932272429598359e-02  9.9944390744090617e-02  9.9942956456048948e-02  9.9942476991755597e-02  9.9949728979531791e-02  9.9949945134299639e-02  9.9950003355219280e-02  9.9954238839865664e-02  9.9955540551584232e-02  9.9954566760301122e-02  9.9959892595802652e-02  9.9956456048560280e-02  9.9964262424450126e-02  9.9953948298295264e-02  9.9975544314426290e-02  9.9940739874350037e-02  1.0000000000000003e-01  1.0001684192605226e-01  1.0000000000000003e-01  1.0000951293632607e-01  1.0001739038752140e-01  1.0001535875886741e-01  1.0001682572723741e-01  1.0002279857115309e-01  1.0002213351737527e-01  1.0002109364546699e-01  1.0003097218203218e-01  1.0002657325585358e-01  1.0002682248808466e-01  1.0004032138865240e-01  1.0003442922676230e-01  1.0003052807675004e-01  1.0005448374349477e-01  1.0002828467844312e-01  1.0005903048434289e-01  1.0007252854936453e-01  1.0005878180574680e-01  1.0006064960762458e-01  1.0008516501317999e-01  1.0006734566040031e-01  1.0006483278215901e-01  1.0010773063403454e-01  1.0005429133981975e-01  1.0011501400489391e-01  1.0003617160253420e-01  1.0020507414156359e-01  9.9851044891185001e-02  1.0055282025644702e-01  1.0020801608442284e-01  9.9206765360637841e-02  9.9758862945159635e-02  9.9993333078104804e-02  9.9830735183134234e-02  9.9938915645295778e-02  9.9900264359857813e-02  9.9856299135274898e-02  9.9962402152232163e-02  9.9911500650371826e-02  9.9922139021998868e-02  9.9929824751832805e-02  9.9933011195705718e-02  9.9922397787366182e-02  9.9939751040399982e-02  9.9936303952314093e-02  9.9934804254510790e-02  9.9943717371793583e-02  9.9944330083266822e-02  9.9943506450140385e-02  9.9950032477031922e-02  9.9950084090433655e-02  9.9950991883755599e-02  9.9953566993434384e-02  9.9956431765202566e-02  9.9953368716949431e-02  9.9962147444081953e-02  9.9951579124558640e-02  9.9972683357909362e-02  9.9938460684413324e-02  1.0000000000000003e-01  1.0001793739692683e-01  1.0000000000000003e-01  1.0001153280446065e-01  1.0001705320117694e-01  1.0001514177078688e-01  1.0002190151539558e-01  1.0002063964546473e-01  1.0002074556754871e-01  1.0002978902952812e-01  1.0002624093551819e-01  1.0002562789806982e-01  1.0003900653840520e-01  1.0003338905351207e-01  1.0003196538536810e-01  1.0005070305371873e-01  1.0003528497315331e-01  1.0004250604166892e-01  1.0004776654424181e-01  1.0006563130306170e-01  1.0005627204484766e-01  1.0009010616439426e-01  1.0006040350939385e-01  1.0007121575141421e-01  1.0009246592188341e-01  1.0008110852759627e-01  1.0005657367482454e-01  1.0014295449198876e-01  1.0000913848487400e-01  1.0021536414787222e-01  9.9855338005829380e-02  1.0056835080322062e-01  1.0027734676339768e-01  9.9144170647627733e-02  9.9730394954447271e-02  9.9965898754253060e-02  9.9882677491180225e-02  9.9937901081322625e-02  9.9865078988604708e-02  9.9928556725138326e-02  9.9880930471513821e-02  9.9937531363477092e-02  9.9921370499533660e-02  9.9941805708904610e-02  9.9914449301446134e-02  9.9942444370731506e-02  9.9934725367866642e-02  9.9932552786293566e-02  9.9943531307800662e-02  9.9943351919358117e-02  9.9941048863842002e-02  9.9949827757805379e-02  9.9950280299691427e-02  9.9949586269017315e-02  9.9955520603794867e-02  9.9954945174485943e-02  9.9957334887789573e-02  9.9956843577442306e-02  9.9963984919138466e-02  9.9953596287541802e-02  9.9974997971540469e-02  9.9941777934096018e-02  1.0000000000000003e-01  1.0001959585499198e-01  1.0000000000000003e-01  1.0001122751431887e-01  1.0001700081209283e-01  1.0001900432407605e-01  1.0002045237078186e-01  1.0001938842187914e-01  1.0002789493413240e-01  1.0002569534632910e-01  1.0002484441887058e-01  1.0003614985992382e-01  1.0003284073637354e-01  1.0003126935080778e-01  1.0004842257438439e-01  1.0003828351497245e-01  1.0003779637354768e-01  1.0005571475061087e-01  1.0004753820840766e-01  1.0002862104044065e-01  1.0009570190803754e-01  1.0006130558576956e-01  1.0006688416637938e-01  1.0010237049630895e-01  1.0006316462317172e-01  1.0008352558984759e-01  1.0009182364123217e-01  1.0011125501344398e-01  1.0001200550070324e-01  1.0024786105479126e-01  9.9822966134375579e-02  1.0059454054005278e-01  1.0028085883825485e-01  9.9157810106710695e-02  9.9691528054655643e-02  1.0001671402044079e-01  9.9868119951546250e-02  9.9903230911330534e-02  9.9914319683773553e-02  9.9914793835575680e-02  9.9885524459535857e-02  9.9895291792646876e-02  9.9956272187523967e-02  9.9900389286659327e-02  9.9947807182266701e-02  9.9928940463111418e-02  9.9928570014702567e-02  9.9940400701574159e-02  9.9941159282880040e-02  9.9935841251346816e-02  9.9947201033589270e-02  9.9946424996972899e-02  9.9945891401218040e-02  9.9952586589013723e-02  9.9953874142006238e-02  9.9952485919958506e-02  9.9958907041133027e-02  9.9956041252800706e-02  9.9962637784736880e-02  9.9954410946922798e-02  9.9974132330310286e-02  9.9941846700886849e-02  1.0000000000000003e-01  1.0002024266889972e-01  1.0000000000000003e-01  1.0001104868900246e-01  1.0002026984201086e-01  1.0001785822581104e-01  1.0001958111265069e-01  1.0002549118757990e-01  1.0002484954168675e-01  1.0002378247815094e-01  1.0003408194253051e-01  1.0003091645956273e-01  1.0002963446349517e-01  1.0004595116894230e-01  1.0003868868898606e-01  1.0003622055749836e-01  1.0005624232127927e-01  1.0004473558930717e-01  1.0003647820329818e-01  1.0007444903580304e-01  1.0003043332219073e-01  1.0007512569532594e-01  1.0009545870595603e-01  1.0007364443040864e-01  1.0006543740882994e-01  1.0012292162872621e-01  1.0005292073887342e-01  1.0011412041979074e-01  1.0004982736560376e-01  1.0021434652837151e-01  9.9821306540028867e-02  1.0063796609343111e-01  1.0026555540078057e-01  9.9133635037651130e-02  9.9725067235146528e-02  1.0001211554373540e-01  9.9835398614341916e-02  9.9948235913653968e-02  9.9905569434605185e-02  9.9896990133059596e-02  9.9914918659980478e-02  9.9920279333465034e-02  9.9870825210751552e-02  9.9964312905278213e-02  9.9921120334557550e-02  9.9932624548464188e-02  9.9936596419165469e-02  9.9942387127738758e-02  9.9932214948601758e-02  9.9947297058814097e-02  9.9945445194772692e-02  9.9943057548941741e-02  9.9951510833022159e-02  9.9952221193092536e-02  9.9952082229683020e-02  9.9956718575906545e-02  9.9959316653337196e-02  9.9956199225728473e-02  9.9965200129038784e-02  9.9955698988138775e-02  9.9974812046491598e-02  9.9944282748551050e-02  1.0000000000000003e-01  1.0002074865706281e-01  1.0000000000000003e-01  1.0001257298330153e-01  1.0001959255511488e-01  1.0001698997037141e-01  1.0002410245271533e-01  1.0002295567713555e-01  1.0002303635172898e-01  1.0003143618988541e-01  1.0002924764767512e-01  1.0002750554676042e-01  1.0004206789520481e-01  1.0003697761451337e-01  1.0003526498964171e-01  1.0005396356809590e-01  1.0004336585989093e-01  1.0003906050476966e-01  1.0006693874089230e-01  1.0004228507118382e-01  1.0004979047302212e-01  1.0006251159096280e-01  1.0007746820867046e-01  1.0006951986766022e-01  1.0011106432599175e-01  1.0007875228898962e-01  1.0005823246464292e-01  1.0015757416263234e-01  1.0000812758792688e-01  1.0021351169572366e-01  9.9862692171182474e-02  1.0060624615223980e-01  1.0030741361087482e-01  9.9091330904846633e-02  9.9718279835324650e-02  9.9986597178039899e-02  9.9870861363094393e-02  9.9942851931838966e-02  9.9878280160245164e-02  9.9929568354614945e-02  9.9918991975899915e-02  9.9894042362511995e-02  9.9925086597074178e-02  9.9897646578129912e-02  9.9944016155811388e-02  9.9928757637114660e-02  9.9948295644797888e-02  9.9925487241748781e-02  9.9948054190528740e-02  9.9943332042142397e-02  9.9940752576891390e-02  9.9950053455405974e-02  9.9950560256675119e-02  9.9947890649470433e-02  9.9956411430380518e-02  9.9955978176531374e-02  9.9957623908318916e-02  9.9958778778092186e-02  9.9965138533536280e-02  9.9955714193742828e-02  9.9975548403970466e-02  9.9945395789120622e-02  1.0000000000000003e-01  1.0002190131574250e-01  1.0000000000000003e-01  1.0001219357431046e-01  1.0001912897479089e-01  1.0002026801875394e-01  1.0002253310771771e-01  1.0002126786032305e-01  1.0002936141329014e-01  1.0002786523779056e-01  1.0002625081440471e-01  1.0003767841098948e-01  1.0003505850491075e-01  1.0003312343453380e-01  1.0005002789207723e-01  1.0004320343626892e-01  1.0003829657418434e-01  1.0006276228293456e-01  1.0004629253683769e-01  1.0004386970340616e-01  1.0007027160209510e-01  1.0005640241833053e-01  1.0002623149512790e-01  1.0012628802145682e-01  1.0006223653813238e-01  1.0008620332616346e-01  1.0010798814630949e-01  1.0010470882334276e-01  1.0001122411022915e-01  1.0026193115834969e-01  9.9820456051915266e-02  1.0060142145550832e-01  1.0032162920704719e-01  9.9108366652964616e-02  9.9687617173379983e-02  1.0002006110492798e-01  9.9869456394186845e-02  9.9916531293088084e-02  9.9910058798152693e-02  9.9929701580933714e-02  9.9893537511545477e-02  9.9930572949118932e-02  9.9920229235254746e-02  9.9907210551952452e-02  9.9905800326676106e-02  9.9963770448816422e-02  9.9916093358321967e-02  9.9954417636160683e-02  9.9940449189878058e-02  9.9939984982600413e-02  9.9949270500144183e-02  9.9950804213795097e-02  9.9946199485609163e-02  9.9954900226279050e-02  9.9955480750196141e-02  9.9954003341646558e-02  9.9961543544286560e-02  9.9959378759846701e-02  9.9964757280729608e-02  9.9958489883426621e-02  9.9976084952969474e-02  9.9947207390546439e-02  1.0000000000000003e-01  1.0002212622500491e-01  1.0000000000000003e-01  1.0001173928327713e-01  1.0002161305269283e-01  1.0001896946466754e-01  1.0002121907833231e-01  1.0002623425807190e-01  1.0002646731518169e-01  1.0002517232110432e-01  1.0003469314365865e-01  1.0003223341507833e-01  1.0003084710169186e-01  1.0004562025583046e-01  1.0004121490187205e-01  1.0003680274579949e-01  1.0005828587154736e-01  1.0004752002144235e-01  1.0004098550514749e-01  1.0007027714934769e-01  1.0005168288956409e-01  1.0003909756020196e-01  1.0009211669598636e-01  1.0003144537490943e-01  1.0007941802447495e-01  1