<?xml version="1.0"?>
<VTKFile type="UnstructuredGrid"  version="0.1"  >
<UnstructuredGrid>
<Piece  NumberOfPoints="1933" NumberOfCells="3640">
<Points>
<DataArray  type="Float64"  NumberOfComponents="3"  format="ascii">-0.475249287515411 -0.002766772457892064 0  4.524750773722518 -0.002698171633625923 0  4.524647855119805 7.497301972686003 0  -0.475352228088338 7.497233336847086 0  9.524750876919596 -0.002629678503675743 0  9.524647991768456 7.497370470842407 0  14.52475107949579 -0.002561285311290249 0  14.52464820298631 7.497438860054061 0  19.52475142996797 -0.002492947197713759 0  19.52464850585847 7.497507192333851 0  24.52475196481956 -0.002424600301046523 0  24.52464891348058 7.497575533924582 0  29.5247527096276 -0.002356170193980535 0  29.52464943431546 7.497643959894116 0  34.52475368107029 -0.002287575566672665 0  34.52465007171178 7.49771255156027 0  39.52475488871754 -0.002218729362003271 0  39.52465082356407 7.497781395775132 0  44.52475633630139 -0.002149538440289725 0  44.52465168195106 7.497850585413981 0  49.52475802242418 -0.002079902303135643 0  49.52465263259374 7.497920220696709 0  54.52475994072879 -0.002009711112151008 0  54.52465365400687 7.497990411166377 0  59.52476207954081 -0.001938843063673885 0  59.52465471622164 7.498061278284515 0  64.52476442095588 -0.001867161060737646 0  64.52465577893959 7.498132958703577 0  69.52476693927207 -0.001794508522121525 0  69.52465678894096 7.498205608364528 0  74.52476959858554 -0.001720704060796675 0  74.52465767649983 7.498279407658225 0  79.52477234922431 -0.00164553462870022 0  79.52465835045531 7.498354567996915 0  84.52477512248684 -0.001568746537095487 0  84.52465869145584 7.498431340276952 0  89.52477782278966 -0.001490033489564067 0  89.52465854269103 7.498510025885143 0  94.52478031573015 -0.00140902036333911 0  94.52465769719078 7.498590991105099 0  99.52478240949019 -0.001325240884233543 0  99.52465588051149 7.498674685985257 0  104.5247838251092 -0.001238106490276837 0  104.5246527274245 7.498761668832645 0  109.5247841476537 -0.001146862518044107 0  109.5246477513917 7.498852637208715 0  114.5247827439197 -0.001050526447142365 0  114.5246403068078 7.498948464938339 0  119.5247786203705 -0.0009478018194190429 0  119.5246295478171 7.499050240598866 0  124.5247701727614 -0.0008369624934812651 0  124.5246143976095 7.499159292706177 0  129.524754737168 -0.0007157110761325328 0  129.5245935662284 7.499277162910128 0  134.5247277737183 -0.0005810514178501104 0  134.524565709774 7.4994054365556 0  139.5246813654002 -0.0004293406155131149 0  139.5245299448092 7.499545238448491 0  144.5246014195671 -0.0002571373217987763 0  144.5244871976257 7.499696056005705 0  149.5244622947309 -6.526481709204823e-05 0  149.5244434860787 7.499853659154995 0  159.5244717418518 1.010650530716207e-18 0  164.5244363456353 -0.0001044993064728615 0  164.5244678230463 7.49987208636181 0  159.5244690697105 7.499946046465142 0  169.5244379866425 -0.0001650939861974665 0  169.5244661301916 7.499823484285136 0  174.5244554469055 -0.0001950748450765907 0  174.5244682732154 7.499799045753097 0  179.5244788233657 -0.0002027922101205111 0  179.5244741229186 7.499794117417725 0  184.524503449175 -0.0001940772099982861 0  184.5244825610432 7.499804296964892 0  189.5245271817285 -0.0001731011385989977 0  189.5244924768191 7.499826061159943 0  194.5245491115286 -0.0001428721315998728 0  194.5245030129467 7.499856721746116 0  199.5245689292411 -0.0001055781746553243 0  199.52451357616 7.499894255374897 0  204.5245866115582 -6.282896329768794e-05 0  204.5245237845002 7.499937139115724 0  209.5246022647374 -1.582479803585198e-05 0  209.5245334085276 7.499984219204543 0  214.5246160469718 3.4526300378825e-05 0  214.524542322946 7.500034613000151 0  219.5246281303958 8.752735146444414e-05 0  219.5245504710036 7.500087637612961 0  224.5246386830919 0.0001426356868766399 0  224.5245578396972 7.500142758355449 0  229.524647861193 0.0001994229023103632 0  229.5245644430597 7.500199551446378 0  234.5246558060625 0.0002575462007018994 0  234.5245703111498 7.500257676837471 0  239.5246626440007 0.0003167275849869369 0  239.524575482942 7.500316858219253 0  244.5246684871863 0.0003767385301263587 0  244.5245800018511 7.50037686814858 0  249.5246734351979 0.0004373885427264084 0  249.5245839130183 7.500437516870455 0  254.5246775768048 0.0004985165357151844 0  254.5245872617831 7.500498643849254 0  259.5246809918795 0.0005599842975605198 0  259.5245900929435 7.500560111335103 0  264.5246837533957 0.0006216715829394976 0  264.5245924505509 7.500621799515388 0  269.5246859294994 0.0006834725379858432 0  269.5245943780572 7.500683602972155 0  274.5246875856864 0.0007452933304723281 0  274.5245959186725 7.500745428307454 0  279.5246887871037 0.0008070510114486272 0  279.5245971158236 7.500807192931493 0  284.5246896009518 0.000868673818593582 0  284.5245980135963 7.500868825148214 0  289.5246900988382 0.0009301033774591645 0  289.524598657026 7.500930265831755 0  294.5246903586995 0.0009912996052037872 0  294.5245990921504 7.500991472168042 0  299.5246904652838 0.001052249598621955 0  299.5245993658002 7.501052424123614 0  304.5246905070237 0.001112982283369024 0  304.5245995255593 7.501113134468049 0  309.5246905644148 0.001173590237908888 0  309.5245996214482 7.501173663459509 0  4.524544684057044 14.99730227332991 0  -0.4754553979570023 14.99723359912539 0  9.524544794405342 14.99737075267296 0  14.52454494519286 14.99743910644303 0  19.52454514018387 14.99750740229027 0  24.5245453788281 14.9975757114354 0  29.52454565720608 14.99764410957261 0  34.52454596778399 14.99771267697929 0  39.52454629873702 14.9977814988819 0  44.52454663308846 14.99785066632003 0  49.52454694770075 14.99792027752399 0  54.52454721207426 14.99799043978884 0  59.52454738687656 14.99806127185666 0  64.52454742211569 14.99813290686008 0  69.52454725486024 14.99820549592466 0  74.52454680641561 14.99827921256931 0  79.52454597887545 14.99835425807846 0  84.52454465102032 14.99843086803368 0  89.52454267364999 14.998509320162 0  94.52453986469983 14.99858994351843 0  99.52453600498683 14.99867312865377 0  104.5245308364227 14.99875933757983 0  109.5245240662728 14.99884911057331 0  114.5245153841205 14.99894306329266 0  119.5245045032151 14.99904186077218 0  124.5244912455091 14.999146141976 0  129.5244756995954 14.99925634563433 0  134.5244584893007 14.99937234956914 0  139.5244411841137 14.99949277622004 0  144.5244268198173 14.99961373054986 0  149.5244202611514 14.9997265638638 0  164.524456501085 14.99980695398697 0  159.5244511480826 14.99983181329351 0  169.5244558216813 14.99978775692756 0  174.5244535835924 14.99977971833655 0  179.5244520325498 14.99978378864407 0  184.5244519276217 14.99979889748677 0  189.5244532960872 14.9998233665559 0  194.5244558731926 14.99985551244042 0  199.5244593201268 14.99989385864959 0  204.5244633192034 14.99993718130402 0  209.5244676074797 14.99998449142427 0  214.5244719820342 15.00003499803003 0  219.5244762937195 15.00008806977112 0  224.5244804374178 15.00014320128339 0  229.5244843423047 15.00019998568074 0  234.5244879634681 15.0002580927847 0  239.5244912751726 15.00031725214846 0  244.5244942656804 15.00037723989425 0  249.5244969333741 15.00043786851962 0  254.5244992839085 15.0004989790022 0  259.5245013281581 15.00056043469953 0  264.5245030807419 15.00062211667893 0  269.5245045589785 15.00068392023076 0  274.5245057821335 15.000745752414 0  279.5245067708631 15.00080753056394 0  284.5245075468272 15.00086918175359 0  289.5245081324572 15.0009306432307 0  294.5245085510821 15.00099186381365 0  299.524508827763 15.00105280604798 0  304.5245089916909 15.0011134484369 0  309.5245090816458 15.00117378593656 0  4.524441412548 22.49730280487606 0  -0.4755586634409816 22.49723417515483 0  9.524441491760626 22.4973712102027 0  14.52444157596538 22.49743948125655 0  19.52444166160891 22.49750769688498 0  24.52444174135139 22.49757593225868 0  29.52444180485675 22.49764426286539 0  34.5244418388155 22.49771276664428 0  39.52444182649545 22.49778152540377 0  44.52444174703894 22.49785062610046 0  49.52444157462229 22.49792016224175 0  54.52444127752229 22.49799023552772 0  59.52444081711003 22.49806095778658 0  64.52444014678881 22.49813245323613 0  69.52443921091901 22.49820486108798 0  74.52443794382718 22.49827833848869 0  79.52443626908656 22.49835306373697 0  84.52443409940898 22.4984292396079 0  89.5244313377315 22.49850709640215 0  94.52442788046248 22.49858689394919 0  99.52442362442194 22.49866892109537 0  104.5244184798416 22.49875349000139 0  109.5244123928952 22.49884092053533 0  114.5244053825316 22.49893150673954 0  119.5243975974643 22.49902545224355 0  124.524389398969 22.49912275425117 0  129.5243814711297 22.49922300703543 0  134.5243749474272 22.49932508974756 0  139.5243715124598 22.49942671285842 0  144.5243733784371 22.49952385956752 0  149.5243829428102 22.4996103792853 0  164.5244161349392 22.49973240916573 0  159.5244097873994 22.49972379898506 0  169.5244169888038 22.49973913318624 0  174.5244146517257 22.49974917140689 0  179.5244110602934 22.49976512138341 0  184.5244074564552 22.49978779114972 0  189.5244044832942 22.49981698597089 0  194.5244023844043 22.49985205109834 0  199.524401174071 22.49989218265764 0  204.5244007526604 22.49993658414214 0  209.524400976024 22.49998453440689 0  214.5244016935022 22.50003540941834 0  219.5244027665831 22.50008868185735 0  224.5244040764656 22.50014391138189 0  229.5244055256872 22.50020073196532 0  234.5244070368507 22.50025883929388 0  239.5244085501423 22.5003179794528 0  244.5244100205391 22.50037793927146 0  249.5244114151342 22.5004385383131 0  254.5244127107721 22.50049962234088 0  259.5244138920256 22.50056105805485 0  264.5244149495202 22.50062272890504 0  269.5244158785508 22.50068453181516 0  274.5244166779618 22.5007463746809 0  279.5244173492764 22.50080817452409 0  284.5244178960921 22.50086985617246 0  289.5244183238339 22.50093135127428 0  294.524418640064 22.50099259730212 0  299.52441
[...]
<PointData  Scalars="p"> 
<DataArray  type="Float64"  Name="p"  format="ascii">1.0000000000000001e-01  1.0000000000000003e-01  9.9997878432046827e-02  1.0000000000000003e-01  1.0000000000000003e-01  9.9998660732819128e-02  1.0000000000000003e-01  9.9997973133608087e-02  1.0000000000000003e-01  9.9998123596536412e-02  1.0000000000000003e-01  9.9997720739634879e-02  1.0000000000000003e-01  9.9996246980503647e-02  1.0000000000000003e-01  9.9996177214165649e-02  1.0000000000000003e-01  9.9995172685253361e-02  1.0000000000000003e-01  9.9993436946318334e-02  1.0000000000000003e-01  9.9994712968887844e-02  1.0000000000000003e-01  9.9987492370832293e-02  1.0000000000000003e-01  9.9986126240299358e-02  1.0000000000000003e-01  9.9982875311795796e-02  1.0000000000000003e-01  9.9980954126818039e-02  1.0000000000000003e-01  9.9974821586410509e-02  1.0000000000000003e-01  9.9972877728127352e-02  1.0000000000000003e-01  9.9967604476465452e-02  1.0000000000000003e-01  9.9959819364313265e-02  1.0000000000000003e-01  9.9956851027755755e-02  1.0000000000000003e-01  9.9947551915484850e-02  1.0000000000000003e-01  9.9941399060707453e-02  1.0000000000000003e-01  9.9930557608587628e-02  1.0000000000000003e-01  9.9929926715026332e-02  1.0000000000000003e-01  9.9905157339781767e-02  1.0000000000000003e-01  9.9922490161099595e-02  1.0000000000000003e-01  9.9873183664788118e-02  1.0000000000000003e-01  9.9922606617072002e-02  1.0000000000000003e-01  9.9831541376415867e-02  1.0000000000000003e-01  9.9934489946220326e-02  1.0000000000000001e-01  9.9765826056209997e-02  1.0000000000000001e-01  1.0000000000000003e-01  1.0013662371193502e-01  1.0034093788223386e-01  1.0000000000000003e-01  1.0001539171504396e-01  1.0000000000000003e-01  1.0010366320074633e-01  1.0000000000000003e-01  1.0005103553397782e-01  1.0000000000000003e-01  1.0006413841684272e-01  1.0000000000000003e-01  1.0004990373905222e-01  1.0000000000000003e-01  1.0005332444039437e-01  1.0000000000000003e-01  1.0004116781016650e-01  1.0000000000000003e-01  1.0004157650280100e-01  1.0000000000000003e-01  1.0003663795105934e-01  1.0000000000000003e-01  1.0003266725291164e-01  1.0000000000000003e-01  1.0002986418880003e-01  1.0000000000000003e-01  1.0002780132263435e-01  1.0000000000000003e-01  1.0002440837491326e-01  1.0000000000000003e-01  1.0002286212061111e-01  1.0000000000000003e-01  1.0002122126812378e-01  1.0000000000000003e-01  1.0001924740810629e-01  1.0000000000000003e-01  1.0001808181097277e-01  1.0000000000000003e-01  1.0001712331610620e-01  1.0000000000000003e-01  1.0001580303869285e-01  1.0000000000000003e-01  1.0001518913571956e-01  1.0000000000000003e-01  1.0001434377977358e-01  1.0000000000000003e-01  1.0001392906129997e-01  1.0000000000000003e-01  1.0001287298403146e-01  1.0000000000000003e-01  1.0001343596105561e-01  1.0000000000000003e-01  1.0001128270527770e-01  1.0000000000000003e-01  1.0001379114396003e-01  1.0000000000000003e-01  1.0000872020963898e-01  1.0000000000000003e-01  1.0001679648067735e-01  1.0000000000000001e-01  1.0000000000000003e-01  9.9995283210654567e-02  1.0000000000000003e-01  9.9996016328297188e-02  9.9995839703474143e-02  9.9995285118935240e-02  9.9993353869533022e-02  9.9993654981647265e-02  9.9993063776174701e-02  9.9990034984703074e-02  9.9991822357232418e-02  9.9990318697760719e-02  9.9989292933267526e-02  9.9980413809504051e-02  9.9985117571794152e-02  9.9976984526149948e-02  9.9981295984804971e-02  9.9976890299580901e-02  9.9970624261760274e-02  9.9971537119229070e-02  9.9967714403538105e-02  9.9957332426429860e-02  9.9961822639874368e-02  9.9950835843354235e-02  9.9950310111595664e-02  9.9938448089222809e-02  9.9954308608297640e-02  9.9908796169442593e-02  9.9980642395038788e-02  9.9851497201126835e-02  1.0004900165734813e-01  9.9763630352180652e-02  9.9835454490693337e-02  1.0048256587574828e-01  1.0017453144343839e-01  1.0001804481961793e-01  1.0004620205647742e-01  1.0003683518144871e-01  1.0005218985871547e-01  1.0002780625385652e-01  1.0003833964307730e-01  1.0003292154156948e-01  1.0002712518180416e-01  1.0002629313697917e-01  1.0002562902487916e-01  1.0002021968781699e-01  1.0001992702257714e-01  1.0001883433970073e-01  1.0001581040421917e-01  1.0001512842276357e-01  1.0001439057616622e-01  1.0001236141575734e-01  1.0001166542332386e-01  1.0001105731829565e-01  1.0000951053653390e-01  1.0000911878156067e-01  1.0000800308516247e-01  1.0000777754279262e-01  1.0000580469733221e-01  1.0000757341675222e-01  1.0000274606472240e-01  1.0000858209817468e-01  1.0000000000000003e-01  9.9992443893614530e-02  1.0000000000000003e-01  9.9995540692626547e-02  9.9993608359975242e-02  9.9991774222244770e-02  9.9991890583522799e-02  9.9991224470881490e-02  9.9986948453858679e-02  9.9988132031499907e-02  9.9987344605764056e-02  9.9983034988878103e-02  9.9981574594811343e-02  9.9987547556033174e-02  9.9963886341820810e-02  9.9975396739989716e-02  9.9969546109434995e-02  9.9961037843449507e-02  9.9964725431096899e-02  9.9958669016327370e-02  9.9945601836665759e-02  9.9948837425191048e-02  9.9942213179855147e-02  9.9923319493434692e-02  9.9935093141828690e-02  9.9911415068142509e-02  9.9921044590668598e-02  9.9888207348381858e-02  9.9939663996843217e-02  9.9820906576898641e-02  1.0003674284027059e-01  9.9632233157768146e-02  9.9924380063171794e-02  1.0038644844047671e-01  1.0022887681118785e-01  1.0004023759802919e-01  1.0006169927225680e-01  1.0009684086497010e-01  1.0003565413585086e-01  1.0006997001462400e-01  1.0005717295772576e-01  1.0004600206938422e-01  1.0004616671029341e-01  1.0004611438718738e-01  1.0003509062533358e-01  1.0003581382032488e-01  1.0003389280693285e-01  1.0002782937035549e-01  1.0002707967183229e-01  1.0002610233774334e-01  1.0002203925472662e-01  1.0002130259183417e-01  1.0002027388763675e-01  1.0001771538835902e-01  1.0001668639709978e-01  1.0001596404370139e-01  1.0001373729860974e-01  1.0001352494943065e-01  1.0001140098224028e-01  1.0001213995973172e-01  1.0000765644169145e-01  1.0001360079585432e-01  1.0000000000000003e-01  9.9990584912015470e-02  1.0000000000000003e-01  9.9994267088944697e-02  9.9989784028533396e-02  9.9990685378456609e-02  9.9989811558592073e-02  9.9985121995750492e-02  9.9986221193793301e-02  9.9985120299079827e-02  9.9979284862155668e-02  9.9981499305683785e-02  9.9981156259037585e-02  9.9968230646471104e-02  9.9983606754924681e-02  9.9960853609969383e-02  9.9960316831897295e-02  9.9962966871321571e-02  9.9961633508225400e-02  9.9945859893616693e-02  9.9954649655047439e-02  9.9944578376178830e-02  9.9931500303444429e-02  9.9933890032483291e-02  9.9932579959649562e-02  9.9902082339400108e-02  9.9936955739432648e-02  9.9878475685012708e-02  9.9953426268189524e-02  9.9815134854603554e-02  1.0006103794074769e-01  9.9613270282926616e-02  9.9943093004476055e-02  1.0049438312356027e-01  1.0013819812476352e-01  1.0002492713145889e-01  1.0017843192589776e-01  9.9994953673947021e-02  1.0009022215372677e-01  1.0005916179162681e-01  1.0005237222262134e-01  1.0005066208643719e-01  1.0005574639146324e-01  1.0003778568515551e-01  1.0004174721074408e-01  1.0003957300883494e-01  1.0003132842100684e-01  1.0003073716878161e-01  1.0002995406057499e-01  1.0002422272470242e-01  1.0002370296003625e-01  1.0002272031524627e-01  1.0001904143577911e-01  1.0001820468289697e-01  1.0001698373709893e-01  1.0001471545259633e-01  1.0001316475631561e-01  1.0001277962878216e-01  1.0000959898684396e-01  1.0001084359338031e-01  1.0000571086353549e-01  1.0001084234106679e-01  1.0000000000000003e-01  9.9988686713516309e-02  1.0000000000000003e-01  9.9991928991529311e-02  9.9989015631644376e-02  9.9989438361929361e-02  9.9984262056102599e-02  9.9985496457024300e-02  9.9983982309634678e-02  9.9977302582314867e-02  9.9979695871452695e-02  9.9979014006553110e-02  9.9967655970614674e-02  9.9974713751204480e-02  9.9967286047149523e-02  9.9969409935656200e-02  9.9951112786536428e-02  9.9959081358048374e-02  9.9940618064106299e-02  9.9952743581213796e-02  9.9944665139745842e-02  9.9925523549463297e-02  9.9937477723411203e-02  9.9922834593227372e-02  9.9910270420462535e-02  9.9907407841468773e-02  9.9919911560151287e-02  9.9860125552553913e-02  9.9951764364439560e-02  9.9790253096916262e-02  1.0006739430002040e-01  9.9555854594263721e-02  9.9851045527941801e-02  1.0054857279457195e-01  1.0019599318952276e-01  1.0008517569142202e-01  1.0007985603431192e-01  1.0011086622350532e-01  1.0007197730373234e-01  1.0006612438587796e-01  1.0005880052015499e-01  1.0007803321546906e-01  1.0004555042641174e-01  1.0005574262296837e-01  1.0005259671278284e-01  1.0004060209452312e-01  1.0004073613997987e-01  1.0004054302450568e-01  1.0003143802157183e-01  1.0003130110500276e-01  1.0003032654558444e-01  1.0002496857517332e-01  1.0002405961424922e-01  1.0002313939571104e-01  1.0001930597926423e-01  1.0001839285710186e-01  1.0001670907475840e-01  1.0001481556865807e-01  1.0001233024274180e-01  1.0001299863650927e-01  1.0000751163155693e-01  1.0001280047411625e-01  1.0000000000000003e-01  9.9986463042308849e-02  1.0000000000000003e-01  9.9991593641305179e-02  9.9987653837602705e-02  9.9984971186559427e-02  9.9984533005679471e-02  9.9983780188830765e-02  9.9977012115544897e-02  9.9978496094294281e-02  9.9977807067972810e-02  9.9968168215378420e-02  9.9971760399228532e-02  9.9968502385978597e-02  9.9959325369459839e-02  9.9960338075891761e-02  9.9974891727398263e-02  9.9927501155819151e-02  9.9953503732620866e-02  9.9942799624709366e-02  9.9927180234771346e-02  9.9938004817616902e-02  9.9931674588009375e-02  9.9902476638528262e-02  9.9926540194700694e-02  9.9899031619744130e-02  9.9903194518216235e-02  9.9871176043307100e-02  9.9947119437956811e-02  9.9771059310303944e-02  1.0009247176113140e-01  9.9511879128037550e-02  9.9885408350077656e-02  1.0050783663306249e-01  1.0024441353573381e-01  1.0000216493047324e-01  1.0012177125469526e-01  1.0009897918116681e-01  1.0010671432763749e-01  1.0003910960488691e-01  1.0010474867631633e-01  1.0004039004539010e-01  1.0006870737346449e-01  1.0006159902586551e-01  1.0004673689211703e-01  1.0004693968813039e-01  1.0004895087261802e-01  1.0003579232121322e-01  1.0003692398881954e-01  1.0003593400032555e-01  1.0002823688901637e-01  1.0002774131303190e-01  1.0002704570610113e-01  1.0002192888374652e-01  1.0002088432929372e-01  1.0001992768101373e-01  1.0001599877320765e-01  1.0001540153414179e-01  1.0001263448507272e-01  1.0001240919563693e-01  1.0000721714430801e-01  1.0001196067587777e-01  1.0000000000000003e-01  9.9985263998148610e-02  1.0000000000000003e-01  9.9990958480912759e-02  9.9983775510303879e-02  9.9985291611100008e-02  9.9983345497038967e-02  9.9977481414771058e-02  9.9978232603489259e-02  9.9977535783009677e-02  9.9968041660163903e-02  9.9971780996689991e-02  9.9969036721649682e-02  9.9956631766014784e-02  9.9961490035341938e-02  9.9963812269638547e-02  9.9939767022335299e-02  9.9970645195947130e-02  9.9930651731501605e-02  9.9925911168911447e-02  9.9936803840512678e-02  9.9931715136664365e-02  9.9907065294883343e-02  9.9921690537962821e-02  9.9916346419667332e-02  9.9875643400499606e-02  9.9919865999538032e-02  9.9860584017064227e-02  9.9925900391902078e-02  9.9780570314797618e-02  1.0008690292203395e-01  9.9475489148263554e-02  9.9908919525318329e-02  1.0055676428703250e-01  1.0018785245152501e-01  1.0004087714610771e-01  1.0015511851569769e-01  1.0005962335968255e-01  1.0008926192191786e-01  1.0013917527274351e-01  1.0003194138924872e-01  1.0008424509822832e-01  1.0006868687921276e-01  1.0005785205719339e-01  1.0005407890942096e-01  1.0006072786020870e-01  1.0004163877741382e-01  1.0004448413758472e-01  1.0004403460244085e-01  1.0003410228112503e-01  1.0003329958150092e-01  1.0003294914891815e-01  1.0002606590081431e-01  1.0002539909806657e-01  1.0002418394798758e-01  1.0001997500682473e-01  1.0001823397265010e-01  1.0001739550273776e-01  1.0001317489856250e-01  1.0001363396651826e-01  1.0000824241097497e-01  1.0001261425406795e-01  1.0000000000000003e-01  9.9984080083653393e-02  1.0000000000000003e-01  9.9988914191308190e-02  9.9983887976919900e-02  9.9984626076692354e-02  9.9978106872885456e-02  9.9979008805291800e-02  9.9977627938470023e-02  9.9969034300457296e-02  9.9971962921293178e-02  9.9970586017985072e-02  9.9957589227965590e-02  9.9962315762052625e-02  9.9961281517841782e-02  9.9943119071601846e-02  9.9958556705300405e-02  9.9945991112766169e-02  9.9949030189208671e-02  9.9922525847782745e-02  9.9935319741360454e-02  9.9902758843240833e-02  9.9930350823190406e-02  9.9913098183243690e-02  9.9891654969775978e-02  9.9900050849013489e-02  9.9912626014260153e-02  9.9835721590605123e-02  9.9948469133211898e-02  9.9769308029620099e-02  1.0007574729725094e-01  9.9473141227342535e-02  9.9850338944811060e-02  1.0060592654730099e-01  1.0022255304949590e-01  1.0007112998901396e-01  1.0010871717639531e-01  1.0007388960355755e-01  1.0012820921220378e-01  1.0006143762569938e-01  1.0011701146438964e-01  1.0005984037846992e-01  1.0007212543715868e-01  1.0005305469995837e-01  1.0007527561042996e-01  1.0004478848976021e-01  1.0005187065982053e-01  1.0005108537434378e-01  1.0003858022695876e-01  1.0003850150301304e-01  1.0003918088562352e-01  1.0002944446232295e-01  1.0002903281042183e-01  1.0002839336058202e-01  1.0002241791591926e-01  1.0002147133819211e-01  1.0001987891361160e-01  1.0001654779223372e-01  1.0001381261646586e-01  1.0001415538313085e-01  1.0000793172030158e-01  1.0001240977468978e-01  1.0000000000000003e-01  9.9982493097526409e-02  1.0000000000000003e-01  9.9989123289868573e-02  9.9983385275914952e-02  9.9980779441273232e-02  9.9979247387210132e-02  9.9978843265328979e-02  9.9970642330127063e-02  9.9972294684010823e-02  9.9971534582442872e-02  9.9960684173690834e-02  9.9963370006374355e-02  9.9962264431855075e-02  9.9945849329473993e-02  9.9955189290319990e-02  9.9951248881459565e-02  9.9936139112627581e-02  9.9940579929002987e-02  9.9962238020587027e-02  9.9889552361725323e-02  9.9930367785445076e-02  9.9917774948973540e-02  9.9886655064494512e-02  9.9919186336880322e-02  9.9893745498336059e-02  9.9881533963494501e-02  9.9866475733740079e-02  9.9939908067668989e-02  9.9743560915338259e-02  1.0009918194771822e-01  9.9458084405072825e-02  9.9858024283222935e-02  1.0058548592356117e-01  1.0025762862719644e-01  1.0002467225077739e-01  1.0013042558687843e-01  1.0011022496694197e-01  1.0008148705530906e-01  1.0008540935470593e-01  1.0010233662859805e-01  1.0009818245826095e-01  1.0004185215982027e-01  1.0009300312186857e-01  1.0004364745911286e-01  1.0006188403026312e-01  1.0005843692256153e-01  1.0004443532362566e-01  1.0004325899154201e-01  1.0004612494459145e-01  1.0003375423913148e-01  1.0003408142373615e-01  1.0003339127182681e-01  1.0002572724577753e-01  1.0002465670201209e-01  1.0002411640289897e-01  1.0001853516317133e-01  1.0001784787792538e-01  1.0001514165559296e-01  1.0001378789550651e-01  1.0000852916855363e-01  1.0001277705127835e-01  1.0000000000000003e-01  9.9981851124543455e-02  1.0000000000000003e-01  9.9988999193631994e-02  9.9980281256292339e-02  9.9981803539315212e-02  9.9979181745996529e-02  9.9973016620216820e-02  9.9973281439747583e-02  9.9972546691919920e-02  9.9962563011988137e-02  9.9965634316974555e-02  9.9964342085003294e-02  9.9949018552264901e-02  9.9955567520848956e-02  9.9954068644871372e-02  9.9935460733638140e-02  9.9944705509384391e-02  9.9949585116842460e-02  9.9911280492198773e-02  9.9961258582960649e-02  9.9902023456091116e-02  9.9893955442140830e-02  9.9911867150399056e-02  9.9913332507892194e-02  9.9859566200355701e-02  9.9919455666382759e-02  9.9859567493253268e-02  9.9906951096669902e-02  9.9777934078497457e-02  1.0009163947027648e-01  9.9431434212150976e-02  9.9877187417092159e-02  1.0061149763823120e-01  1.0022441915765673e-01  1.0003714465865678e-01  1.0016322974676684e-01  1.0006846482910849e-01  1.0009971676636691e-01  1.0010525523032197e-01  1.0007811175214944e-01  1.0007082330504824e-01  1.0012292105414027e-01  1.0003092077776453e-01  1.0007414493071698e-01  1.0005983674319750e-01  1.0005289405167325e-01  1.0004655695313412e-01  1.0005374691992357e-01  1.0003689261972361e-01  1.0003827592848286e-01  1.0003889497608436e-01  1.0002949477778524e-01  1.0002808142494481e-01  1.0002768580759576e-01  1.0002137772456313e-01  1.0001983074570416e-01  1.0001914589582400e-01  1.0001398695290623e-01  1.0001422476131766e-01  1.0000890005637433e-01  1.0001246215756066e-01  1.0000000000000003e-01  9.9981305903479922e-02  1.0000000000000003e-01  9.9987608521119972e-02  9.9981029032517821e-02  9.9982118526524985e-02  9.9975018039697633e-02  9.9975492399615631e-02  9.9973931707576680e-02  9.9965429801008310e-02  9.9967273635761009e-02  9.9966892591021136e-02  9.9953220687907962e-02  9.9957967938226491e-02  9.9956721759762654e-02  9.9938975892926232e-02  9.9947967979194557e-02  9.9947828263723254e-02  9.9920678994689094e-02  9.9944972663520801e-02  9.9928881328004496e-02  9.9928089673388870e-02  9.9899979542453166e-02  9.9911938583633009e-02  9.9871841666408598e-02  9.9903530685610489e-02  9.9909739610946652e-02  9.9823593221726542e-02  9.9947869723516478e-02  9.9775904879367869e-02  1.0005368473451910e-01  9.9471085222124958e-02  9.9835816432371605e-02  1.0066113075161776e-01  1.0023448666398306e-01  1.0006406357696560e-01  1.0012815625440458e-01  1.0007973969926107e-01  1.0012702608945359e-01  1.0007575399199314e-01  1.0008068991544450e-01  1.0010007119480450e-01  1.0006113608764244e-01  1.0009683097432083e-01  1.0005097499047549e-01  1.0006362083328615e-01  1.0004489145957718e-01  1.0006412401459555e-01  1.0003925935226969e-01  1.0004336299874317e-01  1.0004366712976882e-01  1.0003269300079980e-01  1.0003207396667381e-01  1.0003289509603333e-01  1.0002383101365020e-01  1.0002306766085214e-01  1.0002185744555359e-01  1.0001727268163453e-01  1.0001465519504220e-01  1.0001505557821475e-01  1.0000842886248136e-01  1.0001257064369251e-01  1.0000000000000003e-01  9.9980232889795378e-02  1.0000000000000003e-01  9.9988050597452888e-02  9.9981168536119852e-02  9.9979171935675862e-02  9.9976708556701321e-02  9.9976336787556894e-02  9.9968206925391032e-02  9.9969106405124894e-02  9.9968702627328807e-02  9.9957771712882670e-02  9.9960055779996601e-02  9.9959751269537059e-02  9.9943931402877981e-02  9.9950173538259302e-02  9.9950726653506183e-02  9.9927063759044268e-02  9.9942233611604273e-02  9.9937746221430424e-02  9.9915517667537188e-02  9.9924086918910693e-02  9.9956535462186760e-02  9.9849837707488731e-02  9.9920344681632647e-02  9.9888855998005566e-02  9.9869351965349559e-02  9.9875184996942479e-02  9.9941291724462464e-02  9.9735685941522545e-02  1.0009534057387308e-01  9.9475887248468189e-02  9.9819015357191967e-02  1.0065861107435861e-01  1.0026881149038611e-01  1.0003109965021333e-01  1.0013315251477037e-01  1.0010674242591071e-01  1.0009596971051578e-01  1.0008086895427422e-01  1.0010847601802979e-01  1.0006576017104042e-01  1.0007364623966303e-01  1.0007974590223251e-01  1.0008525148597891e-01  1.0003201174157182e-01  1.0007663593056153e-01  1.0003685234725251e-01  1.0005015584799570e-01  1.0004779474654683e-01  1.0003656728535582e-01  1.0003442597429325e-01  1.0003716875901263e-01  1.0002707568867633e-01  1.0002639815263814e-01  1.0002570132577467e-01  1.0001875833910788e-01  1.0001789218542632e-01  1.0001580789614890e-01  1.0001353580146473e-01  1.0000864674377141e-01  1.0001255636218016e-01  1.0000000000000003e-01  9.9980192990252334e-02  1.0000000000000003e-01  9.9988487228639164e-02  9.9979157162051788e-02  9.9980803199065008e-02  9.9977697779937688e-02  9.9972186574293936e-02  9.9971557028321861e-02  9.9970949534598494e-02  9.9961547801434000e-02  9.9963687658300396e-02  9.9962795650302305e-02  9.9948942170809768e-02  9.9953537781506549e-02  9.9954494701388397e-02  9.9934163780965674e-02  9.9943847696765981e-02  9.9944331582367971e-02  9.9917183051990724e-02  9.9932807002016538e-02  9.9940198906724842e-02  9.9887254657356067e-02  9.9955711786451309e-02  9.9885996675424180e-02  9