<?xml version="1.0"?>
<VTKFile type="UnstructuredGrid"  version="0.1"  >
<UnstructuredGrid>
<Piece  NumberOfPoints="1933" NumberOfCells="3640">
<Points>
<DataArray  type="Float64"  NumberOfComponents="3"  format="ascii">0.2940409990568859 -0.001776916941332833 0  5.294041054336127 -0.001741503259290771 0  5.2939879397823 7.498258639214255 0  0.2939878558708295 7.498223177827944 0  10.29404114108322 -0.001706203916369727 0  10.2939880827792 7.498293950587498 0  15.29404132024367 -0.001671035766844493 0  15.29398831162409 7.498329118692054 0  20.29404164936496 -0.001635971622053694 0  20.293988650209 7.49836417931014 0  25.29404217658527 -0.001600960030974728 0  25.29398911974461 7.498399187121316 0  30.29404294042905 -0.001565935183089885 0  30.29398973803826 7.498434209085807 0  35.29404397133434 -0.001530821739312216 0  35.29399051895927 7.498469320864993 0  40.29404529343309 -0.001495536802090699 0  40.29399147213865 7.498504605358088 0  45.29404692607753 -0.001459990148113172 0  45.29399260275019 7.498540152676929 0  50.29404888496585 -0.00142408330474554 0  50.29399391120633 7.49857606114908 0  55.29405118284605 -0.001387707747965937 0  55.29399539263531 7.49861243914087 0  60.29405382979497 -0.001350742311692312 0  60.29399703601278 7.498649407637221 0  65.29405683305679 -0.001313049765248815 0  65.29399882281066 7.498687103627756 0  70.29406019636704 -0.001274472401726188 0  70.29400072499492 7.498725684448383 0  75.29406391862594 -0.001234826359869366 0  75.29400270213858 7.498765333331788 0  80.29406799165838 -0.001193894252645016 0  80.29400469731783 7.498806266544179 0  85.29407239662302 -0.001151415469951515 0  85.29400663133063 7.49884874264296 0  90.2940770983089 -0.001107073224793215 0  90.29400839457499 7.498893074595065 0  95.29408203603015 -0.001060476969929514 0  95.29400983567898 7.49893964575443 0  100.2940871088534 -0.001011138151921318 0  100.2940107456924 7.498988930995229 0  105.2940921511682 -0.0009584362940969098 0  105.294010836379 7.499041524562989 0  110.2940968913864 -0.000901571002566945 0  110.2940097111814 7.499098176211312 0  115.2941008806235 -0.0008394936269739304 0  115.29400682833 7.499159836363594 0  120.2941033670093 -0.0007708102453126773 0  120.2940014588153 7.499227707988184 0  125.2941030701825 -0.000693646707238003 0  125.2939926509017 7.499303294472083 0  130.2940977704995 -0.000605471385872063 0  130.2939792348992 7.499388412305615 0  135.2940835513029 -0.0005028979418614146 0  135.2939599531408 7.499485091796745 0  140.2940533854474 -0.0003815951452708128 0  140.2939339156203 7.499595199418228 0  145.2939944592605 -0.0002368377222535853 0  145.29390184261 7.49971949362417 0  150.2938829342251 -6.695600636672487e-05 0  150.2938691842259 7.499855994297774 0  160.2938926261448 1.093522635737313e-18 0  165.2938252214051 -0.000134917312047631 0  165.2938823074491 7.49983892688264 0  160.2938953564913 7.499939197518319 0  170.2938041232639 -0.0002283138026978187 0  170.293868763383 7.499758790534266 0  175.2938047986922 -0.0002925788183269801 0  175.2938602785784 7.499700628364065 0  180.2938154415592 -0.0003353489217256958 0  180.29385698759 7.499660958066464 0  185.2938302033358 -0.0003620429906922344 0  185.293857708471 7.499635918533509 0  190.2938461728941 -0.0003766078183850718 0  190.2938611654074 7.499622263136336 0  195.2938619220222 -0.0003819289634009158 0  195.2938663182266 7.499617453291434 0  200.2938767790862 -0.0003801261639522502 0  200.2938724036037 7.499619549591563 0  205.2938904595197 -0.0003727705104014086 0  205.2938788917201 7.499627077147736 0  210.2939028756844 -0.0003610405603970195 0  210.2938854283334 7.499638909706873 0  215.2939140382352 -0.0003458326547605364 0  215.2938917841437 7.499654179881878 0  220.2939240046663 -0.000327838372865903 0  220.2938978161006 7.499672212434414 0  225.2939328524338 -0.0003075990350220063 0  225.2939034395892 7.499692475468517 0  230.2939406650127 -0.0002855443637833293 0  230.2939086090774 7.49971454483038 0  235.2939475248373 -0.0002620202310460965 0  235.2939133049073 7.499738078030029 0  240.2939535099434 -0.0002373088453620505 0  240.2939175243884 7.49976279497935 0  245.2939586926363 -0.0002116436493776266 0  245.2939212758646 7.499788463619101 0  250.2939631392784 -0.0001852204635049581 0  250.2939245748172 7.499814889080614 0  255.2939669107288 -0.0001582059172771763 0  255.2939274413736 7.49984190543893 0  260.2939700631779 -0.0001307438724945528 0  260.2939298987799 7.499869369406071 0  265.2939726492698 -0.0001029603049470685 0  265.2939319725486 7.49989715552528 0  270.2939747194538 -7.496693349778557e-05 0  270.2939336900781 7.499925152588893 0  275.2939763235668 -4.68637358194727e-05 0  275.2939350805815 7.499953261136584 0  280.293977512656 -1.874034166098699e-05 0  280.29393617521 7.4999813920172 0  285.2939783410297 9.323882186251017e-06 0  285.2939370072457 7.500009466132771 0  290.2939788684281 3.72614843349862e-05 0  290.2939376122296 7.500037415641741 0  295.2939791620246 6.502110954950723e-05 0  295.2939380279309 7.500065187088083 0  300.2939792974169 9.257554011743527e-05 0  300.2939382941148 7.500092747137288 0  305.2939793567364 0.0001199356494141874 0  305.2939384524919 7.500120091811749 0  310.2939794194862 0.0001471727118638436 0  310.2939385483101 7.50014726041221 0  5.293934520666729 14.99825894589076 0  0.2939344347627987 14.99822340608758 0  10.29393464667269 14.99829426136254 0  15.29393483181933 14.99832940681945 0  20.29393508607845 14.99836443845339 0  25.29393541514547 14.99839941889589 0  30.29393582185725 14.99843441754375 0  35.29393630621961 14.99846951013402 0  40.29393686490428 14.99850477866859 0  45.29393749052727 14.99854031195705 0  50.29393817077997 14.99857620679892 0  55.29393888738401 14.99861256978553 0  60.29393961479801 14.99864951973106 0  65.29394031858668 14.99868719078925 0  70.29394095334752 14.9987257363663 0  75.29394146008963 14.99876533399567 0  80.29394176295718 14.99880619139302 0  85.29394176522956 14.99884855395153 0  90.29394134461363 14.99889271394735 0  95.29394034806718 14.99893902164973 0  100.2939385868175 14.99898789826475 0  105.2939358331269 14.99903984996342 0  110.2939318219437 14.99909548072935 0  115.2939262634569 14.99915549858642 0  120.2939188773555 14.99922070343084 0  125.2939094670814 14.99929193254682 0  130.293898062543 14.99936991755294 0  135.2938851697996 14.99945496739536 0  140.2938721640839 14.99954632672026 0  145.2938618099881 14.9996409483227 0  150.2938586738481 14.99973115707555 0  165.2938922371806 14.99976650308026 0  160.2938901887485 14.99981687156564 0  170.293887305269 14.99971776994887 0  175.2938803041662 14.99967759820386 0  180.2938739480393 14.99964803050837 0  185.2938692865854 14.99962866518423 0  190.2938664933582 14.99961821817915 0  195.293865358705 14.99961523866552 0  200.2938655468852 14.99961838861876 0  205.293866716008 14.99962652728443 0  210.2938685663146 14.99963871568595 0  215.2938708537451 14.99965419260366 0  220.2938733881619 14.99967234380913 0  225.2938760258496 14.99969267301339 0  230.2938786607684 14.9997147772054 0  235.2938812164703 14.99973832669378 0  240.2938836392987 14.9997630493133 0  245.2938858929643 14.999788718048 0  250.2938879543505 14.99981514136305 0  255.2938898103273 14.99984215565562 0  260.2938914553738 14.99986961936901 0  265.2938928898028 14.99989740843287 0  270.2938941184501 14.99992541279717 0  275.2938951496861 14.99995353391514 0  280.2938959946587 14.99998168310539 0  285.2938966667195 15.00000978078234 0  290.293897181014 15.00003775657484 0  295.2938975544029 15.00006555031566 0  300.2938978060221 15.00009311369948 0  305.2938979592681 15.00012041187898 0  310.2938980465986 15.00014742296795 0  5.293880890171035 22.49825951478475 0  0.2938808088289943 22.49822395816551 0  10.29388098672624 22.49829479349993 0  15.29388110750909 22.49832987921485 0  20.29388125444411 22.49836484583744 0  25.2938814248833 22.49839976430541 0  30.29388161300967 22.4984347067076 0  35.29388181023693 22.49846974840192 0  40.29388200498212 22.49850496936421 0  45.29388218208563 22.49854045540781 0  50.29388232203073 22.49857629957474 0  55.2938824000263 22.49861260384026 0  60.29388238497913 22.49864948120414 0  65.29388223836646 22.49868705822182 0  70.29388191303592 22.49872547801871 0  75.2938813520023 22.49876490381956 0  80.29388048738706 22.49880552298783 0  85.29387923978109 22.49884755148656 0  90.29387751853174 22.49889123849646 0  95.29387522380713 22.49893687058953 0  100.2938722518295 22.49898477423006 0  105.2938685054681 22.49903531426362 0  110.2938639134821 22.49908888412885 0  115.2938584630555 22.49914588032139 0  120.2938522515412 22.4992066485361 0  125.2938455635898 22.49927138134068 0  130.2938389767749 22.49933993732176 0  135.293833487722 22.4994115421799 0  140.2938306228946 22.4994843337835 0  145.2938324405033 22.499554758284 0  150.2938412317837 22.49961701619013 0  165.2938761484721 22.49968434060211 0  160.2938686264235 22.49970158200777 0  170.2938772037227 22.49966238240359 0  175.2938742183149 22.49964151328074 0  180.2938693657317 22.49962498153573 0  185.2938641326395 22.49961413143915 0  190.2938593586266 22.499609156825 0  195.2938554262234 22.49960966876229 0  200.2938524397404 22.499615040495 0  205.2938503531181 22.49962459203695 0  210.2938490504714 22.49963767828129 0  215.2938483926557 22.49965372436577 0  220.2938482420472 22.4996722342893 0  225.2938484743027 22.49969278710752 0  230.2938489827801 22.49971502818936 0  235.2938496790826 22.49973865922389 0  240.2938504917336 22.49976342866225 0  245.2938513640996 22.49978912325562 0  250.2938522521428 22.4998155608596 0  255.2938531222975 22.49984258445498 0  260.2938539495669 22.49987005725542 0  265.2938547158935 22.49989785875552 0  270.2938554087712 22.49992588158596 0  275.2938560200876 22.49995402906036 0  280.2938565451875 22.49998221331072 0  285.2938569821669 22.50001035389353 0  290.2938573314803 22.50003837668981 0  295.2938575960304 22.50006621276832 0  300.29
[...]
<PointData  Scalars="p"> 
<DataArray  type="Float64"  Name="p"  format="ascii">1.0000000000000001e-01  1.0000000000000003e-01  9.9997412526833349e-02  1.0000000000000003e-01  1.0000000000000003e-01  9.9996295509123714e-02  1.0000000000000003e-01  9.9994408473023405e-02  1.0000000000000003e-01  9.9993141625112261e-02  1.0000000000000003e-01  9.9991724144856464e-02  1.0000000000000003e-01  9.9989897438713213e-02  1.0000000000000003e-01  9.9988716143841527e-02  1.0000000000000003e-01  9.9987460692049418e-02  1.0000000000000003e-01  9.9985446154878144e-02  1.0000000000000003e-01  9.9984201708808146e-02  1.0000000000000003e-01  9.9981006052825117e-02  1.0000000000000003e-01  9.9977624199517640e-02  1.0000000000000003e-01  9.9975112914951647e-02  1.0000000000000003e-01  9.9972657162856457e-02  1.0000000000000003e-01  9.9969069919478695e-02  1.0000000000000003e-01  9.9967288549900071e-02  1.0000000000000003e-01  9.9965120560188525e-02  1.0000000000000003e-01  9.9961603727131684e-02  1.0000000000000003e-01  9.9960972746351573e-02  1.0000000000000003e-01  9.9958422760571014e-02  1.0000000000000003e-01  9.9957170001422457e-02  1.0000000000000003e-01  9.9954809737823155e-02  1.0000000000000003e-01  9.9957331280925224e-02  1.0000000000000003e-01  9.9949965098239016e-02  1.0000000000000003e-01  9.9960018173126608e-02  1.0000000000000003e-01  9.9944218666526474e-02  1.0000000000000003e-01  9.9966248406274077e-02  1.0000000000000003e-01  9.9934706721396566e-02  1.0000000000000003e-01  9.9976142416744754e-02  1.0000000000000001e-01  9.9915575917297952e-02  1.0000000000000001e-01  1.0000000000000003e-01  1.0010158874553284e-01  1.0017172801300306e-01  1.0000000000000003e-01  1.0004470409207215e-01  1.0000000000000003e-01  1.0008289067013647e-01  1.0000000000000003e-01  1.0006557294531833e-01  1.0000000000000003e-01  1.0007245499589039e-01  1.0000000000000003e-01  1.0006839942571967e-01  1.0000000000000003e-01  1.0007238191405121e-01  1.0000000000000003e-01  1.0006903446243982e-01  1.0000000000000003e-01  1.0007042185332929e-01  1.0000000000000003e-01  1.0006981421574279e-01  1.0000000000000003e-01  1.0006909717389714e-01  1.0000000000000003e-01  1.0006850330965075e-01  1.0000000000000003e-01  1.0006823616982843e-01  1.0000000000000003e-01  1.0006712250591870e-01  1.0000000000000003e-01  1.0006656763744728e-01  1.0000000000000003e-01  1.0006593289028319e-01  1.0000000000000003e-01  1.0006510725473350e-01  1.0000000000000003e-01  1.0006432803951244e-01  1.0000000000000003e-01  1.0006393228241366e-01  1.0000000000000003e-01  1.0006280757201447e-01  1.0000000000000003e-01  1.0006277730793972e-01  1.0000000000000003e-01  1.0006120078394444e-01  1.0000000000000003e-01  1.0006225999635061e-01  1.0000000000000003e-01  1.0005872366857575e-01  1.0000000000000003e-01  1.0006341610728291e-01  1.0000000000000003e-01  1.0005399860352580e-01  1.0000000000000003e-01  1.0006847554085654e-01  1.0000000000000003e-01  1.0004323530730651e-01  1.0000000000000003e-01  1.0008675114686760e-01  1.0000000000000001e-01  1.0000000000000003e-01  9.9996495995522142e-02  1.0000000000000003e-01  9.9996101519362071e-02  9.9995752947699815e-02  9.9995209115118541e-02  9.9994087643605650e-02  9.9994071945483237e-02  9.9994002702709861e-02  9.9992525122458778e-02  9.9992970719816096e-02  9.9992559570479880e-02  9.9990135490624993e-02  9.9987724107358664e-02  9.9987104351774714e-02  9.9983591559423837e-02  9.9984670180642762e-02  9.9984099973609991e-02  9.9981259156723193e-02  9.9982604694621988e-02  9.9982762095669683e-02  9.9979121990458678e-02  9.9982653514173639e-02  9.9980613173733898e-02  9.9981728632117420e-02  9.9978819950764256e-02  9.9988146171536785e-02  9.9970320426595122e-02  1.0000099093550541e-01  9.9950031805763548e-02  1.0002751205870927e-01  9.9913573038979048e-02  9.9940080906991191e-02  1.0028778476736987e-01  1.0006802217352352e-01  1.0001674531622078e-01  1.0002315353214068e-01  1.0001881242734437e-01  1.0002951900725406e-01  1.0002087319504549e-01  1.0002606678727652e-01  1.0002646253955152e-01  1.0002533222597614e-01  1.0002561951459506e-01  1.0002661674175874e-01  1.0002506744718032e-01  1.0002515449929164e-01  1.0002528114296026e-01  1.0002430861442556e-01  1.0002417818211370e-01  1.0002408996153433e-01  1.0002358118426817e-01  1.0002313959012582e-01  1.0002352329930801e-01  1.0002226987054484e-01  1.0002348273076880e-01  1.0002110143733166e-01  1.0002472603245365e-01  1.0001768934489789e-01  1.0003016052390498e-01  1.0000842834983516e-01  1.0004205989843132e-01  1.0000000000000003e-01  9.9995190329961389e-02  1.0000000000000003e-01  9.9996346066492270e-02  9.9994409306780316e-02  9.9993155318435639e-02  9.9992628910664030e-02  9.9992562910379765e-02  9.9990323868190331e-02  9.9990747873833025e-02  9.9990967572764280e-02  9.9988062031963101e-02  9.9987782704601097e-02  9.9987765603279113e-02  9.9979481290839736e-02  9.9980213995077824e-02  9.9979043029530867e-02  9.9973901872266333e-02  9.9976381795045977e-02  9.9975826607449275e-02  9.9970774267330115e-02  9.9973829452012206e-02  9.9974711383987905e-02  9.9967951002765496e-02  9.9976026175640512e-02  9.9970196236006656e-02  9.9976426915736674e-02  9.9964927785886379e-02  9.9990765301540149e-02  9.9940064025714218e-02  1.0003081178261769e-01  9.9862456034886901e-02  9.9930006365144930e-02  1.0030352229291650e-01  1.0014084473021724e-01  1.0003382588555959e-01  1.0003579282678837e-01  1.0006059135661866e-01  1.0003504098609380e-01  1.0004950637438934e-01  1.0004962734639333e-01  1.0004706426616511e-01  1.0004816560436326e-01  1.0005093504692299e-01  1.0004771385921543e-01  1.0004852657162544e-01  1.0004903845212999e-01  1.0004715911789748e-01  1.0004695782681067e-01  1.0004719175976051e-01  1.0004577529012329e-01  1.0004568709769035e-01  1.0004542242346230e-01  1.0004495506054563e-01  1.0004402297223051e-01  1.0004516205068102e-01  1.0004242225937350e-01  1.0004587293343534e-01  1.0003982153947297e-01  1.0004964775542029e-01  1.0003097244346983e-01  1.0006655626354950e-01  1.0000000000000003e-01  9.9994457414784327e-02  1.0000000000000003e-01  9.9996267236148018e-02  9.9993678641522823e-02  9.9993672277704421e-02  9.9993675691405381e-02  9.9991502597705159e-02  9.9992168915071580e-02  9.9992860780191151e-02  9.9990207213030050e-02  9.9991441376374571e-02  9.9991935628373718e-02  9.9986517298862015e-02  9.9989012485312806e-02  9.9984520139424660e-02  9.9978842617754873e-02  9.9980999797804906e-02  9.9981702285844465e-02  9.9975611459223415e-02  9.9980814742352431e-02  9.9980453442337164e-02  9.9976019242805511e-02  9.9979732599566912e-02  9.9984286072406350e-02  9.9972533978306286e-02  9.9991342231184194e-02  9.9969576354109302e-02  1.0000375421364531e-01  9.9943049323434313e-02  1.0005147526229607e-01  9.9851654340981255e-02  9.9914502596262916e-02  1.0036343320656521e-01  1.0010214704935615e-01  1.0000233177352803e-01  1.0008038750338741e-01  1.0000172891912291e-01  1.0003634367334441e-01  1.0003106858167123e-01  1.0003024661011607e-01  1.0003055875600471e-01  1.0003682353519762e-01  1.0003150216781116e-01  1.0003390470257792e-01  1.0003512939346836e-01  1.0003284712610254e-01  1.0003294961846221e-01  1.0003358904419582e-01  1.0003184153733786e-01  1.0003170527826356e-01  1.0003208766156621e-01  1.0003076695115379e-01  1.0003112512723626e-01  1.0003045747784903e-01  1.0003115486519673e-01  1.0002878644127422e-01  1.0003293097970496e-01  1.0002542873977432e-01  1.0003769109821867e-01  1.0001741721583908e-01  1.0005031256568848e-01  1.0000000000000003e-01  9.9993697997005138e-02  1.0000000000000003e-01  9.9995715874375890e-02  9.9993785838715876e-02  9.9994371310212202e-02  9.9991468886704737e-02  9.9992240999157142e-02  9.9992432358332939e-02  9.9989761625101689e-02  9.9991244695267392e-02  9.9992221204202619e-02  9.9987579339630123e-02  9.9989720599881857e-02  9.9989070575893693e-02  9.9984382327614141e-02  9.9981878841305979e-02  9.9981714323734192e-02  9.9973998873969086e-02  9.9979142144817595e-02  9.9980120563078617e-02  9.9972221078057519e-02  9.9980413163327619e-02  9.9979144822866503e-02  9.9976009653806625e-02  9.9977489157024341e-02  9.9990303963123320e-02  9.9963399863301161e-02  1.0000954122966439e-01  9.9936333669027627e-02  1.0006275197667663e-01  9.9824044446897672e-02  9.9859188977826169e-02  1.0041900158745769e-01  1.0012106792675776e-01  1.0002622427425774e-01  1.0005893674327543e-01  1.0004254959212057e-01  1.0003706792513832e-01  1.0003626668371074e-01  1.0003164566214830e-01  1.0004591152877994e-01  1.0003551963775219e-01  1.0004048936018266e-01  1.0004275125807319e-01  1.0003967702214336e-01  1.0004016151413389e-01  1.0004186313176994e-01  1.0003907129412737e-01  1.0003918974309256e-01  1.0003961890314512e-01  1.0003809522140417e-01  1.0003777457065618e-01  1.0003844770815302e-01  1.0003679199719606e-01  1.0003792452078404e-01  1.0003609641987166e-01  1.0003890573346556e-01  1.0003316434677380e-01  1.0004360322836947e-01  1.0002459324429894e-01  1.0005848698841116e-01  1.0000000000000003e-01  9.9992779775868817e-02  1.0000000000000003e-01  9.9995843581027699e-02  9.9994068650803097e-02  9.9993004424194301e-02  9.9992733910329853e-02  9.9993105834735793e-02  9.9990304161150484e-02  9.9991363860678709e-02  9.9992829939799160e-02  9.9988849824346179e-02  9.9990808068950748e-02  9.9991729736044241e-02  9.9986115465771672e-02  9.9988273723832830e-02  9.9991215201660627e-02  9.9976550659251845e-02  9.9981615446774738e-02  9.9981502708232445e-02  9.9973248751410171e-02  9.9980687622199652e-02  9.9983463424416330e-02  9.9971867466386810e-02  9.9986383756965683e-02  9.9980164351367071e-02  9.9985667302769171e-02  9.9971387129088263e-02  1.0001636045497385e-01  9.9927447350183676e-02  1.0008435250771862e-01  9.9799995549165466e-02  9.9846004987598436e-02  1.0042079271504745e-01  1.0014440584926453e-01  9.9981691856459609e-02  1.0005668524619316e-01  1.0004433296749453e-01  1.0004839857328233e-01  1.0001220063472016e-01  1.0004621902064549e-01  1.0002290083284990e-01  1.0003431513657594e-01  1.0003671951629718e-01  1.0003314200204486e-01  1.0003385961068505e-01  1.0003747289922908e-01  1.0003348699316165e-01  1.0003422204189757e-01  1.0003531333892085e-01  1.0003281845655951e-01  1.0003290868865646e-01  1.0003328037200210e-01  1.0003220726853632e-01  1.0003155121579220e-01  1.0003311621802184e-01  1.0003021866837611e-01  1.0003402427693375e-01  1.0002792821870984e-01  1.0003838132320073e-01  1.0001999469475230e-01  1.0005186665923381e-01  1.0000000000000003e-01  9.9992266194089893e-02  1.0000000000000003e-01  9.9996075292711359e-02  9.9992637422172057e-02  9.9993731850399503e-02  9.9993467598294833e-02  9.9991119043117027e-02  9.9991319725752995e-02  9.9992790095620218e-02  9.9988779482721876e-02  9.9990867163527591e-02  9.9992313849088868e-02  9.9986482003562027e-02  9.9989371347311617e-02  9.9991836971143416e-02  9.9982742745801309e-02  9.9989857239601493e-02  9.9983829621190096e-02  9.9973261793126086e-02  9.9980275988014955e-02  9.9981552889773936e-02  9.9972272606319024e-02  9.9981052463446476e-02  9.9986867883797431e-02  9.9969126905228328e-02  9.9995233944792442e-02  9.9971150168882902e-02  1.0000962407335216e-01  9.9930542288042171e-02  1.0009524299155499e-01  9.9771350595092373e-02  9.9848269180107446e-02  1.0044913582640937e-01  1.0012503664649945e-01  9.9981400533489265e-02  1.0007339484206312e-01  1.0002423249161620e-01  1.0004456682477353e-01  1.0005768406570494e-01  1.0001785515228617e-01  1.0003643144919283e-01  1.0003540845206624e-01  1.0003441896841191e-01  1.0003356471078043e-01  1.0004006881269709e-01  1.0003451322956219e-01  1.0003620200203149e-01  1.0003797946269403e-01  1.0003520488125928e-01  1.0003508842310850e-01  1.0003612862303037e-01  1.0003385671198510e-01  1.0003421728750951e-01  1.0003406051234832e-01  1.0003408666934445e-01  1.0003229802890409e-01  1.0003587920450563e-01  1.0002970913965795e-01  1.0003999351302892e-01  1.0002222193818523e-01  1.0005374187428398e-01  1.0000000000000003e-01  9.9991902512776926e-02  1.0000000000000003e-01  9.9995318964058472e-02  9.9992905151926187e-02  9.9994360180784184e-02  9.9991629699547557e-02  9.9992334008245282e-02  9.9993081394362721e-02  9.9989349279027612e-02  9.9991087223619324e-02  9.9992551070315142e-02  9.9987205267508483e-02  9.9989901374778090e-02  9.9991964035831035e-02  9.9984451894418763e-02  9.9990328482437232e-02  9.9990873375653752e-02  9.9983734773922237e-02  9.9982251321274918e-02  9.9983703054440029e-02  9.9969993558487513e-02  9.9982642527085885e-02  9.9982492905120623e-02  9.9974496081233655e-02  9.9980663993207861e-02  9.9997426272317030e-02  9.9958576776568803e-02  1.0002270850385188e-01  9.9927213226557010e-02  1.0009784487999390e-01  9.9757272416852491e-02  9.9815143682796065e-02  1.0048134396120155e-01  1.0013205873865075e-01  9.9990137522368877e-02  1.0005012964524047e-01  1.0001643057499600e-01  1.0005568157172234e-01  1.0003347026378757e-01  1.0004675095957113e-01  1.0002548367729670e-01  1.0003405177639721e-01  1.0002540318247451e-01  1.0003902628891552e-01  1.0002987321800125e-01  1.0003321548312602e-01  1.0003587331969455e-01  1.0003262342024193e-01  1.0003285160720075e-01  1.0003473475919568e-01  1.0003197334711258e-01  1.0003177535696109e-01  1.0003286457165941e-01  1.0003062331285228e-01  1.0003178380734251e-01  1.0003037832227914e-01  1.0003292832294262e-01  1.0002747761485589e-01  1.0003765416515067e-01  1.0002009940072261e-01  1.0005055110659637e-01  1.0000000000000003e-01  9.9991224980102211e-02  1.0000000000000003e-01  9.9995495049679139e-02  9.9993268261476129e-02  9.9992875164155323e-02  9.9992373995851896e-02  9.9993687534976325e-02  9.9990249692089250e-02  9.9991427925302634e-02  9.9992748435904402e-02  9.9988149231612672e-02  9.9989798290366333e-02  9.9992052763543601e-02  9.9985045123752864e-02  9.9989411426531907e-02  9.9992333646201095e-02  9.9983754141344916e-02  9.9989185842734876e-02  9.9994716760729241e-02  9.9972560389999854e-02  9.9981730420563811e-02  9.9983934434445657e-02  9.9967682194797541e-02  9.9986781555216883e-02  9.9982143908245391e-02  9.9981393615427377e-02  9.9971268625842019e-02  1.0002513251010101e-01  9.9910630424352290e-02  1.0011573248597086e-01  9.9740389548936062e-02  9.9806883821917089e-02  1.0048033442285650e-01  1.0014924674940283e-01  9.9968034471824188e-02  1.0005127113803747e-01  1.0002864408777314e-01  1.0003531638262710e-01  1.0003241847114898e-01  1.0005122594057725e-01  1.0004402615927263e-01  1.0001786041618947e-01  1.0004213001952560e-01  1.0002521548039593e-01  1.0003281174010022e-01  1.0003531249826676e-01  1.0003213528132131e-01  1.0003210393257236e-01  1.0003565065177528e-01  1.0003193636794339e-01  1.0003251036305068e-01  1.0003347049471920e-01  1.0003151196590551e-01  1.0003088617757094e-01  1.0003260828803406e-01  1.0002963664118758e-01  1.0003292718170517e-01  1.0002800333963673e-01  1.0003706663365983e-01  1.0002059579541277e-01  1.0005025536874727e-01  1.0000000000000003e-01  9.9990975008565394e-02  1.0000000000000003e-01  9.9995750586035229e-02  9.9991917789708798e-02  9.9993388354936846e-02  9.9993285829645548e-02  9.9991186111556191e-02  9.9991664025651600e-02  9.9993185021413966e-02  9.9989056078216954e-02  9.9990323218623722e-02  9.9992403712616446e-02  9.9985557963596816e-02  9.9988772706383497e-02  9.9992166934373808e-02  9.9983646091924977e-02  9.9989438854635265e-02  9.9994680000874261e-02  9.9980383879078580e-02  9.9993510122753870e-02  9.9985428436041385e-02  9.9970082455597006e-02  9.9980825930707964e-02  9.9988126730803067e-02  9.9963873398139710e-02  9.9996858880612077e-02  9.9972672843435445e-02  1.0000768064690145e-01  9.9922900694130803e-02  1.0012205334553398e-01  9.9713436919404833e-02  9.9810344596480055e-02  1.0048843149553452e-01  1.0013623111265482e-01  9.9964925707031041e-02  1.0006371788387676e-01  1.0000944798340254e-01  1.0003280068621158e-01  1.0003795657089908e-01  1.0003680352982558e-01  1.0003594763237703e-01  1.0005320372648335e-01  1.0001657539971645e-01  1.0003305423384516e-01  1.0003039279504916e-01  1.0003071174405824e-01  1.0002883783074867e-01  1.0003456630583803e-01  1.0002990071042292e-01  1.0003089784559313e-01  1.0003290281174787e-01  1.0003025920816574e-01  1.0003042250296647e-01  1.0003080598192310e-01  1.0003006825876347e-01  1.0002842640274182e-01  1.0003196701356055e-01  1.0002615467927603e-01  1.0003550866448904e-01  1.0001968688505380e-01  1.0004801400694582e-01  1.0000000000000003e-01  9.9990806056595383e-02  1.0000000000000003e-01  9.9995085859045305e-02  9.9992132963684269e-02  9.9994061939178619e-02  9.9991338020250703e-02  9.9992191505194075e-02  9.9993075304207563e-02  9.9989930141288444e-02  9.9990979010884842e-02  9.9992956418861703e-02  9.9986844195331395e-02  9.9989000351649385e-02  9.9991482962118364e-02  9.9983752499107459e-02  9.9988792436021878e-02  9.9993183812715214e-02  9.9982085595898426e-02  9.9991724190874126e-02  9.9994163781031001e-02  9.9981932297544110e-02  9.9984349601354466e-02  9.9984906292774053e-02  9.9968144367853118e-02  9.9980870363058277e-02  9.9997552110381235e-02  9.9951454123704819e-02  1.0002409046075428e-01  9.9924989709379200e-02  1.0010412644372689e-01  9.9720651072360347e-02  9.9794056277442186e-02  1.0050005681468437e-01  1.0013679675135313e-01  9.9973807066720419e-02  1.0004993124844923e-01  1.0000786455664330e-01  1.0004321146357345e-01  1.0002361092647473e-01  1.0003113741012321e-01  1.0004410838710034e-01  1.0003712710582199e-01  1.0004250717164269e-01  1.0002447818389064e-01  1.0003192095324580e-01  1.0002395863818971e-01  1.0003488057297105e-01  1.0002768080772752e-01  1.0002986701557078e-01  1.0003225842749872e-01  1.0002973995170439e-01  1.0002961586497082e-01  1.0003177795039772e-01  1.0002885915915728e-01  1.0002976429201961e-01  1.0002886655840655e-01  1.0003054519058496e-01  1.0002580332577127e-01  1.0003498000231076e-01  1.0001924175050420e-01  1.0004683396364031e-01  1.0000000000000003e-01  9.9990316651837649e-02  1.0000000000000003e-01  9.9995192069524660e-02  9.9992510347575780e-02  9.9992605146900823e-02  9.9991862587446675e-02  9.9993357433680180e-02  9.9990288647271428e-02  9.9991228809502383e-02  9.9993092616488588e-02  9.9988421022083288e-02  9.9989629192679091e-02  9.9991752253919763e-02  9.9984625557272722e-02  9.9987591937765866e-02  9.9992156627522269e-02  9.9982316148611042e-02  9.9989409910460070e-02  9.9994605783621987e-02  9.9981942723064071e-02  9.9990515444057196e-02  1.0000063081548893e-01  9.9966520600365150e-02  9.9986994690516376e-02  9.9982489020294746e-02  9.9972759277997189e-02  9.9972432949508125e-02  1.0002505934397220e-01  9.9901428851593144e-02  1.0012061681843276e-01  9.9722508203041446e-02  9.9790227248493651e-02  1.0048457495361003e-01  1.0014624399088348e-01  9.9960716089802976e-02  1.0004824917034560e-01  1.0001749616853657e-01  1.0003062645729160e-01  1.0002031720851043e-01  1.0003941882920099e-01  1.0002878308947484e-01  1.0003425349084277e-01  1.0004350190177627e-01  1.0004150966672588e-01  1.0001644414428759e-01  1.0003654165147420e-01  1.0002280493527096e-01  1.0002855168657378e-01  1.0003047500153828e-01  1.0002812845965986e-01  1.0002791833637355e-01  1.0003082786767693e-01  1.0002836496255410e-01  1.0002820334470273e-01  1.0003011139926329e-01  1.0002686228958045e-01  1.0002956241812548e-01  1.0002547218084656e-01  1.0003314362938377e-01  1.0001857058294247e-01  1.0004503124541728e-01  1.0000000000000003e-01  9.9990116465562495e-02  1.0000000000000003e-01  9.9995376514618595e-02  9.9991269508006728e-02  9.9992895536995627e-02  9.9992565235207345e-02  9.9990956249825833e-02  9.9991112258575071e-02  9.9992782556074744e-02  9.9989072599215537e-02  9.9990209707872160e-02  9.9992147164124356e-02  9.9985936389521676e-02  9.9987501329637754e-02  9.9991321810032535e-02  9.9982404574395140e-02  9.9987185096536382e-02  9.9993420151160001e-02  9.9980908156979312e-02  9.9989845741305053e-02  9.9997861936424112e-02  9.9977565886223529e-02  9.9995926474744548e-02  9.9991041808600994e-02  9