<?xml version="1.0"?>
<VTKFile type="UnstructuredGrid"  version="0.1"  >
<UnstructuredGrid>
<Piece  NumberOfPoints="1933" NumberOfCells="3640">
<Points>
<DataArray  type="Float64"  NumberOfComponents="3"  format="ascii">-0.293537720021166 -0.003427455977630733 0  4.706462349128633 -0.003339120065437237 0  4.706329817931636 7.496661038766974 0  -0.2936702729884589 7.496572668889945 0  9.706462468069898 -0.003250900074203136 0  9.706329965541451 7.496749261803694 0  14.70646269861673 -0.003162778781395662 0  14.70633019105144 7.496837377336925 0  19.70646309086213 -0.003074700673622199 0  19.70633051081763 7.496925448226609 0  24.70646368075983 -0.00298659122399493 0  24.70633093635275 7.497013551313811 0  29.70646449183233 -0.002898365636215809 0  29.70633147364617 7.497101771917565 0  34.70646553754429 -0.002809932478937066 0  34.70633212265252 7.497190201366145 0  39.70646682327013 -0.002721194632814675 0  39.70633287690167 7.497278936479763 0  44.70646834759579 -0.002632048716429533 0  44.70633372304786 7.497368080294186 0  49.70647010294429 -0.002542383554291016 0  49.70633464018545 7.497457743630124 0  54.7064720755682 -0.002452077930633358 0  54.70633559879584 7.497548047327806 0  59.70647424492276 -0.002360997685633981 0  59.70633655919152 7.49763912511066 0  64.70647658238624 -0.002268992083657875 0  64.70633746930208 7.497731127148722 0  69.70647904920619 -0.002175889276167165 0  69.70633826160403 7.497824224484035 0  74.70648159345463 -0.002081490568211563 0  74.70633884891647 7.497918614575336 0  79.7064841456082 -0.001985563053639329 0  79.70633911866841 7.498014528331581 0  84.70648661213185 -0.001887829984331029 0  84.70633892509753 7.498112239143816 0  89.70648886602535 -0.001787957948916115 0  89.70633807861691 7.498212074600663 0  94.70649073261046 -0.001685539510249446 0  94.7063363313305 7.498314431776128 0  99.70649196760456 -0.001580069327608049 0  99.70633335740125 7.498419797169123 0  104.7064922223729 -0.001470910901889699 0  104.7063287267772 7.498528772424032 0  109.7064909872876 -0.001357249895020564 0  109.7063218710156 7.498642106532429 0  114.7064874969136 -0.001238028614836558 0  114.7063120413765 7.498760733506942 0  119.7064805673191 -0.001111855391822864 0  119.7062982637938 7.498885809685691 0  124.706468310875 -0.0009768844986023475 0  124.7062793068744 7.499018732837248 0  129.7064476273012 -0.0008306740646275774 0  129.7062537064362 7.499161097624266 0  134.7064132825292 -0.0006700729615545774 0  134.7062199518455 7.499314482450794 0  139.7063562222274 -0.0004913349283707075 0  139.7061770745915 7.499479846931509 0  144.7062604429175 -0.000291177496196917 0  144.7061261743067 7.499656152525788 0  149.7060970177989 -7.154440931305902e-05 0  149.706074095774 7.499837928741796 0  159.7061073738522 1.138736075902714e-18 0  164.70608080644 -0.0001028800068143155 0  164.7061053095177 7.499872475011545 0  159.7061023288179 7.499943490191919 0  169.7060913131984 -0.0001565857147335233 0  169.70610786718 7.499831439714899 0  174.7061168825902 -0.0001760658232521706 0  174.7061141888503 7.499817830065189 0  179.7061473784644 -0.000170781426424255 0  179.7061240224687 7.499826058164036 0  184.7061781358327 -0.0001473063561742622 0  184.7061361607483 7.499851068479761 0  189.70620710169 -0.000110314638642664 0  189.7061494455675 7.499888878771825 0  194.7062334799984 -6.316055149660935e-05 0  194.7061630049325 7.499936475805136 0  199.7062570726707 -8.274871974872281e-06 0  199.7061762523088 7.499991603659012 0  204.7062779560866 5.255921812799834e-05 0  204.706188824862 7.500052570839116 0  209.7062963224173 0.0001180152512217255 0  209.7062005184408 7.500118099770214 0  214.7063124026122 0.0001870919527001052 0  214.7062112352602 7.500187215668726 0  219.7063264299762 0.0002590223962957782 0  219.7062209459725 7.500259166208308 0  224.7063386239211 0.000333210748343944 0  224.7062296635947 7.50033336375539 0  229.7063491836852 0.0004091876957512914 0  229.7062374261724 7.500409343702073 0  234.7063582869169 0.0004865785934289413 0  234.7062442855414 7.500486734171653 0  239.7063660905638 0.0005650803592616366 0  239.7062503002187 7.500565233763219 0  244.7063727328058 0.0006444444685529105 0  244.7062555310532 7.500644595019635 0  249.7063783354077 0.0007244642745609867 0  249.706260038706 7.500724612019139 0  254.7063830062139 0.0008049654626704627 0  254.706263882345 7.500805110990514 0  259.7063868416687 0.000885798838809926 0  259.706267119138 7.500885943200653 0  264.7063899293469 0.000966834928778243 0  264.7062698042748 7.500966979614841 0  269.7063923505036 0.001047960072980548 0  269.7062719913339 7.50104810702114 0  274.7063941826904 0.001129073876684094 0  274.7062737328383 7.501129225468453 0  279.7063955024602 0.001210088050145777 0  279.7062750808857 7.501210247015746 0  284.7063963881368 0.00129092687701928 0  284.7062760877323 7.501291095944988 0  289.7063969224657 0.001371529819910341 0  289.7062768061747 7.501371710764677 0  294.7063971946973 0.001451857148802614 0  294.706277289643 7.501452048525682 0  299.7063973009383 0.001531899977460917 0  299.7062775919854 7.501532092167535 0  304.7063973402839 0.001611696553763775 0  304.7062777674324 7.501611861776098 0  309.7063974012099 0.001691355977560212 0  309.7062778724788 7.501691430940143 0  4.706197027914262 14.99666136648976 0  -0.2938030605649787 14.99657296864529 0  9.706197143340754 14.99674956077075 0  14.70619729655291 14.99683763286863 0  19.70619748948718 14.9969256611239 0  24.70619771932797 14.997013726789 0  29.7061979793774 14.99710191522725 0  34.70619825868818 14.9971903162258 0  39.70619854125737 14.99727902455713 0  44.706198805029 14.99736814104578 0  49.70619902073408 14.99745777415506 0  54.70619915051198 14.99754804207627 0  59.70619914622837 14.99763907533418 0  64.70619894739359 14.997731019966 0  69.70619847857944 14.99782404137614 0  74.70619764623865 14.9979183290105 0  79.70619633484827 14.99801410202385 0  84.70619440236176 14.99811161612073 0  89.7061916750918 14.99821117169896 0  94.70618794245128 14.99831312324877 0  99.70618295255458 14.9984178895166 0  104.7061764108094 14.99852596295857 0  109.7061679856087 14.99863791496101 0  114.7061573287001 14.99875438922847 0  119.7061441234273 14.99887606791452 0  124.7061281824871 14.99900358061259 0  129.7061096276579 14.99913730082222 0  134.7060891928035 14.99927693238108 0  139.7060686825948 14.99942072513519 0  144.7060515465194 14.99956407292406 0  149.7060432610162 14.99969708804746 0  164.7060843082724 14.9998037039908 0  159.706077331116 14.99982094838353 0  169.7060850353959 14.99979423398473 0  174.7060842692023 14.99979803479472 0  179.7060842937523 14.99981572304981 0  184.7060858271821 14.99984585945813 0  189.7060888400159 14.99988644487463 0  194.7060930179023 14.99993553857064 0  199.7060979858166 14.99999146452717 0  204.7061034028964 15.0000528462532 0  209.7061089935819 15.00011857847478 0  214.7061145501135 15.00018778144477 0  219.70611992388 15.00025975574335 0  224.7061250138026 15.00033394347596 0  229.7061297552313 15.00040989691552 0  234.7061341106039 15.00048725386563 0  239.706138062062 15.00056571854565 0  244.7061416058476 15.00064504682512 0  249.7061447481631 15.00072503482399 0  254.7061475021687 15.00080551010905 0  259.7061498858515 15.00088632491346 0  264.7061519205168 15.00096735096668 0  269.7061536297466 15.00104847565742 0  274.7061550386549 15.00112959936024 0  279.7061561733622 15.00121063384803 0  284.7061570606339 15.00129150178098 0  289.7061577276973 15.00137213729661 0  294.7061582024541 15.0014524876822 0  299.7061585144962 15.00153251591394 0  304.706158697883 15.00161220332724 0  309.7061587973595 15.00169155051807 0  4.706064166841331 22.49666193670495 0  -0.2939359145019612 22.49657360938565 0  9.706064247475673 22.49675003654253 0  14.70606432677754 22.49683800969662 0  19.70606439890626 22.4969259444905 0  24.7060644541414 22.49701392496645 0  29.706064479533 22.49710203522841 0  34.70606445879254 22.49719036179383 0  39.70606437172079 22.49727899517751 0  44.70606419339211 22.49736803132009 0  49.70606389321023 22.49745757313543 0  54.70606343387742 22.49754773229517 0  59.70606277029827 22.49763863130264 0  64.70606184843824 22.49773040588472 0  69.70606060419132 22.49782320770969 0  74.70605896237372 22.49791720741074 0  79.70605683606611 22.49801259782702 0  84.7060541267014 22.49810959724528 0  89.70605072557193 22.49820845217736 0  94.70604651786056 22.49830943875952 0  99.70604139094186 22.4984128610648 0  104.7060352496227 22.49851904325372 0  109.7060280422158 22.49862831020279 0  114.7060198027478 22.49874094756796 0  119.7060107157297 22.49885712661845 0  124.706001209511 22.49897677132706 0  129.7059920794723 22.49909933609461 0  134.7059846276598 22.49922345700367 0  139.7059807714688 22.49934645295336 0  144.7059830083119 22.49946372751855 0  149.705994022241 22.4995683758023 0  164.7060300478933 22.49972469530184 0  159.7060236668112 22.49970497483643 0  169.7060307770606 22.49974341122433 0  174.7060283402021 22.49976661452813 0  179.7060247753235 22.49979691273594 0  184.7060213519272 22.49983498754075 0  189.706018699255 22.49988047487793 0  194.7060170297079 22.49993255267946 0  199.7060163227781 22.49999026955327 0  204.7060164470994 22.5000527058605 0  209.7060172323967 22.50011904057383 0  214.7060185079 22.50018856983615 0  219.7060201204414 22.50026070298129 0  224.7060219411095 22.50033494950173 0  229.7060238659311 22.50041090359731 0  234.7060258137473 22.50048822930641 0  239.7060277230248 22.50056664739092 0  244.7060295484995 22.50064592426676 0  249.7060312580629 22.50072586289044 0  254.7060328300663 22.50080629536932 0  259.706034251046 22.50088707704029 0  264.706035513863 22.50096808178213 0  269.7060366161811 22.50104919836778 0  274.70603755925 22.50113032769791 0  279.7060383469737 22.50121138077962 0  284.7060389852793 22.5012922773019 0  289.7060394819025 22.50137294459373 0  294.7060398468024 22.50145331658038 0  299.7060400935558 22.5015333320
[...]
<PointData  Scalars="p"> 
<DataArray  type="Float64"  Name="p"  format="ascii">1.0000000000000001e-01  1.0000000000000003e-01  9.9996279292204698e-02  1.0000000000000003e-01  1.0000000000000003e-01  9.9996371151328867e-02  1.0000000000000003e-01  9.9994517300328684e-02  1.0000000000000003e-01  9.9993884723830542e-02  1.0000000000000003e-01  9.9992605747938959e-02  1.0000000000000003e-01  9.9990003084838519e-02  1.0000000000000003e-01  9.9989203115252251e-02  1.0000000000000003e-01  9.9987422636441017e-02  1.0000000000000003e-01  9.9984441884734002e-02  1.0000000000000003e-01  9.9984948378776528e-02  1.0000000000000003e-01  9.9975753253970845e-02  1.0000000000000003e-01  9.9972296779178640e-02  1.0000000000000003e-01  9.9967493792887635e-02  1.0000000000000003e-01  9.9964054618131862e-02  1.0000000000000003e-01  9.9955705313105783e-02  1.0000000000000003e-01  9.9952660152011319e-02  1.0000000000000003e-01  9.9946047024933760e-02  1.0000000000000003e-01  9.9936088564074418e-02  1.0000000000000003e-01  9.9932729955984928e-02  1.0000000000000003e-01  9.9921854866086790e-02  1.0000000000000003e-01  9.9914927961458497e-02  1.0000000000000003e-01  9.9902627520583195e-02  1.0000000000000003e-01  9.9903554950144455e-02  1.0000000000000003e-01  9.9874233339716664e-02  1.0000000000000003e-01  9.9897778927575495e-02  1.0000000000000003e-01  9.9838707826733139e-02  1.0000000000000003e-01  9.9901746163762725e-02  1.0000000000000003e-01  9.9791186496295828e-02  1.0000000000000003e-01  9.9919744313308745e-02  1.0000000000000001e-01  9.9713646783178164e-02  1.0000000000000001e-01  1.0000000000000003e-01  1.0019940728701678e-01  1.0044706400798356e-01  1.0000000000000003e-01  1.0004302067487600e-01  1.0000000000000003e-01  1.0015489059473882e-01  1.0000000000000003e-01  1.0009156098329504e-01  1.0000000000000003e-01  1.0010891671502815e-01  1.0000000000000003e-01  1.0009217579978244e-01  1.0000000000000003e-01  1.0009805761755010e-01  1.0000000000000003e-01  1.0008383228151711e-01  1.0000000000000003e-01  1.0008509838755601e-01  1.0000000000000003e-01  1.0007978431133094e-01  1.0000000000000003e-01  1.0007537046840119e-01  1.0000000000000003e-01  1.0007220042295994e-01  1.0000000000000003e-01  1.0006997245181659e-01  1.0000000000000003e-01  1.0006589125497674e-01  1.0000000000000003e-01  1.0006400210396026e-01  1.0000000000000003e-01  1.0006196896771610e-01  1.0000000000000003e-01  1.0005948486016641e-01  1.0000000000000003e-01  1.0005783771315664e-01  1.0000000000000003e-01  1.0005663463536524e-01  1.0000000000000003e-01  1.0005461927525584e-01  1.0000000000000003e-01  1.0005398668208312e-01  1.0000000000000003e-01  1.0005216700763209e-01  1.0000000000000003e-01  1.0005240691112621e-01  1.0000000000000003e-01  1.0004916532363065e-01  1.0000000000000003e-01  1.0005262832693818e-01  1.0000000000000003e-01  1.0004465487598393e-01  1.0000000000000003e-01  1.0005611036048451e-01  1.0000000000000003e-01  1.0003544047049977e-01  1.0000000000000003e-01  1.0007041040969086e-01  1.0000000000000001e-01  1.0000000000000003e-01  9.9993117712164070e-02  1.0000000000000003e-01  9.9993607042400734e-02  9.9993214944174916e-02  9.9992324234011540e-02  9.9989700043163807e-02  9.9989991342699688e-02  9.9989357320335440e-02  9.9985415625945526e-02  9.9987478100724322e-02  9.9985720393022559e-02  9.9983196347346259e-02  9.9972827650440896e-02  9.9977147479476405e-02  9.9966844243345621e-02  9.9971821596859842e-02  9.9967063723452543e-02  9.9959042463744124e-02  9.9960786398890417e-02  9.9957061015228180e-02  9.9944430047223920e-02  9.9951102154899885e-02  9.9938854547111239e-02  9.9939018789725970e-02  9.9925358647979495e-02  9.9946982893989109e-02  9.9890454525845190e-02  9.9981255129308139e-02  9.9820615687513714e-02  1.0006600589501628e-01  9.9710214772823644e-02  9.9798426205243915e-02  1.0066041545858213e-01  1.0021656699239090e-01  1.0002839314543700e-01  1.0006050997981590e-01  1.0004846048690498e-01  1.0007043185520673e-01  1.0004070526968535e-01  1.0005444836240869e-01  1.0004927493513770e-01  1.0004278006297003e-01  1.0004212566512997e-01  1.0004207786625594e-01  1.0003571110073127e-01  1.0003547231127345e-01  1.0003445791195602e-01  1.0003083298087116e-01  1.0003007046484629e-01  1.0002927811810620e-01  1.0002693457220888e-01  1.0002596572835856e-01  1.0002559479334699e-01  1.0002327341351712e-01  1.0002363128206881e-01  1.0002104393577936e-01  1.0002305850752281e-01  1.0001673689822528e-01  1.0002621309244329e-01  1.0000795487073377e-01  1.0003457591105624e-01  1.0000000000000003e-01  9.9989471578076805e-02  1.0000000000000003e-01  9.9993282556730248e-02  9.9990153201765880e-02  9.9987544265792691e-02  9.9987335143683451e-02  9.9986628189051588e-02  9.9980968746175652e-02  9.9982414118443330e-02  9.9981762417785003e-02  9.9975657433024070e-02  9.9974024373397224e-02  9.9979985636115543e-02  9.9951206855008690e-02  9.9963168227319418e-02  9.9956594272342825e-02  9.9944909279739327e-02  9.9950128758578186e-02  9.9943729272430989e-02  9.9927540757574887e-02  9.9932663416827244e-02  9.9926584392305021e-02  9.9903513867992400e-02  9.9920276927918938e-02  9.9892996134450518e-02  9.9906477274515473e-02  9.9866532628180571e-02  9.9933956848686514e-02  9.9783866586566447e-02  1.0005578507411236e-01  9.9547227146776565e-02  9.9881123499493810e-02  1.0057402435230105e-01  1.0031591777279134e-01  1.0006114128348957e-01  1.0008381810903703e-01  1.0013428525509974e-01  1.0005730861313765e-01  1.0010056410457900e-01  1.0008784202121281e-01  1.0007508717049030e-01  1.0007593265642065e-01  1.0007759188258401e-01  1.0006457745896595e-01  1.0006580307830684e-01  1.0006419843808945e-01  1.0005697360365079e-01  1.0005609963591150e-01  1.0005526689334054e-01  1.0005032847907956e-01  1.0004953742133361e-01  1.0004834518107407e-01  1.0004549791217739e-01  1.0004389296424765e-01  1.0004387463073811e-01  1.0003995470893849e-01  1.0004187501853154e-01  1.0003601123118953e-01  1.0004282306412775e-01  1.0002679790875890e-01  1.0005473382159323e-01  1.0000000000000003e-01  9.9987159677546025e-02  1.0000000000000003e-01  9.9991960258642501e-02  9.9985877617886271e-02  9.9986774901954067e-02  9.9985903136054738e-02  9.9979870959052267e-02  9.9981381715177592e-02  9.9980708381265937e-02  9.9973233518969140e-02  9.9976210335207885e-02  9.9976172535221050e-02  9.9959899548275027e-02  9.9976815593994711e-02  9.9951288239553876e-02  9.9947242153304972e-02  9.9951224884580178e-02  9.9950325430580661e-02  9.9930789061190156e-02  9.9942793232167426e-02  9.9932499016553752e-02  9.9916681897440629e-02  9.9921365288167599e-02  9.9922869501726769e-02  9.9885110576239985e-02  9.9931606168408432e-02  9.9859675066462816e-02  9.9955748738210282e-02  9.9779940341368153e-02  1.0009285077908213e-01  9.9521592494750066e-02  9.9890254135280909e-02  1.0071898300936528e-01  1.0020132307132690e-01  1.0002636641580885e-01  1.0022810859109856e-01  9.9996020423753842e-02  1.0011268028657745e-01  1.0007836039621569e-01  1.0007106280895310e-01  1.0006954597732606e-01  1.0007850195935661e-01  1.0005725276110318e-01  1.0006269929636918e-01  1.0006128198766244e-01  1.0005162703416723e-01  1.0005109933180932e-01  1.0005071141546007e-01  1.0004390019161198e-01  1.0004329636872739e-01  1.0004255009351451e-01  1.0003805508815117e-01  1.0003743982945258e-01  1.0003580632810301e-01  1.0003396913742067e-01  1.0003095482210510e-01  1.0003313117419253e-01  1.0002531409642922e-01  1.0003413717025644e-01  1.0001647487635315e-01  1.0004193639585625e-01  1.0000000000000003e-01  9.9984792184781554e-02  1.0000000000000003e-01  9.9989281587926526e-02  9.9985175411984165e-02  9.9985959925575810e-02  9.9978990203401966e-02  9.9980701578956929e-02  9.9979305656291845e-02  9.9970975974664575e-02  9.9974285421789807e-02  9.9974206929261636e-02  9.9959981220307526e-02  9.9968361291494737e-02  9.9960532453370346e-02  9.9959758227888149e-02  9.9939915559313627e-02  9.9947780735975558e-02  9.9924551097688510e-02  9.9939853478192203e-02  9.9932380216378777e-02  9.9908358261823677e-02  9.9925373678623419e-02  9.9909947107077818e-02  9.9895447172016594e-02  9.9893497415677004e-02  9.9913920825802693e-02  9.9837510182785708e-02  9.9957662220346244e-02  9.9750909369972232e-02  1.0010617736662031e-01  9.9447114639555245e-02  9.9764021819133603e-02  1.0080751293403820e-01  1.0027081034492107e-01  1.0010137964009151e-01  1.0011627648848910e-01  1.0013715892576841e-01  1.0009488287895002e-01  1.0008853462984678e-01  1.0007835546846459e-01  1.0010640451672834e-01  1.0006749975144254e-01  1.0008076353787178e-01  1.0007901558666286e-01  1.0006512118796133e-01  1.0006555490559324e-01  1.0006641345107403e-01  1.0005558320038919e-01  1.0005551968843733e-01  1.0005481040215335e-01  1.0004851088816048e-01  1.0004740394044247e-01  1.0004689980032694e-01  1.0004204324715003e-01  1.0004183019522075e-01  1.0003901670058042e-01  1.0003885951729885e-01  1.0003282603541443e-01  1.0003994594860510e-01  1.0002271052852524e-01  1.0004894644550510e-01  1.0000000000000003e-01  9.9982001143708421e-02  1.0000000000000003e-01  9.9989025121847735e-02  9.9983988404525437e-02  9.9980648360622357e-02  9.9980042849655393e-02  9.9979519806073947e-02  9.9971020844713682e-02  9.9973159427197811e-02  9.9973376353748658e-02  9.9961278614886170e-02  9.9966080423424947e-02  9.9963392125805614e-02  9.9950746178669947e-02  9.9953092479831862e-02  9.9969461824408898e-02  9.9913013253130983e-02  9.9942142274349902e-02  9.9931369329590652e-02  9.9910650407127738e-02  9.9926070703301201e-02  9.9921456228822661e-02  9.9885094373602823e-02  9.9918126804198190e-02  9.9886775329508320e-02  9.9894341134235246e-02  9.9853495877908066e-02  9.9957232265026785e-02  9.9726227030520961e-02  1.0014460250905979e-01  9.9388279308276734e-02  9.9790236684879352e-02  1.0076788145496843e-01  1.0033365225069019e-01  9.9990846782241571e-02  1.0015679925220733e-01  1.0012637375262252e-01  1.0013662083693724e-01  1.0004664682287137e-01  1.0013330886870096e-01  1.0005454004952190e-01  1.0008991173498175e-01  1.0008428949040687e-01  1.0006721654065617e-01  1.0006786325149228e-01  1.0007210750791344e-01  1.0005648574856990e-01  1.0005807199975604e-01  1.0005775651202625e-01  1.0004851765066340e-01  1.0004807808327602e-01  1.0004761223750198e-01  1.0004183236274852e-01  1.0004038255440442e-01  1.0004039319843670e-01  1.0003467369058794e-01  1.0003642855279159e-01  1.0002989413985097e-01  1.0003612918865941e-01  1.0001957400360897e-01  1.0004401510250863e-01  1.0000000000000003e-01  9.9980484708264650e-02  1.0000000000000003e-01  9.9988533162238505e-02  9.9979225858241219e-02  9.9981418224228097e-02  9.9979308759713711e-02  9.9971993772244444e-02  9.9972868693577174e-02  9.9973080518618071e-02  9.9961108622769482e-02  9.9966137606800967e-02  9.9964287444543942e-02  9.9948279432845483e-02  9.9954922670208418e-02  9.9958768139620111e-02  9.9929105088440828e-02  9.9964376167962263e-02  9.9920661519683734e-02  9.9909389486858319e-02  9.9924615743065701e-02  9.9920316078515189e-02  9.9889933690416377e-02  9.9909982588883423e-02  9.9908233008170727e-02  9.9856568950416308e-02  9.9916922914878650e-02  9.9842758344663010e-02  9.9931852942253319e-02  9.9737649752668661e-02  1.0014576393588454e-01  9.9334190937950387e-02  9.9815146586160322e-02  1.0083432379306566e-01  1.0026511939323290e-01  1.0002937850697888e-01  1.0020047204615248e-01  1.0007459479634521e-01  1.0011680084723590e-01  1.0017481992151960e-01  1.0004297245995407e-01  1.0010675654681842e-01  1.0009056638040052e-01  1.0007912011016329e-01  1.0007481964827362e-01  1.0008548817318319e-01  1.0006296591417817e-01  1.0006685534312013e-01  1.0006750431072410e-01  1.0005585744685203e-01  1.0005498310988335e-01  1.0005527557805945e-01  1.0004698841541457e-01  1.0004654469161579e-01  1.0004523274444274e-01  1.0004104012796516e-01  1.0003819388814052e-01  1.0003956876626929e-01  1.0003153510906578e-01  1.0003835026663727e-01  1.0002197569804629e-01  1.0004582755300132e-01  1.0000000000000003e-01  9.9979076061404187e-02  1.0000000000000003e-01  9.9986021621850038e-02  9.9979503686735763e-02  9.9981140986418249e-02  9.9972934761799984e-02  9.9974271785846142e-02  9.9973352762588036e-02  9.9962453372767782e-02  9.9966455619983977e-02  9.9965983318401397e-02  9.9949683936127048e-02  9.9956075963399948e-02  9.9956316315046395e-02  9.9933513114825803e-02  9.9952580672924951e-02  9.9940353041574725e-02  9.9938979486058371e-02  9.9911560912388606e-02  9.9925249471751673e-02  9.9884219365329402e-02  9.9919625376945501e-02  9.9902281362065595e-02  9.9875898856091730e-02  9.9888104088736662e-02  9.9911038544692313e-02  9.9810129216075488e-02  9.9962505648158007e-02  9.9724331443725930e-02  1.0013621862810297e-01  9.9323143003770639e-02  9.9736093664093861e-02  1.0090338724265431e-01  1.0030415917165221e-01  1.0006502971670399e-01  1.0013969133815072e-01  1.0008403922185954e-01  1.0016261581816126e-01  1.0008211800598019e-01  1.0014589940621005e-01  1.0007558569828516e-01  1.0009316557569299e-01  1.0006875089725775e-01  1.0009939082539994e-01  1.0006324739234680e-01  1.0007239557063081e-01  1.0007325293075967e-01  1.0005873951049095e-01  1.0005880216642433e-01  1.0006064543132642e-01  1.0004920264121596e-01  1.0004866891021166e-01  1.0004870269429918e-01  1.0004134228687800e-01  1.0004111316288815e-01  1.0003865223961571e-01  1.0003689724248184e-01  1.0003079363897904e-01  1.0003742582875685e-01  1.0002035318885009e-01  1.0004365106919712e-01  1.0000000000000003e-01  9.9977070438488372e-02  1.0000000000000003e-01  9.9986339489653006e-02  9.9979225367496830e-02  9.9976376947935763e-02  9.9974535073239057e-02  9.9974942686150065e-02  9.9964617806022435e-02  9.9966998027889761e-02  9.9967053875203798e-02  9.9953362113158681e-02  9.9957066573118175e-02  9.9957354138516558e-02  9.9936609794436138e-02  9.9948646994216878e-02  9.9946512820956235e-02  9.9926102246980800e-02  9.9933899438194390e-02  9.9958972543661692e-02  9.9872601755593621e-02  9.9919078678598575e-02  9.9907849224056003e-02  9.9866688199299350e-02  9.9911019916893121e-02  9.9882714088265323e-02  9.9870042161683131e-02  9.9848724237556266e-02  9.9955443155278767e-02  9.9688340564290323e-02  1.0017070462315623e-01  9.9297655139356358e-02  9.9738676207109273e-02  1.0088231801605438e-01  1.0034985497126850e-01  1.0000491089709648e-01  1.0016210520047208e-01  1.0012792130375618e-01  1.0010330691018852e-01  1.0010543955906011e-01  1.0013398995444166e-01  1.0012538580093053e-01  1.0005288642975016e-01  1.0011903558795437e-01  1.0005922713337378e-01  1.0008215877340002e-01  1.0008025728751375e-01  1.0006429231372803e-01  1.0006309716648196e-01  1.0006815507097994e-01  1.0005348905689203e-01  1.0005417139395426e-01  1.0005407472278291e-01  1.0004520047021560e-01  1.0004374348327258e-01  1.0004426757097863e-01  1.0003684999764717e-01  1.0003819656655688e-01  1.0003244747475833e-01  1.0003669516180337e-01  1.0002125738637418e-01  1.0004383552043659e-01  1.0000000000000003e-01  9.9976273986207426e-02  1.0000000000000003e-01  9.9986373309753074e-02  9.9975287021219369e-02  9.9977718068791674e-02  9.9975032912434397e-02  9.9967570713086401e-02  9.9968130685844009e-02  9.9968335873231659e-02  9.9955801359301460e-02  9.9959655255342963e-02  9.9959648720803609e-02  9.9940095827382905e-02  9.9948630656011964e-02  9.9949229397148329e-02  9.9925357346742488e-02  9.9938181060844816e-02  9.9946298961905378e-02  9.9899163322473422e-02  9.9957247524119025e-02  9.9893023832689984e-02  9.9875471736871571e-02  9.9900020771366616e-02  9.9905997942078370e-02  9.9837247910922244e-02  9.9917517630076530e-02  9.9842684983408217e-02  9.9911705027302539e-02  9.9730294290651833e-02  1.0016706819067925e-01  9.9254354264706982e-02  9.9759978041452035e-02  1.0091333147284740e-01  1.0030859913143235e-01  1.0001546295614433e-01  1.0020259990966532e-01  1.0007429663697472e-01  1.0011998201268912e-01  1.0012870691557380e-01  1.0010085091173526e-01  1.0009303495955937e-01  1.0015579619214525e-01  1.0004116023714379e-01  1.0009456876778020e-01  1.0007861604326702e-01  1.0007187054593299e-01  1.0006437612725817e-01  1.0007510632523516e-01  1.0005536891284875e-01  1.0005736895004264e-01  1.0005922710443571e-01  1.0004819336847079e-01  1.0004688134613826e-01  1.0004672279244801e-01  1.0003995899481741e-01  1.0003739759809302e-01  1.0003890104143903e-01  1.0003015018357540e-01  1.0003616913642201e-01  1.0002106649110663e-01  1.0004213537286230e-01  1.0000000000000003e-01  9.9975624353413409e-02  1.0000000000000003e-01  9.9984571963672303e-02  9.9976167666572358e-02  9.9978449284672727e-02  9.9969665853782863e-02  9.9970667567359311e-02  9.9969653043316772e-02  9.9959208177024320e-02  9.9961699887479397e-02  9.9962540776437875e-02  9.9945092664183499e-02  9.9951171760608498e-02  9.9951459761035075e-02  9.9928938102630774e-02  9.9941043844644251e-02  9.9943617852955788e-02  9.9909612664664332e-02  9.9939860268913244e-02  9.9925278362816200e-02  9.9916926838847259e-02  9.9890313696248761e-02  9.9902613791997913e-02  9.9852162813900414e-02  9.9891712131331245e-02  9.9908231082815740e-02  9.9793602436369644e-02  9.9962760562589847e-02  9.9729557573738012e-02  1.0011803806872324e-01  9.9298462777425739e-02  9.9708540462019823e-02  1.0097014310775476e-01  1.0031901647869600e-01  1.0004786940333554e-01  1.0015900440122728e-01  1.0008459367006732e-01  1.0015372395707312e-01  1.0009033885481186e-01  1.0009992779831056e-01  1.0012732510406412e-01  1.0008407584426506e-01  1.0012309604336796e-01  1.0006609854428561e-01  1.0008334381401750e-01  1.0005969474521870e-01  1.0008567698579604e-01  1.0005636317890465e-01  1.0006181848087169e-01  1.0006360061020005e-01  1.0005107028678167e-01  1.0005037495538979e-01  1.0005253239220821e-01  1.0004166473449710e-01  1.0004146107946327e-01  1.0003969616855202e-01  1.0003614903216046e-01  1.0003060126916967e-01  1.0003667313758464e-01  1.0002032015646886e-01  1.0004151453070634e-01  1.0000000000000003e-01  9.9974248956888431e-02  1.0000000000000003e-01  9.9985079635942845e-02  9.9976540364340907e-02  9.9974602694346201e-02  9.9971680386082284e-02  9.9972232428567565e-02  9.9962206692061364e-02  9.9963687011610472e-02  9.9964434978479205e-02  9.9950617979426296e-02  9.9953648294899958e-02  9.9954655642107773e-02  9.9934432916966479e-02  9.9942507489355556e-02  9.9945881402999204e-02  9.9916139385440819e-02  9.9935691543681482e-02  9.9934415636665955e-02  9.9904363438376387e-02  9.9918229859645880e-02  9.9956925532669688e-02  9.9829158725723288e-02  9.9912310284897471e-02  9.9878039725493348e-02  9.9852526043079620e-02  9.9858154461268875e-02  9.9956781766552247e-02  9.9674784376369743e-02  1.0016987920516542e-01  9.9304415916343217e-02  9.9689377229901954e-02  1.0095804788452389e-01  1.0035917683557426e-01  1.0000681361017474e-01  1.0016296209523184e-01  1.0011754742630860e-01  1.0011488858067132e-01  1.0009341902728454e-01  1.0013283060998809e-01  1.0008354215990152e-01  1.0009481034494694e-01  1.0010662559048224e-01  1.0011089947221119e-01  1.0004217068733534e-01  1.0009921473035704e-01  1.0005094225060379e-01  1.0006779790497344e-01  1.0006662555793142e-01  1.0005394811934125e-01  1.0005167755184513e-01  1.0005621852807217e-01  1.0004460353218181e-01  1.0004382656337903e-01  1.0004430909757506e-01  1.0003535831257968e-01  1.0003616119639493e-01  1.0003154921213527e-01  1.0003401840047130e-01  1.0002012323207596e-01  1.0004038608837183e-01  1.0000000000000003e-01  9.9974085299588580e-02  1.0000000000000003e-01  9.9985630201350484e-02  9.9973762324663568e-02  9.9976413250200152e-02  9.9973103738658559e-02  9.9966598696552986e-02  9.9966065455819708e-02  9.9966490185042570e-02  9.9954796505596868e-02  9.9957638764874124e-02  9.9957944041566549e-02  9.9940253509145358e-02  9.9945815601184929e-02  9.9949133378434404e-02  9.9923293518447365e-02  9.9935930715902427e-02  9.9940267762917340e-02  9.9905389439637102e-02  9.9926535331380337e-02  9.9938880223743129e-02  9.9873398793850598e-02  9.9953194648673180e-02  9.9880468570301903e-02  9