<?xml version="1.0"?>
<VTKFile type="UnstructuredGrid"  version="0.1"  >
<UnstructuredGrid>
<Piece  NumberOfPoints="1933" NumberOfCells="3640">
<Points>
<DataArray  type="Float64"  NumberOfComponents="3"  format="ascii">0.2940430255208875 -0.001846894143606537 0  5.294043084987618 -0.00181116423154202 0  5.293989498299861 7.498188989921169 0  0.2939894073638013 7.49815320746323 0  10.29404317772452 -0.001775558510662999 0  10.29398965357716 7.498224609173993 0  15.29404336992576 -0.001740097032580966 0  15.29398990256518 7.498260070896277 0  20.29404372451681 -0.001704751693755291 0  20.29399027161664 7.498295412595608 0  25.29404429444189 -0.001669467760681395 0  25.29399078428422 7.498330692561137 0  30.29404512234793 -0.001634174690723227 0  30.29399146053551 7.498365982617079 0  35.29404624220506 -0.001598791441211036 0  35.29399231617241 7.498401364178281 0  40.29404768123516 -0.001563228659585766 0  40.29399336251105 7.498436926614866 0  45.29404946158557 -0.001527388973474396 0  45.29399460615731 7.498472767190661 0  50.29405160158157 -0.001491166013093539 0  50.29399604869717 7.498508992129428 0  55.29405411653153 -0.001454442469310211 0  55.2939976861568 7.498545718581299 0  60.294057019081 -0.001417087286311645 0  60.29399950809526 7.498583077419835 0  65.29406031909926 -0.001378951942609685 0  65.29400149618094 7.498621216923123 0  70.29406402302145 -0.001339865649613377 0  70.29400362207012 7.498660307501229 0  75.29406813250129 -0.001299629165755193 0  75.29400584433597 7.498700547746486 0  80.29407264209587 -0.00125800676088726 0  80.29400810408883 7.498742172218854 0  85.29407753551588 -0.001214715641034197 0  85.29401031879074 7.498785461551125 0  90.29408277962747 -0.001169411817959577 0  90.29401237354652 7.498830755684165 0  95.29408831482432 -0.001121670924643443 0  95.2940141088889 7.498878471327782 0  100.2940940393403 -0.001070961755661484 0  100.2940153037637 7.498929125074464 0  105.2940997832181 -0.001016609242465411 0  105.2940156521272 7.498983363895659 0  110.2941052641751 -0.0009577420371127499 0  110.294014731582 7.499042004782234 0  115.2941100112129 -0.0008932178173369605 0  115.2940119634385 7.499106084440025 0  120.2941132297292 -0.0008215171069628198 0  120.2940065670493 7.499176916730486 0  125.2941135591112 -0.000740595221662259 0  125.2939975208842 7.49925614659697 0  130.2941086305329 -0.0006476869237750757 0  130.2939835665251 7.499345767323955 0  135.2940942502335 -0.0005390865312492275 0  135.2939633470025 7.499448019126092 0  140.2940628740817 -0.0004100383767829427 0  140.2939358956818 7.499564991116035 0  145.2940007154255 -0.0002553118766381902 0  145.2939019744929 7.499697619784726 0  150.2938820726038 -7.290846298764605e-05 0  150.2938674438528 7.499843970771162 0  160.2938926261446 1.032258171855669e-18 0  165.2938170722429 -0.0001486938083750513 0  165.2938810631304 7.499822755643105 0  160.2938961191416 7.499933713313578 0  170.293792452508 -0.0002525957652429689 0  170.2938654841338 7.49973330522274 0  175.2937919118657 -0.000325020621710473 0  175.2938554862785 7.499667539067926 0  180.2938024957802 -0.0003741866611563399 0  180.2938512336105 7.499621759531998 0  185.2938177669769 -0.0004059393640054926 0  185.2938514392395 7.499591816819358 0  190.2938345072854 -0.0004245437391331434 0  190.2938547067957 7.499574208749398 0  195.2938511271445 -0.0004331216100030132 0  195.2938598940958 7.499566191924249 0  200.2938668701849 -0.0004339680195758296 0  200.2938661602453 7.499565668179411 0  205.293881407909 -0.0004287848722768612 0  205.2938729193729 7.499571040742471 0  210.2938946307113 -0.000418849341182058 0  210.2938797778598 7.49958108965546 0  215.2939065391967 -0.0004051330645587562 0  215.2938864792292 7.499594874983085 0  220.2939171872933 -0.0003883859210351534 0  220.2938928619256 7.499611664757642 0  225.2939266523979 -0.0003691950157861899 0  225.2938988289001 7.499630882214866 0  230.2939350197804 -0.0003480265384074694 0  230.2939043264101 7.49965206728247 0  235.2939423745978 -0.0003252558111091399 0  235.2939093295159 7.499674848357636 0  240.293948798019 -0.0003011891533692027 0  240.2939138322808 7.499698921455462 0  245.2939543656067 -0.0002760800190308311 0  245.2939178412219 7.499724034646485 0  250.293959146958 -0.0002501410689092949 0  250.2939213709928 7.499749976318856 0  255.2939632060794 -0.0002235533070071061 0  255.2939244416079 7.499776566244521 0  260.2939666022123 -0.0001964730434296331 0  260.2939270767257 7.499803648744138 0  265.2939693909862 -0.0001690371903013738 0  265.293929302676 7.499831087474758 0  270.2939716258297 -0.0001413672044608088 0  270.2939311480081 7.499858761539167 0  275.2939733596438 -0.0001135718291192268 0  275.2939326433817 7.499886562760845 0  280.2939746467406 -8.5748626321153e-05 0  280.293933821674 7.499914394105017 0  285.2939755450427 -5.798410102539732e-05 0  285.2939347181722 7.499942169372746 0  290.2939761184202 -3.035195422653228e-05 0  290.2939353707002 7.499969814466739 0  295.2939764388653 -2.90860964464925e-06 0  295.2939358195787 7.49999727073363 0  300.2939765876061 2.431543264822108e-05 0  300.2939361073738 7.500024501121547 0  305.2939766531465 5.133065756132834e-05 0  305.2939362788407 7.500051500124457 0  310.2939767215244 7.821273300689002e-05 0  310.2939363826447 7.500078308804342 0  5.293935578261967 14.99818932230346 0  0.2939354849358069 14.99815345205925 0  10.29393571583813 14.99822494768289 0  15.29393591876911 14.99826038586142 0  20.29393619829862 14.99829569678028 0  25.29393656104951 14.99833094755096 0  30.29393701059345 14.99836621276718 0  35.29393754750124 14.99840157400835 0  40.29393816881188 14.99843711972848 0  45.29393886726189 14.99847294582351 0  50.2939396303561 14.99850915690035 0  55.29394043924751 14.9985458682265 0  60.2939412673507 14.99858320837083 0  65.29394207858978 14.99862132259737 0  70.29394282516833 14.99866037713351 0  75.29394344474397 14.99870056449482 0  80.29394385689042 14.99874211010736 0  85.29394395876822 14.99878528051605 0  90.29394362001648 14.99883039348192 0  95.29394267711349 14.99887783019479 0  100.2939409279121 14.99892804954858 0  105.2939381280062 14.99898160370593 0  110.2939339922969 14.99903915255636 0  115.2939282082263 14.99910147126441 0  120.2939204723239 14.99916943828262 0  125.2939105698102 14.99924397809764 0  130.2938985280844 14.99932590881511 0  135.2938848859498 14.99941560220038 0  140.2938711185467 14.99951229247877 0  145.2938602019698 14.9996127479547 0  150.2938570660078 14.99970872705357 0  165.2938935931672 14.99974359510154 0  160.2938915820952 14.99980026751293 0  170.2938879431838 14.99968838274608 0  175.2938800050252 14.99964226228533 0  180.2938727602071 14.99960753139266 0  185.2938673699977 14.99958380409621 0  190.2938640341536 14.99956971680996 0  195.2938625297432 14.99956371291944 0  200.2938624930459 14.99956435112424 0  205.2938635515567 14.99957040000762 0  210.2938653774929 14.99958084461423 0  215.2938677031513 14.99959486136314 0  220.2938703193231 14.99961178523825 0  225.2938730673305 14.99963107860767 0  230.2938758296124 14.99965230467414 0  235.2938785209761 14.99967510595079 0  240.2938810812155 14.9996991872092 0  245.2938834692072 14.99972430210568 0  250.2938856583366 14.99975024272795 0  255.2938876330154 14.99977683142823 0  260.2938893860788 14.99980391445174 0  265.2938909168359 14.99983135699642 0  270.2938922296313 14.99985903945315 0  275.2938933327515 14.99988685466905 0  280.2938942375931 14.99991470615829 0  285.2938949580233 14.99994250724819 0  290.2938955099263 14.9999701811815 0  295.2938959110999 14.99999766215617 0  300.2938961818439 15.00002489708288 0  305.2938963470806 15.00005184726592 0  310.2938964415067 15.00007848779166 0  5.29388142136975 22.49818994067849 0  0.2938813328742858 22.49815404774055 0  10.29388152719365 22.49822552904686 0  15.29388166062111 22.49826090432175 0  20.29388182412771 22.49829614609091 0  25.29388201518577 22.49833133077197 0  30.29388222782768 22.49836653608415 0  35.2938824531057 22.49840184334115 0  40.29388267886156 22.49843733890877 0  45.29388288910684 22.49847311552334 0  50.29388306318194 22.49850927380036 0  55.29388317476284 22.4985459240883 0  60.29388319074538 22.49858318874914 0  65.29388307001744 22.498621204925 0  70.29388276214732 22.49866012783986 0  75.29388220606138 22.49870013467515 0  80.29388132886483 22.49874142901777 0  85.29388004510611 22.49878424579225 0  90.29387825701978 22.49882885640071 0  95.29387585666484 22.49887557343234 0  100.2938727314545 22.49892475363226 0  105.2938687754392 22.49897679662084 0  110.2938639098968 22.4990321347771 0  115.2938581182544 22.49909120623069 0  120.2938515017669 22.49915439737227 0  125.2938443627027 22.49922193304708 0  130.2938373185454 22.49929368173605 0  135.2938314388278 22.49936883245732 0  140.2938283662062 22.49944540104776 0  145.2938303209219 22.49951957079262 0  150.2938397807404 22.49958507759523 0  165.2938781174615 22.49965383181622 0  160.2938698125965 22.49967455996718 0  170.2938793169161 22.49962775402072 0  175.2938760575882 22.4996026795396 0  180.2938707192279 22.49958218573577 0  185.2938649353239 22.49956777311395 0  190.2938596328644 22.49955968201999 0  195.2938552382009 22.49955751094873 0  200.2938518719002 22.49956059353127 0  205.2938494884797 22.4995682010066 0  210.2938479646841 22.49957963937397 0  215.2938471506855 22.49959428881179 0  220.2938468974531 22.49961161371666 0  225.2938470698415 22.499631159027 0  230.2938475516078 22.4996525410326 0  235.2938482461448 22.49967543672749 0  240.2938490751344 22.49969957357026 0  245.2938499763512 22.49972472039076 0  250.2938509012575 22.49975067964294 0  255.2938518127201 22.49977728095789 0  260.2938526829552 22.49980437586287 0  265.2938534917652 22.49983183351057 0  270.2938542250323 22.49985953727636 0  275.2938548734626 22.49988738210003 0  280.2938554315643 22.49991527246074 0  285.2938558968746 22.49994312085886 0  290.2938562695252 22.4999708466134 0  295.2938565523201 2
[...]
<PointData  Scalars="p"> 
<DataArray  type="Float64"  Name="p"  format="ascii">1.0000000000000001e-01  1.0000000000000003e-01  9.9997412528754340e-02  1.0000000000000003e-01  1.0000000000000003e-01  9.9996295512701922e-02  1.0000000000000003e-01  9.9994408478487326e-02  1.0000000000000003e-01  9.9993141632298443e-02  1.0000000000000003e-01  9.9991724153732142e-02  1.0000000000000003e-01  9.9989897449347498e-02  1.0000000000000003e-01  9.9988716156139745e-02  1.0000000000000003e-01  9.9987460705701539e-02  1.0000000000000003e-01  9.9985446170150011e-02  1.0000000000000003e-01  9.9984201725382360e-02  1.0000000000000003e-01  9.9981006070053904e-02  1.0000000000000003e-01  9.9977624217868974e-02  1.0000000000000003e-01  9.9975112934109753e-02  1.0000000000000003e-01  9.9972657182610489e-02  1.0000000000000003e-01  9.9969069940390218e-02  1.0000000000000003e-01  9.9967288571627663e-02  1.0000000000000003e-01  9.9965120582590924e-02  1.0000000000000003e-01  9.9961603750957126e-02  1.0000000000000003e-01  9.9960972771224094e-02  1.0000000000000003e-01  9.9958422786939935e-02  1.0000000000000003e-01  9.9957170029703724e-02  1.0000000000000003e-01  9.9954809768711753e-02  1.0000000000000003e-01  9.9957331314154990e-02  1.0000000000000003e-01  9.9949965136817184e-02  1.0000000000000003e-01  9.9960018210528856e-02  1.0000000000000003e-01  9.9944218719822425e-02  1.0000000000000003e-01  9.9966248441292441e-02  1.0000000000000003e-01  9.9934706790041489e-02  1.0000000000000003e-01  9.9976142436343909e-02  1.0000000000000001e-01  9.9915575985454974e-02  1.0000000000000001e-01  1.0000000000000003e-01  1.0010158888926594e-01  1.0017172774547910e-01  1.0000000000000003e-01  1.0004470430844804e-01  1.0000000000000003e-01  1.0008289075199941e-01  1.0000000000000003e-01  1.0006557308905838e-01  1.0000000000000003e-01  1.0007245510642834e-01  1.0000000000000003e-01  1.0006839953798638e-01  1.0000000000000003e-01  1.0007238201291786e-01  1.0000000000000003e-01  1.0006903456704978e-01  1.0000000000000003e-01  1.0007042194471497e-01  1.0000000000000003e-01  1.0006981430631764e-01  1.0000000000000003e-01  1.0006909726138442e-01  1.0000000000000003e-01  1.0006850339173111e-01  1.0000000000000003e-01  1.0006823624846356e-01  1.0000000000000003e-01  1.0006712258266665e-01  1.0000000000000003e-01  1.0006656770961217e-01  1.0000000000000003e-01  1.0006593295982855e-01  1.0000000000000003e-01  1.0006510732220880e-01  1.0000000000000003e-01  1.0006432810365597e-01  1.0000000000000003e-01  1.0006393234446183e-01  1.0000000000000003e-01  1.0006280763201000e-01  1.0000000000000003e-01  1.0006277736593912e-01  1.0000000000000003e-01  1.0006120083946156e-01  1.0000000000000003e-01  1.0006226005153615e-01  1.0000000000000003e-01  1.0005872371979739e-01  1.0000000000000003e-01  1.0006341616096390e-01  1.0000000000000003e-01  1.0005399864905491e-01  1.0000000000000003e-01  1.0006847559676234e-01  1.0000000000000003e-01  1.0004323534255183e-01  1.0000000000000003e-01  1.0008675121681462e-01  1.0000000000000001e-01  1.0000000000000003e-01  9.9996495997131854e-02  1.0000000000000003e-01  9.9996101521690181e-02  9.9995752950392078e-02  9.9995209118326989e-02  9.9994087647582858e-02  9.9994071950097463e-02  9.9994002707497850e-02  9.9992525128083515e-02  9.9992970725885366e-02  9.9992559576387363e-02  9.9990135497209864e-02  9.9987724113643817e-02  9.9987104357621134e-02  9.9983591566262603e-02  9.9984670187802785e-02  9.9984099980647112e-02  9.9981259165154018e-02  9.9982604703697978e-02  9.9982762105014764e-02  9.9979122001642634e-02  9.9982653526169057e-02  9.9980613187201306e-02  9.9981728646639484e-02  9.9978819965113361e-02  9.9988146189406837e-02  9.9970320435439325e-02  1.0000099094778392e-01  9.9950031804845657e-02  1.0002751205674063e-01  9.9913572991884469e-02  9.9940081254118310e-02  1.0028778453351694e-01  1.0006802199992308e-01  1.0001674539894836e-01  1.0002315356920466e-01  1.0001881245096139e-01  1.0002951901884641e-01  1.0002087323484800e-01  1.0002606680062828e-01  1.0002646256155014e-01  1.0002533225241468e-01  1.0002561953433918e-01  1.0002661676181850e-01  1.0002506747148358e-01  1.0002515451848175e-01  1.0002528116264280e-01  1.0002430863579048e-01  1.0002417820068388e-01  1.0002408998000212e-01  1.0002358120373213e-01  1.0002313960771382e-01  1.0002352331714437e-01  1.0002226988815678e-01  1.0002348274838957e-01  1.0002110145319847e-01  1.0002472605100766e-01  1.0001768935790320e-01  1.0003016054585656e-01  1.0000842835545279e-01  1.0004205992963446e-01  1.0000000000000003e-01  9.9995190331910191e-02  1.0000000000000003e-01  9.9996346068636291e-02  9.9994409310402141e-02  9.9993155322985180e-02  9.9992628916345416e-02  9.9992562916597666e-02  9.9990323875927808e-02  9.9990747882474695e-02  9.9990967581548809e-02  9.9988062042160097e-02  9.9987782715150991e-02  9.9987765613287524e-02  9.9979481301549558e-02  9.9980214005992996e-02  9.9979043039886320e-02  9.9973901884546912e-02  9.9976381807900555e-02  9.9975826620089886e-02  9.9970774281975594e-02  9.9973829467524242e-02  9.9974711399494945e-02  9.9967951019924617e-02  9.9976026192509004e-02  9.9970196254248550e-02  9.9976426931437684e-02  9.9964927795296768e-02  9.9990765326939957e-02  9.9940064006492496e-02  1.0003081183043441e-01  9.9862455988415949e-02  9.9930006506144864e-02  1.0030352236013461e-01  1.0014084466691349e-01  1.0003382605473582e-01  1.0003579288315238e-01  1.0006059140641965e-01  1.0003504110272365e-01  1.0004950641554634e-01  1.0004962741112258e-01  1.0004706433780258e-01  1.0004816565814990e-01  1.0005093510092242e-01  1.0004771392218424e-01  1.0004852662154658e-01  1.0004903850287468e-01  1.0004715917182787e-01  1.0004695787342023e-01  1.0004719180576702e-01  1.0004577533754237e-01  1.0004568714048721e-01  1.0004542246536965e-01  1.0004495510302194e-01  1.0004402301131787e-01  1.0004516208978689e-01  1.0004242229656544e-01  1.0004587297119975e-01  1.0003982157218774e-01  1.0004964779412899e-01  1.0003097246791733e-01  1.0006655631293437e-01  1.0000000000000003e-01  9.9994457416937368e-02  1.0000000000000003e-01  9.9996267238245673e-02  9.9993678644741152e-02  9.9993672281742801e-02  9.9993675695614154e-02  9.9991502603057308e-02  9.9992168921228239e-02  9.9992860786361396e-02  9.9990207220485350e-02  9.9991441384354243e-02  9.9991935635512300e-02  9.9986517307052089e-02  9.9989012493708090e-02  9.9984520145790887e-02  9.9978842625684988e-02  9.9980999806102019e-02  9.9981702293432867e-02  9.9975611469202488e-02  9.9980814752800296e-02  9.9980453452543125e-02  9.9976019254439830e-02  9.9979732611869987e-02  9.9984286083831919e-02  9.9972533988471640e-02  9.9991342241585221e-02  9.9969576357875220e-02  1.0000375422853318e-01  9.9943049291888755e-02  1.0005147534162429e-01  9.9851654200552212e-02  9.9914502709915226e-02  1.0036343314453718e-01  1.0010214712644365e-01  1.0000233183495486e-01  1.0008038743108510e-01  1.0000172907606580e-01  1.0003634366558901e-01  1.0003106863181729e-01  1.0003024666353787e-01  1.0003055878829276e-01  1.0003682356634847e-01  1.0003150221783107e-01  1.0003390473259428e-01  1.0003512942787385e-01  1.0003284716686101e-01  1.0003294964977001e-01  1.0003358907594649e-01  1.0003184157289972e-01  1.0003170530753080e-01  1.0003208769099459e-01  1.0003076698196908e-01  1.0003112515465745e-01  1.0003045750439396e-01  1.0003115489300339e-01  1.0002878646520845e-01  1.0003293100575579e-01  1.0002542876029040e-01  1.0003769112550083e-01  1.0001741722834522e-01  1.0005031259942489e-01  1.0000000000000003e-01  9.9993697999436151e-02  1.0000000000000003e-01  9.9995715876533983e-02  9.9993785842163299e-02  9.9994371313710417e-02  9.9991468891824323e-02  9.9992241004836280e-02  9.9992432364132522e-02  9.9989761632418739e-02  9.9991244703527285e-02  9.9992221211862575e-02  9.9987579348719186e-02  9.9989720609210117e-02  9.9989070583763690e-02  9.9984382337470840e-02  9.9981878850001454e-02  9.9981714330891563e-02  9.9973998883585269e-02  9.9979142155150774e-02  9.9980120572306500e-02  9.9972221090036145e-02  9.9980413175328589e-02  9.9979144834548048e-02  9.9976009664662427e-02  9.9977489168635358e-02  9.9990303973740036e-02  9.9963399865028446e-02  1.0000954124879349e-01  9.9936333646095651e-02  1.0006275205631435e-01  9.9824044300793974e-02  9.9859189212489111e-02  1.0041900157531687e-01  1.0012106791600581e-01  1.0002622431546074e-01  1.0005893686113682e-01  1.0004254958880654e-01  1.0003706798935073e-01  1.0003626676358993e-01  1.0003164571204694e-01  1.0004591156307395e-01  1.0003551971045488e-01  1.0004048939707064e-01  1.0004275130235490e-01  1.0003967707707113e-01  1.0004016155468270e-01  1.0004186317260429e-01  1.0003907134192350e-01  1.0003918978103993e-01  1.0003961894114409e-01  1.0003809526249466e-01  1.0003777460567874e-01  1.0003844774292869e-01  1.0003679203263752e-01  1.0003792455332217e-01  1.0003609645031798e-01  1.0003890576573553e-01  1.0003316437296818e-01  1.0004360325982248e-01  1.0002459326251424e-01  1.0005848702661022e-01  1.0000000000000003e-01  9.9992779778628443e-02  1.0000000000000003e-01  9.9995843583305544e-02  9.9994068653917217e-02  9.9993004427988363e-02  9.9992733914947882e-02  9.9993105839470742e-02  9.9990304167097255e-02  9.9991363867428018e-02  9.9992829946089504e-02  9.9988849832432128e-02  9.9990808077373983e-02  9.9991729743002897e-02  9.9986115474580500e-02  9.9988273732667513e-02  9.9991215208998757e-02  9.9976550667209479e-02  9.9981615454867612e-02  9.9981502714648812e-02  9.9973248760852354e-02  9.9980687632748338e-02  9.9983463432836442e-02  9.9971867477457219e-02  9.9986383767155032e-02  9.9980164361134535e-02  9.9985667309514970e-02  9.9971387133993186e-02  1.0001636047388077e-01  9.9927447322660193e-02  1.0008435259389885e-01  9.9799995400414385e-02  9.9846005088816955e-02  1.0042079280379981e-01  1.0014440583525262e-01  9.9981692012984832e-02  1.0005668524170204e-01  1.0004433299738001e-01  1.0004839861515333e-01  1.0001220070037570e-01  1.0004621902701159e-01  1.0002290092061183e-01  1.0003431515484792e-01  1.0003671955329616e-01  1.0003314205427841e-01  1.0003385964244442e-01  1.0003747293175758e-01  1.0003348703906757e-01  1.0003422207249167e-01  1.0003531337116940e-01  1.0003281849466676e-01  1.0003290871811273e-01  1.0003328040136887e-01  1.0003220730115781e-01  1.0003155124250017e-01  1.0003311624517881e-01  1.0003021869492838e-01  1.0003402430256583e-01  1.0002792823934673e-01  1.0003838134970211e-01  1.0001999470781846e-01  1.0005186668969961e-01  1.0000000000000003e-01  9.9992266197192634e-02  1.0000000000000003e-01  9.9996075294751130e-02  9.9992637425688161e-02  9.9993731854150142e-02  9.9993467602290692e-02  9.9991119048114960e-02  9.9991319731879413e-02  9.9992790101067569e-02  9.9988779489816590e-02  9.9990867171427633e-02  9.9992313855883572e-02  9.9986482012039052e-02  9.9989371356200715e-02  9.9991836978273962e-02  9.9982742754959594e-02  9.9989857249638991e-02  9.9983829626675888e-02  9.9973261801377111e-02  9.9980275996819648e-02  9.9981552896879905e-02  9.9972272616005817e-02  9.9981052474957990e-02  9.9986867891058762e-02  9.9969126915354853e-02  9.9995233953060800e-02  9.9971150175789558e-02  1.0000962408517339e-01  9.9930542275194545e-02  1.0009524306827750e-01  9.9771350458215322e-02  9.9848269287461391e-02  1.0044913581007296e-01  1.0012503674249380e-01  9.9981400584263205e-02  1.0007339485108574e-01  1.0002423259391395e-01  1.0004456685471579e-01  1.0005768404437264e-01  1.0001785526820942e-01  1.0003643146252071e-01  1.0003540849645601e-01  1.0003441902359730e-01  1.0003356474517749e-01  1.0004006884391740e-01  1.0003451328132411e-01  1.0003620203268770e-01  1.0003797949649532e-01  1.0003520492335689e-01  1.0003508845385617e-01  1.0003612865422166e-01  1.0003385674767122e-01  1.0003421731614516e-01  1.0003406054047306e-01  1.0003408669992715e-01  1.0003229805391683e-01  1.0003587923078980e-01  1.0002970916225108e-01  1.0003999353874460e-01  1.0002222195220212e-01  1.0005374190444452e-01  1.0000000000000003e-01  9.9991902516077549e-02  1.0000000000000003e-01  9.9995318966298916e-02  9.9992905155579057e-02  9.9994360184009312e-02  9.9991629703914411e-02  9.9992334013210463e-02  9.9993081398942474e-02  9.9989349285225015e-02  9.9991087230422424e-02  9.9992551076067721e-02  9.9987205275049881e-02  9.9989901383004995e-02  9.9991964042180775e-02  9.9984451903108243e-02  9.9990328491723318e-02  9.9990873382094600e-02  9.9983734783963829e-02  9.9982251329100533e-02  9.9983703058985129e-02  9.9969993566888571e-02  9.9982642536050326e-02  9.9982492912162851e-02  9.9974496089093923e-02  9.9980664004789194e-02  9.9997426276836943e-02  9.9958576783954076e-02  1.0002270851601035e-01  9.9927213221303310e-02  1.0009784493636878e-01  9.9757272315419740e-02  9.9815143871405526e-02  1.0048134393446879e-01  1.0013205873509080e-01  9.9990137570127507e-02  1.0005012973314702e-01  1.0001643060621701e-01  1.0005568157227693e-01  1.0003347035491891e-01  1.0004675093720562e-01  1.0002548373369258e-01  1.0003405182507709e-01  1.0002540322177279e-01  1.0003902630705448e-01  1.0002987327343563e-01  1.0003321550700087e-01  1.0003587334868201e-01  1.0003262346142625e-01  1.0003285163423256e-01  1.0003473478626226e-01  1.0003197338229027e-01  1.0003177538211090e-01  1.0003286459728969e-01  1.0003062334160984e-01  1.0003178383098765e-01  1.0003037834420238e-01  1.0003292834784198e-01  1.0002747763281532e-01  1.0003765418749569e-01  1.0002009941259042e-01  1.0005055113199739e-01  1.0000000000000003e-01  9.9991224983793717e-02  1.0000000000000003e-01  9.9995495051995925e-02  9.9993268264807020e-02  9.9992875167714518e-02  9.9992374000349604e-02  9.9993687538894108e-02  9.9990249697356967e-02  9.9991427931248059e-02  9.9992748441177393e-02  9.9988149238346383e-02  9.9989798297679428e-02  9.9992052769182924e-02  9.9985045131841532e-02  9.9989411435279951e-02  9.9992333652460477e-02  9.9983754150749837e-02  9.9989185852147389e-02  9.9994716767643266e-02  9.9972560397384905e-02  9.9981730428560331e-02  9.9983934438238900e-02  9.9967682203684891e-02  9.9986781563634552e-02  9.9982143915368388e-02  9.9981393620007478e-02  9.9971268638314820e-02  1.0002513251578059e-01  9.9910630425951705e-02  1.0011573252998027e-01  9.9740389482997349e-02  9.9806883930400353e-02  1.0048033445237699e-01  1.0014924674719812e-01  9.9968034596490951e-02  1.0005127114869411e-01  1.0002864410823253e-01  1.0003531646694844e-01  1.0003241848470247e-01  1.0005122596296748e-01  1.0004402618790242e-01  1.0001786047173354e-01  1.0004213002677778e-01  1.0002521554981940e-01  1.0003281175645534e-01  1.0003531252667251e-01  1.0003213532447050e-01  1.0003210395769720e-01  1.0003565067655738e-01  1.0003193640562072e-01  1.0003251038674436e-01  1.0003347051932114e-01  1.0003151199674233e-01  1.0003088619981659e-01  1.0003260831083309e-01  1.0002963666549579e-01  1.0003292720282592e-01  1.0002800335688029e-01  1.0003706665591859e-01  1.0002059580605673e-01  1.0005025539224138e-01  1.0000000000000003e-01  9.9990975012600042e-02  1.0000000000000003e-01  9.9995750588175711e-02  9.9991917793479990e-02  9.9993388358651375e-02  9.9993285833439513e-02  9.9991186116153055e-02  9.9991664031006414e-02  9.9993185025994691e-02  9.9989056084237762e-02  9.9990323225552680e-02  9.9992403717757139e-02  9.9985557970530894e-02  9.9988772714263943e-02  9.9992166940280916e-02  9.9983646100540002e-02  9.9989438864015651e-02  9.9994680007136572e-02  9.9980383888225915e-02  9.9993510133199015e-02  9.9985428439315058e-02  9.9970082462205068e-02  9.9980825939452747e-02  9.9988126733029703e-02  9.9963873407571041e-02  9.9996858887136261e-02  9.9972672851760883e-02  1.0000768065026601e-01  9.9922900707379331e-02  1.0012205337035895e-01  9.9713436885714560e-02  9.9810344705521373e-02  1.0048843144746579e-01  1.0013623117281659e-01  9.9964925755009218e-02  1.0006371788912004e-01  1.0000944807269731e-01  1.0003280069803529e-01  1.0003795658795434e-01  1.0003680358942817e-01  1.0003594765937152e-01  1.0005320370288444e-01  1.0001657548883093e-01  1.0003305424010822e-01  1.0003039282801639e-01  1.0003071178283848e-01  1.0002883785498337e-01  1.0003456632555664e-01  1.0002990074845249e-01  1.0003089786572639e-01  1.0003290283411946e-01  1.0003025923828097e-01  1.0003042252345110e-01  1.0003080600218457e-01  1.0003006828385443e-01  1.0002842642047166e-01  1.0003196703266519e-01  1.0002615469639256e-01  1.0003550868261800e-01  1.0001968689408064e-01  1.0004801402747950e-01  1.0000000000000003e-01  9.9990806060883550e-02  1.0000000000000003e-01  9.9995085861453892e-02  9.9992132967761924e-02  9.9994061942449045e-02  9.9991338024663437e-02  9.9992191510020118e-02  9.9993075308603768e-02  9.9989930146785144e-02  9.9990979017189632e-02  9.9992956423864368e-02  9.9986844202043026e-02  9.9989000358878408e-02  9.9991482967235493e-02  9.9983752506900850e-02  9.9988792445053765e-02  9.9993183818733955e-02  9.9982085605147694e-02  9.9991724201033166e-02  9.9994163786046406e-02  9.9981932307685761e-02  9.9984349608657000e-02  9.9984906295119039e-02  9.9968144373751386e-02  9.9980870373690411e-02  9.9997552109881663e-02  9.9951454135459514e-02  1.0002409046631169e-01  9.9924989722591576e-02  1.0010412645602182e-01  9.9720651073355870e-02  9.9794056438000059e-02  1.0050005676374085e-01  1.0013679674470194e-01  9.9973807113486704e-02  1.0004993131565458e-01  1.0000786457936603e-01  1.0004321147286789e-01  1.0002361099519674e-01  1.0003113742878667e-01  1.0004410839330918e-01  1.0003712717130750e-01  1.0004250715311905e-01  1.0002447823087444e-01  1.0003192098813092e-01  1.0002395866916942e-01  1.0003488058500129e-01  1.0002768084954292e-01  1.0002986703260368e-01  1.0003225844762002e-01  1.0002973998250229e-01  1.0002961588398140e-01  1.0003177796928832e-01  1.0002885918454651e-01  1.0002976430985566e-01  1.0002886657509100e-01  1.0003054521135331e-01  1.0002580333913971e-01  1.0003498001892569e-01  1.0001924175956384e-01  1.0004683398161501e-01  1.0000000000000003e-01  9.9990316656515393e-02  1.0000000000000003e-01  9.9995192072125844e-02  9.9992510351484640e-02  9.9992605150684866e-02  9.9991862592183470e-02  9.9993357437758404e-02  9.9990288652498774e-02  9.9991228815402608e-02  9.9993092621365506e-02  9.9988421028360516e-02  9.9989629199644117e-02  9.9991752259068256e-02  9.9984625564322444e-02  9.9987591945791904e-02  9.9992156633043450e-02  9.9982316157534917e-02  9.9989409920357347e-02  9.9994605789269400e-02  9.9981942732710799e-02  9.9990515453962023e-02  1.0000063081967135e-01  9.9966520607861667e-02  9.9986994697084206e-02  9.9982489022878540e-02  9.9972759282416571e-02  9.9972432964486407e-02  1.0002505934099439e-01  9.9901428870743478e-02  1.0012061682685153e-01  9.9722508220391054e-02  9.9790227347123894e-02  1.0048457494602869e-01  1.0014624398471153e-01  9.9960716187670801e-02  1.0004824917614236e-01  1.0001749618868191e-01  1.0003062651911224e-01  1.0002031722461045e-01  1.0003941883707881e-01  1.0002878315200144e-01  1.0003425349948111e-01  1.0004350192243695e-01  1.0004150968130081e-01  1.0001644418991097e-01  1.0003654165430712e-01  1.0002280498703060e-01  1.0002855169669807e-01  1.0003047502084456e-01  1.0002812849031018e-01  1.0002791835335113e-01  1.0003082788359881e-01  1.0002836498930297e-01  1.0002820335998706e-01  1.0003011141556269e-01  1.0002686230947569e-01  1.0002956243310787e-01  1.0002547219273503e-01  1.0003314364615719e-01  1.0001857058957661e-01  1.0004503126088943e-01  1.0000000000000003e-01  9.9990116470607793e-02  1.0000000000000003e-01  9.9995376517176562e-02  9.9991269512474168e-02  9.9992895541118690e-02  9.9992565239541989e-02  9.9990956254691968e-02  9.9991112264259052e-02  9.9992782560938104e-02  9.9989072605330659e-02  9.9990209714669029e-02  9.9992147169325335e-02  9.9985936396286224e-02  9.9987501337461981e-02  9.9991321815367504e-02  9.9982404582198328e-02  9.9987185105870693e-02  9.9993420157172760e-02  9.9980908166504900e-02  9.9989845751722567e-02  9.9997861941418784e-02  9.9977565895082984e-02  9.9995926485468858e-02  9.9991041808007511e-02  9