<?xml version="1.0"?>
<VTKFile type="UnstructuredGrid"  version="0.1"  >
<UnstructuredGrid>
<Piece  NumberOfPoints="1933" NumberOfCells="3640">
<Points>
<DataArray  type="Float64"  NumberOfComponents="3"  format="ascii">-0.2939869785449289 0.000144374507985898 0  4.706013065114914 0.0001157081692005914 0  4.706056111612101 7.500115844724604 0  -0.2939439719587026 7.500144441785642 0  9.70601312124799 8.69176497489757e-05 0  9.706056263264975 7.500087078364838 0  14.70601325600316 5.794301693507918e-05 0  14.70605651925083 7.500058110612632 0  19.70601354187655 2.877986464647556e-05 0  19.70605691506819 7.500028948057519 0  24.70601404673565 -5.431259673660798e-07 0  24.70605748589783 7.499999624053384 0  29.70601483128906 -2.997651945951417e-05 0  29.70605826576593 7.499970190066636 0  34.70601594976174 -5.945690674642138e-05 0  34.70605928693775 7.499940710380791 0  39.70601745164991 -8.891031760095941e-05 0  39.70606057970847 7.499911259337056 0  44.706019383698 -0.0001182534529899933 0  44.70606217245853 7.499881920401705 0  49.70602179177274 -0.0001473934001120697 0  49.70606409179788 7.499852786590548 0  54.70602472253405 -0.0001762261773552452 0  54.70606636265467 7.4998239619875 0  59.70602822488253 -0.0002046342477207916 0  59.70606900817931 7.499795564255872 0  64.70603235119025 -0.0002324829842820925 0  64.70607204933488 7.499767728173174 0  69.70603715829604 -0.0002596159361601402 0  69.70607550402612 7.499740610340916 0  74.70604270821724 -0.0002858486019866722 0  74.7060793855654 7.499714395348342 0  79.70604906844487 -0.0003109602441724595 0  79.70608370018546 7.499689303822181 0  84.70605631157257 -0.0003346830404304451 0  84.70608844318984 7.499665602992051 0  89.706064513774 -0.0003566875254761187 0  89.70609359313137 7.499643620668637 0  94.7060737512535 -0.0003765627608106092 0  94.70609910315324 7.49962376389217 0  99.70608409303959 -0.0003937888849729166 0  99.70610488829796 7.499606543982748 0  104.7060955871257 -0.000407698491940649 0  104.7061108072037 7.499592610301787 0  109.7061082343259 -0.00041742144823044 0  109.7061166363651 7.499582795608655 0  114.7061219392472 -0.0004218050191207184 0  114.706122035465 7.499578176121773 0  119.7061364181578 -0.0004192972981665967 0  119.7061265043447 7.499580148311686 0  124.7061510249729 -0.0004077771308798412 0  124.7061293388268 7.49959051974335 0  129.7061644204499 -0.0003843101395523685 0  129.7061296102818 7.499611597711081 0  134.7061739389279 -0.0003448178808452045 0  134.7061262373684 7.499646226545281 0  139.706174365591 -0.0002837072016523708 0  139.7061183217506 7.499697657864033 0  144.7061555388475 -0.0001938079502139458 0  144.7061061666329 7.499769057204264 0  149.7060974664538 -6.844407168756582e-05 0  149.7060940322186 7.499862696197187 0  159.7061073738551 7.906379123602169e-19 0  164.7059800862598 -0.000192235866165601 0  164.7060863334902 7.499776667240313 0  159.7061208588072 7.499927100497716 0  169.705916439194 -0.000348092193697185 0  169.7060511295821 7.499636301269438 0  174.7058857699678 -0.0004779180351100131 0  174.7060231825796 7.499513586296412 0  179.7058727074942 -0.0005878592339996422 0  179.7060031458612 7.499407314926952 0  184.7058691727418 -0.000682485694086056 0  184.7059897374831 7.499314696162576 0  189.7058707979825 -0.0007652826779376055 0  189.7059813842928 7.499233036070386 0  194.705875170179 -0.0008388836004840701 0  194.7059767103623 7.499160096798475 0  199.7058809298739 -0.0009052679221697416 0  199.7059746377955 7.499094107882439 0  204.7058872972064 -0.0009659276688901905 0  204.7059743623473 7.499033690951361 0  209.7058938178469 -0.001021997167293761 0  209.7059752978707 7.498977774747221 0  214.7059002243151 -0.001074349230884589 0  214.705977021843 7.498925522125314 0  219.7059063587758 -0.001123664716197876 0  219.7059792310606 7.49887627282081 0  224.7059121291281 -0.001170482379132968 0  224.7059817082384 7.498829500241687 0  229.7059174834611 -0.00121523465777345 0  229.7059842977332 7.498784779320568 0  234.7059223948541 -0.001258273551520055 0  234.7059868882081 7.498741762650728 0  239.7059268521464 -0.00129988955345748 0  239.7059894003481 7.498700162689955 0  244.7059308542534 -0.00134032568966655 0  244.7059917781817 7.498659738375787 0  249.7059344066489 -0.001379788080078237 0  249.705993982959 7.498620284951808 0  254.7059375192363 -0.001418453993015701 0  254.7059959888486 7.498581626150637 0  259.7059402051449 -0.001456478059484586 0  259.7059977799315 7.498543608132592 0  264.7059424802067 -0.001493997097060374 0  264.7059993481384 7.498506094766211 0  269.705944362958 -0.001531133831804932 0  269.706000691881 7.498468963980678 0  274.7059458751146 -0.001567999672146024 0  274.706001815182 7.498432105040092 0  279.7059470425044 -0.001604696554830748 0  279.7060027271698 7.498395416703849 0  284.7059478964637 -0.001641317719363976 0  284.7060034418067 7.498358806364445 0  289.7059484756589 -0.001677947029083513 0  289.7060039777054 7.498322190411314 0  294.7059488282079 -0.001714656071709202 0  294.7060043579339 7.498285496274367 0  299.7059490135568 -0.001751497616679744 0  299.7060046097279 7.498248666861873 0  304.7059491027657 -0.001788492888944868 0  304.7060047644055 7.498211668402484 0  309.7059491736896 -0.001825608382936202 0  309.7060048587894 7.49817450301441 0  4.706098766682176 15.00011615669331 0  -0.2939013244701348 15.0001446060934 0  9.70609891802162 15.00008743469709 0  14.70609916048182 15.00005846721471 0  19.7060995148013 15.00002928933832 0  24.70609999759205 14.99999994749465 0  29.70610062357438 14.99997049874682 0  34.7061014060915 14.99994100943359 0  39.70610235692828 14.99991155431759 0  44.70610348585566 14.99988221655387 0  49.70610480003248 14.99985308851006 0  54.70610630326385 14.9998242734146 0  59.70610799505389 14.99979588783981 0  64.70610986935979 14.9997680650835 0  69.70611191292923 14.9997409595841 0  74.70611410308821 14.99971475258362 0  79.70611640482637 14.99968965934029 0  84.706118767031 14.99966593828561 0  89.70612111775391 14.99964390260935 0  94.70612335852859 14.99962393480475 0  99.70612535804406 14.99960650464014 0  104.7061269461506 14.99959219066686 0  109.7061279104458 14.99958170437173 0  114.7061280001269 14.99957591371341 0  119.7061269460658 14.99957585764153 0  124.7061245131707 14.99958273263607 0  129.7061206116538 14.99959781145924 0  134.7061155066067 14.99962221441818 0  139.7061101716288 14.9996563776305 0  144.7061067999044 14.9996989072029 0  149.7061093037492 14.99974408518617 0  164.7061382187461 14.99969084262996 0  159.706141618699 14.99979025852393 0  169.7061259818455 14.99958543420325 0  174.7061106281056 14.99948361648134 0  179.7060957536098 14.99938949433235 0  184.7060829647423 14.99930394359361 0  189.7060727221453 14.99922643998792 0  194.7060649305779 14.99915598348961 0  199.7060592688875 14.99909150529508 0  204.7060553566369 14.9990320263848 0  209.7060528303286 14.99897670491834 0  214.7060513729307 14.99892483726635 0  219.706050720796 14.99887584211811 0  224.7060506606017 14.99882924044451 0  229.7060510226126 14.99878463643122 0  234.7060516732646 14.99874170107814 0  239.7060525083131 14.99870015871941 0  244.7060534470032 14.99865977617625 0  249.7060544273119 14.99862035410578 0  254.7060554021567 14.99858172011787 0  259.7060563364256 14.9985437233009 0  264.7060572046548 14.99850622987579 0  269.7060579892305 14.99846911977709 0  274.7060586789696 14.9984322840301 0  279.7060592679884 14.99839562285746 0  284.7060597547929 14.99835904450155 0  289.7060601415388 14.99832246477941 0  294.706060433583 14.99828580735262 0  299.7060606395483 14.99824900450196 0  304.7060607725706 14.99821199759755 0  309.7060608539252 14.9981747348359 0  4.706141018423128 22.50011678179528 0  -0.2938590708157874 22.50014510680015 0  9.706141143712246 22.50008808921987 0  14.70614132664218 22.50005910349846 0  19.70614157871349 22.50002988865871 0  24.7061419055485 22.50000050699126 0  29.70614230935407 22.49997102333594 0  34.70614278997878 22.49994150714101 0  39.70614334507835 22.49991203367328 0  44.70614396975819 22.49988268511751 0  49.70614465590602 22.49985355193132 0  54.70614539130968 22.49982473464109 0  59.70614615859494 22.49979634618748 0  64.70614693398096 22.49976851491162 0  69.70614768584906 22.49974138827515 0  74.70614837313927 22.49971513741869 0  79.70614894363848 22.49968996265976 0  84.70614933232224 22.49966609999863 0  89.70614946008459 22.49964382859748 0  94.70614923348172 22.49962347896602 0  99.70614854658278 22.49960544110843 0  104.7061472867513 22.49959017097375 0  109.7061453472499 22.49957819187254 0  114.7061426509935 22.49957008455964 0  119.7061391914007 22.49956645465637 0  124.7061350974472 22.49956785797884 0  129.706130728817 22.49957465220917 0  134.7061267992599 22.49958672757293 0  139.7061245031197 22.4996030553963 0  144.7061255659056 22.49962100572427 0  149.7061320336516 22.49963552004143 0  164.7061705365375 22.49959473681045 0  159.7061601196377 22.49966193228644 0  169.7061725909499 22.49951752743453 0  174.7061689386404 22.49943721196832 0  179.7061621974892 22.49935824674497 0  184.7061543177565 22.49928298228214 0  189.7061465150961 22.49921234692272 0  194.7061394409637 22.49914645676322 0  199.706133376417 22.49908502264113 0  204.7061283827918 22.4990275870167 0  209.7061244030197 22.4989736499644 0  214.7061213243367 22.49892273039109 0  219.7061190147013 22.49887439186718 0  224.7061173425841 22.49882825019821 0  229.706116186773 22.49878397221229 0  234.7061154404444 22.4987412707862 0  239.706115012099 22.49869989866295 0  244.7061148249015 22.49865964227871 0  249.7061148152879 22.49862031612684 0  254.7061149313361 22.49858175783782 0  259.7061151311206 22.49854382399289 0  264.7061153811921 22.49850638662068 0  269.7061156552013 22.49846933030528 0  274.7061159326858 22.49843254983206 0  279.7061161980236 22.4983959482978 0  284.7061164395523 22.49835943559182 0  289.7061166489205 22.49832292709682 0  294.7061168207867 22.4982863423060
[...]
<PointData  Scalars="p"> 
<DataArray  type="Float64"  Name="p"  format="ascii">1.0000000000000001e-01  1.0000000000000003e-01  1.0000258759459535e-01  1.0000000000000003e-01  1.0000000000000003e-01  1.0000370448034615e-01  1.0000000000000003e-01  1.0000559150069023e-01  1.0000000000000003e-01  1.0000685825614113e-01  1.0000000000000003e-01  1.0000827564764588e-01  1.0000000000000003e-01  1.0001010234511226e-01  1.0000000000000003e-01  1.0001128351526427e-01  1.0000000000000003e-01  1.0001253885305834e-01  1.0000000000000003e-01  1.0001455336569236e-01  1.0000000000000003e-01  1.0001579764696414e-01  1.0000000000000003e-01  1.0001899356726629e-01  1.0000000000000003e-01  1.0002237548849860e-01  1.0000000000000003e-01  1.0002488680078457e-01  1.0000000000000003e-01  1.0002734248620315e-01  1.0000000000000003e-01  1.0003092993596827e-01  1.0000000000000003e-01  1.0003271118950001e-01  1.0000000000000003e-01  1.0003487920462427e-01  1.0000000000000003e-01  1.0003839624346193e-01  1.0000000000000003e-01  1.0003902712690182e-01  1.0000000000000003e-01  1.0004157715343562e-01  1.0000000000000003e-01  1.0004283013804137e-01  1.0000000000000003e-01  1.0004519031679592e-01  1.0000000000000003e-01  1.0004266880781196e-01  1.0000000000000003e-01  1.0005003521555324e-01  1.0000000000000003e-01  1.0003998204094036e-01  1.0000000000000003e-01  1.0005578161874062e-01  1.0000000000000003e-01  1.0003375191988607e-01  1.0000000000000003e-01  1.0006529369888621e-01  1.0000000000000003e-01  1.0002385769127822e-01  1.0000000000000001e-01  1.0008442466131932e-01  1.0000000000000001e-01  1.0000000000000003e-01  9.9898409605014823e-02  9.9828272470638565e-02  1.0000000000000003e-01  9.9955293940306555e-02  1.0000000000000003e-01  9.9917107953337331e-02  1.0000000000000003e-01  9.9934425229873877e-02  1.0000000000000003e-01  9.9927543296963725e-02  1.0000000000000003e-01  9.9931598824872306e-02  1.0000000000000003e-01  9.9927616384228354e-02  1.0000000000000003e-01  9.9930963747590348e-02  1.0000000000000003e-01  9.9929576439885079e-02  1.0000000000000003e-01  9.9930184046558623e-02  1.0000000000000003e-01  9.9930901076895506e-02  1.0000000000000003e-01  9.9931494973234725e-02  1.0000000000000003e-01  9.9931762114229467e-02  1.0000000000000003e-01  9.9932875766799545e-02  1.0000000000000003e-01  9.9933430658505157e-02  1.0000000000000003e-01  9.9934065404168923e-02  1.0000000000000003e-01  9.9934891032440951e-02  1.0000000000000003e-01  9.9935670265530629e-02  1.0000000000000003e-01  9.9936066017761990e-02  1.0000000000000003e-01  9.9937190738376425e-02  1.0000000000000003e-01  9.9937220999397613e-02  1.0000000000000003e-01  9.9938797556846828e-02  1.0000000000000003e-01  9.9937738306006094e-02  1.0000000000000003e-01  9.9941274729248145e-02  1.0000000000000003e-01  9.9936582161384804e-02  1.0000000000000003e-01  9.9945999920608833e-02  1.0000000000000003e-01  9.9931522592068833e-02  1.0000000000000003e-01  9.9956763515642463e-02  1.0000000000000003e-01  9.9913246486970017e-02  1.0000000000000001e-01  1.0000000000000003e-01  1.0000350431457823e-01  1.0000000000000003e-01  1.0000389864806232e-01  1.0000424719098440e-01  1.0000479095328374e-01  1.0000591249033020e-01  1.0000592807698627e-01  1.0000599720456980e-01  1.0000747489612880e-01  1.0000702908165977e-01  1.0000744013743229e-01  1.0000986439495960e-01  1.0001227621175812e-01  1.0001289566683576e-01  1.0001640885469811e-01  1.0001532984324622e-01  1.0001590000128148e-01  1.0001874117610560e-01  1.0001739532337037e-01  1.0001723786997022e-01  1.0002087843996912e-01  1.0001734651807599e-01  1.0001938683992376e-01  1.0001827176048757e-01  1.0002118006537937e-01  1.0001185375063412e-01  1.0002967970907242e-01  9.9999008979070880e-02  1.0004996776735527e-01  9.9972487905156532e-02  1.0008642667689009e-01  1.0005991607070611e-01  9.9712215197824944e-02  9.9931978739749433e-02  9.9983253781734338e-02  9.9976845782878992e-02  9.9981186926236809e-02  9.9970480399028602e-02  9.9979125963483378e-02  9.9973932598122234e-02  9.9973536781400613e-02  9.9974667043856200e-02  9.9974379839943645e-02  9.9973382611898851e-02  9.9974931870927389e-02  9.9974844890838965e-02  9.9974718235047610e-02  9.9975690738395767e-02  9.9975821206860188e-02  9.9975909419306896e-02  9.9976418177446180e-02  9.9976859802670431e-02  9.9976476076903811e-02  9.9977729524661232e-02  9.9976516643716831e-02  9.9978898001148828e-02  9.9975273304798939e-02  9.9982310189424106e-02  9.9969838675606326e-02  9.9991571436020998e-02  9.9957938975592367e-02  1.0000000000000003e-01  1.0000481020413843e-01  1.0000000000000003e-01  1.0000365412793495e-01  1.0000559091332430e-01  1.0000684494020061e-01  1.0000737126134127e-01  1.0000743710000436e-01  1.0000967633178974e-01  1.0000925210743500e-01  1.0000903217246150e-01  1.0001193795448013e-01  1.0001221719798524e-01  1.0001223388094625e-01  1.0002051959479963e-01  1.0001978626300753e-01  1.0002095714343701e-01  1.0002609882160073e-01  1.0002361835944713e-01  1.0002417341771612e-01  1.0002922653479948e-01  1.0002617071293125e-01  1.0002528869574265e-01  1.0003204991459534e-01  1.0002397397717422e-01  1.0002980390290325e-01  1.0002357378593091e-01  1.0003507235100510e-01  1.0000923471363203e-01  1.0005993625932080e-01  9.9969188681997223e-02  1.0013754372963153e-01  1.0006999204509062e-01  9.9696472674871459e-02  9.9859154700783867e-02  9.9966172230800079e-02  9.9964206138935169e-02  9.9939407413964843e-02  9.9964957188257264e-02  9.9950492337109564e-02  9.9950371169704053e-02  9.9952934131377513e-02  9.9951833004592774e-02  9.9949063541259237e-02  9.9952284612822420e-02  9.9951472069033875e-02  9.9950960179223211e-02  9.9952839468489610e-02  9.9953040862044637e-02  9.9952806914150663e-02  9.9954223356440317e-02  9.9954311607009266e-02  9.9954576282043558e-02  9.9955043625539780e-02  9.9955975776326783e-02  9.9954836669689559e-02  9.9957576528514974e-02  9.9954125787206721e-02  9.9960177353982854e-02  9.9950350881955558e-02  9.9969026710140893e-02  9.9933441943274651e-02  1.0000000000000003e-01  1.0000554328630760e-01  1.0000000000000003e-01  1.0000373301465666e-01  1.0000632186206952e-01  1.0000632805843372e-01  1.0000632453649089e-01  1.0000849786095371e-01  1.0000783135846089e-01  1.0000713928017146e-01  1.0000979315858974e-01  1.0000855869682634e-01  1.0000806420949862e-01  1.0001348331523960e-01  1.0001098732738449e-01  1.0001548061542792e-01  1.0002115854968711e-01  1.0001900086038451e-01  1.0001829802791730e-01  1.0002438974727035e-01  1.0001918565039293e-01  1.0001954687160071e-01  1.0002398201219527e-01  1.0002026784166125e-01  1.0001571416084419e-01  1.0002746730316681e-01  1.0000865795780266e-01  1.0003042390775124e-01  9.9996246497017799e-02  1.0005695086829314e-01  9.9948524983287101e-02  1.0014834582770983e-01  1.0008549765882299e-01  9.9636558676879122e-02  9.9897850382788561e-02  9.9997666783012348e-02  9.9919612274919536e-02  9.9998269092340955e-02  9.9963655466074691e-02  9.9968930095102160e-02  9.9969751904607856e-02  9.9969440048099559e-02  9.9963175269314059e-02  9.9968496454620637e-02  9.9966094179370940e-02  9.9964869436367024e-02  9.9967151641144031e-02  9.9967049318937587e-02  9.9966409890797039e-02  9.9968157359403120e-02  9.9968293720124432e-02  9.9967911325420475e-02  9.9969232026646523e-02  9.9968873902950547e-02  9.9969541578768459e-02  9.9968844161484591e-02  9.9971212694607597e-02  9.9967068061126305e-02  9.9974570513725200e-02  9.9962307857822924e-02  9.9982582300593412e-02  9.9949686092783874e-02  1.0000000000000003e-01  1.0000630286095044e-01  1.0000000000000003e-01  1.0000428455351261e-01  1.0000621474511195e-01  1.0000562903025519e-01  1.0000853172775567e-01  1.0000775942335495e-01  1.0000756791450244e-01  1.0001023899491870e-01  1.0000875560571275e-01  1.0000777881667448e-01  1.0001242135980851e-01  1.0001027957707978e-01  1.0001092960323354e-01  1.0001561812428812e-01  1.0001812239748148e-01  1.0001828635398748e-01  1.0002600289949516e-01  1.0002085857043011e-01  1.0001987997061830e-01  1.0002778063142878e-01  1.0001958745555234e-01  1.0002085571407125e-01  1.0002399204138022e-01  1.0002251155465618e-01  1.0000969625373490e-01  1.0003660191376199e-01  9.9990458845620064e-02  1.0006366706164660e-01  9.9937248724218775e-02  1.0017595664092546e-01  1.0014081178551638e-01  9.9580985565806246e-02  9.9878928887884993e-02  9.9973774556701478e-02  9.9941060744653684e-02  9.9957449303593029e-02  9.9962930593088445e-02  9.9963731340863157e-02  9.9968352748746284e-02  9.9954086928212171e-02  9.9964478481698663e-02  9.9959509166533969e-02  9.9957247208401337e-02  9.9960321329611398e-02  9.9959837045296818e-02  9.9958135425379194e-02  9.9960927220371365e-02  9.9960808939688992e-02  9.9960379781121933e-02  9.9961903431600885e-02  9.9962224190974294e-02  9.9961551045770008e-02  9.9963206774766084e-02  9.9962074290059502e-02  9.9963902462601867e-02  9.9961093080322735e-02  9.9966834671756225e-02  9.9956395540002449e-02  9.9975406054094940e-02  9.9941511445147985e-02  1.0000000000000003e-01  1.0000722128316210e-01  1.0000000000000003e-01  1.0000415688680434e-01  1.0000593198006288e-01  1.0000699625141632e-01  1.0000726671093185e-01  1.0000689456861227e-01  1.0000969663107037e-01  1.0000863671078980e-01  1.0000717032292178e-01  1.0001115101413312e-01  1.0000919242672346e-01  1.0000827052858402e-01  1.0001388551195624e-01  1.0001172689869157e-01  1.0000878442605875e-01  1.0002345184893459e-01  1.0001838571299668e-01  1.0001849829047135e-01  1.0002675344850408e-01  1.0001931333753596e-01  1.0001653721903285e-01  1.0002813490331076e-01  1.0001361696872149e-01  1.0001983641571260e-01  1.0001433463112583e-01  1.0002861397538551e-01  9.9983639326690535e-02  1.0007255541162287e-01  9.9915646739675817e-02  1.0020000708625870e-01  1.0015399894135671e-01  9.9579188077919017e-02  9.9855589830234626e-02  1.0001830620135871e-01  9.9943312733953196e-02  9.9955665379279718e-02  9.9951599566369273e-02  9.9987797741565992e-02  9.9953779557584679e-02  9.9977097045999608e-02  9.9965683423908727e-02  9.9963278908382872e-02  9.9966856240049654e-02  9.9966138970648918e-02  9.9962525665359195e-02  9.9966511416579001e-02  9.9965776629993133e-02  9.9964685344168844e-02  9.9967180186345983e-02  9.9967090122015545e-02  9.9966718444587224e-02  9.9967791518460011e-02  9.9968447698096943e-02  9.9966882675158894e-02  9.9969780295104602e-02  9.9965974660442047e-02  9.9972070915519740e-02  9.9961617554377269e-02  9.9980004723817489e-02  9.9948131953392569e-02  1.0000000000000003e-01  1.0000773499740354e-01  1.0000000000000003e-01  1.0000392519080036e-01  1.0000736352105170e-01  1.0000626883592914e-01  1.0000653301049449e-01  1.0000888184501920e-01  1.0000868101063363e-01  1.0000721035954442e-01  1.0001122154472210e-01  1.0000913350032906e-01  1.0000768656204090e-01  1.0001351926837429e-01  1.0001062942654909e-01  1.0000816320481255e-01  1.0001725891310956e-01  1.0001014275661134e-01  1.0001617200850640e-01  1.0002674090754791e-01  1.0001972555962657e-01  1.0001844815236027e-01  1.0002773014834218e-01  1.0001894871294717e-01  1.0001313290226964e-01  1.0003087606450296e-01  1.0000476671488076e-01  1.0002885114129566e-01  9.9990377410703657e-02  1.0006946016280702e-01  9.9904755179888532e-02  1.0022865574352800e-01  1.0015173704514775e-01  9.9550840635346069e-02  9.9874956329000827e-02  1.0001859887231132e-01  9.9926602601632747e-02  9.9975764882638748e-02  9.9955431086985361e-02  9.9942314524403247e-02  9.9982142424106829e-02  9.9963566947251101e-02  9.9964589741203577e-02  9.9965578978822286e-02  9.9966433648617292e-02  9.9959929552247612e-02  9.9965484937234034e-02  9.9963796498399357e-02  9.9962018981522321e-02  9.9964793493632839e-02  9.9964910205152607e-02  9.9963870016534326e-02  9.9966141913022971e-02  9.9965781474742998e-02  9.9965938278253216e-02  9.9965912094209908e-02  9.9967700883176788e-02  9.9964119644208746e-02  9.9970289893256681e-02  9.9960005313627961e-02  9.9977777403219614e-02  9.9946256673683523e-02  1.0000000000000003e-01  1.0000809879056798e-01  1.0000000000000003e-01  1.0000468168497786e-01  1.0000709582959909e-01  1.0000564048112927e-01  1.0000837132721921e-01  1.0000766683090960e-01  1.0000691924191725e-01  1.0001065184182295e-01  1.0000891360247473e-01  1.0000744946664099e-01  1.0001279612602236e-01  1.0001009958531121e-01  1.0000803652031900e-01  1.0001554983884196e-01  1.0000967216760755e-01  1.0000912724909698e-01  1.0001626644106838e-01  1.0001775096936602e-01  1.0001629838473199e-01  1.0003000995147859e-01  1.0001735894970784e-01  1.0001750837889099e-01  1.0002550711065072e-01  1.0001933751904671e-01  1.0000257427165132e-01  1.0004142713842921e-01  9.9977291313806990e-02  1.0007278981866420e-01  9.9902154119358350e-02  1.0024273540340203e-01  1.0018486380982075e-01  9.9518626806505542e-02  9.9867933905326098e-02  1.0000986237282003e-01  9.9949866351728006e-02  9.9983567671808118e-02  9.9944316247327372e-02  9.9966526908396539e-02  9.9953247502964637e-02  9.9974514465953609e-02  9.9965946052278015e-02  9.9974595058143309e-02  9.9960972024203607e-02  9.9970124771895832e-02  9.9966782968747309e-02  9.9964125081849806e-02  9.9967374859509767e-02  9.9967146918123848e-02  9.9965263775634514e-02  9.9968025166796426e-02  9.9968223380283466e-02  9.9967134175426756e-02  9.9969375444320094e-02  9.9968215050056902e-02  9.9969620608133664e-02  9.9967070537894803e-02  9.9972521484343671e-02  9.9962344703555528e-02  9.9979899974892497e-02  9.9949447520134016e-02  1.0000000000000003e-01  1.0000877648218605e-01  1.0000000000000003e-01  1.0000450561355965e-01  1.0000673271818987e-01  1.0000712581136298e-01  1.0000762701357892e-01  1.0000631320151900e-01  1.0000975151853461e-01  1.0000857305574501e-01  1.0000725221756587e-01  1.0001185213221465e-01  1.0001020282952613e-01  1.0000794796927384e-01  1.0001495671729843e-01  1.0001058969645402e-01  1.0000766700769341e-01  1.0001624773182488e-01  1.0001081534093073e-01  1.0000528288795180e-01  1.0002744384870502e-01  1.0001827163952007e-01  1.0001606730988383e-01  1.0003232181224997e-01  1.0001321994411401e-01  1.0001785757081456e-01  1.0001860980949850e-01  1.0002873360179425e-01  9.9974866872427973e-02  1.0008937597857286e-01  9.9884263791791064e-02  1.0025962073736286e-01  1.0019312760747408e-01  9.9519629250620065e-02  9.9850744297076716e-02  1.0003196476182857e-01  9.9948725419730267e-02  9.9971354193776785e-02  9.9964680270907727e-02  9.9967579481543833e-02  9.9948771769272179e-02  9.9955971528369186e-02  9.9982137740186258e-02  9.9957868222066246e-02  9.9974782228984496e-02  9.9967186615406614e-02  9.9964685765226505e-02  9.9967862804504648e-02  9.9967894524779347e-02  9.9964347787547536e-02  9.9968061919697773e-02  9.9967488210557426e-02  9.9966528126101933e-02  9.9968486630806597e-02  9.9969112634352819e-02  9.9967390512952392e-02  9.9970362213514505e-02  9.9967071704192945e-02  9.9971995722647033e-02  9.9962932202741175e-02  9.9979403566753264e-02  9.9949743247521664e-02  1.0000000000000003e-01  1.0000902654434100e-01  1.0000000000000003e-01  1.0000425006651176e-01  1.0000808346088566e-01  1.0000661260325860e-01  1.0000671510729718e-01  1.0000881511338519e-01  1.0000833709645385e-01  1.0000681579806846e-01  1.0001094534067019e-01  1.0000967792224261e-01  1.0000759710699486e-01  1.0001444392833927e-01  1.0001122868906021e-01  1.0000783392176037e-01  1.0001635610946424e-01  1.0001056249620703e-01  1.0000532037155233e-01  1.0001961896474922e-01  1.0000649003980115e-01  1.0001457408552970e-01  1.0002992195611758e-01  1.0001917655315536e-01  1.0001187477567258e-01  1.0003613145267813e-01  1.0000314221333030e-01  1.0002732944628473e-01  9.9992321754192676e-02  1.0007710425621583e-01  9.9877941610205925e-02  1.0028657867130063e-01  1.0018966944002890e-01  9.9511528000335830e-02  9.9863757148038135e-02  1.0003507538876548e-01  9.9936278152076660e-02  9.9990549308455245e-02  9.9967196837543640e-02  9.9962041267223078e-02  9.9963193412494850e-02  9.9964050202201962e-02  9.9946794538880279e-02  9.9983422161510987e-02  9.9966944099739816e-02  9.9969605355739941e-02  9.9969286211184005e-02  9.9971160550447608e-02  9.9965432079930305e-02  9.9970097500118579e-02  9.9969100703238695e-02  9.9967095670807027e-02  9.9969739234041496e-02  9.9969576209024386e-02  9.9969192781072219e-02  9.9969930486105529e-02  9.9971572543630413e-02  9.9968031874456603e-02  9.9973844374503060e-02  9.9964490228555913e-02  9.9980312488154158e-02  9.9951984643834729e-02  1.0000000000000003e-01  1.0000919556191587e-01  1.0000000000000003e-01  1.0000491492317051e-01  1.0000786829777181e-01  1.0000593895273219e-01  1.0000866328365636e-01  1.0000780964169828e-01  1.0000692566893198e-01  1.0001007130589169e-01  1.0000902223144331e-01  1.0000704445586243e-01  1.0001315759541479e-01  1.0001100111361413e-01  1.0000851809095246e-01  1.0001624979646710e-01  1.0001120912856118e-01  1.0000681704727479e-01  1.0001791713326408e-01  1.0000827688747525e-01  1.0000583717842319e-01  1.0001806988634732e-01  1.0001565362744436e-01  1.0001509591392477e-01  1.0003186089630241e-01  1.0001913205650619e-01  1.0000244898141740e-01  1.0004855206218856e-01  9.9975909137228036e-02  1.0007501552328003e-01  9.9895870914770521e-02  1.0027936477625402e-01  1.0020595906593857e-01  9.9499897071517879e-02  9.9863191513781341e-02  1.0002619453086194e-01  9.9950063145240339e-02  9.9992133998239294e-02  9.9956785770873607e-02  9.9976386025906458e-02  9.9968860319080671e-02  9.9955889392931235e-02  9.9962869975765312e-02  9.9957491179524974e-02  9.9975519899578646e-02  9.9968076873531056e-02  9.9976039636693187e-02  9.9965117739927112e-02  9.9972317254040252e-02  9.9970131484227079e-02  9.9967740025515103e-02  9.9970258396661571e-02  9.9970382715610803e-02  9.9968220638034469e-02  9.9971139470084444e-02  9.9970234530374000e-02  9.9971132348026320e-02  9.9969453652531542e-02  9.9974195774158697e-02  9.9965018884787982e-02  9.9980757605142953e-02  9.9953164701803723e-02  1.0000000000000003e-01  1.0000968507834389e-01  1.0000000000000003e-01  1.0000480871540328e-01  1.0000749088363080e-01  1.0000739600950163e-01  1.0000813868497761e-01  1.0000664357187851e-01  1.0000971283463370e-01  1.0000877251959482e-01  1.0000690838479113e-01  1.0001158067793205e-01  1.0001037232200555e-01  1.0000824884159715e-01  1.0001537667288891e-01  1.0001240985680754e-01  1.0000784447028897e-01  1.0001768658969189e-01  1.0001059177302608e-01  1.0000539516217316e-01  1.0001806016265319e-01  1.0000948636398752e-01  9.9999368715192563e-02  1.0003348572058547e-01  1.0001300789745937e-01  1.0001751371182831e-01  1.0002724599048902e-01  1.0002757026982997e-01  9.9974939833569698e-02  1.0009858114464588e-01  9.9879376816260218e-02  1.0027750939083006e-01  1.0020979250390626e-01  9.9515372372802322e-02  9.9853742714603788e-02  1.0003928479995579e-01  9.9951746232961672e-02  9.9982502334502996e-02  9.9969369571213954e-02  9.9979680800176898e-02  9.9960578757688476e-02  9.9971213910933401e-02  9.9965744438231571e-02  9.9956495861515768e-02  9.9958488047527258e-02  9.9983554118798348e-02  9.9963456639100140e-02  9.9977192947640028e-02  9.9971446792650298e-02  9.9969523393796708e-02  9.9971869799182336e-02  9.9972080258163426e-02  9.9969170710222710e-02  9.9971633473016228e-02  9.9971795372817779e-02  9.9969887359741522e-02  9.9973136534054402e-02  9.9970436510757515e-02  9.9974526910459785e-02  9.9966855249424655e-02  9.9981428804643641e-02  9.9954967441816034e-02  1.0000000000000003e-01  1.0000988531117259e-01  1.0000000000000003e-01  1.0000462424123058e-01  1.0000873193251347e-01  1.0000710558842298e-01  1.0000743593834151e-01  1.0000904516101633e-01  1.0000888913198397e-01  1.0000721856070223e-01  1.0001092908938099e-01  1.0000979179655323e-01  1.0000785401564365e-01  1.0001406574197752e-01  1.0001250050724063e-01  1.0000867942933331e-01  1.0001759811766571e-01  1.0001281692762434e-01  1.0000658098284161e-01  1.0001909501051524e-01  1.0001015621440561e-01  1.0000213857365610e-01  1.0002243831211022e-01  1.0000407390402156e-01  1.0000896122747614e-01  1