<?xml version="1.0"?>
<VTKFile type="UnstructuredGrid"  version="0.1"  >
<UnstructuredGrid>
<Piece  NumberOfPoints="1933" NumberOfCells="3640">
<Points>
<DataArray  type="Float64"  NumberOfComponents="3"  format="ascii">0.29357764247622 0.002101531425005551 0  5.29357765558617 0.002016761964593089 0  5.293704883376377 7.502016838566966 0  0.2937048331209051 7.50210154138388 0  10.29357765606709 0.001931904086347406 0  10.29370498597263 7.501932008890182 0  15.29357769098571 0.001846873863874166 0  15.29370517384084 7.501846990423872 0  20.29357782187335 0.001761634566728603 0  20.29370548170892 7.501761755909113 0  25.29357811248316 0.001676179745630437 0  25.29370594662536 7.501676303377585 0  30.29357862467975 0.001590522886203575 0  30.29370660729898 7.501590648534642 0  35.29357941792343 0.001504691052891833 0  35.29370750362899 7.501504819584637 0  40.29358055032093 0.001418721185523922 0  40.293708676659 7.501418854093497 0  45.29358208032572 0.001332658235148793 0  45.29371016889203 7.501332797411226 0  50.2935840686912 0.001246554635371222 0  50.29371202484838 7.501246702294699 0  55.29358658052652 0.001160470815520581 0  55.29371429176138 7.501160629505883 0  60.2935896874226 0.001074476614296658 0  60.29371702032886 7.501074649278419 0  65.29359346967318 0.0009886535720487356 0  65.29372026544766 7.500988843648374 0  70.29359801863603 0.0009030981858455012 0  70.29372408686073 7.500903309741929 0  75.29360343929638 0.0008179263211625357 0  75.29372854962496 7.500818164215397 0  80.29360985308274 0.0007332791059137247 0  80.29373372426643 7.500733549167351 0  85.29361740097703 0.0006493308100681566 0  85.29373968642273 7.500649640005912 0  90.29362624690404 0.0005662994713035979 0  90.29374651565597 7.500566655981578 0  95.29363658129225 0.0004844614171958796 0  95.29375429294814 7.500484874421858 0  100.2936486244583 0.0004041714440553769 0  100.2937630961443 7.50040465017426 0  105.2936626290027 0.0003258913851882113 0  105.2937729922518 7.500326442438523 0  110.2936788793963 0.0002502313769810084 0  110.2937840250794 7.500250852104471 0  115.2936976848875 0.0001780107090267433 0  115.293796196308 7.500178673930817 0  120.2937193576007 0.0001103493791637468 0  120.2938094381419 7.500110969257458 0  125.2937441589431 4.8808388096843e-05 0  125.2938235773821 7.500049165847029 0  130.2937721793261 -4.392254992122924e-06 0  130.2938382971223 7.49999519020875 0  135.2938030785006 -4.603355031677883e-05 0  135.2938531210328 7.499951630640123 0  140.2938355333162 -7.138159958782732e-05 0  140.293867496036 7.499921911745145 0  145.2938660572425 -7.351456636569596e-05 0  145.2938811860013 7.499910452010676 0  150.2938863806857 -4.314569247991088e-05 0  150.2938955831696 7.499922996530904 0  160.2938926261466 9.520849125273955e-19 0  165.2937510648676 -0.0001781435887221014 0  165.2938674718474 7.499797429190354 0  160.2939116353475 7.499941495047378 0  170.293666799132 -0.0003391111026065929 0  170.2938226362143 7.499648466664214 0  175.2936145384852 -0.0004874119360448435 0  175.2937845960319 7.499505604775318 0  180.2935811303308 -0.0006252942840491559 0  180.2937543064807 7.499370567190321 0  185.2935592931351 -0.0007546595132618503 0  185.2937308741996 7.499242798161625 0  190.2935448250242 -0.0008771419874122755 0  190.2937130195359 7.499121247698178 0  195.2935352120331 -0.0009940750898699009 0  195.2936995436525 7.49900487586148 0  200.2935288948629 -0.001106512028060727 0  200.2936894525886 7.49889278714446 0  205.2935248703475 -0.001215274575814334 0  205.2936819620953 7.49878424736097 0  210.2935224695476 -0.001321004331636334 0  210.2936764661289 7.498678664613238 0  215.2935212311818 -0.001424206277566488 0  215.2936724995349 7.498575562677291 0  220.2935208274955 -0.001525282656273226 0  220.2936697051034 7.498474556303695 0  225.293521019551 -0.001624558292820672 0  225.2936678073084 7.498375330946033 0  230.293521629407 -0.001722299232256828 0  230.2936665923042 7.498277626937616 0  235.2935225222395 -0.001818726434359777 0  235.2936658929939 7.498181227386367 0  240.2935235944821 -0.00191402590425473 0  240.2936655779583 7.498085948956769 0  245.2935247657321 -0.002008356278310619 0  245.2936655432523 7.497991634818743 0  250.2935259730788 -0.002101854595762438 0  250.2936657063012 7.497898149197399 0  255.293527167061 -0.002194640772665095 0  255.293666001348 7.497805373099405 0  260.2935283087476 -0.00228682114189657 0  260.2936663760368 7.497713200904499 0  265.293529367652 -0.002378491313994942 0  265.293666788861 7.497621537598406 0  270.2935303202799 -0.002469738533196156 0  270.2936672072669 7.49753029649137 0  275.2935311492311 -0.002560643637228197 0  275.2936676062665 7.497439397324476 0  280.2935318428092 -0.002651282663423996 0  280.293667967455 7.497348764722731 0  285.2935323951759 -0.002741728057489224 0  285.2936682783437 7.497258327022648 0  290.2935328070921 -0.002832049300359913 0  290.2936685319131 7.497168015597186 0  295.2935330873547 -0.002922312506037122 0  295.2936687263199 7.497077764944152 0  300.2935332549202 -0.003012578015759966 0  300.2936688646583 7.496987514014917 0  305.2935333414441 -0.003102893892261827 0  305.2936689548737 7.49689720953327 0  310.2935333930481 -0.003193280686210291 0  310.2936690104464 7.496806812266938 0  5.293831772396381 15.00201703716378 0  0.293831711370691 15.00210157286251 0  10.29383189277791 15.00193227863315 0  15.29383210472702 15.00184728493522 0  20.29383243284342 15.00176205537644 0  25.29383289928456 15.00167660169113 0  30.29383352604005 15.00159094649127 0  35.29383433577369 15.00150512139417 0  40.29383535205245 15.00141916563859 0  45.29383659934406 15.00133312542966 0  50.29383810293066 15.00124705404197 0  55.2938398887698 15.0011610126606 0  60.29384198327329 15.00107507195863 0  65.29384441294536 15.00098931445591 0  70.29384720379102 15.00090383776493 0  75.29385038038727 15.00081875890447 0  80.29385396447356 15.00073421995092 0  85.2938579728888 15.00065039540713 0  90.29386241464734 15.00056750180478 0  95.29386728693625 15.00048581021318 0  100.2938725698514 15.00040566249306 0  105.2938782198796 15.00032749224516 0  110.2938841625782 15.00025185132026 0  115.2938902859528 15.00017944213388 0  120.2938964381071 15.0001111541125 0  125.2939024366866 15.00004809776228 0  130.2939081044719 14.99999161862552 0  135.2939133560465 14.99994324820868 0  140.2939183729596 14.99990449184809 0  145.2939239054756 14.99987621258653 0  150.293931664418 14.99985694808566 0  165.2939426719958 14.99973100745046 0  160.2939509744998 14.9998431794497 0  170.2939271083162 14.99960707123981 0  175.2939085740807 14.99948000940485 0  180.2938901928413 14.99935453104003 0  185.2938735323474 14.99923253601116 0  190.2938591748138 14.99911451654215 0  195.2938471801969 14.99900034537071 0  200.2938373650868 14.9988896599287 0  205.2938294538947 14.99878203775948 0  210.2938231549174 14.99867707091307 0  215.2938181952154 14.9985743931769 0  220.2938143340211 14.99847368622322 0  225.2938113655592 14.9983746770324 0  230.2938091170615 14.99827713228187 0  235.2938074449439 14.99818085219393 0  240.2938062305717 14.99808566483456 0  245.2938053762649 14.9979914211752 0  250.2938048017959 14.99789799093938 0  255.2938044414263 14.99780525914579 0  260.2938042414597 14.99771312323243 0  265.2938041582398 14.99762149065171 0  270.2938041565232 14.99753027684797 0  275.2938042081571 14.99743940355283 0  280.2938042909768 14.99734879736187 0  285.293804387893 14.99725838858243 0  290.2938044860798 14.99716811035988 0  295.2938045762978 14.99707789807189 0  300.2938046524009 14.99698768885395 0  305.2938047112975 14.99689742067186 0  310.2938047539085 14.9968070290146 0  5.293958201926473 22.50201748683334 0  0.2939581392287758 22.5021018286247 0  10.29395830972708 22.50193281796903 0  15.29395848976679 22.50184785733799 0  20.29395875962274 22.50176263445581 0  25.29395913177405 22.50167717913553 0  30.29395961628588 22.50159152433375 0  35.29396022218254 22.50150570736244 0  40.29396095797804 22.50141977048207 0  45.29396183169749 22.50133376144287 0  50.29396285058878 22.50124773427372 0  55.29396402061887 22.50116175047895 0  60.29396534578594 22.50107588074761 0  65.2939668272351 22.50099020726993 0  70.29396846214063 22.50090482676917 0  75.29397024230929 22.50081985438744 0  80.29397215245721 22.50073542859694 0  85.29397416813769 22.5006517173397 0  90.29397625335324 22.50056892561174 0  95.29397835799905 22.50048730467328 0  100.2939804154997 22.50040716292645 0  105.2939823413754 22.50032887814871 0  110.2939840340949 22.50025290999549 0  115.2939853805316 22.50017981012469 0  120.2939862696896 22.50011022430078 0  125.2939866199812 22.50004487533438 0  130.2939864265118 22.49998450602777 0  135.2939858334468 22.49992974519837 0  140.2939852272391 22.49988083576131 0  145.2939853171553 22.49983713790949 0  150.2939870968124 22.49979634475624 0  165.294012724089 22.49965780799793 0  160.2940037520162 22.49975145870724 0  170.2940146807055 22.49955247471416 0  175.2940114556623 22.49944080647253 0  180.2940050974166 22.4993267910533 0  185.2939972767376 22.4992129286431 0  190.2939891274104 22.49910056642063 0  195.2939813272784 22.49899031317871 0  200.2939742315737 22.49888235285352 0  205.2939679886913 22.49877664429552 0  210.2939626238149 22.49867303821176 0  215.2939580941447 22.49857134189326 0  220.2939543233512 22.49847135323507 0  225.2939512220984 22.49837287745227 0  230.2939486996862 22.49827573437259 0  235.2939466702458 22.49817976077472 0  240.2939450556889 22.49808481024369 0  245.2939437867898 22.49799075187505 0  250.2939428032353 22.49789746852645 0  255.2939420531446 22.49780485496852 0  260.2939414923318 22.49771281610315 0  265.2939410834883 22.49762126531918 0  270.2939407953494 22.49753012300904 0  275.293940601892 22.49743931524589 0  280.2939404815686 22.4973487726082 0  285.2939404165822 22.49725842912259 0  290.2939403922051 22.49716822125823 0  295.2939403961768 22.49707808681792 0  300.2939404182105 22.496
[...]
<PointData  Scalars="p"> 
<DataArray  type="Float64"  Name="p"  format="ascii">1.0000000000000001e-01  1.0000000000000003e-01  1.0000372062619214e-01  1.0000000000000003e-01  1.0000000000000003e-01  1.0000362866797065e-01  1.0000000000000003e-01  1.0000548243769736e-01  1.0000000000000003e-01  1.0000611490704035e-01  1.0000000000000003e-01  1.0000739378662531e-01  1.0000000000000003e-01  1.0000999638686427e-01  1.0000000000000003e-01  1.0001079623903276e-01  1.0000000000000003e-01  1.0001257665647849e-01  1.0000000000000003e-01  1.0001555732448979e-01  1.0000000000000003e-01  1.0001505054907016e-01  1.0000000000000003e-01  1.0002424578552099e-01  1.0000000000000003e-01  1.0002770184967466e-01  1.0000000000000003e-01  1.0003250468090669e-01  1.0000000000000003e-01  1.0003594354566236e-01  1.0000000000000003e-01  1.0004429274854974e-01  1.0000000000000003e-01  1.0004733760602226e-01  1.0000000000000003e-01  1.0005395057900326e-01  1.0000000000000003e-01  1.0006390889318909e-01  1.0000000000000003e-01  1.0006726722570958e-01  1.0000000000000003e-01  1.0007814220573653e-01  1.0000000000000003e-01  1.0008506891564037e-01  1.0000000000000003e-01  1.0009736924649786e-01  1.0000000000000003e-01  1.0009644152716170e-01  1.0000000000000003e-01  1.0012576330638526e-01  1.0000000000000003e-01  1.0010221725689043e-01  1.0000000000000003e-01  1.0016128854018018e-01  1.0000000000000003e-01  1.0009825007722538e-01  1.0000000000000003e-01  1.0020880913192845e-01  1.0000000000000003e-01  1.0008025232496918e-01  1.0000000000000001e-01  1.0028634624395769e-01  1.0000000000000001e-01  1.0000000000000003e-01  9.9800589580176499e-02  9.9552933642592628e-02  1.0000000000000003e-01  9.9956978276930314e-02  1.0000000000000003e-01  9.9845106304713896e-02  1.0000000000000003e-01  9.9908436704692363e-02  1.0000000000000003e-01  9.9891080621676662e-02  1.0000000000000003e-01  9.9907821658296397e-02  1.0000000000000003e-01  9.9901939790798783e-02  1.0000000000000003e-01  9.9916165318445729e-02  1.0000000000000003e-01  9.9914899241977828e-02  1.0000000000000003e-01  9.9920213424956217e-02  1.0000000000000003e-01  9.9924627396610760e-02  1.0000000000000003e-01  9.9927797540294017e-02  1.0000000000000003e-01  9.9930025595994648e-02  1.0000000000000003e-01  9.9934106908330544e-02  1.0000000000000003e-01  9.9935996139777827e-02  1.0000000000000003e-01  9.9938029350733842e-02  1.0000000000000003e-01  9.9940513543876980e-02  1.0000000000000003e-01  9.9942160760657553e-02  1.0000000000000003e-01  9.9943363891430326e-02  1.0000000000000003e-01  9.9945379322153263e-02  1.0000000000000003e-01  9.9946011952699906e-02  1.0000000000000003e-01  9.9947831687687796e-02  1.0000000000000003e-01  9.9947591792339502e-02  1.0000000000000003e-01  9.9950833469925851e-02  1.0000000000000003e-01  9.9947370393209653e-02  1.0000000000000003e-01  9.9955344040247959e-02  1.0000000000000003e-01  9.9943888292903155e-02  1.0000000000000003e-01  9.9964558676128287e-02  1.0000000000000003e-01  9.9929587926521554e-02  1.0000000000000001e-01  1.0000000000000003e-01  1.0000688225149239e-01  1.0000000000000003e-01  1.0000639289638016e-01  1.0000678497321866e-01  1.0000767566521561e-01  1.0001029988361253e-01  1.0001000853582320e-01  1.0001064256630476e-01  1.0001458433713127e-01  1.0001252175796733e-01  1.0001427951070641e-01  1.0001680333093417e-01  1.0002717238985873e-01  1.0002285200366834e-01  1.0003315549137567e-01  1.0002817782199343e-01  1.0003293582368558e-01  1.0004095710572135e-01  1.0003921303098992e-01  1.0004293841324231e-01  1.0005556952533082e-01  1.0004889713580085e-01  1.0006114492986336e-01  1.0006098058784850e-01  1.0007464085353382e-01  1.0005301616221027e-01  1.0010954523614980e-01  1.0001874356736634e-01  1.0017938328829812e-01  9.9933993108640817e-02  1.0028978146397810e-01  1.0020157166943978e-01  9.9339589071111817e-02  9.9783429394997944e-02  9.9971605434394387e-02  9.9939487999203436e-02  9.9951537566245391e-02  9.9929566161067199e-02  9.9959293159544174e-02  9.9945549942759421e-02  9.9950723510413786e-02  9.9957218545126292e-02  9.9957872979212783e-02  9.9957920825452642e-02  9.9964287732412505e-02  9.9964526563497469e-02  9.9965541002710101e-02  9.9969166033930440e-02  9.9969928599854749e-02  9.9970720985585015e-02  9.9973064606447531e-02  9.9974033500982717e-02  9.9974404462168390e-02  9.9976725915282699e-02  9.9976368058294282e-02  9.9978955481655585e-02  9.9976940877344184e-02  9.9983262653510055e-02  9.9973786251753932e-02  9.9992044918655681e-02  9.9965423275888879e-02  1.0000000000000003e-01  1.0001052840921361e-01  1.0000000000000003e-01  1.0000671740058516e-01  1.0000984670375769e-01  1.0001245566344866e-01  1.0001266469759384e-01  1.0001337164301480e-01  1.0001903115000535e-01  1.0001758568220205e-01  1.0001823740844905e-01  1.0002434239658339e-01  1.0002597550569346e-01  1.0002001362887387e-01  1.0004879327408045e-01  1.0003683090947262e-01  1.0004340506674116e-01  1.0005509003810882e-01  1.0004987034025974e-01  1.0005626985811189e-01  1.0007245853312056e-01  1.0006733555162765e-01  1.0007341459313535e-01  1.0009648540201348e-01  1.0007972180045319e-01  1.0010700299256273e-01  1.0009352150265433e-01  1.0013346662814002e-01  1.0006604101647036e-01  1.0021613333164212e-01  9.9944211744131067e-02  1.0045277132487881e-01  1.0011886743521922e-01  9.9425987740961480e-02  9.9684080640445080e-02  9.9938855586526071e-02  9.9916179061437058e-02  9.9865711477492763e-02  9.9942689008092805e-02  9.9899432969259530e-02  9.9912155369663497e-02  9.9924910482303619e-02  9.9924065023470829e-02  9.9922405850354168e-02  9.9935420523408841e-02  9.9934194958105460e-02  9.9935799656770033e-02  9.9943024664300439e-02  9.9943898702517284e-02  9.9944731488306196e-02  9.9949670042218608e-02  9.9950461165710922e-02  9.9951653459345230e-02  9.9954500821693604e-02  9.9956105844043755e-02  9.9956124198600976e-02  9.9960044236573259e-02  9.9958123906899315e-02  9.9963987853172981e-02  9.9957175880297872e-02  9.9973201433830025e-02  9.9945264890872978e-02  1.0000000000000003e-01  1.0001284031240180e-01  1.0000000000000003e-01  1.0000803971834271e-01  1.0001412242043684e-01  1.0001322505765077e-01  1.0001409683448216e-01  1.0002012910410132e-01  1.0001861825492551e-01  1.0001929164699905e-01  1.0002676663357202e-01  1.0002378971215617e-01  1.0002382748669436e-01  1.0004010089564584e-01  1.0002318381539765e-01  1.0004871228405326e-01  1.0005275764866184e-01  1.0004877489962699e-01  1.0004967428106483e-01  1.0006921106367897e-01  1.0005720648231410e-01  1.0006750096162151e-01  1.0008331825926226e-01  1.0007863466423028e-01  1.0007713038238028e-01  1.0011488998652213e-01  1.0006839340542169e-01  1.0014032558078045e-01  1.0004425055878680e-01  1.0022006086546847e-01  9.9907146237740357e-02  1.0047841024157372e-01  1.0010973402574357e-01  9.9281031712742829e-02  9.9798678299581195e-02  9.9973628822498772e-02  9.9771887526594091e-02  1.0000397778916134e-01  9.9887316355814632e-02  9.9921637000764271e-02  9.9928934795398022e-02  9.9930451713890242e-02  9.9921495725175488e-02  9.9942745306641406e-02  9.9937298782002928e-02  9.9938716132991365e-02  9.9948371320205079e-02  9.9948899093826052e-02  9.9949287035401013e-02  9.9956098428323009e-02  9.9956702318649865e-02  9.9957448634275317e-02  9.9961943772062550e-02  9.9962559090327974e-02  9.9964192653973105e-02  9.9966029913390431e-02  9.9969044334035431e-02  9.9966867952261354e-02  9.9974685238447533e-02  9.9965861985230289e-02  9.9983524713435662e-02  9.9958062629316280e-02  1.0000000000000003e-01  1.0001520781437707e-01  1.0000000000000003e-01  1.0001071844553938e-01  1.0001482460096148e-01  1.0001404009556145e-01  1.0002100988616937e-01  1.0001929842460343e-01  1.0002069437770293e-01  1.0002902422185239e-01  1.0002571463746392e-01  1.0002579314700780e-01  1.0004001919576626e-01  1.0003163871438979e-01  1.0003946797703184e-01  1.0004024145036557e-01  1.0006008511223281e-01  1.0005221896602162e-01  1.0007544919325384e-01  1.0006014623070214e-01  1.0006761985355293e-01  1.0009164215075946e-01  1.0007462628303884e-01  1.0009005321961979e-01  1.0010455333702202e-01  1.0010650300292452e-01  1.0008607918653037e-01  1.0016249129339970e-01  1.0004233677947638e-01  1.0024909295502657e-01  9.9893819375693721e-02  1.0055289019310590e-01  1.0023596483178085e-01  9.9192505477906451e-02  9.9729190418682265e-02  9.9898614166682442e-02  9.9883721725252589e-02  9.9862836274135419e-02  9.9905114276482798e-02  9.9911462312525276e-02  9.9921641671816386e-02  9.9893592456598249e-02  9.9932497881938726e-02  9.9919233991720799e-02  9.9920982028749189e-02  9.9934876754400437e-02  9.9934443086713731e-02  9.9933584570128201e-02  9.9944415075053264e-02  9.9944478645331111e-02  9.9945187966808652e-02  9.9951487651607218e-02  9.9952594681652421e-02  9.9953098860317710e-02  9.9957955560268680e-02  9.9958168661672966e-02  9.9960982249197583e-02  9.9961139465787718e-02  9.9967173123163527e-02  9.9960053071451893e-02  9.9977288916478377e-02  9.9951052425355277e-02  1.0000000000000003e-01  1.0001799888878203e-01  1.0000000000000003e-01  1.0001097489459990e-01  1.0001601164775183e-01  1.0001935178335045e-01  1.0001995723893410e-01  1.0002048029459157e-01  1.0002897942305108e-01  1.0002684072429305e-01  1.0002662385171232e-01  1.0003872182510087e-01  1.0003391981330480e-01  1.0003660831304009e-01  1.0004925434713835e-01  1.0004690817629128e-01  1.0003053778307394e-01  1.0008698835226455e-01  1.0005785756770801e-01  1.0006863114106852e-01  1.0008935024566490e-01  1.0007392968738035e-01  1.0007854437740457e-01  1.0011490693604748e-01  1.0008187373039878e-01  1.0011322594375030e-01  1.0010566001940339e-01  1.0014650580399510e-01  1.0004276763846735e-01  1.0027377680382910e-01  9.9855393728198932e-02  1.0061172837875246e-01  1.0020974675551644e-01  9.9232140763807222e-02  9.9666348822734105e-02  1.0000914758268407e-01  9.9843198010872769e-02  9.9873621777369678e-02  9.9863375592240330e-02  9.9953350427781432e-02  9.9866687470983595e-02  9.9945457556243955e-02  9.9910085445625393e-02  9.9915707888216312e-02  9.9932781231079057e-02  9.9932134598941569e-02  9.9927890332017474e-02  9.9943512414593233e-02  9.9941926235732434e-02  9.9942241748483415e-02  9.9951480830641537e-02  9.9951920472496472e-02  9.9952386348409333e-02  9.9958166389668687e-02  9.9959616290760903e-02  9.9959605673872298e-02  9.9965325350162726e-02  9.9963570493224171e-02  9.9970105085771033e-02  9.9963869928475266e-02  9.9980425523306438e-02  9.9955983902652423e-02  1.0000000000000003e-01  1.0001951533157133e-01  1.0000000000000003e-01  1.0001146688077298e-01  1.0002077429683010e-01  1.0001858188364643e-01  1.0002069139454127e-01  1.0002800654526868e-01  1.0002713149609700e-01  1.0002691974831412e-01  1.0003889187430810e-01  1.0003386266825746e-01  1.0003571300004911e-01  1.0005172126668835e-01  1.0004507786868137e-01  1.0004123232888894e-01  1.0007089631315745e-01  1.0003562342120029e-01  1.0007934022244153e-01  1.0009061121677836e-01  1.0007538482838158e-01  1.0007968461890743e-01  1.0011006773490541e-01  1.0009001831924433e-01  1.0009176820987230e-01  1.0014343322111383e-01  1.0008307805923708e-01  1.0015724408224524e-01  1.0006814801690145e-01  1.0026235411040935e-01  9.9854232840566270e-02  1.0066581868700193e-01  1.0018483450284695e-01  9.9165699867679036e-02  9.9734883174136757e-02  9.9970614151571602e-02  9.9799524795747011e-02  9.9925401202625108e-02  9.9883195860697979e-02  9.9825175091282956e-02  9.9957025290448781e-02  9.9893239985050092e-02  9.9909430611626007e-02  9.9920877221425522e-02  9.9925177869924137e-02  9.9914509243772986e-02  9.9937031978562643e-02  9.9933142610678233e-02  9.9932493631060965e-02  9.9944140797543130e-02  9.9945015238023335e-02  9.9944722769104100e-02  9.9953010147758634e-02  9.9953453947021542e-02  9.9954765951569852e-02  9.9958958704853038e-02  9.9961805069209292e-02  9.9960430193120620e-02  9.9968464073549243e-02  9.9961648809769918e-02  9.9978023775178823e-02  9.9954171429348981e-02  1.0000000000000003e-01  1.0002092401368343e-01  1.0000000000000003e-01  1.0001397848704408e-01  1.0002049644602923e-01  1.0001885917775087e-01  1.0002706556163424e-01  1.0002572846490403e-01  1.0002664756394435e-01  1.0003754717147191e-01  1.0003354475942684e-01  1.0003401714431041e-01  1.0005031686306746e-01  1.0004392458412582e-01  1.0004368433924289e-01  1.0006648813312896e-01  1.0004741990926555e-01  1.0005964845476312e-01  1.0006102087104367e-01  1.0008844117625611e-01  1.0007475122590438e-01  1.0011578243928239e-01  1.0008037542837124e-01  1.0009772030558833e-01  1.0012410329403325e-01  1.0011189777255070e-01  1.0008896327046378e-01  1.0018987436304241e-01  1.0003749522069924e-01  1.0027567334672169e-01  9.9863779263626287e-02  1.0067686707027307e-01  1.0026388709738385e-01  9.9096636364166352e-02  9.9695843191548478e-02  9.9934961613768455e-02  9.9860306353395725e-02  9.9915956136686926e-02  9.9837380085835911e-02  9.9917878663631887e-02  9.9854096348023044e-02  9.9924411307600033e-02  9.9906831284920922e-02  9.9931246459077069e-02  9.9900606137933431e-02  9.9936750325741161e-02  9.9927602130408300e-02  9.9926744777517659e-02  9.9941258585266354e-02  9.9941196002280783e-02  9.9939352739036438e-02  9.9950795824261182e-02  9.9951329629371935e-02  9.9951295860369618e-02  9.9958656474388910e-02  9.9958885670922287e-02  9.9961346683737642e-02  9.9963101771661664e-02  9.9969205567605218e-02  9.9962573274258490e-02  9.9979646327953003e-02  9.9956347991008457e-02  1.0000000000000003e-01  1.0002292969204352e-01  1.0000000000000003e-01  1.0001366061170876e-01  1.0002077481800094e-01  1.0002362335571016e-01  1.0002546520173061e-01  1.0002505765042786e-01  1.0003538276060726e-01  1.0003300243254795e-01  1.0003294665085413e-01  1.0004663870007692e-01  1.0004293404681393e-01  1.0004264658670352e-01  1.0006339138066053e-01  1.0005135377992448e-01  1.0005348839611748e-01  1.0007389921454499e-01  1.0006610223992997e-01  1.0004102764276257e-01  1.0012740165996839e-01  1.0008092213013908e-01  1.0009215255240392e-01  1.0013331414388615e-01  1.0008898173928986e-01  1.0011728844213540e-01  1.0012996085356693e-01  1.0015127881994020e-01  1.0004455870802507e-01  1.0031166530497233e-01  9.9829293294857221e-02  1.0070235557754059e-01  1.0026130390980501e-01  9.9117706473203337e-02  9.9650146313444377e-02  9.9995080781885265e-02  9.9837892134517756e-02  9.9872072821092853e-02  9.9896689874417507e-02  9.9894556522860153e-02  9.9866006117882017e-02  9.9874610120037732e-02  9.9947111122700300e-02  9.9880960695526114e-02  9.9940770409823632e-02  9.9917838545806673e-02  9.9919740100002277e-02  9.9935705509443667e-02  9.9936900801423353e-02  9.9931842844175792e-02  9.9946509201600628e-02  9.9945826971809870e-02  9.9945923664389799e-02  9.9954798143452261e-02  9.9956255235368205e-02  9.9955731157295627e-02  9.9963148950108091e-02  9.9961802423017485e-02  9.9967551682416486e-02  9.9963303963881686e-02  9.9978742118248559e-02  9.9956163561392100e-02  1.0000000000000003e-01  1.0002372618217813e-01  1.0000000000000003e-01  1.0001362683098237e-01  1.0002471328960028e-01  1.0002228220803694e-01  1.0002496744608608e-01  1.0003242984254888e-01  1.0003186979606633e-01  1.0003166471389960e-01  1.0004419952343892e-01  1.0004034540392640e-01  1.0004035208923004e-01  1.0005990536826687e-01  1.0005137020636423e-01  1.0005077172368523e-01  1.0007464426134000e-01  1.0006182035090988e-01  1.0005370240251453e-01  1.0010083958436390e-01  1.0004275260772631e-01  1.0010697976967387e-01  1.0012453046073344e-01  1.0009998126627864e-01  1.0009400423186980e-01  1.0016275582463718e-01  1.0008248463655142e-01  1.0015731896356893e-01  1.0008829822048966e-01  1.0026971096735761e-01  9.9832931007222153e-02  1.0074565718495103e-01  1.0024000031021808e-01  9.9086692889943997e-02  9.9691402715300470e-02  9.9984528485040247e-02  9.9797396155106535e-02  9.9925698131544630e-02  9.9880014429588035e-02  9.9871288360161556e-02  9.9899145669923847e-02  9.9906961786294754e-02  9.9844199166694333e-02  9.9958837476430917e-02  9.9905428090830292e-02  9.9921381110836524e-02  9.9928126947243470e-02  9.9935621658808677e-02  9.9924891294856724e-02  9.9944629192118509e-02  9.9942629270124456e-02  9.9940771063885436e-02  9.9951805123995596e-02  9.9953117272929146e-02  9.9953275829149979e-02  9.9960039825788632e-02  9.9962601350376615e-02  9.9961097915278588e-02  9.9969849022401025e-02  9.9963830020030980e-02  9.9978933020049329e-02  9.9957863778711992e-02  1.0000000000000003e-01  1.0002437586673239e-01  1.0000000000000003e-01  1.0001542824488713e-01  1.0002383263221042e-01  1.0002155105100904e-01  1.0003033467776411e-01  1.0002933291509099e-01  1.0003034753424485e-01  1.0004079267950641e-01  1.0003830084333716e-01  1.0003746005523538e-01  1.0005490854543531e-01  1.0004882916978758e-01  1.0004854134217588e-01  1.0007106350021004e-01  1.0005895742354609e-01  1.0005638366365878e-01  1.0009038979304356e-01  1.0006014119807800e-01  1.0007472448763782e-01  1.0008307451635999e-01  1.0010969013169127e-01  1.0009738839744932e-01  1.0014784086572001e-01  1.0010829037965321e-01  1.0009177215976156e-01  1.0020640267274468e-01  1.0003724201962534e-01  1.0027044839059891e-01  9.9881962905959520e-02  1.0070154739687046e-01  1.0029143873940834e-01  9.9029877668486727e-02  9.9680985600285932e-02  9.9952120336574080e-02  9.9840992275730858e-02  9.9915401048542005e-02  9.9846271321312324e-02  9.9909656955605913e-02  9.9900068842000103e-02  9.9872670660559243e-02  9.9915921107286990e-02  9.9876900045511807e-02  9.9933898697324886e-02  9.9916653214085230e-02  9.9940302928658756e-02  9.9914320231581574e-02  9.9943634754699279e-02  9.9938179515336151e-02  9.9936397353978260e-02  9.9948928066433629e-02  9.9949623494078418e-02  9.9947466050601022e-02  9.9958334020171319e-02  9.9958537741813416e-02  9.9960302711021798e-02  9.9963849988244757e-02  9.9969397942598945e-02  9.9963326008591077e-02  9.9979679378133762e-02  9.9958484668461078e-02  1.0000000000000003e-01  1.0002575134570811e-01  1.0000000000000003e-01  1.0001492058098284e-01  1.0002346000055878e-01  1.0002539778812568e-01  1.0002832011517958e-01  1.0002776814431054e-01  1.0003779413540213e-01  1.0003631374036315e-01  1.0003556587796975e-01  1.0004938321524429e-01  1.0004635273534740e-01  1.0004534548745089e-01  1.0006556867766918e-01  1.0005749378990837e-01  1.0005412009686786e-01  1.0008386286376146e-01  1.0006431011350134e-01  1.0006558672277653e-01  1.0009563929142828e-01  1.0008177317542723e-01  1.0004307543841656e-01  1.0017084714228096e-01  1.0008769178093303e-01  1.0012196412678875e-01  1.0014747821175587e-01  1.0014184959504870e-01  1.0004322172764384e-01  1.0032522296024088e-01  9.9830121239569983e-02  1.0069559446945429e-01  1.0031060389170393e-01  9.9041970814734134e-02  9.9640822706012946e-02  9.9993176743642609e-02  9.9837034956394094e-02  9.9882445761584518e-02  9.9885107350360783e-02  9.9906576916989703e-02  9.9867164853733190e-02  9.9916454394787857e-02  9.9905186475700958e-02  9.9893370797939030e-02  9.9889096813208719e-02  9.9957827239074065e-02  9.9900781979043146e-02  9.9949055580492940e-02  9.9932199833827839e-02  9.9933372187776939e-02  9.9946050039699447e-02  9.9948320790479564e-02  9.9943779760165552e-02  9.9955395062682792e-02  9.9956172177456781e-02  9.9955689661025290e-02  9.9964640685079043e-02  9.9963837865978997e-02  9.9968449972913528e-02  9.9965980824424636e-02  9.9979876322632610e-02  9.9959613170204201e-02  1.0000000000000003e-01  1.0002591504165052e-01  1.0000000000000003e-01  1.0001437003566060e-01  1.0002623814253152e-01  1.0002358718944797e-01  1.0002689681263616e-01  1.0003340205503315e-01  1.0003393526215275e-01  1.0003351063689388e-01  1.0004520462609438e-01  1.0004236221422765e-01  1.0004205709330373e-01  1.0005974803907780e-01  1.0005418565419989e-01  1.0005086805988395e-01  1.0007670854776604e-01  1.0006407092554565e-01  1.0005973426000085e-01  1.0009461334187668e-01  1.0007346710043007e-01  1.0006112219845759e-01  1.0012660581014243e-01  1.0004680615121783e-01  1.0011953708658568e-01  1