<?xml version="1.0"?>
<VTKFile type="UnstructuredGrid"  version="0.1"  >
<UnstructuredGrid>
<Piece  NumberOfPoints="1933" NumberOfCells="3640">
<Points>
<DataArray  type="Float64"  NumberOfComponents="3"  format="ascii">0.0002860437104297286 -0.002366941729440622 0  5.000286069469042 -0.002294145898607288 0  5.000176835325246 7.497705897273852 0  0.0001768132784765175 7.497633110470686 0  10.00028612331967 -0.002221371327404405 0  10.00017686434739 7.497778662704429 0  15.00028621664006 -0.002148578476882355 0  15.00017689795804 7.497851448416772 0  20.00028634987245 -0.002075727468883089 0  20.00017693079677 7.497924294182408 0  25.0002865159424 -0.002002780789658796 0  25.00017695432032 7.497997236921194 0  30.00028670256777 -0.001929703530473436 0  30.00017695671445 7.498070310954905 0  35.00028689353516 -0.001856462736494529 0  35.00017692281517 7.498143548761178 0  40.00028706920111 -0.001783026496541049 0  40.00017683392925 7.498216981872729 0  45.00028720643695 -0.001709363015819309 0  45.00017666749173 7.498290641767129 0  50.00028727816082 -0.001635439748667544 0  50.00017639652517 7.498364560694656 0  55.0002872525303 -0.001561222598613409 0  55.00017598887532 7.498438772440827 0  60.0002870918149 -0.001486675163868558 0  60.00017540619375 7.498513313042154 0  65.00028675092156 -0.001411757993397111 0  65.00017460262303 7.498588221483531 0  70.00028617549901 -0.001336427810659491 0  70.00017352312128 7.49866354041019 0  75.00028529949809 -0.001260636653304959 0  75.00017210133477 7.498739316889909 0  80.00028404199003 -0.001184330864039673 0  80.00017025689304 7.498815603262602 0  85.00028230294163 -0.001107449848019048 0  85.00016789195838 7.498892458113005 0  90.00027995747531 -0.001029924483610471 0  90.00016488680842 7.49896994738976 0  95.00027684786909 -0.000951675036492819 0  95.00016109418543 7.499048145655162 0  100.0002727720806 -0.0008726083890254983 0  100.0001563321151 7.49912713734526 0  105.0002674667804 -0.0007926143849168898 0  105.000150374958 7.499207017667405 0  110.000260581473 -0.0007115611840710565 0  110.0001429427381 7.499287892182148 0  115.0002516378003 -0.0006292899420698769 0  115.0001336896165 7.499369872830743 0  120.0002399636913 -0.0005456104369583104 0  120.0001221944105 7.499453065384835 0  125.0002245841161 -0.0004603028972386394 0  125.0001079607009 7.4995375373815 0  130.0002040361494 -0.0003731408902578747 0  130.0000904441359 7.499623243283887 0  135.0001760513591 -0.0002839751765878615 0  135.0000691454253 7.499709858530884 0  140.0001370061088 -0.0001929844774685587 0  140.0000438491102 7.499796425068267 0  145.0000809695449 -0.0001013799705207853 0  145.0000151670153 7.49988062272732 0  149.9999980629967 -1.338170489319756e-05 0  149.999985685551 7.499957358738062 0  160 6.634257787070106e-19 0  165.000041808285 2.163065149693837e-05 0  165.0000077954654 7.500019592274307 0  159.9999894448567 7.499995097264911 0  170.0000785223022 5.924740379447677e-05 0  170.0000259856615 7.500058589898412 0  175.0001097955872 0.0001073941052053381 0  175.0000432508415 7.500107332341656 0  180.0001361042872 0.0001626214331516428 0  180.0000591468334 7.50016279214918 0  185.0001581457577 0.0002227190620145469 0  185.0000734778339 7.500222963376698 0  190.0001766062543 0.0002862356180339066 0  190.0000862130107 7.500286487488406 0  195.0001920861156 0.0003521926231327293 0  195.0000974179307 7.500352426945011 0  200.0002050869032 0.0004199134473499492 0  200.000107207321 7.50042012266026 0  205.0002160202336 0.0004889191897138357 0  205.0001157157012 7.500489102897409 0  210.000225222224 0.0005588638416264109 0  210.0001230804633 7.500559024287755 0  215.000232967657 0.0006294928979931219 0  215.0001294328487 7.500629633053864 0  220.0002394820681 0.0007006162510701463 0  220.0001348936651 7.50070073905589 0  225.0002449515223 0.000772089980958244 0  225.0001395717136 7.500772198080432 0  230.0002495303648 0.0008438038211776423 0  230.0001435637031 7.500843899513835 0  235.0002533473385 0.0009156723349762657 0  235.0001469549323 7.500915757598955 0  240.0002565104374 0.0009876285802377905 0  240.000149820331 7.500987705126659 0  245.000259110799 0.001059619487429481 0  245.0001522256323 7.501059688818719 0  250.0002612258664 0.001131602449933157 0  250.0001542285574 7.50113166591542 0  255.000262922006 0.001203542800266596 0  255.0001558799547 7.501203601646687 0  260.0002642567155 0.001275411960524338 0  260.0001572248574 7.501275467376456 0  265.000265280532 0.001347186135702128 0  265.0001583034563 7.501347239287521 0  270.000266038709 0.00141884548008731 0  270.0001591519762 7.501418897532711 0  275.0002665727322 0.001490373720354103 0  275.0001598034435 7.501490425827043 0  280.0002669216814 0.001561758272636969 0  280.0001602883405 7.501561811500389 0  285.0002671234278 0.00163299095128189 0  285.0001606351099 7.501633046074634 0  290.0002672155576 0.001704069438016974 0  290.0001608704911 7.50170412647312 0  295.0002672357761 0.001774999755375195 0  295.0001610196608 7.501775057005849 0  300.0002672212626 0.001845800021441866 0  300.0001611062114 7.501845852285014 0  305.0002672059207 0.001916505558142198 0  305.0001611521527 7.501916541198217 0  310.0002672134325 0.001987174176217661 0  310.0001611785088 7.50198717212703 0  5.000067606736238 14.99770597397461 0  6.758985825860986e-05 14.99763323660306 0  10.00006761406243 14.99777869922669 0  15.00006760489651 14.99785145512894 0  20.00006757095703 14.99792427876173 0  25.00006750262087 14.99799720398724 0  30.00006738847376 14.99807026256624 0  35.00006721481949 14.99814348497646 0  40.00006696521527 14.99821690116069 0  45.00006662000605 14.99829054123235 0  50.0000661558175 14.99836443613292 0  55.00006554497023 14.99843861823727 0  60.00006475478825 14.99851312190968 0  65.00006374678145 14.99858798401527 0  70.00006247568939 14.99866324438771 0  75.00006088838735 14.99873894624362 0  80.00005892267417 14.99881513651174 0  85.00005650600693 14.9988918660029 0  90.00005355432179 14.99896918926905 0  95.0000499712246 14.99904716385344 0  100.0000456480884 14.9991258483629 0  105.0000404660303 14.99920529829434 0  110.0000343014715 14.99928555763872 0  115.000027038146 14.999366642661 0  120.0000185901538 14.99944851142744 0  125.0000089429071 14.99953100794486 0  129.9999982209483 14.99961376255163 0  134.9999867912036 14.99969602092244 0  139.9999754005763 14.99977636806883 0  144.999965311628 14.99985233292846 0  149.9999583050661 14.99991997497249 0  164.9999691246647 15.0000145253054 0  159.9999630198894 14.9999791762678 0  169.9999753380383 15.00005787815427 0  174.9999820279054 15.00010830259987 0  179.9999890165199 15.0001643070776 0  184.9999960302139 15.00022454693733 0  190.0000028357685 15.00028795467116 0  195.0000092703697 15.00035371968019 0  200.00001523604 15.0004212360963 0  205.0000206847238 15.00049005247672 0  210.0000256033997 15.00055983140336 0  215.0000300020362 15.00063031913186 0  220.0000339047152 15.00070132339661 0  225.0000373434373 15.00077269732008 0  230.0000403539692 15.0008443277389 0  235.0000429731605 15.0009161266858 0  240.0000452372788 15.00098802512549 0  245.0000471810365 15.00105996831167 0  250.0000488370796 15.00113191232568 0  255.0000502357742 15.00120382149341 0  260.0000514051803 15.00127566647361 0  265.0000523711374 15.00134742287938 0  270.0000531574095 15.00141907034665 0  275.0000537858504 15.00149059200195 0  280.0000542765777 15.00156197431202 0  285.0000546481552 15.00163320731877 0  290.0000549178076 15.00170428527038 0  295.0000551017724 15.00177520764634 0  300.0000552159493 15.0018459805289 0  305.000055277188 15.00191661819944 0  310.0000553057928 15.00198714479905 0  4.999958516768087 22.49770607044803 0  -4.149617218657253e-05 22.49763343861746 0  9.999958512626826 22.49777871771159 0  14.99995848106201 22.49785141444551 0  19.99995841284963 22.49792419111735 0  24.99995829883957 22.49799707614838 0  29.99995812925857 22.49807009685138 0  34.99995789315049 22.49814328004862 0  39.99995757791722 22.49821665255968 0  44.9999571689379 22.49829024163114 0  49.99995664924739 22.49836407532319 0  54.99995599925825 22.49843818284483 0  59.99995519652535 22.49851259482029 0  64.99995421556918 22.49858734346087 0  69.99995302779615 22.4986624626001 0  74.99995160158991 22.49873798752614 0  79.99994990269266 22.49881395449958 0  84.99994789506823 22.49889039977381 0  89.99994554254184 22.49896735781531 0  94.99994281166249 22.49904485822976 0  99.99993967643944 22.49912292059135 0  104.9999361258761 22.49920154588979 0  109.9999321755308 22.49928070257524 0  114.9999278845819 22.49936030412648 0  119.9999233798366 22.49944017370757 0  124.9999188872503 22.49951999012164 0  129.9999147688262 22.49959920906504 0  134.999911556519 22.49967695785269 0  139.9999099628655 22.49975191825988 0  144.9999108299288 22.49982225849653 0  149.9999149625319 22.49988578577108 0  164.9999179118964 22.5000076099095 0  159.9999188097878 22.49996319386854 0  169.9999172932753 22.50005620321387 0  174.9999173134488 22.50010929855347 0  179.9999180655525 22.50016650185384 0  184.9999194628966 22.50022715447691 0  189.9999213463859 22.50029057888768 0  194.9999235482787 22.5003561763622 0  199.9999259214409 22.50042345233171 0  204.9999283488566 22.5004920116626 0  209.9999307434928 22.50056154386144 0  214.9999330442192 22.50063180675648 0  219.9999352106698 22.50070261186459 0  224.9999372183598 22.50077381231675 0  229.9999390545384 22.50084529328294 0  234.9999407148804 22.50091696452658 0  239.9999422009395 22.50098875466924 0  244.9999435182405 22.50106060679011 0  249.9999446748703 22.50113247505711 0  254.9999456804577 22.50120432215498 0  259.999946545435 22.5012761173356 0  264.9999472805156 22.50134783496141 0  269.9999478963272 22.50141945344913 0  274.9999484031699 22.50149095454488 0  279.9999488108833 22.50156232287656 0  284.9999491288395 22.50163354572872 0  289.9999493661039 22.50170461296822 0  294.9999495318594 22.50177551700354 0  299.9999496362346 22.501846252576
[...]
<PointData  Scalars="p"> 
<DataArray  type="Float64"  Name="p"  format="ascii">1.0000000000000001e-01  1.0000000000000003e-01  9.9996101361722114e-02  1.0000000000000003e-01  1.0000000000000003e-01  9.9995467662788509e-02  1.0000000000000003e-01  9.9993155635726180e-02  1.0000000000000003e-01  9.9991981628802601e-02  1.0000000000000003e-01  9.9990315043086031e-02  1.0000000000000003e-01  9.9987577548488124e-02  1.0000000000000003e-01  9.9986352933611633e-02  1.0000000000000003e-01  9.9984476549960899e-02  1.0000000000000003e-01  9.9981389277596713e-02  1.0000000000000003e-01  9.9980932906426206e-02  1.0000000000000003e-01  9.9973275335763806e-02  1.0000000000000003e-01  9.9969048912901648e-02  1.0000000000000003e-01  9.9964528452681209e-02  1.0000000000000003e-01  9.9960885038175185e-02  1.0000000000000003e-01  9.9953508046674064e-02  1.0000000000000003e-01  9.9950524862404647e-02  1.0000000000000003e-01  9.9945097858569004e-02  1.0000000000000003e-01  9.9936769814422635e-02  1.0000000000000003e-01  9.9934303938115573e-02  1.0000000000000003e-01  9.9926006785420657e-02  1.0000000000000003e-01  9.9920951676439135e-02  1.0000000000000003e-01  9.9911890652178204e-02  1.0000000000000003e-01  9.9914022270583644e-02  1.0000000000000003e-01  9.9891348073544162e-02  1.0000000000000003e-01  9.9912113149340009e-02  1.0000000000000003e-01  9.9865840259967906e-02  1.0000000000000003e-01  9.9918415843689712e-02  1.0000000000000003e-01  9.9830591570583202e-02  1.0000000000000003e-01  9.9935654351736916e-02  1.0000000000000001e-01  9.9770846141622543e-02  1.0000000000000001e-01  1.0000000000000003e-01  1.0018602496274831e-01  1.0038243325129637e-01  1.0000000000000003e-01  1.0005421570733627e-01  1.0000000000000003e-01  1.0014695668874582e-01  1.0000000000000003e-01  1.0009711350882378e-01  1.0000000000000003e-01  1.0011209348326236e-01  1.0000000000000003e-01  1.0009924064214835e-01  1.0000000000000003e-01  1.0010533719344523e-01  1.0000000000000003e-01  1.0009447652947476e-01  1.0000000000000003e-01  1.0009611663283066e-01  1.0000000000000003e-01  1.0009245677670622e-01  1.0000000000000003e-01  1.0008928570542840e-01  1.0000000000000003e-01  1.0008695954419453e-01  1.0000000000000003e-01  1.0008541747674803e-01  1.0000000000000003e-01  1.0008220686286562e-01  1.0000000000000003e-01  1.0008069641582801e-01  1.0000000000000003e-01  1.0007904756621346e-01  1.0000000000000003e-01  1.0007700202480949e-01  1.0000000000000003e-01  1.0007550247256343e-01  1.0000000000000003e-01  1.0007451433296688e-01  1.0000000000000003e-01  1.0007257365833136e-01  1.0000000000000003e-01  1.0007216400171583e-01  1.0000000000000003e-01  1.0007006503370737e-01  1.0000000000000003e-01  1.0007086792987768e-01  1.0000000000000003e-01  1.0006667895767155e-01  1.0000000000000003e-01  1.0007171929672790e-01  1.0000000000000003e-01  1.0006097110874179e-01  1.0000000000000003e-01  1.0007699822103326e-01  1.0000000000000003e-01  1.0004862424047939e-01  1.0000000000000003e-01  1.0009713107262420e-01  1.0000000000000001e-01  1.0000000000000003e-01  9.9993581080604993e-02  1.0000000000000003e-01  9.9993639639486750e-02  9.9993181840967130e-02  9.9992295206316500e-02  9.9989980353798427e-02  9.9990150582705981e-02  9.9989715890832623e-02  9.9986366764926796e-02  9.9987916604142718e-02  9.9986576175213476e-02  9.9983518047768338e-02  9.9975620070637594e-02  9.9977906288005111e-02  9.9969368048814747e-02  9.9973110337532187e-02  9.9969817504860045e-02  9.9963104732777572e-02  9.9965013755924689e-02  9.9962808648727738e-02  9.9952753061514618e-02  9.9959058781459373e-02  9.9950228383195491e-02  9.9951019772091032e-02  9.9940779222286003e-02  9.9959907650156776e-02  9.9913954767791621e-02  9.9989027707540687e-02  9.9858252588293742e-02  1.0005779791654189e-01  9.9767489414517754e-02  9.9838386958628247e-02  1.0058601463821078e-01  1.0017588612421681e-01  1.0002789640206611e-01  1.0005170605603296e-01  1.0004157651641772e-01  1.0006177258785579e-01  1.0003805683457978e-01  1.0004976072316039e-01  1.0004680785132854e-01  1.0004209514689778e-01  1.0004186842545530e-01  1.0004245518184175e-01  1.0003756274162193e-01  1.0003746908752763e-01  1.0003692040807366e-01  1.0003407900319418e-01  1.0003352721387113e-01  1.0003298299081462e-01  1.0003122015801770e-01  1.0003034851687333e-01  1.0003035641911337e-01  1.0002814707752078e-01  1.0002911788114491e-01  1.0002604711002133e-01  1.0002953232418155e-01  1.0002127647907788e-01  1.0003484071640298e-01  1.0001012533492233e-01  1.0004736348031916e-01  1.0000000000000003e-01  9.9990520851331810e-02  1.0000000000000003e-01  9.9993590251179723e-02  9.9990459197659670e-02  9.9988071877179535e-02  9.9987617173625726e-02  9.9987139376670142e-02  9.9982258078299677e-02  9.9983413197357054e-02  9.9983146096034717e-02  9.9977577515546256e-02  9.9976395539044777e-02  9.9980068517929177e-02  9.9957163987711137e-02  9.9965008188395960e-02  9.9960221734266011e-02  9.9949823091313825e-02  9.9954580993110567e-02  9.9950282768061491e-02  9.9937156047645276e-02  9.9942209418318495e-02  9.9938997536209231e-02  9.9920561921000198e-02  9.9935911946924430e-02  9.9915448459869161e-02  9.9927631901084113e-02  9.9895837228902343e-02  9.9953475920087589e-02  9.9829381178008977e-02  1.0005351974187439e-01  9.9635165401014178e-02  9.9883273486042548e-02  1.0054234290746665e-01  1.0028229325017032e-01  1.0005869076697538e-01  1.0007392285704492e-01  1.0012043934342568e-01  1.0005707349565332e-01  1.0009274791255006e-01  1.0008495969951406e-01  1.0007549255555591e-01  1.0007669616294568e-01  1.0007943316379210e-01  1.0006939887204112e-01  1.0007065892445695e-01  1.0006998352947416e-01  1.0006435679901186e-01  1.0006369243926293e-01  1.0006332234211505e-01  1.0005939479766890e-01  1.0005885151792948e-01  1.0005795110344753e-01  1.0005590256080964e-01  1.0005433467513858e-01  1.0005502735528689e-01  1.0005091145640306e-01  1.0005423096849309e-01  1.0004686702112049e-01  1.0005714993531079e-01  1.0003570393128042e-01  1.0007496130371915e-01  1.0000000000000003e-01  9.9988639142782748e-02  1.0000000000000003e-01  9.9992724344587322e-02  9.9987365434472661e-02  9.9987915908846620e-02  9.9987379172698995e-02  9.9982308313734156e-02  9.9983653615214399e-02  9.9983664984198681e-02  9.9977405639160896e-02  9.9980007855443781e-02  9.9980289780808196e-02  9.9966884725072327e-02  9.9978880116387989e-02  9.9960328442769031e-02  9.9954318818372467e-02  9.9958113030316847e-02  9.9957991073171271e-02  9.9942153659591762e-02  9.9952787463361795e-02  9.9946202156160110e-02  9.9933687214730102e-02  9.9938875683509995e-02  9.9942619622108597e-02  9.9912021332016043e-02  9.9952380185629838e-02  9.9894472543043289e-02  9.9974972999658351e-02  9.9828799778425487e-02  1.0008919788492227e-01  9.9612649205836123e-02  9.9879334997100222e-02  1.0066895919589662e-01  1.0018755052674141e-01  1.0001773581866610e-01  1.0019065985737004e-01  9.9998606597912557e-02  1.0009210097345511e-01  1.0006762935136106e-01  1.0006261098678391e-01  1.0006186703912620e-01  1.0007127389211656e-01  1.0005485216696471e-01  1.0005970360235281e-01  1.0005958446117212e-01  1.0005220679105195e-01  1.0005194428584638e-01  1.0005209970685650e-01  1.0004681009956851e-01  1.0004635289349188e-01  1.0004612800281415e-01  1.0004253370615812e-01  1.0004237495456986e-01  1.0004095279368851e-01  1.0004024839139170e-01  1.0003692177463429e-01  1.0004082834015914e-01  1.0003136053895245e-01  1.0004439211781378e-01  1.0002094634312485e-01  1.0005701291160773e-01  1.0000000000000003e-01  9.9986706694910249e-02  1.0000000000000003e-01  9.9990728230180792e-02  9.9986997695399926e-02  9.9987844270749499e-02  9.9981743211567345e-02  9.9983277900838066e-02  9.9982533371286070e-02  9.9975735160684837e-02  9.9978696755366414e-02  9.9979251605133657e-02  9.9967591591499719e-02  9.9974093384091384e-02  9.9968853485612102e-02  9.9965477200094896e-02  9.9951667724072088e-02  9.9956425949382491e-02  9.9937302200052161e-02  9.9949936974734657e-02  9.9945923164336148e-02  9.9926195883618271e-02  9.9941773735226475e-02  9.9931455886841630e-02  9.9920558235771367e-02  9.9920266318390044e-02  9.9940808612831236e-02  9.9876958374497754e-02  9.9979731369019664e-02  9.9806707576897413e-02  1.0010440456685778e-01  9.9549555878575044e-02  9.9767132129789216e-02  1.0075801344548395e-01  1.0024219063490079e-01  1.0007886260992067e-01  1.0010828410685615e-01  1.0011106470596946e-01  1.0008154821201073e-01  1.0007712907284182e-01  1.0006798289812624e-01  1.0009413493634489e-01  1.0006366750947848e-01  1.0007493713119187e-01  1.0007525464321455e-01  1.0006476732450952e-01  1.0006533519664945e-01  1.0006691744308394e-01  1.0005849849101953e-01  1.0005853273150121e-01  1.0005835960366803e-01  1.0005352460106703e-01  1.0005264249656756e-01  1.0005274696714631e-01  1.0004872220258955e-01  1.0004929060700016e-01  1.0004642199298773e-01  1.0004806115307806e-01  1.0004078399384195e-01  1.0005163598056573e-01  1.0002923517728415e-01  1.0006639740764925e-01  1.0000000000000003e-01  9.9984414380371908e-02  1.0000000000000003e-01  9.9990648644751337e-02  9.9986438900305272e-02  9.9983717069116601e-02  9.9983175549937700e-02  9.9983082035351764e-02  9.9976098292162627e-02  9.9978074680404469e-02  9.9979114674361741e-02  9.9969178665036518e-02  9.9973356156024470e-02  9.9972264313527931e-02  9.9960979513727496e-02  9.9963763198433572e-02  9.9975696460942731e-02  9.9931749806404305e-02  9.9952880338477559e-02  9.9946153009556157e-02  9.9928247999840902e-02  9.9942374376527532e-02  9.9941238095825169e-02  9.9911600460134323e-02  9.9940985330012860e-02  9.9917765612390352e-02  9.9925844200801611e-02  9.9891773524268881e-02  9.9983680274599612e-02  9.9785963385516055e-02  1.0014150104275098e-01  9.9498331925516534e-02  9.9775188724249425e-02  1.0073462214203124e-01  1.0029545123746765e-01  9.9983025082094890e-02  1.0013193841233496e-01  1.0010550047354547e-01  1.0011434515932544e-01  1.0003636791895235e-01  1.0011095246137881e-01  1.0004785845811794e-01  1.0007677492594499e-01  1.0007478590957594e-01  1.0006202300157474e-01  1.0006286680941728e-01  1.0006772297286941e-01  1.0005560460873114e-01  1.0005703970125431e-01  1.0005751916735854e-01  1.0005026727962969e-01  1.0005005167647978e-01  1.0004999348884391e-01  1.0004575813206627e-01  1.0004445684481654e-01  1.0004543068730351e-01  1.0004010510767646e-01  1.0004354180831884e-01  1.0003573582153436e-01  1.0004604972910819e-01  1.0002445462839041e-01  1.0005925806681573e-01  1.0000000000000003e-01  9.9983159819423018e-02  1.0000000000000003e-01  9.9990487813329545e-02  9.9982611206222732e-02  9.9984642379565752e-02  9.9983175299287880e-02  9.9977203266452944e-02  9.9977867804224213e-02  9.9978907328036770e-02  9.9969030223579308e-02  9.9973428110720186e-02  9.9973178699652984e-02  9.9959681802046507e-02  9.9965572689200588e-02  9.9969472667157958e-02  9.9945521198437151e-02  9.9971714201067569e-02  9.9940974599243240e-02  9.9927477010802152e-02  9.9941221207586903e-02  9.9939352824897548e-02  9.9914842020173950e-02  9.9932657222960422e-02  9.9935170289450995e-02  9.9892277962198808e-02  9.9945711385228661e-02  9.9884991417463098e-02  9.9963833917337333e-02  9.9794934811449507e-02  1.0014894925260863e-01  9.9447203076710053e-02  9.9791983528333572e-02  1.0079320182586952e-01  1.0024112179060587e-01  1.0000666081742593e-01  1.0016925573724265e-01  1.0006107497494526e-01  1.0009972827423935e-01  1.0014369312850384e-01  1.0003759023304222e-01  1.0008849322849586e-01  1.0007785451041525e-01  1.0007016854238522e-01  1.0006698350897818e-01  1.0007759670651981e-01  1.0006024343993021e-01  1.0006369154230577e-01  1.0006519106471906e-01  1.0005627807706909e-01  1.0005566614311377e-01  1.0005648977543023e-01  1.0004996391620526e-01  1.0004991279194442e-01  1.0004900510745877e-01  1.0004643013878468e-01  1.0004356581746199e-01  1.0004662888444171e-01  1.0003785058942199e-01  1.0004841879887146e-01  1.0002731543371848e-01  1.0006153713669391e-01  1.0000000000000003e-01  9.9982064520912545e-02  1.0000000000000003e-01  9.9988468307636982e-02  9.9982948339962394e-02  9.9984859354868810e-02  9.9978100460132252e-02  9.9979361890494403e-02  9.9979255719267399e-02  9.9970213501465496e-02  9.9973760771110809e-02  9.9974373449845597e-02  9.9960996903958849e-02  9.9966613114690295e-02  9.9968036250830242e-02  9.9949301702383100e-02  9.9964716601984943e-02  9.9957496924749673e-02  9.9952235829850786e-02  9.9934375190674787e-02  9.9943730870505357e-02  9.9909902430908942e-02  9.9939599563270018e-02  9.9928788409270400e-02  9.9907543050902575e-02  9.9918896157878842e-02  9.9943429933956940e-02  9.9857057671298460e-02  9.9990862967383770e-02  9.9784646944102259e-02  1.0014465980323867e-01  9.9431674265771958e-02  9.9722652768851117e-02  1.0085578687440939e-01  1.0026959059014906e-01  1.0003409361543993e-01  1.0011731035211387e-01  1.0006209143659052e-01  1.0013491223646766e-01  1.0007143353767413e-01  1.0011906223184074e-01  1.0006246174363680e-01  1.0007862166237137e-01  1.0005818832609728e-01  1.0008554440022885e-01  1.0005754924980202e-01  1.0006526955598391e-01  1.0006744197289495e-01  1.0005646353107034e-01  1.0005664374407940e-01  1.0005894679997847e-01  1.0005016812141224e-01  1.0004971624548349e-01  1.0005041032177714e-01  1.0004447619655510e-01  1.0004505205694975e-01  1.0004266254495058e-01  1.0004315395024060e-01  1.0003601317527881e-01  1.0004640161300556e-01  1.0002500083241898e-01  1.0005821997076321e-01  1.0000000000000003e-01  9.9980406343934763e-02  1.0000000000000003e-01  9.9988773562863204e-02  9.9983000737411037e-02  9.9980997522853859e-02  9.9979549394824882e-02  9.9980612997984691e-02  9.9972107684627304e-02  9.9974306669345536e-02  9.9975157122770511e-02  9.9963853454442558e-02  9.9967161733753682e-02  9.9968732601897856e-02  9.9951582135120273e-02  9.9961719132586085e-02  9.9962206164170786e-02  9.9944290463060040e-02  9.9952465807841784e-02  9.9971377941716427e-02  9.9904310321701412e-02  9.9938698221533825e-02  9.9933120794832700e-02  9.9897639756906062e-02  9.9936839656321483e-02  9.9916480034044033e-02  9.9908187242358670e-02  9.9888752417032350e-02  9.9987996379924587e-02  9.9752158209499994e-02  1.0017702571023032e-01  9.9405489489144100e-02  9.9719147655491627e-02  1.0084213562232656e-01  1.0030845296437380e-01  9.9983275921058004e-02  1.0013186969926953e-01  1.0009675968893283e-01  1.0008566910228084e-01  1.0008519833072436e-01  1.0011446656319038e-01  1.0010469876156108e-01  1.0004372153791985e-01  1.0009960340265302e-01  1.0005218536382547e-01  1.0007105377219108e-01  1.0007142395712598e-01  1.0005959325367131e-01  1.0005883590622419e-01  1.0006415382099376e-01  1.0005279403553906e-01  1.0005357099247961e-01  1.0005410467292450e-01  1.0004740964458068e-01  1.0004612275319463e-01  1.0004751101336669e-01  1.0004109018183130e-01  1.0004395628891116e-01  1.0003736014485333e-01  1.0004558685068329e-01  1.0002586643892282e-01  1.0005815115265650e-01  1.0000000000000003e-01  9.9979759653125999e-02  1.0000000000000003e-01  9.9988952389882743e-02  9.9979732311127056e-02  9.9982143467327714e-02  9.9980420580102106e-02  9.9974511377298320e-02  9.9975152662973896e-02  9.9976219365906255e-02  9.9965921455622747e-02  9.9969086035362156e-02  9.9970367679229441e-02  9.9954053529410086e-02  9.9961314479363031e-02  9.9963782067731072e-02  9.9943763589414703e-02  9.9955268279330878e-02  9.9963523874794347e-02  9.9925560006146941e-02  9.9969566240361740e-02  9.9924883245515489e-02  9.9904551819598036e-02  9.9926361724313920e-02  9.9934567647224457e-02  9.9877092195687966e-02  9.9947083669112230e-02  9.9885888505234902e-02  9.9950182293194981e-02  9.9785668317664722e-02  1.0017868429954210e-01  9.9362075342819337e-02  9.9734452553584915e-02  1.0086630553915392e-01  1.0027490815570621e-01  9.9987878372767097e-02  1.0016458809978054e-01  1.0005175214255008e-01  1.0009442147692661e-01  1.0010300030141892e-01  1.0008507072902514e-01  1.0007971279457586e-01  1.0012916622485965e-01  1.0003567903832181e-01  1.0007887314689524e-01  1.0006736866327519e-01  1.0006339667339452e-01  1.0005760749970376e-01  1.0006777948486184e-01  1.0005269744843773e-01  1.0005455040542645e-01  1.0005693786918812e-01  1.0004848481081766e-01  1.0004777530061619e-01  1.0004791433975763e-01  1.0004327818908335e-01  1.0004068071481652e-01  1.0004379816779456e-01  1.0003479772167957e-01  1.0004429888050982e-01  1.0002518668276916e-01  1.0005571512489699e-01  1.0000000000000003e-01  9.9979253764215195e-02  1.0000000000000003e-01  9.9987428388709901e-02  9.9980409505627713e-02  9.9983011635508656e-02  9.9975900089380093e-02  9.9977046524977270e-02  9.9976965655594316e-02  9.9968567121173996e-02  9.9970755042748050e-02  9.9972496656543577e-02  9.9957936529071256e-02  9.9963025692595922e-02  9.9964737844683835e-02  9.9946042333806343e-02  9.9956638064296582e-02  9.9960942579293999e-02  9.9933069312510281e-02  9.9957718170146218e-02  9.9950214723058081e-02  9.9937493779110959e-02  9.9922541939677756e-02  9.9930486068087382e-02  9.9888949932810098e-02  9.9921254213649544e-02  9.9941773381893029e-02  9.9842444076712319e-02  9.9991874563085240e-02  9.9786504981511620e-02  1.0013730551333835e-01  9.9393793611802783e-02  9.9692595367331757e-02  1.0090859658833680e-01  1.0028169705818223e-01  1.0001339501102219e-01  1.0012912166420392e-01  1.0005713921633165e-01  1.0012170841246325e-01  1.0007041989324834e-01  1.0008099952236699e-01  1.0010594842150770e-01  1.0007490335628626e-01  1.0010234588206368e-01  1.0005597663926391e-01  1.0007123444267495e-01  1.0005169839808538e-01  1.0007450646640315e-01  1.0005193957771635e-01  1.0005666304860782e-01  1.0005924238347277e-01  1.0004994166197018e-01  1.0004943567582819e-01  1.0005210532382798e-01  1.0004358489227649e-01  1.0004401877059557e-01  1.0004237322898869e-01  1.0004121848717916e-01  1.0003485939855029e-01  1.0004428357292464e-01  1.0002445027089842e-01  1.0005460208939537e-01  1.0000000000000003e-01  9.9978101328749236e-02  1.0000000000000003e-01  9.9987807763330286e-02  9.9980873056406711e-02  9.9979734221065528e-02  9.9977469228358373e-02  9.9978734160132351e-02  9.9970641808446045e-02  9.9972137565243022e-02  9.9973751558677409e-02  9.9962325747880498e-02  9.9964944966327490e-02  9.9966879424189845e-02  9.9949977744018981e-02  9.9956800799335985e-02  9.9961706774278625e-02  9.9937245276253611e-02  9.9953712013651705e-02  9.9956134647456313e-02  9.9929737026123691e-02  9.9943604219894580e-02  9.9973768127929241e-02  9.9873731135869781e-02  9.9937769422938569e-02  9.9913805844585160e-02  9.9892027047679188e-02  9.9895301185849730e-02  9.9988778463450639e-02  9.9738097108865470e-02  1.0017953205679078e-01  9.9398622934217529e-02  9.9678389997720399e-02  1.0089154621859725e-01  1.0031235392986101e-01  9.9979928747211719e-02  1.0013052976944220e-01  1.0008345751600674e-01  1.0008992701857951e-01  1.0007028941907987e-01  1.0010645203294938e-01  1.0006941617035571e-01  1.0007976289243534e-01  1.0009278058965210e-01  1.0009419040893554e-01  1.0003622345613093e-01  1.0008389956059181e-01  1.0004557533018528e-01  1.0005954541227555e-01  1.0006000940880760e-01  1.0005072397398312e-01  1.0004919144788291e-01  1.0005379611258193e-01  1.0004509539560670e-01  1.0004451579247524e-01  1.0004599333093080e-01  1.0003845343247322e-01  1.0004061870766148e-01  1.0003524052633152e-01  1.0004150784141132e-01  1.0002391377384780e-01  1.0005279049080421e-01  1.0000000000000003e-01  9.9977876451330550e-02  1.0000000000000003e-01  9.9988261986873953e-02  9.9978389422398742e-02  9.9981032569968945e-02  9.9978783080564126e-02  9.9973768681856839e-02  9.9973535453175388e-02  9.9974830128621725e-02  9.9965310791213444e-02  9.9967769901152609e-02  9.9969155840771276e-02  9.9954385021272463e-02  9.9958789280277321e-02  9.9963200644623773e-02  9.9941721140567888e-02  9.9952484986587889e-02  9.9959018525628079e-02  9.9929731858489496e-02  9.9948323109257123e-02  9.9960905890185636e-02  9.9907896949903707e-02  9.9968555100925588e-02  9.9920594284247377e-02  9