<?xml version="1.0"?>
<VTKFile type="UnstructuredGrid"  version="0.1"  >
<UnstructuredGrid>
<Piece  NumberOfPoints="1933" NumberOfCells="3640">
<Points>
<DataArray  type="Float64"  NumberOfComponents="3"  format="ascii">-0.000258488598701756 0.001556870855135651 0  4.99974153614188 0.001486107421372268 0  4.999847750241888 7.501486209964 0  -0.0001523149402509194 7.501556901654183 0  9.999741556205455 0.001415237561220955 0  9.999847876535062 7.501415368666957 0  14.99974162825928 0.001344180438176954 0  14.99984810009397 7.501344322341216 0  19.99974182151621 0.001272908271074647 0  19.99984845809662 7.501273053803284 0  24.99974220516767 0.001201426431979171 0  24.99984898927183 7.501201573254521 0  29.99974284456871 0.001129761758966369 0  29.99984973313752 7.501129909826522 0  34.99974380110782 0.001057955654663767 0  34.99985072945543 7.501058106041212 0  39.99974513357165 0.000986060253847764 0  39.99985201812721 7.50098621461041 0  44.99974690005188 0.0009141366650788018 0  44.99985363944041 7.500914296986712 0  49.99974915999653 0.0008422546956468604 0  49.99985563451909 7.500842423245311 0  54.99975197626518 0.0007704937292819672 0  54.9998580458538 7.500770673044649 0  59.99975541715672 0.0006989446077266641 0  59.9998609178072 7.500699137554508 0  64.99975955843085 0.0006277125067828652 0  64.99986429699815 7.500627922359749 0  69.99976448534925 0.0005569209204466729 0  69.99986823246319 7.500557151459454 0  74.99977029476345 0.0004867169946846573 0  74.99987277545782 7.500486972599222 0  79.99977709724094 0.0004172786075461635 0  79.99987797870301 7.500417564317068 0  84.99978501917063 0.0003488238022958592 0  84.99988389478865 7.500349145269274 0  89.99979420467102 0.0002816234846347646 0  89.99989057329563 7.500281986659171 0  94.9998048169159 0.0002160187546634104 0  94.99989805598398 7.500216428951533 0  99.99981703806371 0.0001524449557555297 0  99.99990636910439 7.500152904558205 0  104.9998310661633 9.146564083294192e-05 0  104.9999155114962 7.500091968866559 0  109.9998471057686 3.382142815146758e-05 0  109.99992543675 7.500034342855307 0  114.9998653457963 -1.949847556726102e-05 0  114.9999360275402 7.499980971497241 0  119.9998859117484 -6.714991654065907e-05 0  119.9999470609931 7.49993310274987 0  124.9999087666812 -0.0001072737993559721 0  124.9999581674771 7.499892390950659 0  129.9999335097149 -0.0001372545814982396 0  129.9999687959169 7.499861022837076 0  134.9999589691604 -0.0001533611191992909 0  134.9999782273413 7.499841847941584 0  139.9999823802576 -0.0001502483470068944 0  139.9999857508556 7.499838459749752 0  144.9999977021014 -0.0001204587902437559 0  144.9999913006144 7.499855141185192 0  149.9999920312356 -5.505094515603713e-05 0  149.9999973579055 7.499896842117427 0  160.0000000000009 1.024778879098811e-18 0  164.9998542118049 -0.0001948178148373889 0  164.9999747896092 7.499776820592727 0  160.0000184333297 7.499932666211902 0  169.9997716957348 -0.000364607115158781 0  169.9999304313384 7.499621038635248 0  174.9997236204044 -0.0005162090257125048 0  174.9998934728619 7.499475818390879 0  179.9996951918201 -0.000653386170530591 0  179.9998648250005 7.499341962421624 0  184.9996783709047 -0.0007791021294522465 0  184.9998433994521 7.499218092038427 0  189.9996686222553 -0.0008957489962746472 0  189.9998277299004 7.499102510371352 0  194.9996633029161 -0.001005204534025053 0  194.9998164770822 7.498993688217017 0  199.9996608220014 -0.001108916524286614 0  199.9998085527773 7.498890363873217 0  204.9996601894747 -0.00120799610557195 0  204.9998031146824 7.498791528703782 0  209.9996607683646 -0.001303299988949029 0  209.9997995243801 7.498696383662151 0  214.9996621356297 -0.001395495382551759 0  214.9997973015417 7.49860429461685 0  219.9996640020806 -0.001485108639933002 0  219.9997960848279 7.498514754589028 0  224.9996661650187 -0.001572560872766908 0  224.9997956013952 7.498427354083758 0  229.9996684793931 -0.001658193842125004 0  229.9997956440804 7.498341758486268 0  234.9996708396911 -0.001742288837811055 0  234.9997960546461 7.498257691026224 0  239.9996731682297 -0.001825080569875237 0  239.9997967115586 7.498174919937358 0  244.9996754073788 -0.001906767522299112 0  244.9997975210826 7.498093248715787 0  249.9996775142787 -0.001987519787825504 0  249.9997984107721 7.49801250865079 0  254.9996794572075 -0.00206748509466064 0  254.9997993247092 7.497932553024661 0  259.9996812130742 -0.002146793518998072 0  259.9998002200095 7.497853252547847 0  264.9996827657492 -0.002225561223549249 0  264.9998010642772 7.497774491724062 0  269.9996841050267 -0.00230389344810283 0  269.9998018337691 7.497696165939075 0  274.9996852261532 -0.002381886883928437 0  274.9998025121018 7.497618179150401 0  279.9996861298749 -0.002459631469752838 0  279.9998030893715 7.497540442135804 0  284.9996868230377 -0.002537211528118007 0  284.9998035615832 7.497462871352132 0  289.9996873197543 -0.002614705976896558 0  289.9998039302678 7.497385388579052 0  294.9996876431741 -0.00269218702846075 0  294.9998042022048 7.4973079216962 0  299.9996878276533 -0.00276971618314332 0  299.9998043891512 7.497230407184097 0  304.9996879206685 -0.002847335132295369 0  304.9998045077512 7.497152795237366 0  309.9996879823857 -0.002925046773169414 0  309.9998045805218 7.497075058640003 0  4.999953585958047 15.00148646076912 0  -4.648955914221542e-05 15.00155698163567 0  9.999953724843042 15.00141568575447 0  14.99995396088085 15.00134465722835 0  19.9999543188681 15.00127338691586 0  24.99995482042159 15.00120189936178 0  29.99995548638242 15.00113023058159 0  34.99995633759727 15.00105842625198 0  39.99995739501933 15.00098654042781 0  44.99995867954808 15.000914635066 0  49.99996021175927 15.00084278038837 0  54.99996201154727 15.00077105606094 0  59.99996409763649 15.00069955319144 0  64.99996648688776 15.0006283771997 0  69.99996919329479 15.00055765168419 0  74.99997222654673 15.00048752348927 0  79.99997559000121 15.0004181692725 0  84.99997927789155 15.00034980398238 0  89.99998327157827 15.00028269178592 0  94.99998753469578 15.00021716011528 0  99.99999200716744 15.00015361759862 0  104.9999965984351 15.00009257659712 0  110.0000011810087 15.00003468066193 0  115.0000055870436 14.99998073595425 0  120.0000096136308 14.9999317425079 0  125.0000130477952 14.99988891406948 0  130.0000157307853 14.99985365994441 0  135.0000176932982 14.99982747032636 0  140.0000194045283 14.99981157920499 0  145.0000221673144 14.99980612342591 0  150.0000285749675 14.99980806403603 0  165.0000468509529 14.99969921163829 0  160.0000539196027 14.99981430466257 0  170.0000314763807 14.9995735969437 0  175.0000128778097 14.99944700704242 0  179.9999945515089 14.99932424852996 0  184.9999781824503 14.99920698606977 0  189.9999643489217 14.99909538696644 0  194.999953060797 14.99898900895881 0  199.9999440746973 14.99888721760587 0  204.9999370605291 14.99878936728129 0  209.9999316825995 14.99869487095439 0  214.9999276349062 14.99860321999431 0  219.999924653146 14.99851398296973 0  224.9999225156584 14.99842679676195 0  229.9999210396421 14.99834135585287 0  234.9999200758205 14.99825740216418 0  239.9999195030133 14.99817471624591 0  244.9999192232363 14.99809310993568 0  249.9999191575303 14.99801242035098 0  254.9999192425145 14.99793250500047 0  259.9999194275978 14.99785323780593 0  264.999919672733 14.99777450585734 0  269.9999199466254 14.99769620676686 0  274.9999202252905 14.99761824652984 0  279.9999204908707 14.99754053784276 0  284.9999207306649 14.99746299886611 0  289.9999209362895 14.99738555244307 0  294.9999211030385 14.99730812576023 0  299.9999212295546 14.99723065027907 0  304.9999213182379 14.99715306123799 0  309.9999213772016 14.99707529450031 0  5.000058952924078 22.5014870000227 0  5.887688174266437e-05 22.50155733904671 0  10.0000590737339 22.50141629931796 0  15.00005926620886 22.50134528808848 0  20.00005954690359 22.50127400972052 0  25.00005992668421 22.50120250719994 0  30.00006041350359 22.50113082664129 0  35.00006101375018 22.50105901887336 0  40.00006173268389 22.50098714028699 0  45.00006257432628 22.50091525360755 0  50.00006354102037 22.5008434289339 0  55.00006463276251 22.50077174522319 0  60.00006584633828 22.50070029233435 0  65.00006717425454 22.50062917372994 0  70.00006860343881 22.50055850994686 0  75.000070113677 22.50048844297189 0  80.00007167578077 22.50041914168037 0  85.00007324952101 22.5003508085083 0  90.00007478146989 22.50028368750086 0  95.00007620307453 22.50021807377537 0  100.0000774296021 22.50015432416941 0  105.0000783611214 22.50009286827399 0  110.0000788875012 22.50003421790999 0  115.0000789005978 22.49997897095441 0  120.0000783183369 22.49992780152176 0  125.0000771269644 22.49988142173049 0  130.0000754481647 22.49984048910115 0  135.0000736340566 22.49980541655991 0  140.0000723783581 22.49977601985042 0  145.0000727921096 22.49975092259358 0  150.0000763030456 22.49972670310504 0  165.000108385574 22.49961315393498 0  160.0000982621912 22.49970369300748 0  170.0001105495087 22.49951074114334 0  175.0001069987423 22.4994027046178 0  180.0001001183275 22.49929346058981 0  185.0000917882582 22.49918562161719 0  190.0000832464195 22.49908047651499 0  195.0000752065472 22.49897850113925 0  200.0000680216561 22.49887972544755 0  205.0000618197258 22.49878395946035 0  210.000056599058 22.49869092107055 0  215.0000522897743 22.49860030378839 0  220.0000487912309 22.49851181011553 0  225.0000459936388 22.49842516614238 0  230.0000437898291 22.49834012632799 0  235.0000420811135 22.49825647341993 0  240.0000407797222 22.49817401617657 0  245.0000398093475 22.49809258627089 0  250.0000391046924 22.49801203506018 0  255.0000386105568 22.49793223053594 0  260.0000382807352 22.49785305457974 0  265.0000380768994 22.49777440055781 0  270.0000379675203 22.49769617124539 0  275.0000379268719 22.49761827705489 0  280.0000379341157 22.4975406345325 0  285.0000379724762 22.49746316506952 0  290.0000380285256 22.49738579372815 0  295.0000380916499 22.49730844796429
[...]
<PointData  Scalars="p"> 
<DataArray  type="Float64"  Name="p"  format="ascii">1.0000000000000001e-01  1.0000000000000003e-01  1.0000389868653994e-01  1.0000000000000003e-01  1.0000000000000003e-01  1.0000453204609974e-01  1.0000000000000003e-01  1.0000684394209104e-01  1.0000000000000003e-01  1.0000801765740058e-01  1.0000000000000003e-01  1.0000968397672114e-01  1.0000000000000003e-01  1.0001242141315508e-01  1.0000000000000003e-01  1.0001364566740255e-01  1.0000000000000003e-01  1.0001552179952783e-01  1.0000000000000003e-01  1.0001860896428640e-01  1.0000000000000003e-01  1.0001906460514251e-01  1.0000000000000003e-01  1.0002672286712087e-01  1.0000000000000003e-01  1.0003094893234894e-01  1.0000000000000003e-01  1.0003546928956705e-01  1.0000000000000003e-01  1.0003911223217210e-01  1.0000000000000003e-01  1.0004648955948853e-01  1.0000000000000003e-01  1.0004947213204295e-01  1.0000000000000003e-01  1.0005489905953638e-01  1.0000000000000003e-01  1.0006322734417673e-01  1.0000000000000003e-01  1.0006569270780832e-01  1.0000000000000003e-01  1.0007398979886213e-01  1.0000000000000003e-01  1.0007904521466471e-01  1.0000000000000003e-01  1.0008810579945383e-01  1.0000000000000003e-01  1.0008597405958916e-01  1.0000000000000003e-01  1.0010864866302707e-01  1.0000000000000003e-01  1.0008788317873986e-01  1.0000000000000003e-01  1.0013415575118306e-01  1.0000000000000003e-01  1.0008158107282800e-01  1.0000000000000003e-01  1.0016940370458108e-01  1.0000000000000003e-01  1.0006434300326895e-01  1.0000000000000001e-01  1.0022914751159988e-01  1.0000000000000001e-01  1.0000000000000003e-01  9.9813970862375312e-02  9.9617561241818947e-02  1.0000000000000003e-01  9.9945781289512828e-02  1.0000000000000003e-01  9.9853039944333380e-02  1.0000000000000003e-01  9.9902883077303675e-02  1.0000000000000003e-01  9.9887903061715577e-02  1.0000000000000003e-01  9.9900756077541952e-02  1.0000000000000003e-01  9.9894659526469934e-02  1.0000000000000003e-01  9.9905520161814754e-02  1.0000000000000003e-01  9.9903880265758541e-02  1.0000000000000003e-01  9.9907540101389067e-02  1.0000000000000003e-01  9.9910711213602635e-02  1.0000000000000003e-01  9.9913037517245298e-02  1.0000000000000003e-01  9.9914579611850657e-02  1.0000000000000003e-01  9.9917790266214626e-02  1.0000000000000003e-01  9.9919300815918211e-02  1.0000000000000003e-01  9.9920949691456568e-02  1.0000000000000003e-01  9.9922995266116491e-02  1.0000000000000003e-01  9.9924494895774263e-02  1.0000000000000003e-01  9.9925483050767983e-02  1.0000000000000003e-01  9.9927423771190724e-02  1.0000000000000003e-01  9.9927833456512211e-02  1.0000000000000003e-01  9.9929932487041365e-02  1.0000000000000003e-01  9.9929129555700297e-02  1.0000000000000003e-01  9.9933318681280081e-02  1.0000000000000003e-01  9.9928278171547008e-02  1.0000000000000003e-01  9.9939026733566957e-02  1.0000000000000003e-01  9.9922999084349318e-02  1.0000000000000003e-01  9.9951374057020065e-02  1.0000000000000003e-01  9.9902865557925075e-02  1.0000000000000001e-01  1.0000000000000003e-01  1.0000641930849619e-01  1.0000000000000003e-01  1.0000636053975223e-01  1.0000681824198364e-01  1.0000770474810587e-01  1.0001001979170140e-01  1.0000984930132892e-01  1.0001028383629081e-01  1.0001363332478637e-01  1.0001208293192336e-01  1.0001342330706602e-01  1.0001648138924114e-01  1.0002438058885983e-01  1.0002209305544421e-01  1.0003063247461937e-01  1.0002688900055233e-01  1.0003018200283219e-01  1.0003689555700369e-01  1.0003498568761543e-01  1.0003719078214823e-01  1.0004724748905858e-01  1.0004094064345882e-01  1.0004977119897641e-01  1.0004898071202932e-01  1.0005922043926258e-01  1.0004009163603278e-01  1.0008604576681125e-01  1.0001097159756249e-01  1.0014174629748183e-01  9.9942202426743468e-02  1.0023250863211980e-01  1.0016160951030258e-01  9.9413976790257944e-02  9.9824111585825590e-02  9.9972101211003833e-02  9.9948291041059331e-02  9.9958421142905582e-02  9.9938224933510608e-02  9.9961940533053101e-02  9.9950237098656400e-02  9.9953189885457802e-02  9.9957902576634033e-02  9.9958129575831181e-02  9.9957542804724048e-02  9.9962435272278535e-02  9.9962529152141322e-02  9.9963077822849064e-02  9.9965919261377795e-02  9.9966471211049776e-02  9.9967015448875915e-02  9.9968778323333535e-02  9.9969650094196782e-02  9.9969642204743775e-02  9.9971851632793929e-02  9.9970880866956296e-02  9.9973951770675945e-02  9.9970466468481012e-02  9.9978722649773463e-02  9.9965157992637999e-02  9.9989874255980910e-02  9.9952634888815770e-02  1.0000000000000003e-01  1.0000947991501366e-01  1.0000000000000003e-01  1.0000640998541624e-01  1.0000954095856901e-01  1.0001192845592263e-01  1.0001238285636443e-01  1.0001286039588378e-01  1.0001774219076345e-01  1.0001658653444195e-01  1.0001685331498748e-01  1.0002242239282806e-01  1.0002360421906416e-01  1.0001992955488916e-01  1.0004283793737258e-01  1.0003499105610907e-01  1.0003977777973440e-01  1.0005017748457021e-01  1.0004541821616877e-01  1.0004971634737059e-01  1.0006284491961638e-01  1.0005778974603077e-01  1.0006100168615915e-01  1.0007943936026678e-01  1.0006408724219690e-01  1.0008455106555120e-01  1.0007236899801929e-01  1.0010416263572022e-01  1.0004652260741276e-01  1.0017062049573426e-01  9.9946478351843671e-02  1.0036483396340180e-01  1.0011672380955355e-01  9.9457642849883149e-02  9.9717701422810626e-02  9.9941303515820132e-02  9.9926073462625456e-02  9.9879555977130260e-02  9.9942921519127481e-02  9.9907248042238800e-02  9.9915035968670074e-02  9.9924503061959449e-02  9.9923300092739878e-02  9.9920562988172354e-02  9.9930597237086222e-02  9.9929337682153119e-02  9.9930013054200101e-02  9.9935639828135484e-02  9.9936304532930592e-02  9.9936674623770941e-02  9.9940602241119933e-02  9.9941145761514083e-02  9.9942046221537073e-02  9.9944094834992711e-02  9.9945662931533258e-02  9.9944970267497019e-02  9.9949086348680244e-02  9.9945766836688696e-02  9.9953131098146034e-02  9.9942847903624996e-02  9.9964294723237299e-02  9.9925036100216011e-02  1.0000000000000003e-01  1.0001136186409770e-01  1.0000000000000003e-01  1.0000727599183933e-01  1.0001263539196992e-01  1.0001208453931713e-01  1.0001262109781106e-01  1.0001769256306875e-01  1.0001634677800091e-01  1.0001633515866709e-01  1.0002259532563726e-01  1.0001999238344883e-01  1.0001971000187422e-01  1.0003311713446256e-01  1.0002111857272762e-01  1.0003967359869574e-01  1.0004568298408370e-01  1.0004188772949499e-01  1.0004200907562080e-01  1.0005784888963508e-01  1.0004721286328083e-01  1.0005379848857039e-01  1.0006631571992548e-01  1.0006112514201866e-01  1.0005738108718416e-01  1.0008798228505639e-01  1.0004762037977381e-01  1.0010552914506524e-01  1.0002502895214245e-01  1.0017120296311600e-01  9.9910799590314098e-02  1.0038735723777241e-01  1.0012066220116547e-01  9.9331025182447463e-02  9.9812441551319492e-02  9.9982259537799725e-02  9.9809334844696340e-02  1.0000138802443445e-01  9.9907894692515029e-02  9.9932365867899456e-02  9.9937384039668453e-02  9.9938128969227241e-02  9.9928721923709579e-02  9.9945143595353558e-02  9.9940292867542718e-02  9.9940411869275700e-02  9.9947789604934806e-02  9.9948052633178519e-02  9.9947897192908142e-02  9.9953186881893294e-02  9.9953644441631226e-02  9.9953869357592900e-02  9.9957463769490773e-02  9.9957622766927490e-02  9.9959045030816915e-02  9.9959749505971238e-02  9.9963076412405372e-02  9.9959169792830371e-02  9.9968638004010776e-02  9.9955606115163506e-02  9.9979052781999575e-02  9.9942985107394064e-02  1.0000000000000003e-01  1.0001329454217087e-01  1.0000000000000003e-01  1.0000927248598272e-01  1.0001300316038569e-01  1.0001215623906193e-01  1.0001825788657483e-01  1.0001672273569559e-01  1.0001746706027166e-01  1.0002426620835346e-01  1.0002130381067756e-01  1.0002074853826784e-01  1.0003241033957791e-01  1.0002590686244416e-01  1.0003114743163095e-01  1.0003452309284756e-01  1.0004833527315944e-01  1.0004357461521150e-01  1.0006270143350689e-01  1.0005006368720545e-01  1.0005407787279770e-01  1.0007380800020635e-01  1.0005822733669550e-01  1.0006854558885833e-01  1.0007944620332157e-01  1.0007973560217073e-01  1.0005919251909436e-01  1.0012304741842172e-01  1.0002026870006824e-01  1.0019329696419806e-01  9.9895594248342337e-02  1.0045045337972380e-01  1.0023286338308129e-01  9.9241965127214393e-02  9.9757801401732335e-02  9.9921131378684483e-02  9.9891707629188753e-02  9.9888929465119472e-02  9.9918446123833410e-02  9.9922864251929533e-02  9.9932011893623676e-02  9.9905859574796002e-02  9.9936326851964269e-02  9.9925058241419562e-02  9.9924740572422135e-02  9.9935227920485314e-02  9.9934660705297232e-02  9.9933078430474664e-02  9.9941497510177349e-02  9.9941463783209519e-02  9.9941636929767791e-02  9.9946472043628720e-02  9.9947354534036123e-02  9.9947250112573827e-02  9.9951275053369232e-02  9.9950706883420365e-02  9.9953575688118149e-02  9.9951936561923402e-02  9.9959214159543883e-02  9.9948361919199258e-02  9.9970763605474605e-02  9.9933600268721043e-02  1.0000000000000003e-01  1.0001558720084609e-01  1.0000000000000003e-01  1.0000935207318909e-01  1.0001356204043270e-01  1.0001628418713629e-01  1.0001682546970286e-01  1.0001691865006318e-01  1.0002390338410520e-01  1.0002192639313338e-01  1.0002088597090061e-01  1.0003082345453444e-01  1.0002664494063322e-01  1.0002773670265246e-01  1.0003902297644718e-01  1.0003623867416014e-01  1.0002430200663633e-01  1.0006825693303674e-01  1.0004712103367197e-01  1.0005384914496512e-01  1.0007175688123254e-01  1.0005762754068358e-01  1.0005876381048484e-01  1.0008840586384081e-01  1.0005901671226851e-01  1.0008223744359319e-01  1.0007416187404163e-01  1.0010823062435453e-01  1.0001632027866168e-01  1.0021404705057776e-01  9.9858494218263344e-02  1.0050168256343725e-01  1.0022481067800315e-01  9.9265348586411770e-02  9.9704537993625025e-02  1.0001696676910714e-01  9.9868054651526678e-02  9.9894492219172001e-02  9.9885646661567518e-02  9.9963626727231442e-02  9.9889041159648292e-02  9.9952134924044353e-02  9.9923219905085056e-02  9.9925208619722011e-02  9.9937971457147431e-02  9.9937128702758296e-02  9.9932272402783698e-02  9.9944390735928687e-02  9.9942956431931476e-02  9.9942476968299832e-02  9.9949728965488385e-02  9.9949945111402219e-02  9.9950003332314991e-02  9.9954238822019439e-02  9.9955540529140213e-02  9.9954566736705011e-02  9.9959892576435797e-02  9.9956456023313392e-02  9.9964262403873350e-02  9.9953948269137061e-02  9.9975544298917821e-02  9.9940739830804856e-02  1.0000000000000003e-01  1.0001684193060816e-01  1.0000000000000003e-01  1.0000951293898359e-01  1.0001739039292364e-01  1.0001535876413156e-01  1.0001682573212366e-01  1.0002279857872971e-01  1.0002213352545344e-01  1.0002109365160942e-01  1.0003097219287237e-01  1.0002657326634898e-01  1.0002682249540851e-01  1.0004032140195684e-01  1.0003442923867559e-01  1.0003052808522499e-01  1.0005448375923826e-01  1.0002828469477490e-01  1.0005903048808593e-01  1.0007252856664671e-01  1.0005878181857490e-01  1.0006064961667079e-01  1.0008516503189401e-01  1.0006734567804462e-01  1.0006483278937406e-01  1.0010773065697576e-01  1.0005429134827502e-01  1.0011501402235179e-01  1.0003617160458361e-01  1.0020507415918822e-01  9.9851044910318446e-02  1.0055282019823562e-01  1.0020801613871960e-01  9.9206765282835271e-02  9.9758862967054510e-02  9.9993333065105397e-02  9.9830735105793669e-02  9.9938915692683136e-02  9.9900264327901681e-02  9.9856299048736261e-02  9.9962402203802730e-02  9.9911500596171515e-02  9.9922138997291465e-02  9.9929824746385509e-02  9.9933011169389824e-02  9.9922397754267547e-02  9.9939751034869267e-02  9.9936303924449701e-02  9.9934804228345858e-02  9.9943717358143142e-02  9.9944330058202871e-02  9.9943506424654951e-02  9.9950032459358643e-02  9.9950084065360753e-02  9.9950991859102126e-02  9.9953566971731675e-02  9.9956431741110074e-02  9.9953368689868288e-02  9.9962147422987105e-02  9.9951579092724022e-02  9.9972683340366839e-02  9.9938460638985219e-02  1.0000000000000003e-01  1.0001793740180845e-01  1.0000000000000003e-01  1.0001153280794832e-01  1.0001705320654990e-01  1.0001514177494490e-01  1.0002190152234008e-01  1.0002063965248396e-01  1.0002074557303788e-01  1.0002978903915151e-01  1.0002624094496640e-01  1.0002562790480259e-01  1.0003900655071064e-01  1.0003338906474581e-01  1.0003196539245433e-01  1.0005070306867928e-01  1.0003528498685606e-01  1.0004250604882488e-01  1.0004776656530030e-01  1.0006563131214577e-01  1.0005627205092420e-01  1.0009010618247902e-01  1.0006040352371962e-01  1.0007121576034288e-01  1.0009246593965473e-01  1.0008110854752095e-01  1.0005657367623146e-01  1.0014295451768356e-01  1.0000913848506092e-01  1.0021536416992237e-01  9.9855338010811756e-02  1.0056835078854305e-01  1.0027734692597222e-01  9.9144170545340721e-02  9.9730394868352237e-02  9.9965898728204730e-02  9.9882677520475985e-02  9.9937901053213402e-02  9.9865078918757164e-02  9.9928556766681692e-02  9.9880930400341419e-02  9.9937531348557138e-02  9.9921370490650474e-02  9.9941805691640781e-02  9.9914449256656879e-02  9.9942444373519762e-02  9.9934725337328376e-02  9.9932552758406692e-02  9.9943531297605498e-02  9.9943351894454358e-02  9.9941048837528412e-02  9.9949827743342490e-02  9.9950280275375780e-02  9.9949586244139133e-02  9.9955520585603322e-02  9.9954945149843918e-02  9.9957334864332975e-02  9.9956843554098951e-02  9.9963984897404962e-02  9.9953596256868782e-02  9.9974997955708703e-02  9.9941777890237823e-02  1.0000000000000003e-01  1.0001959586073293e-01  1.0000000000000003e-01  1.0001122751778720e-01  1.0001700081671706e-01  1.0001900432990005e-01  1.0002045237745361e-01  1.0001938842678078e-01  1.0002789494284642e-01  1.0002569535488091e-01  1.0002484442502789e-01  1.0003614987142427e-01  1.0003284074697720e-01  1.0003126935725132e-01  1.0004842258857682e-01  1.0003828352756802e-01  1.0003779638022881e-01  1.0005571476874627e-01  1.0004753822197014e-01  1.0002862105103100e-01  1.0009570192164070e-01  1.0006130559991723e-01  1.0006688416975389e-01  1.0010237051822540e-01  1.0006316463642381e-01  1.0008352559990925e-01  1.0009182365381766e-01  1.0011125503892292e-01  1.0001200549136523e-01  1.0024786109027549e-01  9.9822966127345092e-02  1.0059454055868781e-01  1.0028085891272968e-01  9.9157810086148809e-02  9.9691527957049594e-02  1.0001671409583911e-01  9.9868119896443952e-02  9.9903230858703174e-02  9.9914319714575303e-02  9.9914793795845322e-02  9.9885524417553745e-02  9.9895291777879813e-02  9.9956272183023179e-02  9.9900389227412470e-02  9.9947807199563268e-02  9.9928940424060086e-02  9.9928569985067356e-02  9.9940400693729822e-02  9.9941159256402554e-02  9.9935841221760510e-02  9.9947201022150642e-02  9.9946424970864006e-02  9.9945891375185406e-02  9.9952586572091509e-02  9.9953874117369154e-02  9.9952485894145834e-02  9.9958907021680532e-02  9.9956041226188078e-02  9.9962637762178203e-02  9.9954410917837355e-02  9.9974132313014719e-02  9.9941846656911179e-02  1.0000000000000003e-01  1.0002024267515595e-01  1.0000000000000003e-01  1.0001104869205824e-01  1.0002026984820546e-01  1.0001785823146767e-01  1.0001958111781897e-01  1.0002549119534693e-01  1.0002484954974178e-01  1.0002378248394395e-01  1.0003408195300065e-01  1.0003091646980716e-01  1.0002963446973846e-01  1.0004595118186879e-01  1.0003868870095201e-01  1.0003622056416864e-01  1.0005624233748817e-01  1.0004473560299584e-01  1.0003647821069162e-01  1.0007444905422000e-01  1.0003043334098874e-01  1.0007512569511749e-01  1.0009545872477972e-01  1.0007364444525189e-01  1.0006543741065202e-01  1.0012292165317432e-01  1.0005292074857552e-01  1.0011412043378756e-01  1.0004982736749897e-01  1.0021434656811729e-01  9.9821306515222918e-02  1.0063796614746159e-01  1.0026555545852897e-01  9.9133634943649490e-02  9.9725067226537636e-02  1.0001211553932714e-01  9.9835398542629877e-02  9.9948235953810000e-02  9.9905569392000057e-02  9.9896990084816020e-02  9.9914918673886993e-02  9.9920279312569082e-02  9.9870825134684371e-02  9.9964312941819622e-02  9.9921120286618356e-02  9.9932624524829122e-02  9.9936596408836786e-02  9.9942387103178834e-02  9.9932214915805812e-02  9.9947297050635986e-02  9.9945445167904462e-02  9.9943057522404191e-02  9.9951510818465344e-02  9.9952221168325306e-02  9.9952082204743317e-02  9.9956718557102434e-02  9.9959316629855077e-02  9.9956199199578752e-02  9.9965200109875196e-02  9.9955698958132541e-02  9.9974812029652985e-02  9.9944282706360535e-02  1.0000000000000003e-01  1.0002074866366722e-01  1.0000000000000003e-01  1.0001257298720004e-01  1.0001959256144552e-01  1.0001698997495898e-01  1.0002410246014901e-01  1.0002295568451049e-01  1.0002303635757363e-01  1.0003143619945359e-01  1.0002924765734533e-01  1.0002750555314709e-01  1.0004206790732632e-01  1.0003697762581164e-01  1.0003526499605078e-01  1.0005396358326028e-01  1.0004336587341339e-01  1.0003906051137014e-01  1.0006693875891619e-01  1.0004228508714445e-01  1.0004979047751397e-01  1.0006251161599944e-01  1.0007746821755477e-01  1.0006951987101637e-01  1.0011106434412051e-01  1.0007875230828266e-01  1.0005823246004747e-01  1.0015757419327520e-01  1.0000812758843465e-01  1.0021351172515749e-01  9.9862692152964921e-02  1.0060624622664853e-01  1.0030741373822609e-01  9.9091330796530583e-02  9.9718279762458964e-02  9.9986597157788848e-02  9.9870861376619255e-02  9.9942851903949942e-02  9.9878280102583789e-02  9.9929568377425337e-02  9.9918991945617916e-02  9.9894042311286582e-02  9.9925086620134662e-02  9.9897646519400890e-02  9.9944016142638509e-02  9.9928757622919626e-02  9.9948295628427525e-02  9.9925487200342500e-02  9.9948054187895874e-02  9.9943332013481101e-02  9.9940752548886569e-02  9.9950053442774370e-02  9.9950560232195299e-02  9.9947890622910915e-02  9.9956411414557231e-02  9.9955978151830896e-02  9.9957623884373265e-02  9.9958778756620542e-02  9.9965138511807952e-02  9.9955714164023463e-02  9.9975548388422611e-02  9.9945395747362969e-02  1.0000000000000003e-01  1.0002190132313669e-01  1.0000000000000003e-01  1.0001219357831281e-01  1.0001912898052982e-01  1.0002026802509258e-01  1.0002253311507653e-01  1.0002126786584056e-01  1.0002936142235451e-01  1.0002786524689787e-01  1.0002625082079609e-01  1.0003767842253949e-01  1.0003505851584019e-01  1.0003312344090144e-01  1.0005002790610056e-01  1.0004320344924811e-01  1.0003829658067258e-01  1.0006276230046093e-01  1.0004629255181996e-01  1.0004386970863742e-01  1.0007027162326644e-01  1.0005640243370154e-01  1.0002623150104685e-01  1.0012628803967587e-01  1.0006223655088504e-01  1.0008620332816651e-01  1.0010798816373058e-01  1.0010470884927518e-01  1.0001122409470369e-01  1.0026193120592984e-01  9.9820456031319019e-02  1.0060142152778488e-01  1.0032162927369197e-01  9.9108366613482671e-02  9.9687617088004069e-02  1.0002006115743309e-01  9.9869456348863878e-02  9.9916531249575238e-02  9.9910058814757369e-02  9.9929701551768141e-02  9.9893537460401652e-02  9.9930572969240683e-02  9.9920229201974103e-02  9.9907210521387180e-02  9.9905800306162057e-02  9.9963770446503536e-02  9.9916093307035422e-02  9.9954417645848379e-02  9.9940449155779404e-02  9.9939984955008443e-02  9.9949270489969641e-02  9.9950804189479145e-02  9.9946199457956769e-02  9.9954900213381409e-02  9.9955480726264145e-02  9.9954003316571893e-02  9.9961543527767316e-02  9.9959378734967075e-02  9.9964757259138726e-02  9.9958489857566585e-02  9.9976084936612281e-02  9.9947207350205042e-02  1.0000000000000003e-01  1.0002212623287567e-01  1.0000000000000003e-01  1.0001173928698530e-01  1.0002161305995522e-01  1.0001896947102297e-01  1.0002121908449622e-01  1.0002623426633223e-01  1.0002646732397678e-01  1.0002517232765552e-01  1.0003469315456821e-01  1.0003223342583205e-01  1.0003084710856221e-01  1.0004562026888215e-01  1.0004121491439454e-01  1.0003680275262246e-01  1.0005828588767020e-01  1.0004752003633481e-01  1.0004098551138493e-01  1.0007027716894781e-01  1.0005168290524247e-01  1.0003909756510541e-01  1.0009211671727777e-01  1.0003144539467904e-01  1.0007941801797518e-01  1