<?xml version="1.0"?>
<VTKFile type="UnstructuredGrid"  version="0.1"  >
<UnstructuredGrid>
<Piece  NumberOfPoints="1933" NumberOfCells="3640">
<Points>
<DataArray  type="Float64"  NumberOfComponents="3"  format="ascii">0.0002850331011008955 -0.002331973886148984 0  5.000285056767237 -0.002259335477974792 0  5.000176057651419 7.497740701856659 0  0.0001760391157941132 7.497668074897216 0  10.00028510762441 -0.002186713403281014 0  10.00017608053436 7.497813314039749 0  15.00028519442596 -0.0021140665239684 0  15.00017610407417 7.497885953636196 0  20.00028531492495 -0.002041355418973948 0  20.00017612167996 7.497958659555159 0  25.00028545964373 -0.001968544215551065 0  25.00017612363731 7.498031466911932 0  30.00028561423864 -0.001895600370857372 0  30.00017609705169 7.498104407596461 0  35.00028576073 -0.001822493781736757 0  35.00017602579261 7.498177511209763 0  40.00028587792909 -0.001749195764432221 0  40.00017589032409 7.498250806049175 0  45.00028594130945 -0.001675678098624052 0  45.0001756673649 7.498324320016331 0  50.00028592247531 -0.001601912187183927 0  50.00017532935055 7.498398081413453 0  55.00028578830375 -0.001527868326165101 0  55.00017484367751 7.498472119634192 0  60.00028549977957 -0.001453515058623932 0  60.00017417170534 7.498546465770754 0  65.0002850104966 -0.001378818578920032 0  65.00017326747799 7.498621153163809 0  70.00028426475329 -0.001303742151356682 0  70.00017207610787 7.49869621792151 0  75.0002831951231 -0.001228245503757925 0  75.00017053174078 7.49877169943178 0  80.00028171931044 -0.001152284150428274 0  80.00016855498849 7.498847640887609 0  85.00027973600501 -0.001075808588532355 0  85.00016604968047 7.498924089835939 0  90.00027711928976 -0.0009987632971728679 0  90.0001628987401 7.49900109873829 0  95.0002737109015 -0.0009210854520902345 0  95.00015895895632 7.499078725478791 0  100.0002693092125 -0.0008427032618835333 0  100.0001540544053 7.499157033633971 0  105.0002636530645 -0.0007635338665486728 0  105.0001479683502 7.499236092047696 0  110.0002563973067 -0.0006834809035058151 0  110.0001404337328 7.499315972661092 0  115.0002470746341 -0.000602432364983816 0  115.000131123172 7.499396744272998 0  120.0002350343367 -0.0005202608071286644 0  120.0001196413009 7.499478457206659 0  125.000219341503 -0.0004368317270335255 0  125.0001055265943 7.499561108218037 0  130.0001986077882 -0.0003520355002052923 0  130.0000882790605 7.499644563368368 0  135.0001707032951 -0.0002658825637869845 0  135.0000674490568 7.499728393134879 0  140.0001322628557 -0.0001787638677218667 0  140.000042859437 7.499811528128221 0  145.0000778420734 -9.214326083707361e-05 0  145.000015101202 7.499891559130607 0  149.9999984938384 -1.040524503911647e-05 0  149.9999865556331 7.499963370419256 0  160 6.380674310786503e-19 0  165.0000458834955 2.851988571153361e-05 0  165.0000084176929 7.500027678976692 0  159.9999890633882 7.499997839752247 0  170.0000843587004 7.139019877618775e-05 0  170.0000276255393 7.500071334363121 0  175.0001162402978 0.0001236175800771828 0  175.0000456474134 7.500123879527161 0  180.0001425786866 0.0001820436043500107 0  180.0000620243964 7.500182394677155 0  185.0001643656168 0.0002446712643583484 0  185.0000766131563 7.500245018212475 0  190.0001824408776 0.0003102083022720741 0  190.0000894431391 7.500310519374667 0  195.000197485489 0.0003777943762037527 0  195.0001006309187 7.500378063033048 0  200.0002100433853 0.0004468405102169002 0  200.0001103300089 7.500447069480957 0  205.0002205481518 0.0005169332109915519 0  205.0001187029571 7.500517127923908 0  210.0002293468918 0.0005877757777685534 0  210.0001259068453 7.500587941845877 0  215.0002367194151 0.000659151354072527 0  215.0001320865047 7.500659293743577 0  220.0002428930416 0.0007308989815903662 0  220.0001373719971 7.500731021841795 0  225.0002480538676 0.0008028976326341498 0  225.0001418783411 7.500803004361173 0  230.0002523553417 0.0008750552740305163 0  230.0001457063524 7.500875148647169 0  235.0002559248465 0.0009473011939900605 0  235.000148943971 7.500947383498945 0  240.0002588688103 0.001019580505691072 0  240.0001516677505 7.50101965365563 0  245.0002612767428 0.001091850145054839 0  245.0001539443381 7.501091915774018 0  250.0002632244698 0.001164075925542686 0  250.0001558318695 7.501164135465884 0  255.0002647767849 0.001236230366805194 0  255.0001573812497 7.501236285112628 0  260.0002659896609 0.001308291115003711 0  260.0001586373064 7.501308342273797 0  265.000266912142 0.001380239843230699 0  265.0001596398221 7.501380288575228 0  270.0002675879929 0.001452061574706313 0  270.0001604244459 7.501452109014476 0  275.0002680571677 0.001523744418837656 0  275.000161023482 7.501523791664631 0  280.0002683571136 0.001595279757894537 0  280.0001614665495 7.50159532779737 0  285.0002685238952 0.001666662975326824 0  285.0001617810889 7.501666712485086 0  290.0002685930344 0.001737894877735277 0  290.0001619926983 7.501737945779058 0  295.0002685998265 0.001808984022034341 0  295.000162125279 7.501809034588091 0  300.0002685786368 0.001879950167729269 0  300.0001622010229 7.501879995383288 0  305.0002685601825 0.001950828831356479 0  305.0001622404179 7.501950857816795 0  310.0002685648787 0.002021675627453156 0  310.0001622627796 7.50202166939007 0  5.000067078485664 14.99774076570623 0  6.706531768357893e-05 14.99766819286392 0  10.00006708002757 14.99781333669633 0  15.00006706196985 14.99788594693048 0  20.000067015395 14.99795863161462 0  25.00006693021609 14.99803142237115 0  30.00006679465131 14.99810434836246 0  35.00006659472181 14.99817743714526 0  40.00006631380108 14.99825071543628 0  45.00006593217358 14.99832420980587 0  50.00006542655809 14.99839794729181 0  55.00006476955932 14.99847195593093 0  60.0000639290231 14.99854626521017 0  65.00006286727925 14.9986209064395 0  70.00006154026413 14.99869591304197 0  75.00005989652823 14.99877132074309 0  80.00005787615532 14.99884716761632 0  85.00005540966146 14.99892349389644 0  90.00005241701611 14.99900034139273 0  95.00004880706427 14.99907775218785 0  100.0000444778657 14.99915576604415 0  105.0000393188709 14.99923441546197 0  110.000033216524 14.99931371647818 0  115.0000260659316 14.99939365178578 0  120.0000177927733 14.99947414017036 0  125.0000083915714 14.99955498203379 0  129.9999979881236 14.99963576446517 0  134.999986932986 14.99971570172071 0  139.9999759231127 14.99979338400845 0  144.9999661153229 14.99986643248963 0  149.9999591086097 14.9999311898278 0  164.9999684463102 15.00002598072338 0  159.9999623228597 14.99998747930749 0  169.9999750187563 15.00007257375152 0  174.9999821772085 15.00012597319337 0  179.9999896102362 15.00018455994346 0  184.9999969883782 15.00024698148085 0  190.00000406531 15.00031221005565 0  195.0000106848541 15.00037948795794 0  200.0000167630222 15.00044826095527 0  205.000022267065 15.00051812293481 0  210.0000271979729 15.00058877446711 0  215.0000315775368 15.00065999298804 0  220.0000354393744 15.00073161162549 0  225.000038822968 15.00080350417317 0  230.0000417698454 15.0008755743606 0  235.000044321229 15.00094774811812 0  240.0000465166615 15.00101996794191 0  245.0000483932727 15.00109218874943 0  250.0000499854582 15.00116437481065 0  255.0000513248131 15.00123649747386 0  260.0000524402202 15.0013085334968 0  265.0000533580206 15.00138046385836 0  270.0000541022245 15.00145227297398 0  275.0000546947274 15.00152394827322 0  280.0000551555234 15.00159548012503 0  285.000055502918 15.0016668621149 0  290.0000557537671 15.00173809168409 0  295.0000559238395 15.00180917112959 0  300.0000560284533 15.00188010892582 0  305.0000560836954 15.00195092127859 0  310.0000561087511 15.00202163384302 0  4.999958250680189 22.49774083744031 0  -4.175868447536812e-05 22.49766837307907 0  9.99995824190535 22.49781333056836 0  14.99995820401855 22.49788588321455 0  19.99995812752013 22.49795852300665 0  24.99995800319976 22.49803127562602 0  29.99995782135943 22.49810416557039 0  34.99995757122363 22.49817721668413 0  39.99995724048185 22.49825045259191 0  44.99995681492748 22.49832389707884 0  49.99995627816677 22.49839757441837 0  54.99995561137858 22.49847150963292 0  59.99995479312318 22.49854572866558 0  64.99995379921558 22.49862025843431 0  69.99995260270165 22.49869512672326 0  74.99995117400924 22.49877036184218 0  79.99994948138844 22.49884599193977 0  84.99994749182416 22.49892204378843 0  89.99994517269792 22.49899854074364 0  94.99994249461309 22.49907549940195 0  99.99993943598355 22.49915292419648 0  104.9999359902221 22.49923079872854 0  109.9999321766279 22.49930907197672 0  114.9999280562584 22.4993876366008 0  119.9999237539704 22.4994662954142 0  124.9999194869119 22.49954471107733 0  129.9999155971334 22.49962233433387 0  134.9999125801384 22.49969831083228 0  139.9999110903723 22.4997713833532 0  144.9999118888878 22.49983985152634 0  149.9999156872483 22.49990175484807 0  164.9999169265539 22.50002286603213 0  159.9999182159097 22.49997670623532 0  169.9999162357892 22.50007351962638 0  174.9999163929024 22.50012871821608 0  179.999917387892 22.50018790316906 0  184.9999190606523 22.50025033771098 0  189.9999212083837 22.50031532103832 0  194.9999236414305 22.50038226070623 0  199.9999262045275 22.50045068194748 0  204.9999287803685 22.50052021401283 0  209.9999312856049 22.50059057085382 0  214.9999336644468 22.50066153277713 0  219.9999358822317 22.50073293109996 0  224.9999379198755 22.50080463601135 0  229.9999397694277 22.50087654722045 0  234.9999414306685 22.50094858683787 0  239.9999429085725 22.5010206939813 0  244.9999442114604 22.50109282069037 0  249.9999453496692 22.50116492883377 0  254.9999463346115 22.50123698777094 0  259.9999471781133 22.5013089725969 0  264.9999478919585 22.50138086284497 0  269.9999484875801 22.50145264155947 0  274.9999489758696 22.50152429467346 0  279.9999493670849 22.50159581064114 0  284.9999496708772 22.50166718027516 0  289.999949896474 22.5017383967234 0  294.9999500531075 22.50180945548178 0  299.9999501508198 22.5018803
[...]
<PointData  Scalars="p"> 
<DataArray  type="Float64"  Name="p"  format="ascii">1.0000000000000001e-01  1.0000000000000003e-01  9.9996101378322599e-02  1.0000000000000003e-01  1.0000000000000003e-01  9.9995467628245058e-02  1.0000000000000003e-01  9.9993155562738953e-02  1.0000000000000003e-01  9.9991981520055714e-02  1.0000000000000003e-01  9.9990314907442632e-02  1.0000000000000003e-01  9.9987577374050202e-02  1.0000000000000003e-01  9.9986352735631223e-02  1.0000000000000003e-01  9.9984476331954980e-02  1.0000000000000003e-01  9.9981389026648299e-02  1.0000000000000003e-01  9.9980932642603867e-02  1.0000000000000003e-01  9.9973275051232255e-02  1.0000000000000003e-01  9.9969048599168026e-02  1.0000000000000003e-01  9.9964528132165317e-02  1.0000000000000003e-01  9.9960884710863021e-02  1.0000000000000003e-01  9.9953507689184817e-02  1.0000000000000003e-01  9.9950524510583713e-02  1.0000000000000003e-01  9.9945097504413341e-02  1.0000000000000003e-01  9.9936769428242173e-02  1.0000000000000003e-01  9.9934303571783165e-02  1.0000000000000003e-01  9.9926006407857523e-02  1.0000000000000003e-01  9.9920951285938586e-02  1.0000000000000003e-01  9.9911890255555885e-02  1.0000000000000003e-01  9.9914021911161513e-02  1.0000000000000003e-01  9.9891347625683621e-02  1.0000000000000003e-01  9.9912112819988685e-02  1.0000000000000003e-01  9.9865839770451437e-02  1.0000000000000003e-01  9.9918415564705154e-02  1.0000000000000003e-01  9.9830590999224159e-02  1.0000000000000003e-01  9.9935654182249006e-02  1.0000000000000001e-01  9.9770845449325199e-02  1.0000000000000001e-01  1.0000000000000003e-01  1.0018602653272451e-01  1.0038243472372514e-01  1.0000000000000003e-01  1.0005421666902396e-01  1.0000000000000003e-01  1.0014695803903859e-01  1.0000000000000003e-01  1.0009711468089323e-01  1.0000000000000003e-01  1.0011209473867537e-01  1.0000000000000003e-01  1.0009924185634274e-01  1.0000000000000003e-01  1.0010533843162701e-01  1.0000000000000003e-01  1.0009447773982448e-01  1.0000000000000003e-01  1.0009611785585840e-01  1.0000000000000003e-01  1.0009245797935293e-01  1.0000000000000003e-01  1.0008928690455347e-01  1.0000000000000003e-01  1.0008696073494486e-01  1.0000000000000003e-01  1.0008541865478290e-01  1.0000000000000003e-01  1.0008220803088895e-01  1.0000000000000003e-01  1.0008069757528699e-01  1.0000000000000003e-01  1.0007904871063435e-01  1.0000000000000003e-01  1.0007700316008603e-01  1.0000000000000003e-01  1.0007550359475587e-01  1.0000000000000003e-01  1.0007451544512980e-01  1.0000000000000003e-01  1.0007257475328672e-01  1.0000000000000003e-01  1.0007216509557307e-01  1.0000000000000003e-01  1.0007006609783736e-01  1.0000000000000003e-01  1.0007086901285199e-01  1.0000000000000003e-01  1.0006667997841973e-01  1.0000000000000003e-01  1.0007172039731277e-01  1.0000000000000003e-01  1.0006097204578944e-01  1.0000000000000003e-01  1.0007699940814596e-01  1.0000000000000003e-01  1.0004862498979084e-01  1.0000000000000003e-01  1.0009713257477652e-01  1.0000000000000001e-01  1.0000000000000003e-01  9.9993581162517969e-02  1.0000000000000003e-01  9.9993639654343991e-02  9.9993181853286206e-02  9.9992295209376234e-02  9.9989980330703374e-02  9.9990150554005300e-02  9.9989715860183084e-02  9.9986366702879262e-02  9.9987916546529582e-02  9.9986576118460679e-02  9.9983517954715370e-02  9.9975619976489669e-02  9.9977906206388953e-02  9.9969367916074608e-02  9.9973110234126514e-02  9.9969817404353248e-02  9.9963104578322956e-02  9.9965013636701280e-02  9.9962808537858758e-02  9.9952752877649084e-02  9.9959058659923508e-02  9.9950228236496769e-02  9.9951019602706304e-02  9.9940779033898086e-02  9.9959907567983369e-02  9.9913954454484755e-02  9.9989027741459388e-02  9.9858252127274352e-02  1.0005779818219381e-01  9.9767488728181905e-02  9.9838386916142288e-02  1.0058601700960948e-01  1.0017588689692594e-01  1.0002789682349758e-01  1.0005170655016975e-01  1.0004157695852370e-01  1.0006177309017064e-01  1.0003805726355160e-01  1.0004976119887250e-01  1.0004680829138252e-01  1.0004209559004515e-01  1.0004186887009611e-01  1.0004245561321008e-01  1.0003756317174223e-01  1.0003746952044432e-01  1.0003692082914972e-01  1.0003407942519374e-01  1.0003352763631436e-01  1.0003298340352136e-01  1.0003122057318033e-01  1.0003034892564204e-01  1.0003035682969046e-01  1.0002814747206741e-01  1.0002911829657052e-01  1.0002604748096161e-01  1.0002953275959360e-01  1.0002127679104984e-01  1.0003484124244127e-01  1.0001012548350614e-01  1.0004736421039809e-01  1.0000000000000003e-01  9.9990520983414502e-02  1.0000000000000003e-01  9.9993590279365954e-02  9.9990459243678539e-02  9.9988071867148531e-02  9.9987617154181196e-02  9.9987139351398732e-02  9.9982258008675579e-02  9.9983413122994150e-02  9.9983146028419623e-02  9.9977577391358430e-02  9.9976395422823078e-02  9.9980068420423077e-02  9.9957163794703027e-02  9.9965008039577946e-02  9.9960221596069543e-02  9.9949822862854074e-02  9.9954580825941455e-02  9.9950282609231486e-02  9.9937155785933401e-02  9.9942209229526263e-02  9.9938997367528773e-02  9.9920561611921407e-02  9.9935911772892669e-02  9.9915448211373895e-02  9.9927631672102890e-02  9.9895836887408815e-02  9.9953475896723959e-02  9.9829380535940107e-02  1.0005352012143272e-01  9.9635164131026091e-02  9.9883273558627819e-02  1.0054234569187269e-01  1.0028229478808127e-01  1.0005869159983655e-01  1.0007392365012746e-01  1.0012044032790607e-01  1.0005707426852413e-01  1.0009274882262809e-01  1.0008496053261091e-01  1.0007549339580230e-01  1.0007669701134646e-01  1.0007943398865692e-01  1.0006939969225699e-01  1.0007065975603800e-01  1.0006998433602152e-01  1.0006435761020467e-01  1.0006369325218815e-01  1.0006332313954794e-01  1.0005939559562044e-01  1.0005885231753366e-01  1.0005795188695032e-01  1.0005590335020893e-01  1.0005433544914560e-01  1.0005502814200433e-01  1.0005091220143808e-01  1.0005423177207763e-01  1.0004686771537727e-01  1.0005715080064388e-01  1.0003570447069197e-01  1.0007496245839945e-01  1.0000000000000003e-01  9.9988639324393863e-02  1.0000000000000003e-01  9.9992724402329314e-02  9.9987365506431641e-02  9.9987915941994687e-02  9.9987379217872457e-02  9.9982308311565390e-02  9.9983653612420009e-02  9.9983664996984870e-02  9.9977405593693641e-02  9.9980007822399963e-02  9.9980289771015099e-02  9.9966884630382252e-02  9.9978880067937384e-02  9.9960328389783359e-02  9.9954318677817330e-02  9.9958112947583444e-02  9.9957991015114350e-02  9.9942153474601766e-02  9.9952787376747176e-02  9.9946202070024720e-02  9.9933687007372485e-02  9.9938875555284079e-02  9.9942619552586556e-02  9.9912021027648276e-02  9.9952380158007878e-02  9.9894472232686451e-02  9.9974973045826268e-02  9.9828799143065194e-02  1.0008919852247915e-01  9.9612647638509355e-02  9.9879334585832383e-02  1.0066896310506358e-01  1.0018755179120874e-01  1.0001773628896070e-01  1.0019066082810073e-01  9.9998606996740097e-02  1.0009210168654517e-01  1.0006762990071738e-01  1.0006261157630704e-01  1.0006186762239255e-01  1.0007127445873484e-01  1.0005485271670388e-01  1.0005970417782578e-01  1.0005958500130298e-01  1.0005220734086211e-01  1.0005194484377665e-01  1.0005210024560711e-01  1.0004681064619249e-01  1.0004635344403948e-01  1.0004612854333401e-01  1.0004253424667697e-01  1.0004237550464976e-01  1.0004095332199577e-01  1.0004024894297059e-01  1.0003692228521918e-01  1.0004082891614709e-01  1.0003136098770006e-01  1.0004439277716839e-01  1.0002094664744608e-01  1.0005701378585198e-01  1.0000000000000003e-01  9.9986706926121105e-02  1.0000000000000003e-01  9.9990728297565404e-02  9.9986997803920091e-02  9.9987844338932388e-02  9.9981743252868710e-02  9.9983277925634315e-02  9.9982533412027397e-02  9.9975735140392902e-02  9.9978696750147686e-02  9.9979251619795734e-02  9.9967591522208965e-02  9.9974093352297469e-02  9.9968853473273125e-02  9.9965477092522945e-02  9.9951667647974765e-02  9.9956425913167529e-02  9.9937302022609628e-02  9.9949936898218364e-02  9.9945923113465410e-02  9.9926195656156069e-02  9.9941773658504957e-02  9.9931455790325988e-02  9.9920558012686997e-02  9.9920266142715222e-02  9.9940808618430743e-02  9.9876957902052338e-02  9.9979731576509551e-02  9.9806706818407753e-02  1.0010440536643321e-01  9.9549553871585511e-02  9.9767131068868101e-02  1.0075801815108343e-01  1.0024219235899577e-01  1.0007886322912736e-01  1.0010828503700052e-01  1.0011106556812230e-01  1.0008154886481026e-01  1.0007712981788361e-01  1.0006798358463491e-01  1.0009413564595614e-01  1.0006366816707089e-01  1.0007493783770519e-01  1.0007525529455645e-01  1.0006476799106223e-01  1.0006533587320460e-01  1.0006691809322206e-01  1.0005849915144645e-01  1.0005853340191521e-01  1.0005836025389792e-01  1.0005352526332228e-01  1.0005264315892129e-01  1.0005274762440365e-01  1.0004872285244223e-01  1.0004929127746152e-01  1.0004642262142550e-01  1.0004806183840451e-01  1.0004078457748282e-01  1.0005163673904077e-01  1.0002923560714611e-01  1.0006639842309595e-01  1.0000000000000003e-01  9.9984414650571313e-02  1.0000000000000003e-01  9.9990648732553811e-02  9.9986439055293058e-02  9.9983717141315237e-02  9.9983175628320167e-02  9.9983082115624816e-02  9.9976098321465701e-02  9.9978074711509851e-02  9.9979114736428509e-02  9.9969178649863225e-02  9.9973356164465704e-02  9.9972264358201501e-02  9.9960979451138604e-02  9.9963763185051693e-02  9.9975696508481163e-02  9.9931749658979913e-02  9.9952880313925754e-02  9.9946153013691655e-02  9.9928247819217955e-02  9.9942374336594100e-02  9.9941238102878402e-02  9.9911600200821613e-02  9.9940985325683268e-02  9.9917765503064734e-02  9.9925844068831537e-02  9.9891773207989032e-02  9.9983680623626309e-02  9.9785962362961417e-02  1.0014150226892123e-01  9.9498329432905014e-02  9.9775187384015529e-02  1.0073462752043862e-01  1.0029545307785261e-01  9.9983025325599398e-02  1.0013193945897771e-01  1.0010550112688729e-01  1.0011434596004250e-01  1.0003636843892273e-01  1.0011095313449279e-01  1.0004785898494063e-01  1.0007677556537782e-01  1.0007478644951162e-01  1.0006202357057731e-01  1.0006286739033025e-01  1.0006772351651720e-01  1.0005560516512423e-01  1.0005704027526752e-01  1.0005751971230337e-01  1.0005026784033969e-01  1.0005005224847327e-01  1.0004999403971021e-01  1.0004575870035545e-01  1.0004445740539464e-01  1.0004543125817758e-01  1.0004010564523989e-01  1.0004354241028661e-01  1.0003573630807945e-01  1.0004605040066498e-01  1.0002445497867608e-01  1.0005925896586013e-01  1.0000000000000003e-01  9.9983160130397236e-02  1.0000000000000003e-01  9.9990487927241412e-02  9.9982611373520588e-02  9.9984642478949101e-02  9.9983175427795057e-02  9.9977203327535902e-02  9.9977867868606921e-02  9.9978907416509860e-02  9.9969030240795120e-02  9.9973428142694679e-02  9.9973178779553376e-02  9.9959681771206232e-02  9.9965572701012792e-02  9.9969472740401591e-02  9.9945521109898433e-02  9.9971714221391103e-02  9.9940974628327156e-02  9.9927476855161068e-02  9.9941221200285688e-02  9.9939352849644017e-02  9.9914841820749986e-02  9.9932657187383964e-02  9.9935170346842128e-02  9.9892277619439890e-02  9.9945711500881537e-02  9.9884991124150987e-02  9.9963834132164281e-02  9.9794933844181699e-02  1.0014895079459087e-01  9.9447199891001883e-02  9.9791981615440228e-02  1.0079320805524221e-01  1.0024112374843881e-01  1.0000666113415575e-01  1.0016925678838122e-01  1.0006107563945627e-01  1.0009972912643664e-01  1.0014369389300570e-01  1.0003759075708818e-01  1.0008849395430049e-01  1.0007785505683378e-01  1.0007016916173363e-01  1.0006698412056499e-01  1.0007759728014630e-01  1.0006024402084956e-01  1.0006369214964536e-01  1.0006519162944140e-01  1.0005627866480274e-01  1.0005566674176733e-01  1.0005649035370658e-01  1.0004996450548247e-01  1.0004991339552605e-01  1.0004900568579975e-01  1.0004643074345292e-01  1.0004356639254515e-01  1.0004662950693770e-01  1.0003785111400396e-01  1.0004841949813531e-01  1.0002731581917927e-01  1.0006153806739661e-01  1.0000000000000003e-01  9.9982064872622151e-02  1.0000000000000003e-01  9.9988468427735441e-02  9.9982948540087616e-02  9.9984859495995018e-02  9.9978100583376056e-02  9.9979361987258833e-02  9.9979255842034154e-02  9.9970213555261325e-02  9.9973760837070907e-02  9.9974373555197518e-02  9.9960996912680053e-02  9.9966613162352919e-02  9.9968036352627881e-02  9.9949301659051346e-02  9.9964716646072260e-02  9.9957497016581756e-02  9.9952235750117163e-02  9.9934375192073793e-02  9.9943730954034429e-02  9.9909902240010909e-02  9.9939599607722279e-02  9.9928788447725472e-02  9.9907542862385443e-02  9.9918896085949824e-02  9.9943430149361828e-02  9.9857057085690065e-02  9.9990863518676601e-02  9.9784645900334520e-02  1.0014466144397040e-01  9.9431670694705612e-02  9.9722650543893301e-02  1.0085579329666899e-01  1.0026959285559420e-01  1.0003409361185991e-01  1.0011731139461240e-01  1.0006209211642178e-01  1.0013491302157737e-01  1.0007143418513113e-01  1.0011906304775736e-01  1.0006246218148823e-01  1.0007862229665321e-01  1.0005818888020991e-01  1.0008554494392943e-01  1.0005754978226267e-01  1.0006527012907840e-01  1.0006744248289436e-01  1.0005646407360967e-01  1.0005664429880866e-01  1.0005894732338144e-01  1.0005016866783494e-01  1.0004971679921427e-01  1.0005041086180085e-01  1.0004447673984308e-01  1.0004505262384281e-01  1.0004266306695012e-01  1.0004315453407185e-01  1.0003601366222313e-01  1.0004640226332047e-01  1.0002500118394779e-01  1.0005822084406041e-01  1.0000000000000003e-01  9.9980406726515800e-02  1.0000000000000003e-01  9.9988773699984185e-02  9.9983000981157075e-02  9.9980997663071475e-02  9.9979549550013397e-02  9.9980613148796263e-02  9.9972107785436651e-02  9.9974306759815224e-02  9.9975157256686487e-02  9.9963853501954220e-02  9.9967161799176071e-02  9.9968732728743001e-02  9.9951582138136819e-02  9.9961719187926151e-02  9.9962206294411673e-02  9.9944290412815148e-02  9.9952465859827630e-02  9.9971378094813851e-02  9.9904310160272861e-02  9.9938698268439333e-02  9.9933120920266738e-02  9.9897639510084679e-02  9.9936839774863451e-02  9.9916480040389721e-02  9.9908187148106703e-02  9.9888752121588598e-02  9.9987997091753419e-02  9.9752156731223396e-02  1.0017702791116116e-01  9.9405485410069661e-02  9.9719145370662191e-02  1.0084214256661345e-01  1.0030845502967689e-01  9.9983275878429631e-02  1.0013187090748701e-01  1.0009676018079766e-01  1.0008566991314423e-01  1.0008519911095652e-01  1.0011446720450877e-01  1.0010469948819153e-01  1.0004372207014725e-01  1.0009960398322383e-01  1.0005218588176279e-01  1.0007105437665857e-01  1.0007142445336224e-01  1.0005959380210122e-01  1.0005883646424479e-01  1.0006415433699868e-01  1.0005279457636300e-01  1.0005357155164761e-01  1.0005410519816750e-01  1.0004741019720477e-01  1.0004612330341253e-01  1.0004751156342213e-01  1.0004109071199913e-01  1.0004395687430696e-01  1.0003736062770732e-01  1.0004558749809217e-01  1.0002586679884008e-01  1.0005815201629326e-01  1.0000000000000003e-01  9.9979760068133874e-02  1.0000000000000003e-01  9.9988952550467303e-02  9.9979732564268772e-02  9.9982143631886108e-02  9.9980420786129356e-02  9.9974511512361058e-02  9.9975152796841146e-02  9.9976219524967810e-02  9.9965921542399264e-02  9.9969086125802756e-02  9.9970367830526194e-02  9.9954053567008427e-02  9.9961314550122471e-02  9.9963782228994755e-02  9.9943763579275188e-02  9.9955268345805662e-02  9.9963524055094191e-02  9.9925559918052062e-02  9.9969566352925782e-02  9.9924883368733106e-02  9.9904551658777443e-02  9.9926361782145007e-02  9.9934567856268655e-02  9.9877091831286721e-02  9.9947083973869907e-02  9.9885888272592205e-02  9.9950182698607351e-02  9.9785667056648694e-02  1.0017868688168827e-01  9.9362070385625917e-02  9.9734449638820236e-02  1.0086631291329397e-01  1.0027491044049656e-01  9.9987878403677621e-02  1.0016458902118990e-01  1.0005175265754097e-01  1.0009442238560075e-01  1.0010300086202827e-01  1.0008507146586280e-01  1.0007971349753168e-01  1.0012916686488471e-01  1.0003567949563794e-01  1.0007887378824713e-01  1.0006736910855187e-01  1.0006339722062867e-01  1.0005760803608917e-01  1.0006777997402652e-01  1.0005269796385600e-01  1.0005455094185035e-01  1.0005693836460199e-01  1.0004848533138228e-01  1.0004777583668421e-01  1.0004791484299851e-01  1.0004327872424047e-01  1.0004068122558739e-01  1.0004379871510070e-01  1.0003479818570436e-01  1.0004429950075223e-01  1.0002518702040987e-01  1.0005571594862199e-01  1.0000000000000003e-01  9.9979254212120380e-02  1.0000000000000003e-01  9.9987428554648955e-02  9.9980409786139063e-02  9.9983011839651206e-02  9.9975900292198536e-02  9.9977046689520496e-02  9.9976965851217223e-02  9.9968567248410981e-02  9.9970755169992445e-02  9.9972496825916177e-02  9.9957936607227085e-02  9.9963025788273069e-02  9.9964738015780721e-02  9.9946042362975274e-02  9.9956638156135702e-02  9.9960942770435643e-02  9.9933069281346001e-02  9.9957718275954080e-02  9.9950214928395828e-02  9.9937493684752909e-02  9.9922542037258699e-02  9.9930486234245455e-02  9.9888949758472304e-02  9.9921254248873811e-02  9.9941773789320246e-02  9.9842443373083456e-02  9.9991875458090448e-02  9.9786503712471511e-02  1.0013730795869448e-01  9.9393788466114547e-02  9.9692592619846740e-02  1.0090860346966651e-01  1.0028169957443732e-01  1.0001339456111466e-01  1.0012912274203248e-01  1.0005713983095711e-01  1.0012170904520344e-01  1.0007042055009203e-01  1.0008100031689136e-01  1.0010594900449186e-01  1.0007490400344786e-01  1.0010234661668153e-01  1.0005597702489784e-01  1.0007123503515805e-01  1.0005169891942989e-01  1.0007450695633871e-01  1.0005194008501152e-01  1.0005666358714607e-01  1.0005924285840918e-01  1.0004994217910901e-01  1.0004943619764813e-01  1.0005210582028651e-01  1.0004358540156516e-01  1.0004401930182068e-01  1.0004237371261764e-01  1.0004121902967725e-01  1.0003485985738024e-01  1.0004428416911067e-01  1.0002445060607457e-01  1.0005460288964582e-01  1.0000000000000003e-01  9.9978101800983016e-02  1.0000000000000003e-01  9.9987807942841303e-02  9.9980873375509510e-02  9.9979734426170766e-02  9.9977469458045268e-02  9.9978734379009837e-02  9.9970641988108400e-02  9.9972137724791924e-02  9.9973751760629781e-02  9.9962325870766880e-02  9.9964945086754020e-02  9.9966879614145673e-02  9.9949977819565633e-02  9.9956800897618506e-02  9.9961706981417445e-02  9.9937245303271055e-02  9.9953712118665411e-02  9.9956134879421510e-02  9.9929736988708717e-02  9.9943604332914118e-02  9.9973768433981272e-02  9.9873730894468646e-02  9.9937769647571728e-02  9.9913805970079414e-02  9.9892026978086731e-02  9.9895300968277784e-02  9.9988779534301964e-02  9.9738095210765779e-02  1.0017953520539760e-01  9.9398617415705520e-02  9.9678387448182929e-02  1.0089155348825829e-01  1.0031235587176177e-01  9.9979928519894040e-02  1.0013053099670499e-01  1.0008345770982961e-01  1.0008992779814689e-01  1.0007029014061494e-01  1.0010645258613221e-01  1.0006941683297250e-01  1.0007976363650498e-01  1.0009278110329520e-01  1.0009419108172629e-01  1.0003622394128803e-01  1.0008390006559435e-01  1.0004557581235372e-01  1.0005954596327511e-01  1.0006000985590867e-01  1.0005072448096196e-01  1.0004919196100982e-01  1.0005379658072808e-01  1.0004509589674271e-01  1.0004451629438189e-01  1.0004599381869944e-01  1.0003845391129436e-01  1.0004061923352278e-01  1.0003524095623903e-01  1.0004150841750289e-01  1.0002391409676686e-01  1.0005279125340050e-01  1.0000000000000003e-01  9.9977876948856625e-02  1.0000000000000003e-01  9.9988262186259114e-02  9.9978389751128174e-02  9.9981032795626118e-02  9.9978783357360990e-02  9.9973768891816930e-02  9.9973535661326815e-02  9.9974830355759423e-02  9.9965310960686810e-02  9.9967770057620475e-02  9.9969156054851641e-02  9.9954385137357049e-02  9.9958789400602308e-02  9.9963200864671531e-02  9.9941721211147416e-02  9.9952485092461490e-02  9.9959018785128473e-02  9.9929731867626548e-02  9.9948323231639519e-02  9.9960906189253573e-02  9.9907896864446899e-02  9.9968555279663918e-02  9.9920594604694032e-02  9