<?xml version="1.0"?>
<VTKFile type="UnstructuredGrid"  version="0.1"  >
<UnstructuredGrid>
<Piece  NumberOfPoints="63" NumberOfCells="80">
<Points>
<DataArray  type="Float64"  NumberOfComponents="3"  format="ascii">150 0 0  155 0 0  155 7.5 0  150 7.5 0  160 0 0  160 7.5 0  155 15 0  150 15 0  160 15 0  155 22.5 0  150 22.5 0  160 22.5 0  155 30 0  150 30 0  160 30 0  155 37.5 0  150 37.5 0  160 37.5 0  155 45 0  150 45 0  160 45 0  155 52.5 0  150 52.5 0  160 52.5 0  155 60 0  150 60 0  160 60 0  155 67.5 0  150 67.5 0  160 67.5 0  155 75 0  150 75 0  160 75 0  155 82.5 0  150 82.5 0  160 82.5 0  155 90 0  150 90 0  160 90 0  155 97.5 0  150 97.5 0  160 97.5 0  155 105 0  150 105 0  160 105 0  155 112.5 0  150 112.5 0  160 112.5 0  155 120 0  150 120 0  160 120 0  155 127.5 0  150 127.5 0  160 127.5 0  155 135 0  150 135 0  160 135 0  155 142.5 0  150 142.5 0  160 142.5 0  155 150 0  150 150 0  160 150 0  </DataArray>
</Points>
<Cells>
<DataArray  type="UInt32"  Name="connectivity"  format="ascii">0 1 2  0 2 3  1 4 5  1 2 5  2 3 6  3 6 7  2 5 8  2 6 8  6 7 9  7 9 10  6 8 11  6 9 11  9 10 12  10 12 13  9 11 14  9 12 14  12 13 15  13 15 16  12 14 17  12 15 17  15 16 18  16 18 19  15 17 20  15 18 20  18 19 21  19 21 22  18 20 23  18 21 23  21 22 24  22 24 25  21 23 26  21 24 26  24 25 27  25 27 28  24 26 29  24 27 29  27 28 30  28 30 31  27 29 32  27 30 32  30 31 33  31 33 34  30 32 35  30 33 35  33 34 36  34 36 37  33 35 38  33 36 38  36 37 39  37 39 40  36 38 41  36 39 41  39 40 42  40 42 43  39 41 44  39 42 44  42 43 45  43 45 46  42 44 47  42 45 47  45 46 48  46 48 49  45 47 50  45 48 50  48 49 51  49 51 52  48 50 53  48 51 53  51 52 54  52 54 55  51 53 56  51 54 56  54 55 57  55 57 58  54 56 59  54 57 59  57 58 60  58 60 61  57 59 62  57 60 62  </DataArray>
<DataArray  type="UInt32"  Name="offsets"  format="ascii">3 6 9 12 15 18 21 24 27 30 33 36 39 42 45 48 51 54 57 60 63 66 69 72 75 78 81 84 87 90 93 96 99 102 105 108 111 114 117 120 123 126 129 132 135 138 141 144 147 150 153 156 159 162 165 168 171 174 177 180 183 186 189 192 195 198 201 204 207 210 213 216 219 222 225 228 231 234 237 240 </DataArray>
<DataArray  type="UInt8"  Name="types"  format="ascii">5 5 5 5 5 5 5 5 5 5 5 5 5 5 5 5 5 5 5 5 5 5 5 5 5 5 5 5 5 5 5 5 5 5 5 5 5 5 5 5 5 5 5 5 5 5 5 5 5 5 5 5 5 5 5 5 5 5 5 5 5 5 5 5 5 5 5 5 5 5 5 5 5 5 5 5 5 5 5 5 </DataArray>
</Cells>
<PointData  Vectors="u"> 
<DataArray  type="Float64"  Name="u"  NumberOfComponents="3" format="ascii">-2.9389262614625278e-01 0.0000000000000000e+00 0.0000000000000000e+00  -2.9389262614625283e-01 0.0000000000000000e+00 0.0000000000000000e+00  -2.9388772825533188e-01 -2.5767182692971298e-06 0.0000000000000000e+00  -2.9388561574066202e-01 3.8090960269404423e-06 0.0000000000000000e+00  -2.9389262614625283e-01 0.0000000000000000e+00 0.0000000000000000e+00  -2.9388814051401030e-01 -8.1868476493823977e-06 0.0000000000000000e+00  -2.9387395424245627e-01 -4.3535822396288531e-06 0.0000000000000000e+00  -2.9387189455121288e-01 6.8869703988132921e-06 0.0000000000000000e+00  -2.9387467786969684e-01 -1.5452904368156484e-05 0.0000000000000000e+00  -2.9385298371443225e-01 -6.2246043615887935e-06 0.0000000000000000e+00  -2.9385099722789421e-01 9.5020639966685177e-06 0.0000000000000000e+00  -2.9385375387980645e-01 -2.1918798901223265e-05 0.0000000000000000e+00  -2.9382562328125272e-01 -8.1221004837658303e-06 0.0000000000000000e+00  -2.9382371287772147e-01 1.1606380354296844e-05 0.0000000000000000e+00  -2.9382645620176384e-01 -2.7846678695621466e-05 0.0000000000000000e+00  -2.9379265597500265e-01 -1.0028576862192176e-05 0.0000000000000000e+00  -2.9379081965887766e-01 1.3206153663862166e-05 0.0000000000000000e+00  -2.9379355289851339e-01 -3.3267105409353181e-05 0.0000000000000000e+00  -2.9375482756712601e-01 -1.1939464994312222e-05 0.0000000000000000e+00  -2.9375306173381194e-01 1.4324612167401820e-05 0.0000000000000000e+00  -2.9375578578513406e-01 -3.8209783089794655e-05 0.0000000000000000e+00  -2.9371283822947242e-01 -1.3853764893589016e-05 0.0000000000000000e+00  -2.9371113879362537e-01 1.4991131707729029e-05 0.0000000000000000e+00  -2.9371385307253167e-01 -4.2705886942744732e-05 0.0000000000000000e+00  -2.9366734091442670e-01 -1.5771453480378654e-05 0.0000000000000000e+00  -2.9366570343044340e-01 1.5238345502341469e-05 0.0000000000000000e+00  -2.9366840715886156e-01 -4.6788971981225134e-05 0.0000000000000000e+00  -2.9361893640119269e-01 -1.7692583982373353e-05 0.0000000000000000e+00  -2.9361735580971854e-01 1.5101689262919055e-05 0.0000000000000000e+00  -2.9362004890915999e-01 -5.0494918064143514e-05 0.0000000000000000e+00  -2.9356816947649644e-01 -1.9617222342894881e-05 0.0000000000000000e+00  -2.9356664055155501e-01 1.4618277104944417e-05 0.0000000000000000e+00  -2.9356932265596802e-01 -5.3860993164370219e-05 0.0000000000000000e+00  -2.9351552822577021e-01 -2.1545526382882335e-05 0.0000000000000000e+00  -2.9351404578778362e-01 1.3826461897055525e-05 0.0000000000000000e+00  -2.9351671630352799e-01 -5.6925851422880165e-05 0.0000000000000000e+00  -2.9346144066246466e-01 -2.3477542436991702e-05 0.0000000000000000e+00  -2.9345999894256469e-01 1.2765803319423586e-05 0.0000000000000000e+00  -2.9346265829397783e-01 -5.9729068671761776e-05 0.0000000000000000e+00  -2.9340627436764782e-01 -2.5413102912018807e-05 0.0000000000000000e+00  -2.9340486756874856e-01 1.1475712106617884e-05 0.0000000000000000e+00  -2.9340751628442852e-01 -6.2309778226910569e-05 0.0000000000000000e+00  -2.9335033827738360e-01 -2.7352102270311087e-05 0.0000000000000000e+00  -2.9334896113708103e-01 9.9947510135854366e-06 0.0000000000000000e+00  -2.9335159926356941e-01 -6.4706384187126529e-05 0.0000000000000000e+00  -2.9329388206101659e-01 -2.9294367094343883e-05 0.0000000000000000e+00  -2.9329252880012724e-01 8.3604634395977442e-06 0.0000000000000000e+00  -2.9329515769591358e-01 -6.6955873577013961e-05 0.0000000000000000e+00  -2.9323710088163291e-01 -3.1239361334165683e-05 0.0000000000000000e+00  -2.9323576599630502e-01 6.6077009471040449e-06 0.0000000000000000e+00  -2.9323838728990592e-01 -6.9092249871540839e-05 0.0000000000000000e+00  -2.9318014068136428e-01 -3.3186702257235447e-05 0.0000000000000000e+00  -2.9317881999016021e-01 4.7679551014690703e-06 0.0000000000000000e+00  -2.9318143409322772e-01 -7.1146458596046906e-05 0.0000000000000000e+00  -2.9312309990493740e-01 -3.5136130378333987e-05 0.0000000000000000e+00  -2.9312178867818117e-01 2.8695551418434837e-06 0.0000000000000000e+00  -2.9312439749605768e-01 -7.3145858526103608e-05 0.0000000000000000e+00  -2.9306604027024946e-01 -3.7086935693947187e-05 0.0000000000000000e+00  -2.9306473453660192e-01 9.3602000321695462e-07 0.0000000000000000e+00  -2.9306733990391393e-01 -7.5112984390173022e-05 0.0000000000000000e+00  -2.9300899307279887e-01 -3.9038741291857353e-05 0.0000000000000000e+00  -2.9300769051109909e-01 -1.0134074550377507e-06 0.0000000000000000e+00  -2.9301029262079203e-01 -7.7066529441250522e-05 0.0000000000000000e+00  </DataArray> 
</PointData> 
</Piece>
</UnstructuredGrid>
</VTKFile>