<?xml version="1.0"?>
<VTKFile type="UnstructuredGrid"  version="0.1"  >
<UnstructuredGrid>
<Piece  NumberOfPoints="1933" NumberOfCells="3640">
<Points>
<DataArray  type="Float64"  NumberOfComponents="3"  format="ascii">0.2935816941966821 0.001961568093383863 0  5.293581715696931 0.001877431375968901 0  5.293707998794921 7.501877531359558 0  0.2937079344747482 7.501961591750455 0  10.29358172817243 0.001793186536428229 0  10.29370812596689 7.501793317724398 0  15.29358178918714 0.001708743253622629 0  15.29370835413559 7.501708886775731 0  20.29358197102841 0.001624066626782292 0  20.29370872295038 7.50162421470546 0  25.29358234706152 0.001539156771527127 0  25.29370927414388 7.501539306764473 0  30.29358298739628 0.001454036637679702 0  30.29371005074557 7.501454188386179 0  35.29358395855737 0.001368744696833927 0  35.29371109652005 7.501368899281909 0  40.29358532483151 0.001283330798841145 0  40.29371245588138 7.501283489959489 0  45.29358715026275 0.001197854192898812 0  45.29371417419702 7.501198020072991 0  50.29358950085876 0.00111238310695422 0  50.29371629833446 7.501112558171813 0  55.29359244684975 0.001026995540618054 0  55.29371887732322 7.501027182585655 0  60.29359606496416 0.000941781112126202 0  60.29372196302827 7.500941983325613 0  65.29360044074627 0.000856843943539514 0  65.29372561073946 7.500857065004896 0  70.29360567095337 0.0007723066953887396 0  70.29372987958088 7.500772550898246 0  75.29361186607771 0.0006883159938859972 0  75.29373483260991 7.500688588381534 0  80.29361915301261 0.0006050496532935613 0  80.29374053642147 7.500605356141192 0  85.29362767784419 0.0005227263114514246 0  85.29374705998175 7.500523073736527 0  90.29363760865181 0.0004416184086390006 0  90.29375447226731 7.500442014366334 0  95.29364913802303 0.0003620699120963339 0  95.29376283806975 7.500362522070351 0  100.2936624846094 0.0002845209221650737 0  100.2937722110283 7.500285035133269 0  105.2936778923184 0.0002095424558915658 0  105.293782622536 7.500210118207168 0  110.2936956242319 0.0001378865576331985 0  110.2937940647244 7.500138506656832 0  115.2937159453717 7.05598605034612e-05 0  115.293806465438 7.500071167806019 0  120.2937390824 8.93347025649293e-06 0  120.2938196536094 7.500009384780454 0  125.2937651362249 -4.509054468858437e-05 0  125.2938333164558 7.499954868454233 0  130.2937938989003 -8.882495269698427e-05 0  130.2938469596214 7.499909898922045 0  135.2938244759825 -0.0001184120641982808 0  135.2938599081744 7.499877484289743 0  140.2938545103589 -0.0001282690943705613 0  140.2938714557734 7.49986149443412 0  145.2938785695168 -0.0001104635680812769 0  145.2938814495723 7.499866703911809 0  150.2938846573683 -5.50509448713689e-05 0  150.2938921023348 7.499898949355562 0  160.293892626147 1.016786990702785e-18 0  165.2937347663257 -0.0002056968194994183 0  165.2938649831987 7.499765086221251 0  160.2939131606584 7.499930526259119 0  170.2936434573305 -0.0003876752423249563 0  170.2938160775423 7.49959749556788 0  175.2935887645181 -0.0005522956016750489 0  175.2937750110847 7.499439425859669 0  180.2935552384446 -0.0007029695942081012 0  180.2937427980232 7.499292170036232 0  185.2935344200718 -0.0008424518236116774 0  185.2937183351147 7.49915459493727 0  190.2935214934366 -0.0009730131032258879 0  190.2937001015903 7.499025139443567 0  195.2935136218759 -0.001096459356931107 0  195.2936866945867 7.498902353973008 0  200.2935090766215 -0.001214194408033553 0  200.2936769649984 7.498785025495579 0  205.2935067666476 -0.001327301662165776 0  205.293670016469 7.498672176053759 0  210.2935059790823 -0.001436619950692202 0  210.2936651641982 7.498563026337855 0  215.2935062325453 -0.00154280485152446 0  215.2936618886771 7.498456955026625 0  220.2935071921506 -0.001646375206207826 0  220.2936597956838 7.498353463411776 0  225.2935086188429 -0.001747747409554369 0  225.2936585848245 7.498252147210579 0  230.2935103382709 -0.001847260440516361 0  230.2936580258308 7.49815267491983 0  235.2935122210563 -0.001945194159221323 0  235.2936579410426 7.498054771422284 0  240.2935141698988 -0.002041782792327552 0  240.2936581925476 7.497958205589399 0  245.2935161109107 -0.002137224998266669 0  245.2936586727469 7.497862780851151 0  250.2935179876501 -0.002231691496757963 0  250.2936592974103 7.49776832794677 0  255.293519756951 -0.002325330952494361 0  255.2936600005536 7.497674699277166 0  260.2935213859839 -0.002418274594683612 0  260.293660730646 7.497581764439741 0  265.2935228502325 -0.002510639906279237 0  265.293661447816 7.49748940664816 0  270.2935241321609 -0.00260253360724077 0  270.2936621218111 7.497397519833891 0  275.2935252204965 -0.00269405406617912 0  275.2936627305351 7.497306006305907 0  280.2935261100739 -0.002785293184853872 0  280.293663259036 7.497214774922197 0  285.2935268022815 -0.002876337685177047 0  285.2936636988348 7.497123739817518 0  290.2935273061394 -0.002967269547218119 0  290.2936640474771 7.497032819853542 0  295.2935276400842 -0.00305816502191798 0  295.293664308223 7.496941939133533 0  300.2935278343303 -0.003149091015277543 0  300.2936644897677 7.496851029174204 0  305.2935279332802 -0.003240096367096827 0  305.2936646061466 7.496760033642563 0  310.2935279961234 -0.003331192841315629 0  310.2936646776735 7.496668916828765 0  5.293833885546704 15.00187778139233 0  0.2938338096606183 15.00196165592649 0  10.29383402908352 15.00179364295933 0  15.29383427661534 15.0017092349868 0  20.29383465528574 15.00162456428003 0  25.29383518910729 15.0015396515333 0  30.29383590153941 15.00145452975256 0  35.29383681637609 15.00136924223993 0  40.29383795791888 15.00128384113858 0  45.29383935087716 15.00119838682646 0  50.29384102015992 15.00111294819309 0  55.2938429905879 15.00102760377614 0  60.293845286485 15.00094244375826 0  65.29384793107481 15.00085757288013 0  70.29385094557485 15.00077311439693 0  75.29385434785976 15.00068921529202 0  80.29385815052854 15.00060605306291 0  85.29386235818359 15.00052384451639 0  90.29386696370447 15.0004428571543 0  95.29387194332095 15.00036342388738 0  100.2938772503815 15.00028596195236 0  105.2938828080386 15.00021099693326 0  110.2938885017577 15.00013919249227 0  115.2938941740548 15.00007138532511 0  120.2938996267173 15.00000862196873 0  125.2939046409521 14.99995218733032 0  130.2939090345225 14.99990359992051 0  135.2939127874975 14.99986451687647 0  140.2939162812286 14.99983642268509 0  145.2939206889583 14.99981981140553 0  150.2939284483686 14.9998120878176 0  165.2939453836729 14.99968519060464 0  160.2939537608796 14.99980997022243 0  170.2939283837396 14.99954829614357 0  175.2939079752246 14.99940933709838 0  180.2938878164256 14.99927353260055 0  185.293869698259 14.99914281392246 0  190.2938542553522 14.99901751420898 0  195.2938415211044 14.99889729461382 0  200.2938312561428 14.99878158600967 0  205.2938231236469 14.9986697846105 0  210.2938167758626 14.998561330506 0  215.2938118925607 14.99845573275964 0  220.2938081948294 14.99835257146775 0  225.2938054469667 14.99825149092487 0  230.2938034531601 14.99815219023629 0  235.2938020523356 14.99805441403373 0  240.2938011127584 14.9979579442573 0  245.2938005270803 14.99786259322349 0  250.2938002080765 14.99776819790147 0  255.2938000850915 14.99767461522048 0  260.2938001011408 14.99758171822271 0  265.2938002105614 14.99748939289767 0  270.2938003771254 14.99739753557179 0  275.2938005725131 14.99730605076478 0  280.2938007750558 14.99721484946368 0  285.293800968697 14.99712384780185 0  290.2938011420859 14.99703296615269 0  295.2938012878585 14.99694212862445 0  300.2938014021962 14.99685126278476 0  305.2938014850578 14.9967602989028 0  310.2938015418424 14.99666916641284 0  5.293959261861965 22.50187833004957 0  0.2939591848412445 22.50196199892144 0  10.29395938821479 22.50179428077375 0  15.2939595935575 22.50170989954483 0  20.29395989656959 22.5016252272381 0  25.29396030997096 22.5015403046267 0  30.29396084352588 22.50145517592792 0  35.29396150553598 22.50136989036558 0  40.29396230336479 22.50128450298014 0  45.29396324338039 22.50119907536806 0  50.29396433054497 22.50111367670531 0  55.29396556776019 22.50102838524285 0  60.29396695500266 22.50094329039444 0  65.2939684882392 22.50085849552378 0  70.29397015808641 22.50077412155164 0  75.2939719481743 22.50069031153373 0  80.29397383318762 22.50060723638936 0  85.2939757765957 22.50052510198382 0  90.29397772817687 22.50044415775597 0  95.29397962160955 22.50036470700055 0  100.2939813727019 22.50028711868095 0  105.2939828793389 22.50021184012359 0  110.293984025029 22.50013940886338 0  115.293984689134 22.50007045982416 0  120.2939847684641 22.50000572015876 0  125.2939842166677 22.49994597722855 0  130.2939831086681 22.4998919936189 0  135.2939817344402 22.49984432477698 0  140.2939807128091 22.49980296955125 0  145.2939810770827 22.49976676240466 0  150.293984193913 22.49973246725131 0  165.2940166613141 22.49959678926176 0  160.2940061236373 22.49969741311697 0  170.294018906249 22.49948321709362 0  175.2940151332305 22.49936313842833 0  180.2940078032753 22.49924119918669 0  185.2939988808179 22.49912021203209 0  190.293989674455 22.4990016171676 0  195.2939809496768 22.49888599823479 0  200.2939730942292 22.49877345994014 0  205.2939662576599 22.49866386358097 0  210.2939604504097 22.4985569620742 0  215.2939556083102 22.49845247279044 0  220.2939516322153 22.4983501144192 0  225.2939484111835 22.49824962394081 0  230.2939458353111 22.4981507630246 0  235.2939438023075 22.49805331905943 0  240.2939422204 22.49795710364549 0  245.2939410091779 22.49786195003611 0  250.2939400993284 22.49776771028594 0  255.2939394318345 22.49767425246675 0  260.293938956936 22.49758145810799 0  265.2939386330435 22.49748921991505 0  270.293938425669 22.49739743977011 0  275.2939383064254 22.49730602699889 0  280.2939382520915 22.49721489687467 0  285.2939382437536 22.49712396931195 0  290.2939382660367 22.49703316765623 0  295.2939383064829 22.49694241736077 0  300.2939383551497 22.49685164408896 0
[...]
<PointData  Vectors="v"> 
<DataArray  type="Float64"  Name="v"  NumberOfComponents="3" format="ascii">3.6573831426474368e+00 -1.6115890616763959e+00 0.0000000000000000e+00  3.5120259173889323e+00 -1.8358961125300888e+00 0.0000000000000000e+00  2.8946889181744435e+00 -1.6178594851566008e+00 0.0000000000000000e+00  3.0018384240515963e+00 -1.4515958435048169e+00 0.0000000000000000e+00  3.2680615193584033e+00 -2.3477666828454953e+00 0.0000000000000000e+00  2.7492640859717188e+00 -1.9822464420078865e+00 0.0000000000000000e+00  2.9630575744189334e+00 -3.0800025220673479e+00 0.0000000000000000e+00  2.5055986146368490e+00 -2.6230131073536764e+00 0.0000000000000000e+00  2.6051839321536536e+00 -3.7901257133058688e+00 0.0000000000000000e+00  2.2011232129792524e+00 -3.2543687848419736e+00 0.0000000000000000e+00  2.1996695460095985e+00 -4.6309468062696624e+00 0.0000000000000000e+00  1.8441042458673640e+00 -4.0242398535410659e+00 0.0000000000000000e+00  1.8042466633196179e+00 -5.3862425805094887e+00 0.0000000000000000e+00  1.4402674757828002e+00 -4.7949948086324383e+00 0.0000000000000000e+00  1.6319956725109070e+00 -5.8085155676070057e+00 0.0000000000000000e+00  1.0470479435211868e+00 -5.5529144209238739e+00 0.0000000000000000e+00  1.1327691010372021e+00 -6.6713517716346793e+00 0.0000000000000000e+00  8.7768713526895370e-01 -5.9260170629906206e+00 0.0000000000000000e+00  3.0277084863133163e+00 -3.9427614674063749e+00 0.0000000000000000e+00  3.8251586157333156e-01 -6.7891024083332541e+00 0.0000000000000000e+00  -1.3458187013869864e+00 -1.0491114239342329e+01 0.0000000000000000e+00  2.2824140686521015e+00 -3.9362170175863511e+00 0.0000000000000000e+00  2.8614193027625922e-02 -8.1871807673090817e+00 0.0000000000000000e+00  -2.0862808954576075e+00 -1.0254276090065368e+01 0.0000000000000000e+00  3.1587784654315448e-01 -7.5181000045085131e+00 0.0000000000000000e+00  -7.0532424112196590e-01 -7.9568184838268872e+00 0.0000000000000000e+00  -2.0028996774191718e-02 -7.8253079265488168e+00 0.0000000000000000e+00  -4.0903703536718794e-01 -7.3312949002188477e+00 0.0000000000000000e+00  -8.0935695602339286e-01 -8.8100690231073724e+00 0.0000000000000000e+00  -7.3386216370157842e-01 -7.6383851127716582e+00 0.0000000000000000e+00  -1.8670019645511242e+00 -1.0138368337907670e+01 0.0000000000000000e+00  -1.5088473034162955e+00 -8.5656319665564400e+00 0.0000000000000000e+00  -3.1369881999723361e+00 -1.1667567163524412e+01 0.0000000000000000e+00  -2.5499898001032069e+00 -9.7793389964167741e+00 0.0000000000000000e+00  -4.5747142064014268e+00 -1.3357908133229733e+01 0.0000000000000000e+00  -3.8011136895282007e+00 -1.1220524833219130e+01 0.0000000000000000e+00  -6.1353544603067771e+00 -1.5024941685607887e+01 0.0000000000000000e+00  -5.2159766038364701e+00 -1.2705161657576872e+01 0.0000000000000000e+00  -7.7832328157070920e+00 -1.6662488388175753e+01 0.0000000000000000e+00  -6.7513908625408208e+00 -1.4215847405440389e+01 0.0000000000000000e+00  -9.4780104516448542e+00 -1.8186431376069908e+01 0.0000000000000000e+00  -8.3702411531347725e+00 -1.5671922266848108e+01 0.0000000000000000e+00  -1.1152804378019303e+01 -1.9495738896803456e+01 0.0000000000000000e+00  -1.0032181613231014e+01 -1.7015014712204458e+01 0.0000000000000000e+00  -1.2745362864097347e+01 -2.0406971533598963e+01 0.0000000000000000e+00  -1.1669079518775861e+01 -1.8052372555785833e+01 0.0000000000000000e+00  -1.4203215691139516e+01 -2.1020109848280232e+01 0.0000000000000000e+00  -1.3222049967292136e+01 -1.8873915336686430e+01 0.0000000000000000e+00  -1.5453240930476058e+01 -2.0818051395236594e+01 0.0000000000000000e+00  -1.4630612420063125e+01 -1.8982594074442591e+01 0.0000000000000000e+00  -1.6477120942373137e+01 -2.0141505464387393e+01 0.0000000000000000e+00  -1.5834006413146060e+01 -1.8657653271370226e+01 0.0000000000000000e+00  -1.7227529723410385e+01 -1.8254813064141111e+01 0.0000000000000000e+00  -1.6795076905377609e+01 -1.7173021968791865e+01 0.0000000000000000e+00  -1.7742335545150429e+01 -1.5430189411640635e+01 0.0000000000000000e+00  -1.7493165312539048e+01 -1.4724275533120483e+01 0.0000000000000000e+00  -1.8011407156448278e+01 -1.1383124047573007e+01 0.0000000000000000e+00  -1.7928588591277190e+01 -1.1024940840294141e+01 0.0000000000000000e+00  -1.8136940474454001e+01 -4.7336333110490116e+00 0.0000000000000000e+00  -1.8141699151807199e+01 -4.6296949746287908e+00 0.0000000000000000e+00  -1.8163563202179521e+01 4.5925674458074561e-11 0.0000000000000000e+00  -1.8163229809978795e+01 3.1822733105711626e-04 0.0000000000000000e+00  -1.8163563200077117e+01 -1.8416408825857908e-19 0.0000000000000000e+00  -1.3884990339231509e+01 1.1499618976838551e+01 0.0000000000000000e+00  -1.8132846388013206e+01 5.1172795952884833e+00 0.0000000000000000e+00  -1.8163230960455625e+01 -3.3660978472414566e-04 0.0000000000000000e+00  -1.2622755532829215e+01 2.0107706414195277e+01 0.0000000000000000e+00  -1.3903859371163373e+01 1.8283773100642673e+01 0.0000000000000000e+00  -1.0750956666394355e+01 2.3971355010273818e+01 0.0000000000000000e+00  -1.2700406262817728e+01 2.1200280411249661e+01 0.0000000000000000e+00  -9.6662430459877005e+00 2.4801502110354694e+01 0.0000000000000000e+00  -1.0883286513004801e+01 2.3222511889634916e+01 0.0000000000000000e+00  -8.4432664486578357e+00 2.4356276171251469e+01 0.0000000000000000e+00  -9.8476521164122648e+00 2.2561572111528204e+01 0.0000000000000000e+00  -7.4332742017898621e+00 2.2838312789886459e+01 0.0000000000000000e+00  -8.6703912504565857e+00 2.1363615814884263e+01 0.0000000000000000e+00  -6.4847832391685243e+00 2.1055800911952851e+01 0.0000000000000000e+00  -7.7049556936167169e+00 1.9668565176399166e+01 0.0000000000000000e+00  -5.6325989187367194e+00 1.9045770400794801e+01 0.0000000000000000e+00  -6.7971044876020850e+00 1.7803519783657549e+01 0.0000000000000000e+00  -4.7441452334379930e+00 1.7232205741850542e+01 0.0000000000000000e+00  -5.9836570454043061e+00 1.5932486997690308e+01 0.0000000000000000e+00  -4.0345859139037419e+00 1.5494897636310267e+01 0.0000000000000000e+00  -5.1324838769234091e+00 1.4462378760932436e+01 0.0000000000000000e+00  -3.4033303839972313e+00 1.3979395228035985e+01 0.0000000000000000e+00  -4.4580726407204017e+00 1.3063207041085604e+01 0.0000000000000000e+00  -2.7508624030769315e+00 1.2763981382633377e+01 0.0000000000000000e+00  -3.8604610180153989e+00 1.1814731565648968e+01 0.0000000000000000e+00  -2.1562058408435205e+00 1.1703941626735146e+01 0.0000000000000000e+00  -3.2406307122423130e+00 1.0840114770008840e+01 0.0000000000000000e+00  -1.6191255734980847e+00 1.0781081683253367e+01 0.0000000000000000e+00  -2.6771122626015207e+00 1.0002973438037028e+01 0.0000000000000000e+00  -1.1376968385066826e+00 9.9363044201176880e+00 0.0000000000000000e+00  -2.1700647715462251e+00 9.2406534371442941e+00 0.0000000000000000e+00  -7.2134380961121003e-01 9.1321942223184269e+00 0.0000000000000000e+00  -1.7178579047658726e+00 8.5333409583614976e+00 0.0000000000000000e+00  -3.6508194950917716e-01 8.3737099838421987e+00 0.0000000000000000e+00  -1.3297292350356780e+00 7.8644472968788826e+00 0.0000000000000000e+00  -5.3434946378431825e-02 7.6318256283387793e+00 0.0000000000000000e+00  -1.0008915672471286e+00 7.1888699851501032e+00 0.0000000000000000e+00  2.1033115756764251e-01 6.9061798453287278e+00 0.0000000000000000e+00  -7.1615236918124281e-01 6.5344485185038144e+00 0.0000000000000000e+00  4.3113398661948732e-01 6.1904645815191861e+00 0.0000000000000000e+00  -4.7857931317831348e-01 5.8829002146705323e+00 0.0000000000000000e+00  6.1580649765346540e-01 5.4856140468162549e+00 0.0000000000000000e+00  -2.8358193219302807e-01 5.2317223229772214e+00 0.0000000000000000e+00  7.6494526056398127e-01 4.7640793831238577e+00 0.0000000000000000e+00  -1.2416618164834241e-01 4.5633516353496812e+00 0.0000000000000000e+00  8.7178055967000800e-01 4.0849924973552705e+00 0.0000000000000000e+00  -2.1989726380573308e-04 3.9471481269017601e+00 0.0000000000000000e+00  9.4629771098441107e-01 3.3304974761788251e+00 0.0000000000000000e+00  8.2298959953182677e-02 3.2414930060823317e+00 0.0000000000000000e+00  9.7456829250622856e-01 2.6995484203990157e+00 0.0000000000000000e+00  1.3173260549765500e-01 2.6786617886790198e+00 0.0000000000000000e+00  9.6084296760498411e-01 1.8813475224602503e+00 0.0000000000000000e+00  1.3684103817556725e-01 1.9251049366009851e+00 0.0000000000000000e+00  8.9624066662982282e-01 1.3995927711798875e+00 0.0000000000000000e+00  9.7346618870656584e-02 1.5165127282225015e+00 0.0000000000000000e+00  7.6625190401765120e-01 4.3162720079637146e-01 0.0000000000000000e+00  1.1809089038626165e-02 6.5152818477571284e-01 0.0000000000000000e+00  5.2156955063882016e-01 -4.9852294442774420e-02 0.0000000000000000e+00  -1.4734605645056478e-01 3.3315180026045366e-01 0.0000000000000000e+00  -5.8944305068911559e-02 -2.8479417753721786e-01 0.0000000000000000e+00  -4.0368093730024995e-01 6.1944064951106392e-01 0.0000000000000000e+00  2.0087630987019596e+00 -1.4561119905226345e+00 0.0000000000000000e+00  2.1166253856901234e+00 -1.2920579381855213e+00 0.0000000000000000e+00  1.8999290579851800e+00 -1.7627707018611911e+00 0.0000000000000000e+00  1.7522624526021167e+00 -2.2563294383228363e+00 0.0000000000000000e+00  1.5064139739773090e+00 -2.7965605233364834e+00 0.0000000000000000e+00  1.2000444678653979e+00 -3.4875501941692906e+00 0.0000000000000000e+00  8.4139929615992015e-01 -4.1887888062085956e+00 0.0000000000000000e+00  4.3680538600166502e-01 -4.9633860337742624e+00 0.0000000000000000e+00  4.4181952030509480e-02 -5.6724902171454863e+00 0.0000000000000000e+00  -1.2346107875087155e-01 -6.0485555439913021e+00 0.0000000000000000e+00  -6.1438116194486747e-01 -6.7899329651371243e+00 0.0000000000000000e+00  1.2907772787165688e+00 -3.7015877557843786e+00 0.0000000000000000e+00  -3.0786709579553904e+00 -1.0027446111657600e+01 0.0000000000000000e+00  -1.6973262439160275e+00 -7.7798507823186336e+00 0.0000000000000000e+00  -1.3938478149194180e+00 -7.1562424002032392e+00 0.0000000000000000e+00  -1.7078953987979222e+00 -7.4128541882505141e+00 0.0000000000000000e+00  -2.4664612842804519e+00 -8.2294820936000725e+00 0.0000000000000000e+00  -3.4869026522150248e+00 -9.3571682628600410e+00 0.0000000000000000e+00  -4.7136964951262357e+00 -1.0600335889544915e+01 0.0000000000000000e+00  -6.0987194157302662e+00 -1.1933335759291403e+01 0.0000000000000000e+00  -7.5987436400822261e+00 -1.3265583584510122e+01 0.0000000000000000e+00  -9.1776623681979288e+00 -1.4550650811926152e+01 0.0000000000000000e+00  -1.0791393089072763e+01 -1.5627948358069828e+01 0.0000000000000000e+00  -1.2373412675149122e+01 -1.6581373548879718e+01 0.0000000000000000e+00  -1.3862594894406948e+01 -1.6909625089332138e+01 0.0000000000000000e+00  -1.5199324824821339e+01 -1.6904754484983133e+01 0.0000000000000000e+00  -1.6316716248333464e+01 -1.5776681280965214e+01 0.0000000000000000e+00  -1.7189001847385516e+01 -1.3752825729613393e+01 0.0000000000000000e+00  -1.7771326434003619e+01 -1.0415161459456122e+01 0.0000000000000000e+00  -1.8104142334756872e+01 -4.4230234981580638e+00 0.0000000000000000e+00  -1.8162421584409664e+01 6.0656504379334633e-04 0.0000000000000000e+00  -1.8092016124666102e+01 4.9213248982346220e+00 0.0000000000000000e+00  -1.8162423655692233e+01 -6.9195909420810802e-04 0.0000000000000000e+00  -1.7900921772934581e+01 1.1959291018971745e+01 0.0000000000000000e+00  -1.3742518008163353e+01 1.9452664284576883e+01 0.0000000000000000e+00  -1.2625432292566019e+01 2.0539380327679293e+01 0.0000000000000000e+00  -1.0876340568756829e+01 2.1048212620292698e+01 0.0000000000000000e+00  -9.9042515201827044e+00 1.9627434163431445e+01 0.0000000000000000e+00  -8.7786893040994851e+00 1.8253502396926013e+01 0.0000000000000000e+00  -7.8639105649398893e+00 1.6467884186321918e+01 0.0000000000000000e+00  -6.9996936998795061e+00 1.4736819436018145e+01 0.0000000000000000e+00  -6.2266637353880494e+00 1.3209173366256943e+01 0.0000000000000000e+00  -5.4133235857941555e+00 1.2073166507130095e+01 0.0000000000000000e+00  -4.7742582117197667e+00 1.0938062566133862e+01 0.0000000000000000e+00  -4.2095676257764252e+00 9.9300150068447710e+00 0.0000000000000000e+00  -3.6214464531373678e+00 9.1758333647582315e+00 0.0000000000000000e+00  -3.0877077291114854e+00 8.4970331937177832e+00 0.0000000000000000e+00  -2.6087088231839854e+00 7.8715763294581818e+00 0.0000000000000000e+00  -2.1833928146760022e+00 7.2978165160061721e+00 0.0000000000000000e+00  -1.8208055950099162e+00 6.7103290771014370e+00 0.0000000000000000e+00  -1.5162895710127355e+00 6.1217192881562950e+00 0.0000000000000000e+00  -1.2550708612274180e+00 5.5403527948929367e+00 0.0000000000000000e+00  -1.0401877850385510e+00 4.9524252205876502e+00 0.0000000000000000e+00  -8.6709624596565416e-01 4.3373939007005546e+00 0.0000000000000000e+00  -7.2920456979849613e-01 3.7737659579052156e+00 0.0000000000000000e+00  -6.2614914724302495e-01 3.1304254802687064e+00 0.0000000000000000e+00  -5.6434384761493606e-01 2.6162943351189618e+00 0.0000000000000000e+00  -5.3491162558799965e-01 1.9304180347088649e+00 0.0000000000000000e+00  -5.5023498374152469e-01 1.5859782956076316e+00 0.0000000000000000e+00  -6.0843022483690201e-01 7.9427173108265270e-01 0.0000000000000000e+00  -7.1458436015246329e-01 5.7921776755344512e-01 0.0000000000000000e+00  -8.9106563838488806e-01 1.0196656350602074e+00 0.0000000000000000e+00  7.0000099895735601e-01 -1.2920447955130481e+00 0.0000000000000000e+00  7.9210776847355657e-01 -1.1573146211155760e+00 0.0000000000000000e+00  5.8842124267926710e-01 -1.5956977090687858e+00 0.0000000000000000e+00  4.7333276019247567e-01 -2.0308649636022023e+00 0.0000000000000000e+00  3.1938254505145974e-01 -2.4233443460575930e+00 0.0000000000000000e+00  6.6492040164868482e-02 -3.0235774274238776e+00 0.0000000000000000e+00  -2.4699038063135031e-01 -3.6471364402472513e+00 0.0000000000000000e+00  -6.1164110779826564e-01 -4.3533627551970149e+00 0.0000000000000000e+00  -1.0211653130515979e+00 -5.0820521949511646e+00 0.0000000000000000e+00  -1.4164788120723038e+00 -5.7981906729852586e+00 0.0000000000000000e+00  -1.5826977498245340e+00 -6.0575023801968362e+00 0.0000000000000000e+00  -2.0683017601848639e+00 -6.5634349085033170e+00 0.0000000000000000e+00  -1.6272667804889124e-01 -3.4680498445094061e+00 0.0000000000000000e+00  -4.5450084474566115e+00 -9.8440286891399857e+00 0.0000000000000000e+00  -3.1744256919339691e+00 -7.6146019624499024e+00 0.0000000000000000e+00  -2.8689184851662501e+00 -6.9510674751202268e+00 0.0000000000000000e+00  -3.1712222532377856e+00 -7.1069885773019541e+00 0.0000000000000000e+00  -3.9100248340719803e+00 -7.8477906858774746e+00 0.0000000000000000e+00  -4.9035786602112941e+00 -8.7870623046117942e+00 0.0000000000000000e+00  -6.0950950717660684e+00 -9.8880185695579996e+00 0.0000000000000000e+00  -7.4373276168805251e+00 -1.1054615103809983e+01 0.0000000000000000e+00  -8.8860634761686583e+00 -1.2229730573010183e+01 0.0000000000000000e+00  -1.0401396360832070e+01 -1.3261148136844831e+01 0.0000000000000000e+00  -1.1941003955750556e+01 -1.4276310802954709e+01 0.0000000000000000e+00  -1.3431941653120344e+01 -1.4749888348243504e+01 0.0000000000000000e+00  -1.4816497078366989e+01 -1.4995349929892088e+01 0.0000000000000000e+00  -1.6023320704787206e+01 -1.4196568512362830e+01 0.0000000000000000e+00  -1.6999350412589447e+01 -1.2583893133551417e+01 0.0000000000000000e+00  -1.7688193954838724e+01 -9.6479289372821011e+00 0.0000000000000000e+00  -1.8095456329466501e+01 -4.1388539463290561e+00 0.0000000000000000e+00  -1.8161163112967117e+01 8.6604810094319132e-04 0.0000000000000000e+00  -1.8071377203664511e+01 4.5762170745196062e+00 0.0000000000000000e+00  -1.8161165220331377e+01 -1.0058151860458428e-03 0.0000000000000000e+00  -1.7669550092522538e+01 1.1609384560389691e+01 0.0000000000000000e+00  -1.7468306356716187e+01 1.3304617262054945e+01 0.0000000000000000e+00  -1.3433607295153370e+01 1.8972361944518852e+01 0.0000000000000000e+00  -1.2455169950604438e+01 1.8504539856433361e+01 0.0000000000000000e+00  -1.0814272227135724e+01 1.8246385462938086e+01 0.0000000000000000e+00  -9.9354998683056923e+00 1.6624242149445955e+01 0.0000000000000000e+00  -8.8880764396035783e+00 1.5152293699474177e+01 0.0000000000000000e+00  -8.0439785109101187e+00 1.3489279271351403e+01 0.0000000000000000e+00  -7.2407985213741473e+00 1.2094413140704621e+01 0.0000000000000000e+00  -6.5241971043523437e+00 1.0893907922568339e+01 0.0000000000000000e+00  -5.7622733467479206e+00 1.0018087385559742e+01 0.0000000000000000e+00  -5.1710969376125675e+00 9.1188352117012936e+00 0.0000000000000000e+00  -4.6517035150743071e+00 8.3277596803443874e+00 0.0000000000000000e+00  -4.1063381974873137e+00 7.7286486661828642e+00 0.0000000000000000e+00  -3.6125703847895414e+00 7.1832902660376607e+00 0.0000000000000000e+00  -3.1712743486244412e+00 6.6883440489496158e+00 0.0000000000000000e+00  -2.7813787597708464e+00 6.1935589646739553e+00 0.0000000000000000e+00  -2.4521412913818943e+00 5.6905505154587699e+00 0.0000000000000000e+00  -2.1792722283440051e+00 5.1730721897360690e+00 0.0000000000000000e+00  -1.9482686814118297e+00 4.6536376473877992e+00 0.0000000000000000e+00  -1.7622262901145567e+00 4.1006207023628560e+00 0.0000000000000000e+00  -1.6171665922430736e+00 3.5888559792595185e+00 0.0000000000000000e+00  -1.5062299124583700e+00 2.9977928857421579e+00 0.0000000000000000e+00  -1.4298654081369861e+00 2.5441625801127996e+00 0.0000000000000000e+00  -1.3934600811715787e+00 1.9080021966619845e+00 0.0000000000000000e+00  -1.3900973168801221e+00 1.6275166130994967e+00 0.0000000000000000e+00  -1.4286070706526655e+00 9.0450333231218671e-01 0.0000000000000000e+00  -1.5137410459327989e+00 7.5285385892601098e-01 0.0000000000000000e+00  -1.6367531687848471e+00 1.3087481277607542e+00 0.0000000000000000e+00  -5.0481607752176794e-01 -1.1506584002203968e+00 0.0000000000000000e+00  -4.3302037489455764e-01 -1.0543124968319701e+00 0.0000000000000000e+00  -6.0208214367682733e-01 -1.4225245929541832e+00 0.0000000000000000e+00  -7.2314988145750603e-01 -1.8505125535214093e+00 0.0000000000000000e+00  -8.4963340471455717e-01 -2.1836611061156184e+00 0.0000000000000000e+00  -1.0167404072211392e+00 -2.6348502803281244e+00 0.0000000000000000e+00  -1.2834904427641776e+00 -3.1669375572013738e+00 0.0000000000000000e+00  -1.6112259867093399e+00 -3.7970600630066840e+00 0.0000000000000000e+00  -1.9893346780887993e+00 -4.4597791007218976e+00 0.0000000000000000e+00  -2.4097938295812842e+00 -5.1995013847242273e+00 0.0000000000000000e+00  -2.8117022063166415e+00 -5.8070899503287192e+00 0.0000000000000000e+00  -2.9794481153438359e+00 -5.8359753152911020e+00 0.0000000000000000e+00  -3.4651135768988421e+00 -6.3205470062085274e+00 0.0000000000000000e+00  -1.5741296923495596e+00 -3.2483298820890498e+00 0.0000000000000000e+00  -5.9927277600756597e+00 -9.6462942942363554e+00 0.0000000000000000e+00  -4.6527977103058360e+00 -7.3998365988289798e+00 0.0000000000000000e+00  -4.3595464983346934e+00 -6.6529419927404740e+00 0.0000000000000000e+00  -4.6619419289689663e+00 -6.7478733291381934e+00 0.0000000000000000e+00  -5.3887528296078413e+00 -7.3102415540136692e+00 0.0000000000000000e+00  -6.3623752020189528e+00 -8.1218281296256531e+00 0.0000000000000000e+00  -7.5249331102848815e+00 -9.0683873722184583e+00 0.0000000000000000e+00  -8.8281146690458279e+00 -1.0091839620382734e+01 0.0000000000000000e+00  -1.0226187965409038e+01 -1.1032157229221777e+01 0.0000000000000000e+00  -1.1678066727946980e+01 -1.2025686079399076e+01 0.0000000000000000e+00  -1.3133302100731830e+01 -1.2580631211500258e+01 0.0000000000000000e+00  -1.4523087849215145e+01 -1.3013524886811874e+01 0.0000000000000000e+00  -1.5773096432580251e+01 -1.2484527879677991e+01 0.0000000000000000e+00  -1.6827263450404978e+01 -1.1271652595640257e+01 0.0000000000000000e+00  -1.7594206761916709e+01 -8.7368011890613744e+00 0.0000000000000000e+00  -1.8073710714864212e+01 -3.7832007580114899e+00 0.0000000000000000e+00  -1.8159505316305115e+01 1.0955881376784311e-03 0.0000000000