<?xml version="1.0"?>
<VTKFile type="UnstructuredGrid"  version="0.1"  >
<UnstructuredGrid>
<Piece  NumberOfPoints="1933" NumberOfCells="3640">
<Points>
<DataArray  type="Float64"  NumberOfComponents="3"  format="ascii">-0.475440111644371 -0.0007022615240552016 0  4.524559897561835 -0.0006811995121484347 0  4.524528292864102 7.499318817933088 0  -0.4754717163451525 7.499297756742902 0  9.524559916262724 -0.0006601481696083917 0  9.524528306401672 7.499339867038952 0  14.52455995016387 -0.0006390964756012132 0  14.52452832459494 7.499360916603663 0  19.52456000160045 -0.0006180315796672897 0  19.52452834676832 7.499381979775076 0  24.52456007029324 -0.0005969403633181687 0  24.52452837117865 7.499403069620986 0  29.52456015400261 -0.0005758099058666463 0  29.52452839495306 7.499424198933459 0  34.52456024894724 -0.0005546274985686352 0  34.52452841403819 7.499445380292476 0  39.52456035000576 -0.0005333804772928223 0  39.5245284231303 7.499466626249339 0  44.52456045074572 -0.0005120559885376027 0  44.52452841556244 7.499487949557612 0  49.52456054331586 -0.0004906407351429796 0  49.52452838313205 7.499509363418976 0  54.52456061822222 -0.0004691207167247616 0  54.52452831585752 7.499530881732792 0  59.5245606639941 -0.0004474809649775253 0  59.5245282016513 7.499552519349336 0  64.52456066673182 -0.0004257052661961803 0  64.52452802589352 7.499574292332833 0  69.52456060951329 -0.0004037758581640264 0  69.52452777088365 7.499596218244151 0  74.52456047162107 -0.0003816730834958818 0  74.52452741514014 7.499618316455969 0  79.52456022752641 -0.0003593749750531611 0  79.52452693250335 7.499640608515729 0  84.52455984553339 -0.0003368567398467717 0  84.5245262909868 7.499663118573678 0  89.5245592859301 -0.0003140900947408981 0  89.52452545129827 7.499685873892713 0  94.52455849840308 -0.0002910423894796079 0  94.52452436493944 7.499708905448482 0  99.52455741831511 -0.0002676754310177875 0  99.52452297177645 7.499732248601025 0  104.5245559611793 -0.0002439439042510279 0  104.5245211969921 7.499755943746394 0  109.5245540141889 -0.0002197932899256499 0  109.5245189474147 7.499780036680447 0  114.5245514228213 -0.0001951572733985695 0  114.5245161074904 7.499804578003633 0  119.5245479690224 -0.0001699549841194928 0  119.5245125358336 7.499829620000259 0  124.5245433347588 -0.0001440894279633221 0  124.5245080648623 7.499855207483502 0  129.5245370398554 -0.0001174512196112762 0  129.5245025094561 7.499881354951039 0  134.5245283344245 -8.993870533464726e-05 0  134.5244956977934 7.499907993623598 0  139.5245160115267 -6.152248121885541e-05 0  139.5244875520048 7.499934853309411 0  144.5244980827913 -3.241995084549066e-05 0  144.5244782733331 7.499961202934777 0  149.5244712336871 -3.510499962297918e-06 0  149.5244687296013 7.499985271429774 0  159.5244717418524 6.987485913767205e-19 0  164.5244810343879 1.743343615396878e-06 0  164.524473268961 7.500000243867247 0  159.5244683257315 7.499995654347292 0  169.5244903778149 9.261256374613452e-06 0  169.5244779575455 7.500008699792834 0  174.5244988899593 2.043365748315723e-05 0  174.5244824994877 7.500020231117649 0  179.5245063602392 3.408596745094672e-05 0  179.5244868086301 7.500034032520025 0  184.5245128133882 4.948509687034236e-05 0  184.5244908056008 7.500049494842792 0  189.5245183509337 6.614582730061951e-05 0  189.5244944481858 7.500066181211835 0  194.5245230908043 8.373526181543786e-05 0  194.5244977253147 7.500083779447927 0  199.5245271449332 0.0001020186383704893 0  199.5245006461816 7.500102064123038 0  204.5245306121237 0.0001208264463407629 0  204.5245032314302 7.500120870028215 0  209.524533576958 0.0001400337006043904 0  209.5245055071968 7.500140074170549 0  214.5245361109284 0.0001595465111695749 0  214.5245075014216 7.500159583572712 0  219.5245382742081 0.0001792931627599696 0  219.5245092417136 7.500179326924252 0  224.5245401174454 0.0001992180479580896 0  224.5245107542052 7.500199248784704 0  229.5245416833668 0.0002192774459314983 0  229.524512063013 7.500219305490973 0  234.5245430081418 0.0002394365216889293 0  234.524513190058 7.5002394622182 0  239.5245441225252 0.0002596671513193725 0  239.5245141550906 7.500259690834679 0  244.5245450528102 0.0002799463198994841 0  244.5245149758309 7.500279968314138 0  249.5245458216309 0.0003002549270983889 0  249.5245156681669 7.500300275548456 0  254.5245464486485 0.00032057689224557 0  254.5245162463811 7.500320596456271 0  259.5245469511484 0.0003408984884914935 0  259.5245167233832 7.500340917318748 0  264.5245473445746 0.0003612078625479517 0  264.5245171109424 7.500361226299179 0  269.5245476430165 0.0003814947174409081 0  269.5245174199086 7.500381513122826 0  274.5245478596682 0.0004017501543882591 0  274.5245176604132 7.500401768910263 0  279.5245480072578 0.0004219666894069961 0  279.5245178420494 7.500421986173579 0  284.5245480984456 0.0004421384833178806 0  284.5245179740085 7.500442159001873 0  289.5245481461527 0.0004622618529467018 0  289.5245180651687 7.500462283480137 0  294.5245481637345 0.00048233616663814 0  294.524518124122 7.500482358403032 0  299.5245481648203 0.0005023652581941653 0  299.5245181591443 7.500502386355886 0  304.524548162432 0.0005223594644539766 0  304.5245181781816 7.500522375235628 0  309.5245481666165 0.0005423380546780588 0  309.5245181890686 7.500542340311975 0  4.524496678111429 14.99931885157953 0  -0.4755033296587656 14.9992978019112 0  9.524496684646106 14.99933988896552 0  14.52449668866117 14.99936092876188 0  19.52449668811676 14.99938198411299 0  24.52449668039651 14.9994030674991 0  29.52449666222791 14.99942419105814 0  34.52449662953858 14.99944536678882 0  39.52449657730167 14.99946660674321 0  44.52449649937456 14.9994879232265 0  49.5244963883221 14.99950932900119 0  54.52449623521358 14.99953083749202 0  59.52449602938369 14.99955246299008 0  64.52449575814931 14.99957422085613 0  69.52449540647675 14.99959612772341 0  74.52449495659761 14.99961820169804 0  79.52449438757714 14.99964046254913 0  84.52449367485421 14.99966293186891 0  89.52449278979465 14.99968563315967 0  94.52449169934768 14.99970859175886 0  99.52449036597808 14.99973183442727 0  104.5244887481909 14.99975538826368 0  109.5244868022108 14.99977927830999 0  114.524484485772 14.99980352266758 0  119.5244817655636 14.99982812298445 0  124.5244786306597 14.99985304653868 0  129.5244751150184 14.99987819355026 0  134.5244713320381 14.99990333979674 0  139.5244675208154 14.99992804160539 0  144.5244640912292 14.99995149546419 0  149.5244616206265 14.99997238900748 0  164.5244631299349 14.9999971439258 0  159.5244613339466 14.99998905628342 0  169.5244648353274 15.00000746605412 0  174.5244665947524 15.00001988863318 0  179.5244684322746 15.00003408934583 0  184.5244703088196 15.00004971470648 0  189.5244721708265 15.000066453623 0  194.5244739714998 15.00008405453209 0  199.5244756768738 15.00010232092783 0  204.5244772654845 15.00012110120934 0  209.5244787259571 15.00014027860876 0  214.5244800543253 15.0001597628335 0  219.524481251725 15.00017948358312 0  224.5244823226138 15.00019938565774 0  229.5244832734745 15.00021942530278 0  234.5244841119111 15.00023956747871 0  239.5244848460368 15.00025978381358 0  244.5244854840781 15.0002800510586 0  249.5244860341274 15.00030034991807 0  254.5244865040013 15.00032066416189 0  259.5244869011672 15.0003409799576 0  264.5244872327163 15.00036128537921 0  269.524487505363 15.00038157006678 0  274.5244877254598 15.00040182502284 0  279.5244878990178 15.0004220425422 0  284.524488031736 15.00044221627884 0  289.5244881290444 15.00046234145606 0  294.5244881961978 15.00048241522004 0  299.5244882384802 15.00050243711601 0  304.5244882616457 15.0005224096226 0  309.5244882728198 15.00054233861354 0  4.524465095956224 22.49931890119986 0  -0.4755349104998622 22.49929788189653 0  9.524465098064706 22.4993399140981 0  14.52446509319694 22.49936093390421 0  19.52446507876934 22.49938197251773 0  24.52446505203373 22.49940304115704 0  29.52446500992898 22.49942415077234 0  34.5244649489355 22.49944531228778 0  39.52446486493658 22.49946653677424 0  44.52446475309013 22.49948783559696 0  49.52446460771213 22.49950922055258 0  54.52446442216888 22.49953070399708 0  59.52446418877999 22.49955229896038 0  64.52446389873667 22.49957401924019 0  69.52446354204722 22.49959587946189 0  74.52446310753324 22.49961789508427 0  79.5244625829137 22.49964008231611 0  84.5244619550389 22.49966245788619 0  89.52446121037062 22.49968503857032 0  94.52446033585412 22.49970784031613 0  99.52445932039974 22.49973087670355 0  104.5244581572822 22.49975415631694 0  109.524456847875 22.49977767835288 0  114.5244554072284 22.49980142542183 0  119.524453871998 22.49982535201399 0  124.524452310958 22.4998493665798 0  129.5244508374404 22.49987330498626 0  134.5244496209316 22.4998968943223 0  139.5244488909737 22.499919711402 0  144.5244489202058 22.49994115628708 0  149.5244499680537 22.49996050067719 0  164.5244493286983 22.4999933929143 0  159.5244494123723 22.49998226767017 0  169.5244492160573 22.50000565342274 0  174.5244492010133 22.50001922451653 0  179.5244493430376 22.50003405845056 0  184.5244496492453 22.5000500067973 0  189.5244500962439 22.50006689139795 0  194.5244506483978 22.50008454067331 0  199.5244512689312 22.50010280431498 0  204.5244519253258 22.50012155672305 0  209.5244525912318 22.50014069545685 0  214.524453246558 22.50016013793323 0  219.524453876752 22.50017981786053 0  224.5244544718235 22.50019968200504 0  229.5244550253733 22.50021968747 0  234.5244555337411 22.50023979948866 0  239.5244559953044 22.50025998966813 0  244.5244564099232 22.50028023460556 0  249.5244567785101 22.50030051480398 0  254.524457102704 22.50032081382717 0  259.5244573846234 22.50034111764638 0  264.5244576266826 22.50036141414253 0  269.5244578314533 22.50038169273763 0  274.524458001568 22.50040194413551 0  279.5244581396565 22.50042216015543 0  284.5244582483244 22.5004423336413 0  289.5244583301909 22.50046245842046 0  294.5244583880181 22.50048252926
[...]
<PointData  Vectors="v"> 
<DataArray  type="Float64"  Name="v"  NumberOfComponents="3" format="ascii">-3.3875863110045228e+00 -6.6395419128196380e+00 0.0000000000000000e+00  -3.8534017763753030e+00 -6.0129534742119599e+00 0.0000000000000000e+00  -3.3431288149237335e+00 -5.3144896610100778e+00 0.0000000000000000e+00  -2.9805846109693470e+00 -6.0955361052448085e+00 0.0000000000000000e+00  -4.3950683461273012e+00 -6.2748581031751947e+00 0.0000000000000000e+00  -3.8084911306770719e+00 -5.4630905793848532e+00 0.0000000000000000e+00  -4.8260594619856816e+00 -6.8413784638156168e+00 0.0000000000000000e+00  -4.3491092284947133e+00 -6.1961463365196456e+00 0.0000000000000000e+00  -5.1465106236142466e+00 -6.7133429479177478e+00 0.0000000000000000e+00  -4.7784278235839128e+00 -6.2343316432255378e+00 0.0000000000000000e+00  -5.5755336744781365e+00 -7.0659422009031614e+00 0.0000000000000000e+00  -5.0966368795853292e+00 -6.4244782778178644e+00 0.0000000000000000e+00  -5.8686928726806800e+00 -6.9526904487467203e+00 0.0000000000000000e+00  -5.5229918876729442e+00 -6.5154282628480553e+00 0.0000000000000000e+00  -5.8394614144951937e+00 -6.4273523167061519e+00 0.0000000000000000e+00  -5.8129910947328289e+00 -6.4738765255521118e+00 0.0000000000000000e+00  -6.6135860429532229e+00 -6.9902826750468741e+00 0.0000000000000000e+00  -5.7802695096645484e+00 -5.8320691284099562e+00 0.0000000000000000e+00  -4.6770677799507778e+00 -3.5122529285947945e+00 0.0000000000000000e+00  -6.5506863415524386e+00 -6.4201730306396207e+00 0.0000000000000000e+00  -1.3096839384581738e+01 -1.5353282704454490e+01 0.0000000000000000e+00  -4.6102770095765067e+00 -2.7270438005345654e+00 0.0000000000000000e+00  -1.3625127385967772e+01 -1.5003387734614499e+01 0.0000000000000000e+00  -1.3025578365287844e+01 -1.4214736597370193e+01 0.0000000000000000e+00  -1.3878423381988636e+01 -1.4097628461626934e+01 0.0000000000000000e+00  -1.3549369816544772e+01 -1.3721022318137448e+01 0.0000000000000000e+00  -1.4200515948919380e+01 -1.3241025952664977e+01 0.0000000000000000e+00  -1.3798421934519604e+01 -1.2761333773437011e+01 0.0000000000000000e+00  -1.4651491786273997e+01 -1.2600005068694799e+01 0.0000000000000000e+00  -1.4116174942152028e+01 -1.1926852380977397e+01 0.0000000000000000e+00  -1.5246756131987366e+01 -1.2171107828915018e+01 0.0000000000000000e+00  -1.4562980439969451e+01 -1.1281702169426472e+01 0.0000000000000000e+00  -1.5927280742180734e+01 -1.1835391143588970e+01 0.0000000000000000e+00  -1.5153930682237526e+01 -1.0817673115043226e+01 0.0000000000000000e+00  -1.6630060157352670e+01 -1.1678582340813444e+01 0.0000000000000000e+00  -1.5830272553318794e+01 -1.0627231850003668e+01 0.0000000000000000e+00  -1.7292340752267378e+01 -1.1388272905523658e+01 0.0000000000000000e+00  -1.6529481417900911e+01 -1.0397273024830101e+01 0.0000000000000000e+00  -1.7859456398428438e+01 -1.1001868569307609e+01 0.0000000000000000e+00  -1.7188505079261049e+01 -1.0152566284497370e+01 0.0000000000000000e+00  -1.8292758400405223e+01 -1.0409154606324364e+01 0.0000000000000000e+00  -1.7753379412682900e+01 -9.7598284768678170e+00 0.0000000000000000e+00  -1.8578144733667362e+01 -9.6365854139987075e+00 0.0000000000000000e+00  -1.8185546213615368e+01 -9.2077161865667030e+00 0.0000000000000000e+00  -1.8718318658240229e+01 -8.3453321416984423e+00 0.0000000000000000e+00  -1.8471500921455497e+01 -8.1330312002514038e+00 0.0000000000000000e+00  -1.8732072656708635e+01 -7.2490708545460727e+00 0.0000000000000000e+00  -1.8613310829744993e+01 -7.2239648094078897e+00 0.0000000000000000e+00  -1.8658895467612158e+01 -5.2267058416808823e+00 0.0000000000000000e+00  -1.8632258643658083e+01 -5.3314172809245539e+00 0.0000000000000000e+00  -1.8532100140609252e+01 -3.9763663010608470e+00 0.0000000000000000e+00  -1.8564414117947727e+01 -4.1568323825920341e+00 0.0000000000000000e+00  -1.8399652615156377e+01 -1.4612866067358647e+00 0.0000000000000000e+00  -1.8449121865016529e+01 -1.6516063986732556e+00 0.0000000000000000e+00  -1.8282218836379563e+01 -5.4854561115507949e-01 0.0000000000000000e+00  -1.8326315136189141e+01 -7.0814884196446282e-01 0.0000000000000000e+00  -1.8210825042398874e+01 1.8370432181331302e+00 0.0000000000000000e+00  -1.8228546486632670e+01 1.7414049302089771e+00 0.0000000000000000e+00  -1.8172580095076764e+01 1.6921983778212910e+00 0.0000000000000000e+00  -1.8171283433829018e+01 1.6599428409222252e+00 0.0000000000000000e+00  -1.8163571109587988e+01 -5.4635235217770040e-05 0.0000000000000000e+00  -1.8164444421680830e+01 -9.6812752978024067e-04 0.0000000000000000e+00  -1.8163563200133961e+01 6.0389540666526006e-19 0.0000000000000000e+00  -1.1537999635635227e+01 -3.2598109172910679e-02 0.0000000000000000e+00  -1.8177117913574438e+01 -9.9672139187985334e+00 0.0000000000000000e+00  -1.8164414080163809e+01 8.2213177545445676e-04 0.0000000000000000e+00  -1.2947355874634061e+01 9.2502700765758128e-01 0.0000000000000000e+00  -1.1554213769073430e+01 3.0362991980359548e+00 0.0000000000000000e+00  -1.1086321751988642e+01 5.9756441686673805e+00 0.0000000000000000e+00  -1.2964855832023018e+01 3.1920823667734939e+00 0.0000000000000000e+00  -1.0981673703644065e+01 6.9398432751124446e+00 0.0000000000000000e+00  -1.1108290357067636e+01 6.7879417440111665e+00 0.0000000000000000e+00  -1.0059199483710598e+01 9.9914232794916789e+00 0.0000000000000000e+00  -1.1010865017125036e+01 8.6160587148136152e+00 0.0000000000000000e+00  -9.4733922617016031e+00 1.1141412963076647e+01 0.0000000000000000e+00  -1.0097126143701992e+01 1.0271475094084686e+01 0.0000000000000000e+00  -8.7661858222905575e+00 1.2321892754034621e+01 0.0000000000000000e+00  -9.5210405882383604e+00 1.1271550448261573e+01 0.0000000000000000e+00  -8.1784178986933203e+00 1.2512013089654895e+01 0.0000000000000000e+00  -8.8251670916972174e+00 1.1641017649073335e+01 0.0000000000000000e+00  -7.4005936606614142e+00 1.2465635606686007e+01 0.0000000000000000e+00  -8.2495270223403505e+00 1.1310764865337218e+01 0.0000000000000000e+00  -6.8844344813885021e+00 1.1699257290520688e+01 0.0000000000000000e+00  -7.4845429274361202e+00 1.0937370107072560e+01 0.0000000000000000e+00  -6.4921302317748086e+00 1.0782399350635616e+01 0.0000000000000000e+00  -6.9820758793744098e+00 1.0206783756830209e+01 0.0000000000000000e+00  -6.0442016400532950e+00 9.8428092104694880e+00 0.0000000000000000e+00  -6.6040200725561347e+00 9.1842618939346785e+00 0.0000000000000000e+00  -5.6054898435466489e+00 8.9013588347377208e+00 0.0000000000000000e+00  -6.1707584279718954e+00 8.2570591276645224e+00 0.0000000000000000e+00  -5.1799897576347904e+00 8.0589395744993695e+00 0.0000000000000000e+00  -5.7472257395232829e+00 7.4346687181298847e+00 0.0000000000000000e+00  -4.7323614281259925e+00 7.2887454740865323e+00 0.0000000000000000e+00  -5.3372223946406052e+00 6.6315683785148147e+00 0.0000000000000000e+00  -4.3116464687101903e+00 6.5480947420219255e+00 0.0000000000000000e+00  -4.9052867601670158e+00 5.9314596795140115e+00 0.0000000000000000e+00  -3.9286762876909891e+00 5.8814777087232040e+00 0.0000000000000000e+00  -4.5004921844304029e+00 5.3215134788003127e+00 0.0000000000000000e+00  -3.5555579732774660e+00 5.2542434802871414e+00 0.0000000000000000e+00  -4.1335270756709344e+00 4.7091453490105488e+00 0.0000000000000000e+00  -3.2155759157020323e+00 4.6424676872069961e+00 0.0000000000000000e+00  -3.7764519068949789e+00 4.1470629485920343e+00 0.0000000000000000e+00  -2.9207981287804157e+00 4.0892974993000131e+00 0.0000000000000000e+00  -3.4524894854675723e+00 3.6616842347214025e+00 0.0000000000000000e+00  -2.6393822791984163e+00 3.5225210286222053e+00 0.0000000000000000e+00  -3.1737461194538539e+00 3.1148245127712064e+00 0.0000000000000000e+00  -2.3901452119711353e+00 3.0350347955960144e+00 0.0000000000000000e+00  -2.9081418276121940e+00 2.6756418447122368e+00 0.0000000000000000e+00  -2.1683989045526086e+00 2.5024841792624826e+00 0.0000000000000000e+00  -2.6748085001713253e+00 2.1839873679237156e+00 0.0000000000000000e+00  -1.9611008194941337e+00 2.1549769446352207e+00 0.0000000000000000e+00  -2.4684645456775782e+00 1.8584005090998366e+00 0.0000000000000000e+00  -1.7595350426395246e+00 1.6057341089315966e+00 0.0000000000000000e+00  -2.2770157539696401e+00 1.3169638750454979e+00 0.0000000000000000e+00  -1.5591726757070543e+00 1.5752450884813283e+00 0.0000000000000000e+00  -2.0900751274535074e+00 1.2892468299142339e+00 0.0000000000000000e+00  -1.3419074558855959e+00 9.2093040059270315e-01 0.0000000000000000e+00  -1.9058980702206580e+00 6.0756865132525595e-01 0.0000000000000000e+00  -1.0222916304250431e+00 1.4662662553027368e+00 0.0000000000000000e+00  -1.7017388254814245e+00 1.0023632387682893e+00 0.0000000000000000e+00  -5.0819136820200317e-01 1.2385180871171462e+00 0.0000000000000000e+00  -1.4002644188567293e+00 4.7730174601858161e-01 0.0000000000000000e+00  7.0081727018360629e-01 1.8477347227403243e-01 0.0000000000000000e+00  -8.9344317203877943e-01 -1.6080650318475733e+00 0.0000000000000000e+00  -3.0740536226980919e+00 -4.7709183571658862e+00 0.0000000000000000e+00  -2.6679195953271910e+00 -5.4858916049732809e+00 0.0000000000000000e+00  -3.4358969819005725e+00 -4.7659555704997105e+00 0.0000000000000000e+00  -3.8993605941994658e+00 -5.3868227201316046e+00 0.0000000000000000e+00  -4.4368726610115203e+00 -5.5926860588795995e+00 0.0000000000000000e+00  -4.8618547154097511e+00 -5.9503118034398792e+00 0.0000000000000000e+00  -5.1744281117990383e+00 -5.8796355796501212e+00 0.0000000000000000e+00  -5.5940561727161375e+00 -6.0432216872574633e+00 0.0000000000000000e+00  -5.8764002468722065e+00 -5.8860757952461817e+00 0.0000000000000000e+00  -5.8352507849589870e+00 -5.2695271832190178e+00 0.0000000000000000e+00  -6.5973039195428669e+00 -5.6422706740819724e+00 0.0000000000000000e+00  -4.6483986209430261e+00 -1.5982222031333368e+00 0.0000000000000000e+00  -1.3052523471614657e+01 -1.2942193002245112e+01 0.0000000000000000e+00  -1.3565415417566490e+01 -1.2393017760682529e+01 0.0000000000000000e+00  -1.3805308199630723e+01 -1.1456042541880795e+01 0.0000000000000000e+00  -1.4113459772822415e+01 -1.0616927426072158e+01 0.0000000000000000e+00  -1.4550527862194723e+01 -9.9374122605265676e+00 0.0000000000000000e+00  -1.5130864553338428e+01 -9.6194368696704515e+00 0.0000000000000000e+00  -1.5795809738425264e+01 -9.3550623451847290e+00 0.0000000000000000e+00  -1.6483453022898981e+01 -9.1707726663683751e+00 0.0000000000000000e+00  -1.7130908793281250e+01 -8.9194804743888074e+00 0.0000000000000000e+00  -1.7684391130430370e+01 -8.5650655714325836e+00 0.0000000000000000e+00  -1.8106738293192297e+01 -7.7094075220319676e+00 0.0000000000000000e+00  -1.8384367125951034e+01 -7.0146457678238425e+00 0.0000000000000000e+00  -1.8520710945607927e+01 -5.3050846799958977e+00 0.0000000000000000e+00  -1.8537473909326639e+01 -4.2564191693329718e+00 0.0000000000000000e+00  -1.8473128772844298e+01 -1.8228260271438619e+00 0.0000000000000000e+00  -1.8364896104150990e+01 -8.7984429397192243e-01 0.0000000000000000e+00  -1.8260683719322355e+01 1.6001908472468813e+00 0.0000000000000000e+00  -1.8182413195019645e+01 1.6037011474737635e+00 0.0000000000000000e+00  -1.8166536108593384e+01 -1.8422086393281461e-03 0.0000000000000000e+00  -1.8181352561692485e+01 -9.9085136186121314e+00 0.0000000000000000e+00  -1.8166494969276098e+01 1.6137434248874724e-03 0.0000000000000000e+00  -1.8237807620518861e+01 -6.8967845327603454e+00 0.0000000000000000e+00  -1.1605518761788153e+01 5.2994859815763506e+00 0.0000000000000000e+00  -1.3007267276863379e+01 4.0023971465745394e+00 0.0000000000000000e+00  -1.1151124118492779e+01 8.4715378620805275e+00 0.0000000000000000e+00  -1.1057421145867711e+01 8.9055127979534348e+00 0.0000000000000000e+00  -1.0151239854283066e+01 1.0411368808950071e+01 0.0000000000000000e+00  -9.5832184144734640e+00 1.0603353375769572e+01 0.0000000000000000e+00  -8.8974808074288383e+00 1.0453656345395421e+01 0.0000000000000000e+00  -8.3326655012655593e+00 9.7965002314911818e+00 0.0000000000000000e+00  -7.5791730551970433e+00 9.4603323488131501e+00 0.0000000000000000e+00  -7.0889420032613826e+00 8.6248791554347068e+00 0.0000000000000000e+00  -6.7237977638893280e+00 7.6149341128818220e+00 0.0000000000000000e+00  -6.3038495922541475e+00 6.8076612527748370e+00 0.0000000000000000e+00  -5.8942597563497081e+00 6.0251545990167612e+00 0.0000000000000000e+00  -5.4986541721321114e+00 5.2922220032337357e+00 0.0000000000000000e+00  -5.0813477462069105e+00 4.7231974020943825e+00 0.0000000000000000e+00  -4.6914068234130379e+00 4.1676814508533937e+00 0.0000000000000000e+00  -4.3394011444496146e+00 3.6203317302044544e+00 0.0000000000000000e+00  -3.9971947140686797e+00 3.1846497469633270e+00 0.0000000000000000e+00  -3.6880231638188485e+00 2.7054738970477303e+00 0.0000000000000000e+00  -3.4238515623273775e+00 2.2859165824228791e+00 0.0000000000000000e+00  -3.1725829264623995e+00 1.8423416371338437e+00 0.0000000000000000e+00  -2.9531857966391453e+00 1.5573271032158447e+00 0.0000000000000000e+00  -2.7605665905319996e+00 1.0375000226620048e+00 0.0000000000000000e+00  -2.5821753520117294e+00 1.0171905810851980e+00 0.0000000000000000e+00  -2.4083692632721636e+00 3.3784132047505266e-01 0.0000000000000000e+00  -2.2360457037318104e+00 7.0516023487700819e-01 0.0000000000000000e+00  -2.0447718567263351e+00 2.9660317185556589e-02 0.0000000000000000e+00  -1.7540730583866311e+00 -2.3585794843723051e+00 0.0000000000000000e+00  -2.9787765172343716e+00 -4.1622693518630243e+00 0.0000000000000000e+00  -2.6087143760838494e+00 -4.9301313841978578e+00 0.0000000000000000e+00  -3.3838497362898821e+00 -4.2246686334370329e+00 0.0000000000000000e+00  -3.7431161848553565e+00 -4.6943998235932840e+00 0.0000000000000000e+00  -4.2021640221745047e+00 -4.7909237564209555e+00 0.0000000000000000e+00  -4.7328050136110189e+00 -5.3190569164789174e+00 0.0000000000000000e+00  -5.1484290561405546e+00 -5.4187233120067040e+00 0.0000000000000000e+00  -5.4492416651821332e+00 -5.4234523543533788e+00 0.0000000000000000e+00  -5.8547594939357133e+00 -5.4735322805683442e+00 0.0000000000000000e+00  -6.1212640176101427e+00 -5.3429737980900915e+00 0.0000000000000000e+00  -6.0636354489250328e+00 -4.5107707239632351e+00 0.0000000000000000e+00  -6.8098234037445406e+00 -4.5331682311072194e+00 0.0000000000000000e+00  -4.8433343658199624e+00 -3.5156048732744422e-01 0.0000000000000000e+00  -1.3225155690622325e+01 -1.1639469049198363e+01 0.0000000000000000e+00  -1.3717385737394846e+01 -1.1108293129083833e+01 0.0000000000000000e+00  -1.3940266018275915e+01 -1.0167236753661934e+01 0.0000000000000000e+00  -1.4230984274360969e+01 -9.2951782914618946e+00 0.0000000000000000e+00  -1.4648836823707814e+01 -8.7637737832523488e+00 0.0000000000000000e+00  -1.5207453630192235e+01 -8.3739639071995278e+00 0.0000000000000000e+00  -1.5848516955757889e+01 -8.1570271694899432e+00 0.0000000000000000e+00  -1.6510047616637305e+01 -7.9666566349130283e+00 0.0000000000000000e+00  -1.7130009527539183e+01 -7.7531437280489017e+00 0.0000000000000000e+00  -1.7656111841752182e+01 -7.0939986641050661e+00 0.0000000000000000e+00  -1.8051530400538876e+01 -6.6133509280729923e+00 0.0000000000000000e+00  -1.8305640744876591e+01 -5.1140910310102523e+00 0.0000000000000000e+00  -1.8422255495728951e+01 -4.2376684979399482e+00 0.0000000000000000e+00  -1.8428121737695136e+01 -1.9231276939478819e+00 0.0000000000000000e+00  -1.8360207246299989e+01 -1.0296894744475633e+00 0.0000000000000000e+00  -1.8266950662859312e+01 1.4531240059763981e+00 0.0000000000000000e+00  -1.8185175341869229e+01 1.5352360159482779e+00 0.0000000000000000e+00  -1.8169800988334316e+01 -2.6337774917346481e-03 0.0000000000000000e+00  -1.8175874752729104e+01 -9.8563791247579431e+00 0.0000000000000000e+00  -1.8169764202500389e+01 2.3071639418276706e-03 0.0000000000000000e+00  -1.8231509281810375e+01 -6.8028769969555185e+00 0.0000000000000000e+00  -1.8284578982889155e+01 -4.6626912176116075e+00 0.0000000000000000e+00  -1.1633486051159023e+01 6.0930757025392319e+00 0.0000000000000000e+00  -1.3022015368562545e+01 5.6887173374743645e+00 0.0000000000000000e+00  -1.1168072185800510e+01 8.7693164716176515e+00 0.0000000000000000e+00  -1.1082619520175783e+01 9.0618419908561929e+00 0.0000000000000000e+00  -1.0188751555856255e+01 9.7612737114115973e+00 0.0000000000000000e+00  -9.6343791701171533e+00 9.4367089906186905e+00 0.0000000000000000e+00  -8.9639136896679315e+00 8.9614637516053826e+00 0.0000000000000000e+00  -8.4146913172853814e+00 8.3430213848748878e+00 0.0000000000000000e+00  -7.6776762074087950e+00 7.9028742484867394e+00 0.0000000000000000e+00  -7.2045802567819859e+00 7.0812738687743479e+00 0.0000000000000000e+00  -6.8571889874635712e+00 6.1923243659872895e+00 0.0000000000000000e+00  -6.4558151786046256e+00 5.4259693064348458e+00 0.0000000000000000e+00  -6.0656652400821249e+00 4.7145885410315387e+00 0.0000000000000000e+00  -5.6901074184850557e+00 4.1133616050712885e+00 0.0000000000000000e+00  -5.2933127643727813e+00 3.5990872589486460e+00 0.0000000000000000e+00  -4.9241463440228310e+00 3.1087171882962954e+00 0.0000000000000000e+00  -4.5928894043659314e+00 2.6876643148478303e+00 0.0000000000000000e+00  -4.2712821468268682e+00 2.2577520171703349e+00 0.0000000000000000e+00  -3.9823209583419521e+00 1.9055048930184166e+00 0.0000000000000000e+00  -3.7379429695129351e+00 1.4806677208089714e+00 0.0000000000000000e+00  -3.5056735899599243e+00 1.2432897876505082e+00 0.0000000000000000e+00  -3.3048368632410234e+00 7.6254382789962583e-01 0.0000000000000000e+00  -3.1295262958155914e+00 7.6393808436029464e-01 0.0000000000000000e+00  -2.9683568783832288e+00 8.9165423591959378e-02 0.0000000000000000e+00  -2.8095384500342129e+00 4.6115262806146284e-01 0.0000000000000000e+00  -2.6541663339245560e+00 -2.4826758504478125e-01 0.0000000000000000e+00  -2.4734092701467913e+00 -2.7795694505235704e+00 0.0000000000000000e+00  -3.1542662948631022e+00 -3.6078458326487519e+00 0.0000000000000000e+00  -2.8097244628577376e+00 -4.4124137616787307e+00 0.0000000000000000e+00  -3.5231668679864638e+00 -3.6185940409023774e+00 0.0000000000000000e+00  -3.9257080686422183e+00 -4.1581896401821705e+00 0.0000000000000000e+00  -4.2807875969829619e+00 -4.1067350609653364e+00 0.0000000000000000e+00  -4.7330305723642718e+00 -4.5297037444796624e+00 0.0000000000000000e+00  -5.2537076655973651e+00 -4.8044384890430729e+00 0.0000000000000000e+00  -5.6557669244190265e+00 -4.9838439976351401e+00 0.0000000000000000e+00  -5.9395182241985953e+00 -4.8791400411830539e+00 0.0000000000000000e+00  -6.3250483621476903e+00 -4.9587328205189101e+00 0.0000000000000000e+00  -6.5699063033350882e+00 -4.6126753132548481e+00 0.0000000000000000e+00  -6.4907000706847846e+00 -3.4289414374553759e+00 0.0000000000000000e+00  -7.2161898681039522e+00 -3.3174936823191747e+00 0.0000000000000000e+00  -5.2256733322149707e+00 9.1216964660049094e-01 0.0000000000000000e+00  -1.3578002326778002e+01 -1.0389783303773266e+01 0.0000000000000000e+00  -1.4045099525068208e+01 -9.8474512729856887e+00 0.0000000000000000e+00  -1.4248066147852350e+01 -8.8743581063480761e+00 0.0000000000000000e+00  -1.4517434676046868e+01 -8.1541728268406448e+00 0.0000000000000000e+00  -1.4910619329902673e+01 -7.5570230743314362e+00 0.0000000000000000e+00  -1.5439103007432619e+01 -7.2195864064235300e+00 0.0000000000000000e+00  -1.6044923484697893e+01 -7.0021598731929453e+00 0.0000000000000000e+00  -1.6666433464817597e+01 -6.8536148648876143e+00 0.0000000000000000e+00  -1.7242544526724753e+01 -6.3371387241511590e+00 0.0000000000000000e+00  -1.7722286906584642e+01 -6.0521015802863438e+00 0.0000000000000000e+00  -1.8072217834965301e+01 -4.7646271267787368e+00 0.0000000000000000e+00  -1.8282613598944049e+01 -4.0875470941789400e+00 0.0000000000000000e+00  -1.8364525791833408e+01 -1.9363448794971079e+00 0.0000000000000000e+00  -1.8344217649890449e+01 -1.1344623119441275e+00 0.0000000000000000e+00  -1.8273636773169070e+01 1.3109924808144342e+00 0.0000000000000000e+00  -1.8192034202840698e+01 1.4597062661429425e+00 0.0000000000000000e+00  -1.8174