<?xml version="1.0"?>
<VTKFile type="UnstructuredGrid"  version="0.1"  >
<UnstructuredGrid>
<Piece  NumberOfPoints="1933" NumberOfCells="3640">
<Points>
<DataArray  type="Float64"  NumberOfComponents="3"  format="ascii">0.2940193043324775 -0.001025428612493674 0  5.294019314598406 -0.0009933890730185681 0  5.293971237475652 7.499006627849751 0  0.2939712290797218 7.498974592659737 0  10.29401933696396 -0.0009613579609890396 0  10.2939712484548 7.499038654845804 0  15.29401937595035 -0.0009293177453397166 0  15.29397126075267 7.49907069190571 0  20.2940194312874 -0.000897251061655828 0  20.29397127180515 7.499102756273818 0  25.29401949944289 -0.0008651417375258163 0  25.29397127764216 7.499134863834252 0  30.2940195746172 -0.0008329748265671819 0  30.29397127284335 7.499167029265155 0  35.2940196492712 -0.0008007362983962267 0  35.29397125049658 7.499199266382785 0  40.29401971431191 -0.000768412642861013 0  40.293971202111 7.499231588527878 0  45.29401975903517 -0.0007359904856581732 0  45.29397111745804 7.499264008931631 0  50.29401977088828 -0.0007034562454188348 0  50.2939709843263 7.499296541040433 0  55.29401973508407 -0.0006707958351335167 0  55.29397078818058 7.499329198797592 0  60.29401963407357 -0.0006379944004839029 0  60.29397051171343 7.499361996887772 0  65.29401944686499 -0.0006050360842361679 0  65.29397013427189 7.499394950952144 0  70.29401914815591 -0.0005719038048648923 0  70.29396963113464 7.499428077781818 0  75.29401870722532 -0.0005385790369591186 0  75.2939689726047 7.499461395495337 0  80.294018086501 -0.000505041579772673 0  80.29396812286824 7.499494923702632 0  85.29401723967483 -0.0004712692981810861 0  85.29396703855846 7.499528683651337 0  90.29401610916896 -0.0004372378177083192 0  90.293965666942 7.49956269833808 0  95.29401462264474 -0.000402920154218067 0  95.29396394363532 7.499596992538643 0  100.2940126880584 -0.0003682862654932655 0  100.2939617897545 7.499631592649592 0  105.2940101864495 -0.0003333025428182061 0  105.293959108442 7.499666526102401 0  110.2940069610954 -0.0002979313581214125 0  110.2939557808469 7.499701819832077 0  115.2940028006987 -0.0002621310510273112 0  115.2939516620044 7.499737496695364 0  120.2939974125731 -0.0002258574362988256 0  120.2939465779118 7.49977356750867 0  125.293990378794 -0.000189069656622906 0  125.2939403270108 7.499810013840547 0  130.2939810830449 -0.000151747500079285 0  130.2939326933111 7.499846751491461 0  135.2939685869456 -0.000113937756458574 0  135.2939234865517 7.499883553998558 0  140.2939514200919 -7.587229097890407e-05 0  140.2939126404694 7.499919893948509 0  145.2939272271232 -3.825867795769584e-05 0  145.2939004277444 7.499954614913815 0  150.2938921970788 -2.964149921981241e-06 0  150.2938878884823 7.499985242801442 0  160.2938926261462 6.989674891123813e-19 0  165.2939128472789 1.320729189444315e-05 0  165.2938956857715 7.50001279770034 0  160.2938871527536 7.499998161087913 0  170.2939296212575 3.277098842180052e-05 0  170.293904024401 7.500032812239549 0  175.2939433802214 5.62505707091874e-05 0  175.2939118114418 7.500056418584307 0  180.2939546649274 8.226308683462446e-05 0  180.2939188642159 7.500082448686921 0  185.2939639567099 0.0001099756463416402 0  185.2939251289197 7.500110144580507 0  190.2939716456609 0.0001388622655093048 0  190.2939306257943 7.50013900671232 0  195.2939780384075 0.0001685772209606193 0  195.2939354113825 7.500168698205125 0  200.2939833744463 0.00019888528920888 0  200.2939395563363 7.500198986267329 0  205.2939878416299 0.0002296216213505063 0  205.2939431334877 7.500229706242518 0  210.2939915885845 0.0002606677676659435 0  210.2939462119712 7.500260739195782 0  215.2939947340961 0.0002919368287206498 0  215.2939488546991 7.500291997627014 0  220.2939973740615 0.0003233639375931248 0  220.2939511176071 7.500323416134322 0  225.2939995866286 0.0003548999581755293 0  225.2939530497838 7.500354945153189 0  230.2940014360248 0.000386507186686294 0  230.2939546940041 7.500386546651899 0  235.2940029754484 0.0004181563411338443 0  235.2939560874151 7.500418191102824 0  240.2940042492869 0.0004498244051962113 0  240.2939572622503 7.500449855308212 0  245.2940052948501 0.0004814930569089596 0  245.2939582465124 7.500481520814215 0  250.2940061437507 0.0005131475109118866 0  250.2939590645996 7.5005131727422 0  255.2940068230299 0.0005447756642268028 0  255.2939597378719 7.500544798926517 0  260.2940073560924 0.000576367475544153 0  260.2939602851533 7.500576389287574 0  265.2940077635067 0.0006079145360592392 0  265.2939607231789 7.500607935396728 0  270.2940080637018 0.0006394098117343597 0  270.2939610669866 7.5006394302105 0  275.2940082735907 0.0006708475563236813 0  275.2939613302534 7.500670867969487 0  280.2940084091243 0.0007022234145805499 0  280.2939615255781 7.500702244273817 0  285.2940084857734 0.0007335347580427159 0  285.2939616646948 7.500733556363882 0  290.2940085188898 0.0007647813227291513 0  290.2939617586134 7.500764803651136 0  295.2940085238442 0.0007959662453574544 0  295.2939618176773 7.500795988556342 0  300.2940085157242 0.0008270976016478762 0  300.2939618515499 7.500827117714048 0  305.2940085081556 0.0008581904520824917 0  305.2939618692108 7.500858203587138 0  310.2940085104003 0.0008892688553650975 0  310.2939618791839 7.500889266556523 0  5.293923165291374 14.99900665818715 0  0.2939231591794986 14.99897464532315 0  10.29392316690866 14.99903866746685 0  15.29392316085471 14.9990706915046 0  20.29392314342534 14.99910274619412 0  25.29392311034208 14.99913484601371 0  30.29392305653888 14.99916700449802 0  35.29392297594337 14.99919923458272 0  40.29392286127521 14.99923154891255 0  45.29392270384727 14.99926396012184 0  50.2939224933513 14.99929648108334 0  55.29392221761329 14.99932912512179 0  60.29392186230775 14.99936190619077 0  65.29392141062448 14.99939483901035 0  70.29392084288521 14.99942793916051 0  75.29392013611368 14.99946122311796 0  80.29391926357275 14.99949470821188 0  85.293918194301 14.99952841245273 0  90.29391689271537 14.99956235415072 0  95.29391531840571 14.99959655117309 0  100.293913426353 14.99963101956992 0  105.2939111679779 14.99966577108386 0  110.293908493715 14.99970080868046 0  115.2939053582567 14.99973611857466 0  120.29390173025 14.99977165610801 0  125.2938976090211 14.99980732102055 0  130.2938930514986 14.99984291500736 0  135.2938882118449 14.99987807140865 0  140.2938833914874 14.9999121464218 0  145.2938790816851 14.99994407539298 0  150.2938759420893 14.99997227151444 0  165.2938776450865 15.00001280168734 0  160.2938751945198 14.99999538510749 0  170.2938804341682 15.0000337418939 0  175.2938835088115 15.00005754265263 0  180.2938867087734 15.00008350428662 0  185.293889884087 15.00011105573633 0  190.2938929264825 15.00013976764487 0  195.2938957689834 15.00016932623314 0  200.2938983766138 15.00019950360245 0  205.2939007365856 15.00023013356659 0  210.2939028504104 15.00026109389018 0  215.2939047282192 15.00029229371854 0  220.2939063849078 15.00032366477954 0  225.2939078376305 15.00035515521318 0  230.2939091042239 15.00038672520608 0  235.2939102022606 15.00041834386596 0  240.2939111485092 15.0004499869558 0  245.2939119586597 15.00048163523237 0  250.2939126472145 15.0005132732187 0  255.2939132274807 15.0005448882958 0  260.2939137116217 15.00057647003768 0  265.2939141107399 15.00060800974054 0  270.2939144349721 15.00063950011628 0  275.2939146935862 15.00067093513557 0  280.2939148950725 15.00070231001644 0  285.2939150472343 15.00073362136235 0  290.2939151572899 15.00076486745584 0  295.2939152320252 15.00079604870814 0  300.293915278069 15.00082716824773 0  305.293915302422 15.00085823260477 0  310.2939153134769 15.00088925244741 0  5.29387515563506 22.49900669514397 0  0.2938751511963735 22.49897472868422 0  10.29387515254131 22.49903867038052 0  15.29387513737357 22.49907066864959 0  20.29387510612921 22.49910270280536 0  25.29387505486444 22.4991347848793 0  30.2938749793784 22.4991669264377 0  35.29387487496754 22.49919913881592 0  40.29387473623081 22.49923143330054 0  45.29387455691367 22.49926382128443 0  50.29387432978202 22.49929631439693 0  55.29387404651873 22.49932892460279 0  60.29387369764363 22.49936166425918 0  65.29387327246411 22.49939454611627 0  70.29387275907422 22.49942758323928 0  75.29387214443456 22.49946078881835 0  80.29387141458419 22.49949417581276 0  85.29387055506508 22.49952775634485 0  90.29386955168097 22.49956154070859 0  95.2938683917701 22.49959553577888 0  100.2938670662514 22.49962974248357 0  105.2938655727991 22.49966415181184 0  110.2938639206076 22.49969873855277 0  115.2938621372722 22.49973345157608 0  120.2938602782366 22.49976819900919 0  125.2938584388252 22.4998028263072 0  130.2938567676756 22.49983708550793 0  135.2938554777891 22.4998705963868 0  140.2938548467337 22.49990280829954 0  145.2938551910894 22.49993299277511 0  150.2938567970734 22.49996034439819 0  165.2938549466167 22.50001235508564 0  160.2938558418063 22.49999209627203 0  170.2938544504981 22.50003470292443 0  175.2938544093397 22.50005906381432 0  180.2938547790709 22.50008514800615 0  185.2938554678145 22.50011261975933 0  190.2938563754429 22.50014117256626 0  195.2938574132886 22.50017055244638 0  200.2938585108213 22.50020055834126 0  205.2938596157288 22.50023103450427 0  210.2938606913265 22.50026186137998 0  215.2938617132973 22.50029294738242 0  220.293862666639 22.50032422221155 0  225.2938635431273 22.50035563166708 0  230.2938643393319 22.50038713370913 0  235.2938650551234 22.50041869549155 0  240.2938656925769 22.50045029113192 0  245.2938662551802 22.50048190003294 0  250.2938667472711 22.50051350561727 0  255.2938671736412 22.50054509437416 0  260.2938675392594 22.50057665514625 0  265.2938678490831 22.50060817860427 0  270.293868107929 22.50063965687406 0  275.2938683203956 22.50067108328956 0  280.2938684908261 22.50070245225154 0  285.29386862332 22.50073375917172 0  290.2938687218141 22.50076500047451 0  295.2938687902694 22.50079617361128 0  300.29
[...]
<PointData  Vectors="v"> 
<DataArray  type="Float64"  Name="v"  NumberOfComponents="3" format="ascii">1.0546889318469534e+00 7.7141522527942641e+00 0.0000000000000000e+00  1.6148997009695474e+00 7.2210489185813342e+00 0.0000000000000000e+00  1.4820831396780623e+00 6.3810063456790331e+00 0.0000000000000000e+00  1.0496003446677813e+00 7.0657117629120316e+00 0.0000000000000000e+00  2.3113394608121496e+00 7.8011556472347126e+00 0.0000000000000000e+00  2.0418622960699220e+00 6.7574692854545848e+00 0.0000000000000000e+00  2.9354942406393141e+00 8.8272306682912411e+00 0.0000000000000000e+00  2.7370531691877580e+00 7.8925372838412997e+00 0.0000000000000000e+00  3.4823970034509699e+00 9.1406155817088131e+00 0.0000000000000000e+00  3.3592161295402927e+00 8.3225681778304175e+00 0.0000000000000000e+00  4.1661661832301444e+00 1.0016317301099400e+01 0.0000000000000000e+00  3.9033337435971860e+00 8.9936710823914119e+00 0.0000000000000000e+00  4.7077888407219239e+00 1.0370496926684869e+01 0.0000000000000000e+00  4.5833960190109577e+00 9.5616963373640100e+00 0.0000000000000000e+00  4.7895310467051218e+00 1.0108174176387106e+01 0.0000000000000000e+00  5.1204852624978088e+00 9.9899770653796089e+00 0.0000000000000000e+00  5.8752088900836394e+00 1.1202840665703159e+01 0.0000000000000000e+00  5.1969430191186294e+00 9.5794202532199542e+00 0.0000000000000000e+00  2.7733290787487306e+00 6.0406814491297176e+00 0.0000000000000000e+00  6.2763934546226370e+00 1.0699349996275444e+01 0.0000000000000000e+00  1.3889990428575350e+01 2.1913927782108718e+01 0.0000000000000000e+00  3.1675512165393611e+00 5.2449117858888670e+00 0.0000000000000000e+00  1.3572536308777405e+01 2.0139362944881672e+01 0.0000000000000000e+00  1.4276750891634437e+01 2.0622797342388392e+01 0.0000000000000000e+00  1.3652086975142666e+01 1.8819309292731141e+01 0.0000000000000000e+00  1.3950755401796282e+01 1.8708226087577170e+01 0.0000000000000000e+00  1.4185579008996328e+01 1.8151865356725683e+01 0.0000000000000000e+00  1.4020468724679079e+01 1.7361191582583270e+01 0.0000000000000000e+00  1.5128116085169699e+01 1.8118537020204855e+01 0.0000000000000000e+00  1.4542753687264380e+01 1.6715646309811550e+01 0.0000000000000000e+00  1.6380617841221785e+01 1.8509565583139924e+01 0.0000000000000000e+00  1.5472237828309931e+01 1.6642763876798913e+01 0.0000000000000000e+00  1.7849389579901167e+01 1.9117893154725181e+01 0.0000000000000000e+00  1.6710208845960089e+01 1.6928117344774012e+01 0.0000000000000000e+00  1.9443793578233365e+01 2.0004183737487320e+01 0.0000000000000000e+00  1.8163117629236268e+01 1.7627212851415546e+01 0.0000000000000000e+00  2.1073334022027066e+01 2.0742537217541006e+01 0.0000000000000000e+00  1.9739804017640143e+01 1.8313687657466538e+01 0.0000000000000000e+00  2.2661269507045979e+01 2.1366184192726525e+01 0.0000000000000000e+00  2.1350476481070586e+01 1.9001166395910150e+01 0.0000000000000000e+00  2.4144016938234333e+01 2.1713008514037490e+01 0.0000000000000000e+00  2.2918210697600777e+01 1.9506572693186637e+01 0.0000000000000000e+00  2.5466146977429631e+01 2.1746756163693028e+01 0.0000000000000000e+00  2.4379507872454823e+01 1.9782198870255606e+01 0.0000000000000000e+00  2.6591921562831160e+01 2.1016332124834168e+01 0.0000000000000000e+00  2.5678772889750608e+01 1.9346800505101470e+01 0.0000000000000000e+00  2.7507720273527891e+01 2.0294978467524871e+01 0.0000000000000000e+00  2.6781688126569151e+01 1.8941904098369264e+01 0.0000000000000000e+00  2.8207905026964944e+01 1.8145616846572114e+01 0.0000000000000000e+00  2.7672217971621837e+01 1.7114811817274489e+01 0.0000000000000000e+00  2.8714472968060800e+01 1.6472454119644869e+01 0.0000000000000000e+00  2.8348879800868822e+01 1.5735049001129399e+01 0.0000000000000000e+00  2.9046227972545687e+01 1.2789776524661821e+01 0.0000000000000000e+00  2.8828142945923567e+01 1.2310983732185974e+01 0.0000000000000000e+00  2.9247226438530479e+01 1.0126491392401475e+01 0.0000000000000000e+00  2.9137161041700143e+01 9.8494960579914448e+00 0.0000000000000000e+00  2.9342327489988822e+01 5.2373019428935823e+00 0.0000000000000000e+00  2.9308771595352084e+01 5.1113733417445033e+00 0.0000000000000000e+00  2.9381787312435108e+01 1.2771485745457185e+00 0.0000000000000000e+00  2.9383379582123428e+01 1.2450435106099806e+00 0.0000000000000000e+00  2.9389262614374090e+01 -2.1086136661283714e-10 0.0000000000000000e+00  2.9389916261451361e+01 6.8481505960744178e-04 0.0000000000000000e+00  2.9389262614623760e+01 -3.2442438249032412e-19 0.0000000000000000e+00  2.0132382298027029e+01 -7.1133402739071832e+00 0.0000000000000000e+00  2.9383837757474524e+01 6.7464122060829910e+00 0.0000000000000000e+00  2.9389904792203595e+01 -6.5396561641991951e-04 0.0000000000000000e+00  2.0748932877088368e+01 -1.3400381541894932e+01 0.0000000000000000e+00  2.0160609315321246e+01 -1.4365142196464936e+01 0.0000000000000000e+00  1.7729432170759235e+01 -2.0845704723617210e+01 0.0000000000000000e+00  2.0814711735959662e+01 -1.6346839455417566e+01 0.0000000000000000e+00  1.6948164791437829e+01 -2.2336303474893896e+01 0.0000000000000000e+00  1.7833481649085595e+01 -2.1199163877134296e+01 0.0000000000000000e+00  1.5266308850365661e+01 -2.5117535950090353e+01 0.0000000000000000e+00  1.7089811133068064e+01 -2.2627606099076718e+01 0.0000000000000000e+00  1.4052405476907394e+01 -2.5335249599463069e+01 0.0000000000000000e+00  1.5444957877512444e+01 -2.3548096879893009e+01 0.0000000000000000e+00  1.2755986250727700e+01 -2.5415966349275919e+01 0.0000000000000000e+00  1.4268362697228049e+01 -2.3503774500444234e+01 0.0000000000000000e+00  1.1638718279036283e+01 -2.4363875057736593e+01 0.0000000000000000e+00  1.3008429107892985e+01 -2.2720963350158939e+01 0.0000000000000000e+00  1.0309756253569496e+01 -2.3193957990155216e+01 0.0000000000000000e+00  1.1927275317382358e+01 -2.1232814916302090e+01 0.0000000000000000e+00  9.3530984092036391e+00 -2.1349854927394940e+01 0.0000000000000000e+00  1.0634247381859048e+01 -1.9946975187174043e+01 0.0000000000000000e+00  8.5689845736362749e+00 -1.9490514068750674e+01 0.0000000000000000e+00  9.7130642706989594e+00 -1.8346244589903066e+01 0.0000000000000000e+00  7.7164438287040200e+00 -1.7792600848044739e+01 0.0000000000000000e+00  8.9640467076078210e+00 -1.6545416438167919e+01 0.0000000000000000e+00  6.9091051350536139e+00 -1.6188029007700301e+01 0.0000000000000000e+00  8.1464003311150481e+00 -1.5008265382079408e+01 0.0000000000000000e+00  6.1508214430178692e+00 -1.4766961587686041e+01 0.0000000000000000e+00  7.3735425139490207e+00 -1.3660585470978248e+01 0.0000000000000000e+00  5.4050559413252284e+00 -1.3466103806007212e+01 0.0000000000000000e+00  6.6493706559541810e+00 -1.2378155164912162e+01 0.0000000000000000e+00  4.7266336433249228e+00 -1.2220249118725558e+01 0.0000000000000000e+00  5.9374114108120963e+00 -1.1232981223134288e+01 0.0000000000000000e+00  4.1233546221049471e+00 -1.1077328474323945e+01 0.0000000000000000e+00  5.2924071174244789e+00 -1.0202488454014247e+01 0.0000000000000000e+00  3.5577325687397074e+00 -9.9845945937962099e+00 0.0000000000000000e+00  4.7221329855465557e+00 -9.1659459891922701e+00 0.0000000000000000e+00  3.0551066982180339e+00 -8.9184531388258375e+00 0.0000000000000000e+00  4.1892345493759073e+00 -8.1939179676454064e+00 0.0000000000000000e+00  2.6244911354795959e+00 -7.9179815243688010e+00 0.0000000000000000e+00  3.7188673154229437e+00 -7.3012734930365282e+00 0.0000000000000000e+00  2.2298708750457057e+00 -6.9119079962137739e+00 0.0000000000000000e+00  3.3202825021865152e+00 -6.3487431279554745e+00 0.0000000000000000e+00  1.8896175399918937e+00 -5.9753259170583464e+00 0.0000000000000000e+00  2.9571321633314018e+00 -5.4936606816983584e+00 0.0000000000000000e+00  1.6033539640456311e+00 -5.0219683345711772e+00 0.0000000000000000e+00  2.6483996581838665e+00 -4.6205940666330987e+00 0.0000000000000000e+00  1.3516983818709767e+00 -4.2059635975849963e+00 0.0000000000000000e+00  2.3926145961756293e+00 -3.8569704406911440e+00 0.0000000000000000e+00  1.1347317709415785e+00 -3.2683670600550006e+00 0.0000000000000000e+00  2.1723553151875041e+00 -2.9698421858861010e+00 0.0000000000000000e+00  9.4521446975226076e-01 -2.7288614588601403e+00 0.0000000000000000e+00  1.9843792335136130e+00 -2.4734889199300709e+00 0.0000000000000000e+00  7.7059701676721182e-01 -1.7817593669789791e+00 0.0000000000000000e+00  1.8270133466858975e+00 -1.5447833543435419e+00 0.0000000000000000e+00  5.3517391089620592e-01 -1.7199275785412547e+00 0.0000000000000000e+00  1.6784930863596039e+00 -1.3977394559789200e+00 0.0000000000000000e+00  1.7820915504363732e-01 -1.1957787017415247e+00 0.0000000000000000e+00  1.4792785473450880e+00 -6.8016017515013549e-01 0.0000000000000000e+00  -6.5749971802601104e-01 -5.4562514262919302e-03 0.0000000000000000e+00  1.1367902810295716e+00 1.2066912046749383e+00 0.0000000000000000e+00  1.7578693289045741e+00 5.7319266911990763e+00 0.0000000000000000e+00  1.2816877872919561e+00 6.3524125417482535e+00 0.0000000000000000e+00  2.1906688952354423e+00 5.9178791020894055e+00 0.0000000000000000e+00  2.7499131757731847e+00 6.8505931941125455e+00 0.0000000000000000e+00  3.4433462726266413e+00 7.3909762117164917e+00 0.0000000000000000e+00  4.0623181502343222e+00 8.1799160504965442e+00 0.0000000000000000e+00  4.6017910940757663e+00 8.5450579603121053e+00 0.0000000000000000e+00  5.2755690864361959e+00 9.1888758694169379e+00 0.0000000000000000e+00  5.8046118808275500e+00 9.4700189513576891e+00 0.0000000000000000e+00  5.8715512738761602e+00 9.0864901022963807e+00 0.0000000000000000e+00  6.9399868982672892e+00 9.9154782628594607e+00 0.0000000000000000e+00  3.8193774808610703e+00 3.9649129545663842e+00 0.0000000000000000e+00  1.4917835882891760e+01 1.9203701624489145e+01 0.0000000000000000e+00  1.4580667347240974e+01 1.7264516995175764e+01 0.0000000000000000e+00  1.4636740422369902e+01 1.5941231996749737e+01 0.0000000000000000e+00  1.5142726220826466e+01 1.5259979347692900e+01 0.0000000000000000e+00  1.6052287969913007e+01 1.5084646200087228e+01 0.0000000000000000e+00  1.7266808177530116e+01 1.5462779077017316e+01 0.0000000000000000e+00  1.8693244888164596e+01 1.5966027738684184e+01 0.0000000000000000e+00  2.0239880127282660e+01 1.6604606683205617e+01 0.0000000000000000e+00  2.1817069301452140e+01 1.7175468392534100e+01 0.0000000000000000e+00  2.3348687561137577e+01 1.7613481682259618e+01 0.0000000000000000e+00  2.4770332195208059e+01 1.7422333397286085e+01 0.0000000000000000e+00  2.6027301216523970e+01 1.7313756626107487e+01 0.0000000000000000e+00  2.7085301178841256e+01 1.5805809002972222e+01 0.0000000000000000e+00  2.7929190783652924e+01 1.4750185040878996e+01 0.0000000000000000e+00  2.8556182785253526e+01 1.1618444087797458e+01 0.0000000000000000e+00  2.8987569920773762e+01 9.4203090267332001e+00 0.0000000000000000e+00  2.9243616759419353e+01 4.8754146029143888e+00 0.0000000000000000e+00  2.9371258859234672e+01 1.1734075671633961e+00 0.0000000000000000e+00  2.9391484122125224e+01 1.3053918794806924e-03 0.0000000000000000e+00  2.9362771497468746e+01 6.8088244874601873e+00 0.0000000000000000e+00  2.9391463070062407e+01 -1.2861276765303313e-03 0.0000000000000000e+00  2.9301178060566841e+01 -5.4269748167770182e-01 0.0000000000000000e+00  2.0112196458987484e+01 -1.7354975510168508e+01 0.0000000000000000e+00  2.0810792945323943e+01 -1.6752758453298846e+01 0.0000000000000000e+00  1.7872085767476616e+01 -2.1538482582614670e+01 0.0000000000000000e+00  1.7171438445950745e+01 -2.1103807904088079e+01 0.0000000000000000e+00  1.5566152662496830e+01 -2.1763305222175525e+01 0.0000000000000000e+00  1.4428977551951062e+01 -2.0853408918684842e+01 0.0000000000000000e+00  1.3206203129015137e+01 -1.9632646920010085e+01 0.0000000000000000e+00  1.2160915366338708e+01 -1.8028648377802998e+01 0.0000000000000000e+00  1.0902828728486851e+01 -1.6985120512600883e+01 0.0000000000000000e+00  1.0015787730138959e+01 -1.5441869168544541e+01 0.0000000000000000e+00  9.3000887483913068e+00 -1.3801764232373742e+01 0.0000000000000000e+00  8.5154137841964062e+00 -1.2520851108445701e+01 0.0000000000000000e+00  7.7749592419934039e+00 -1.1311012587215659e+01 0.0000000000000000e+00  7.0825737727800879e+00 -1.0183975681848318e+01 0.0000000000000000e+00  6.4019162623329686e+00 -9.2535134154312999e+00 0.0000000000000000e+00  5.7875997831344259e+00 -8.3286512569515789e+00 0.0000000000000000e+00  5.2473640357859281e+00 -7.4123741353034314e+00 0.0000000000000000e+00  4.7439177569533086e+00 -6.6132009273058170e+00 0.0000000000000000e+00  4.3024075314261427e+00 -5.7678224687656856e+00 0.0000000000000000e+00  3.9319767140415971e+00 -4.9657850125668697e+00 0.0000000000000000e+00  3.5965058950358864e+00 -4.1736294271376586e+00 0.0000000000000000e+00  3.3146628704322247e+00 -3.4896205436685883e+00 0.0000000000000000e+00  3.0854413051226834e+00 -2.6544756693446439e+00 0.0000000000000000e+00  2.8906459348328890e+00 -2.2079210266421323e+00 0.0000000000000000e+00  2.7284623572308333e+00 -1.3216200482558846e+00 0.0000000000000000e+00  2.5945561870049310e+00 -1.1929319975140389e+00 0.0000000000000000e+00  2.4716891491936375e+00 -3.9045520323463911e-01 0.0000000000000000e+00  2.2939640035884454e+00 1.7009301923237876e+00 0.0000000000000000e+00  2.4701098385245057e+00 5.0168441365542034e+00 0.0000000000000000e+00  2.0394843094942137e+00 5.7079539342089758e+00 0.0000000000000000e+00  2.9475008898808297e+00 5.2678196762987319e+00 0.0000000000000000e+00  3.3815586527618158e+00 6.0120516855847441e+00 0.0000000000000000e+00  3.9402572780650096e+00 6.3526033657071626e+00 0.0000000000000000e+00  4.6311294829321055e+00 7.2549608326280879e+00 0.0000000000000000e+00  5.2451045043211941e+00 7.7415534721834902e+00 0.0000000000000000e+00  5.7764790159285146e+00 8.1859716098811841e+00 0.0000000000000000e+00  6.4391442330623665e+00 8.6865423347849031e+00 0.0000000000000000e+00  6.9539522941478502e+00 8.9985627466266394e+00 0.0000000000000000e+00  7.0034783296060557e+00 8.3268643613770763e+00 0.0000000000000000e+00  8.0527111781464011e+00 8.6603077237829034e+00 0.0000000000000000e+00  4.9141986707674779e+00 2.5676481110914953e+00 0.0000000000000000e+00  1.5998220651106699e+01 1.7781375470490236e+01 0.0000000000000000e+00  1.5646973368078630e+01 1.5871276647575446e+01 0.0000000000000000e+00  1.5684709894777187e+01 1.4519363257427923e+01 0.0000000000000000e+00  1.6165932112820638e+01 1.3743222470409021e+01 0.0000000000000000e+00  1.7043983954232953e+01 1.3669031801858686e+01 0.0000000000000000e+00  1.8220089204280619e+01 1.3859356258118842e+01 0.0000000000000000e+00  1.9600756887956212e+01 1.4322307052040728e+01 0.0000000000000000e+00  2.1094747261837195e+01 1.4852214273528485e+01 0.0000000000000000e+00  2.2612654635441295e+01 1.5363716956227655e+01 0.0000000000000000e+00  2.4077510163303277e+01 1.5341276590704076e+01 0.0000000000000000e+00  2.5426314974614666e+01 1.5485510191790317e+01 0.0000000000000000e+00  2.6603398564607311e+01 1.4278180117989669e+01 0.0000000000000000e+00  2.7576898923642990e+01 1.3549970178584871e+01 0.0000000000000000e+00  2.8329539276257275e+01 1.0741185442892975e+01 0.0000000000000000e+00  2.8865486878672073e+01 8.8470555171350540e+00 0.0000000000000000e+00  2.9198410972113550e+01 4.5479015575591371e+00 0.0000000000000000e+00  2.9368609772029593e+01 1.0660691052389133e+00 0.0000000000000000e+00  2.9393933251240753e+01 1.8680097235262174e-03 0.0000000000000000e+00  2.9344424771709395e+01 6.9701500863363561e+00 0.0000000000000000e+00  2.9393914495652194e+01 -1.8404353152611350e-03 0.0000000000000000e+00  2.9151550566577011e+01 -4.2021387132918370e-01 0.0000000000000000e+00  2.9080205245320332e+01 -3.6125531784143821e+00 0.0000000000000000e+00  1.9948921027885017e+01 -1.7855920034828738e+01 0.0000000000000000e+00  2.0720073221799236e+01 -1.7181118796104869e+01 0.0000000000000000e+00  1.7850503456516797e+01 -2.0104918680642346e+01 0.0000000000000000e+00  1.7215879322328391e+01 -1.9401666868558031e+01 0.0000000000000000e+00  1.5671289909376236e+01 -1.9192653948665260e+01 0.0000000000000000e+00  1.4591546705029183e+01 -1.7840387771243073e+01 0.0000000000000000e+00  1.3421871132271276e+01 -1.6500685179053434e+01 0.0000000000000000e+00  1.2427158697061298e+01 -1.5136179332975074e+01 0.0000000000000000e+00  1.1217425606975251e+01 -1.4148614504073580e+01 0.0000000000000000e+00  1.0377212509115859e+01 -1.2764528140384259e+01 0.0000000000000000e+00  9.7073538355243318e+00 -1.1379580966402553e+01 0.0000000000000000e+00  8.9677618492366022e+00 -1.0235516470299549e+01 0.0000000000000000e+00  8.2715296112657217e+00 -9.1799095696621649e+00 0.0000000000000000e+00  7.6225690647402020e+00 -8.2663208885285098e+00 0.0000000000000000e+00  6.9843829901167744e+00 -7.4403021079602132e+00 0.0000000000000000e+00  6.4115174404433581e+00 -6.6342905746533072e+00 0.0000000000000000e+00  5.9116521539157283e+00 -5.8895724223197954e+00 0.0000000000000000e+00  5.4475364097575145e+00 -5.1361849427592414e+00 0.0000000000000000e+00  5.0441178298881946e+00 -4.4401593234464753e+00 0.0000000000000000e+00  4.7108586630965652e+00 -3.6992456683929555e+00 0.0000000000000000e+00  4.4110993513075005e+00 -3.0955193772529386e+00 0.0000000000000000e+00  4.1643604634637974e+00 -2.3373731603125871e+00 0.0000000000000000e+00  3.9682000469012380e+00 -1.9435250372977217e+00 0.0000000000000000e+00  3.8067785783898511e+00 -1.1018814228381004e+00 0.0000000000000000e+00  3.6739690778729659e+00 -1.0207514625448511e+00 0.0000000000000000e+00  3.5737003511155803e+00 -2.2406580475135854e-01 0.0000000000000000e+00  3.4717740885867117e+00 1.9373261855359012e+00 0.0000000000000000e+00  3.3894707801481827e+00 4.3696326285935241e+00 0.0000000000000000e+00  2.9971486225094877e+00 5.1215036980381035e+00 0.0000000000000000e+00  3.8220932597296144e+00 4.5497098048873035e+00 0.0000000000000000e+00  4.3027784749287701e+00 5.3589054105899363e+00 0.0000000000000000e+00  4.7396672683296055e+00 5.5135665782183603e+00 0.0000000000000000e+00  5.2996348743754123e+00 6.2194837790263211e+00 0.0000000000000000e+00  5.9890544762764781e+00 6.8236256902093722e+00 0.0000000000000000e+00  6.5982012712783336e+00 7.3948131854044066e+00 0.0000000000000000e+00  7.1207563288289482e+00 7.7015497668010520e+00 0.0000000000000000e+00  7.7701061866624395e+00 8.2384013334091701e+00 0.0000000000000000e+00  8.2672600077973772e+00 8.2674829435833761e+00 0.0000000000000000e+00  8.2960699881161659e+00 7.1021604955874960e+00 0.0000000000000000e+00  9.3245508074449432e+00 7.2883705246528123e+00 0.0000000000000000e+00  6.1709341631476136e+00 1.1620091466765163e+00 0.0000000000000000e+00  1.7247815783802839e+01 1.6403220061963083e+01 0.0000000000000000e+00  1.6890284224124521e+01 1.4471574676208851e+01 0.0000000000000000e+00  1.6915582949424333e+01 1.3036397947244854e+01 0.0000000000000000e+00  1.7375404278907457e+01 1.2374339380859103e+01 0.0000000000000000e+00  1.8221269509923708e+01 1.2124605764300265e+01 0.0000000000000000e+00  1.9354807009346107e+01 1.2288553781422985e+01 0.0000000000000000e+00  2.0682213678373152e+01 1.2655850609793063e+01 0.0000000000000000e+00  2.2111921662848079e+01 1.3139095935861555e+01 0.0000000000000000e+00  2.3554543497671361e+01 1.3203565847557307e+01 0.0000000000000000e+00  2.4933680912582609e+01 1.3530593021746236e+01 0.0000000000000000e+00  2.6184735820263526e+01 1.2585872930909106e+01 0.0000000000000000e+00  2.7255439764698821e+01 1.2173347974962702e+01 0.0000000000000000e+00  2.8110974894292657e+01 9.6950825183837903e+00 0.0000000000000000e+00  2.8742944462890510e+01 8.1399996806704920e+00 0.0000000000000000e+00  2.9146899304759661e+01 4.1264173895762735e+00 0.0000000000000000e+00  2.9361971407815751e+01 9.2158168481930247e-01 0.0000000000000000e+00  2.9397169846032522e+01 2.3698271993028174e-03 0.0000000000000000e+00  2.9330305896717398e+01 7.2197019434615752e+00 0.0000000000000000e+00  2.9397152409278920e+01 -2.3318809006777990e-03 0.0000000000000000e+00  2.9031836348214007e+01 -2.3532921687523654e-02 0.0000000000000000e+00  2.8735692451802048e+01 -3.4825531334