<?xml version="1.0"?>
<VTKFile type="UnstructuredGrid"  version="0.1"  >
<UnstructuredGrid>
<Piece  NumberOfPoints="1933" NumberOfCells="3640">
<Points>
<DataArray  type="Float64"  NumberOfComponents="3"  format="ascii">-0.4752487808427571 -0.00278426658382574 0  4.524751281441523 -0.002715586707963716 0  4.524648244814185 7.497284560530677 0  -0.475351840149576 7.497215844429758 0  9.524751386135543 -0.002647016989430207 0  9.524648384532432 7.497353135651081 0  14.52475159197145 -0.002578550470801488 0  14.52464860078558 7.497421598261283 0  19.52475194881061 -0.002510142064595265 0  19.52464891127391 7.497490000805512 0  24.52475249433794 -0.002441727088285555 0  24.52464932967857 7.497558410428976 0  29.52475325516108 -0.00237322993152947 0  29.52464986500242 7.497626903415532 0  34.52475424884129 -0.002304567858584114 0  34.52465052107728 7.497695562521372 0  39.5247554857209 -0.002235652198574719 0  39.52465129621892 7.497764476216305 0  44.52475697023077 -0.002166388024551105 0  44.52465218286414 7.497833739163609 0  49.52475870162995 -0.002096672863827642 0  49.52465316702724 7.497903453557229 0  54.52476067420145 -0.00202639468173546 0  54.52465422744748 7.497973731136173 0  59.52476287691297 -0.001955429202178923 0  59.5246553343019 7.498044695834128 0  64.52476529251649 -0.001883636505487858 0  64.52465644734113 7.498116487125662 0  69.52476789598485 -0.001810856740021213 0  69.52465751326794 7.498189264220272 0  74.52477065210272 -0.001736904673672844 0  74.52465846210649 7.498263211348728 0  79.52477351188099 -0.001661562672601825 0  79.52465920220439 7.498338544496701 0  84.52477640725624 -0.001584571502105076 0  84.524659613376 7.498415520079385 0  89.5247792431642 -0.001505618065456524 0  89.52465953748771 7.498494446227061 0  94.52478188547209 -0.001424318784947858 0  94.52465876554544 7.498575697562293 0  99.52478414215359 -0.001340196723400246 0  99.52465702007966 7.498659734563084 0  104.5247857331614 -0.001252649670879757 0  104.5246539314096 7.498747128717924 0  109.5247862408883 -0.001160905225456018 0  109.5246490065372 7.498838594397571 0  114.5247850266019 -0.001063957448771053 0  114.5246415906271 7.498935026997501 0  119.5247810860823 -0.0009604784941524157 0  119.5246308249139 7.499037542818337 0  124.5247727950216 -0.0008486995867592614 0  124.5246156151388 7.499147505765083 0  129.5247574521999 -0.0007262649308075194 0  129.524594649163 7.499266501686186 0  134.5247304484691 -0.0005900985413447859 0  134.524566558261 7.499396168403323 0  139.5246837375704 -0.0004364514064530237 0  139.524530439839 7.499537686382572 0  144.5246029836128 -0.0002617558525651424 0  144.524487230604 7.499690587550421 0  149.5244620793255 -6.675293797588677e-05 0  149.5244430509879 7.499850653274646 0  159.5244717418518 1.154950529696267e-18 0  164.5244343083522 -0.0001079434579446558 0  164.5244675119736 7.499868043526896 0  159.524469260376 7.499944675402491 0  169.52443506897 -0.0001711645202907829 0  169.524465310396 7.499817112922815 0  174.5244522252233 -0.0002031853496365355 0  174.5244670751667 7.499790773386417 0  179.5244755869517 -0.0002125017059495904 0  179.5244726844581 7.499784317734044 0  184.5245003401211 -0.0002050513700371323 0  184.524480993776 7.49979327147951 0  189.5245242653661 -0.0001850851904899585 0  189.5244908622118 7.499814047500091 0  194.5245464128522 -0.0001556703696029029 0  194.5245014069638 7.4998439063353 0  199.5245664520615 -0.0001190387194266329 0  199.5245120153734 7.499880784947209 0  204.5245843487033 -7.683263912000452e-05 0  204.524522291469 7.499923129934308 0  209.5246002035439 -3.027708310708095e-05 0  209.5245319959669 7.499969764106256 0  214.5246141722635 1.970110346896084e-05 0  214.5245409967768 7.500019786684755 0  219.5246264261052 7.239036529789369e-05 0  219.5245492325206 7.500072500597839 0  224.5246371331367 0.0001272365878128816 0  224.524556687087 7.500127359940888 0  229.5246464499396 0.0001838022499478103 0  229.5245633724559 7.500183931953027 0  234.5246545185582 0.0002417371920626863 0  234.5245693173659 7.50024186930776 0  239.5246614660759 0.0003007573893653556 0  239.5245745599798 7.500300889721403 0  244.5246674054859 0.0003606293140222279 0  244.5245791432557 7.500360760783257 0  249.5246724371753 0.0004211582625441218 0  249.5245831121281 7.500421288552527 0  254.5246766507005 0.0004821795542470777 0  254.5245865119081 7.500482308917815 0  259.5246801266966 0.0005435518655284043 0  259.5245893874969 7.500543681031406 0  264.5246829388838 0.0006051522169873279 0  264.5245917831501 7.50060528235914 0  269.5246851561528 0.0006668723202696784 0  269.5245937426075 7.500667005060679 0  274.5246868447655 0.0007286161517692394 0  274.5245953094408 7.500728753559029 0  279.5246880706853 0.0007902987794682647 0  279.5245965275082 7.500790443293495 0  284.524688902016 0.0008518466565103251 0  284.5245974413971 7.500852000792778 0  289.5246894113975 0.0009131998460523258 0  289.5245980967133 7.500913365367091 0  294.5246896779716 0.000974316998138641 0  294.5245985401326 7.500974492903024 0  299.5246897878935 0.001035184388980919 0  299.5245988191857 7.501035362437783 0  304.5246898311893 0.001095830847124267 0  304.5245989822178 7.501095986358833 0  309.5246898899879 0.001156350049408498 0  309.5245990801037 7.501156425364655 0  4.524544948529676 14.9972848676002 0  -0.4754551353393833 14.99721611079133 0  9.524545061770013 14.99735342441427 0  14.52454521700313 14.99742185135885 0  19.52454541831128 14.99749021702145 0  24.52454566537605 14.99755859374275 0  29.52454595446163 14.99762705851619 0  34.52454627817546 14.99769569307974 0  39.52454662478453 14.99776458427289 0  44.52454697734226 14.99783382490682 0  49.52454731266443 14.99790351516367 0  54.52454760010923 14.99797376450756 0  59.52454780008321 14.99804469411925 0  64.52454786218428 14.9981164399089 0  69.52454772288242 14.99818915620737 0  74.52454730264529 14.99826302027911 0  79.52454650242376 14.99833823783614 0  84.52454519946873 14.99841504974794 0  89.524543242563 14.99849374011277 0  94.52454044702196 14.99857464571574 0  99.52453659031893 14.99865816652964 0  104.5245314101985 14.99874477606418 0  109.5245246089141 14.99883502857255 0  114.5245158703623 14.99892955649839 0  119.5245049020024 14.99902904451515 0  124.5244915212315 14.99913415338765 0  129.5244758160153 14.99924534346803 0  134.5244584183666 14.99936250828326 0  139.5244409227512 14.99948426766795 0  144.5244264178286 14.99960668046251 0  149.5244198592026 14.99972095636037 0  164.5244568400964 14.99980122695943 0  159.5244514964276 14.99982766224811 0  169.5244559811825 14.99978041009027 0  174.5244535088381 14.99977088431557 0  179.5244517356304 14.99977366381841 0  184.5244514485201 14.99978768216228 0  189.524452681337 14.99981124115522 0  194.5244551660076 14.99984263093959 0  199.5244585567262 14.99988034920578 0  204.5244625281528 14.99992314940884 0  209.524466810339 14.99997002357464 0  214.5244711944525 15.00002016513255 0  219.5244755265783 15.00007293003545 0  224.5244796978578 15.00012780258346 0  229.5244836345867 15.0001843674439 0  234.5244872896664 15.00024228748942 0  239.5244906357246 15.00030128650741 0  244.5244936598146 15.00036113578817 0  249.5244963594447 15.00042164373485 0  254.5244987396552 15.00048264781388 0  259.5245008109094 15.00054400833324 0  264.5245025875758 15.00060560367736 0  269.52450408685 15.0006673267468 0  274.5245053279763 15.00072908244901 0  279.5245063316736 15.0007907861682 0  284.5245071197306 15.00085236320558 0  289.5245077147632 15.00091374921239 0  294.5245081403348 15.00097489159831 0  299.5245084217975 15.00103575171287 0  304.5245085887236 15.00109630709719 0  309.5245086804531 15.00115655195055 0  4.524441545430286 22.49728541151574 0  -0.4755585323464982 22.49721669772074 0  9.524441626959579 22.4973538942498 0  14.52444171432501 22.49742223768774 0  19.52444180411099 22.49749052209692 0  24.52444188900774 22.49755882401801 0  29.52444195864157 22.49762722034632 0  34.52444199961257 22.49769579051 0  39.52444199504474 22.49776461791491 0  44.5244419238732 22.49783379124844 0  49.52444175998855 22.49790340591134 0  54.52444147128431 22.497973565697 0  59.52444101862886 22.49804438477417 0  64.52444035477809 22.49811599000729 0  69.52443942327258 22.49818852363266 0  74.52443815741672 22.49826214628595 0  79.52443647952964 22.49833704032176 0  84.52443430081253 22.49841341325553 0  89.52443152242429 22.49849150094327 0  94.5244280387458 22.49857156971877 0  99.52442374439491 22.49865391599859 0  104.5244185473985 22.49873886063714 0  109.52441239206 22.49882673323764 0  114.5244052963889 22.49891783825099 0  119.5243974100741 22.49901238948075 0  124.5243890987961 22.49911039220024 0  129.524381056616 22.4992114431562 0  134.5243744352421 22.49931441232937 0  139.5243709483209 22.49941697968288 0  144.5243728485703 22.49951506269976 0  149.5243825800743 22.49960239463905 0  164.5244166272128 22.49972478192766 0  159.5244100839642 22.49971704343111 0  169.5244175171344 22.49973047604868 0  174.524415111583 22.49973946292769 0  179.524411398713 22.49975442238612 0  184.524407657178 22.4997762015168 0  189.5244045519107 22.49980461721305 0  194.5244023374604 22.499839011583 0  199.5244010321765 22.49987857084918 0  204.5244005365696 22.49992248631131 0  209.5244007046487 22.49997002460107 0  214.5244013830835 22.5000205504451 0  219.5244024305102 22.50007352662369 0  224.5244037254275 22.50012850426553 0  229.5244051679727 22.5001851100742 0  234.524406678696 22.50024303356219 0  239.5244081960731 22.50030201556656 0  244.5244096736834 22.50036183843637 0  249.5244110774949 22.50042231788444 0  254.5244123834604 22.50048329633651 0  259.5244135754559 22.50054463757102 0  264.5244146435718 22.50060622245255 0  269.5244155827004 22.50066794559095 0  274.5244163913903 22.50072971278843 0  279.5244170709558 22.50079143915367 0  284.5244176248547 22.50085304775033 0  289.5244180584311 22.50091446858619 0  294.5244183792229 22.5009756375901 0  299.52441859813
[...]
<PointData  Vectors="v"> 
<DataArray  type="Float64"  Name="v"  NumberOfComponents="3" format="ascii">-4.3402555086103476e+00 -3.1244111817077291e+00 0.0000000000000000e+00  -4.5391043938285414e+00 -2.5901676453178180e+00 0.0000000000000000e+00  -3.8415432364203483e+00 -2.2920552698107635e+00 0.0000000000000000e+00  -3.6828034387280151e+00 -2.8857332130100728e+00 0.0000000000000000e+00  -4.7233298320483614e+00 -2.4333498337379020e+00 0.0000000000000000e+00  -4.0400660667022423e+00 -2.1571970923047825e+00 0.0000000000000000e+00  -4.8016788492603917e+00 -2.3331354316532487e+00 0.0000000000000000e+00  -4.2238257027751693e+00 -2.2160664991797066e+00 0.0000000000000000e+00  -4.7793596255071646e+00 -1.8142913591237204e+00 0.0000000000000000e+00  -4.3014692932080836e+00 -1.8481553505829407e+00 0.0000000000000000e+00  -4.7941748112740594e+00 -1.5129349770206930e+00 0.0000000000000000e+00  -4.2782897019129527e+00 -1.4910290442370639e+00 0.0000000000000000e+00  -4.7315548105971095e+00 -9.7555123878565986e-01 0.0000000000000000e+00  -4.2924922543093329e+00 -1.0698545573079155e+00 0.0000000000000000e+00  -4.6083683481919007e+00 -3.9126202908595276e-01 0.0000000000000000e+00  -4.2292787124103288e+00 -5.7598837740312636e-01 0.0000000000000000e+00  -4.7786348326681445e+00 -2.0508624983791773e-01 0.0000000000000000e+00  -4.1057196843095571e+00 5.0640573199211183e-02 0.0000000000000000e+00  -4.7539856050203646e+00 2.5754213364907425e-01 0.0000000000000000e+00  -4.2761984874929793e+00 2.2107898613553323e-01 0.0000000000000000e+00  -7.2544659465246131e+00 -3.0119093529405978e+00 0.0000000000000000e+00  -4.2522068792220935e+00 7.4006521055884367e-01 0.0000000000000000e+00  -8.4313982758906771e+00 -4.2193644627698559e+00 0.0000000000000000e+00  -6.7529077348211688e+00 -2.4528765547722569e+00 0.0000000000000000e+00  -8.7664215381070640e+00 -4.0727108958067175e+00 0.0000000000000000e+00  -7.9310910691164747e+00 -3.5673912154595242e+00 0.0000000000000000e+00  -8.7587710293744063e+00 -3.3531486215683866e+00 0.0000000000000000e+00  -8.2690662886970916e+00 -3.3606784286342100e+00 0.0000000000000000e+00  -8.5504877750643313e+00 -2.3477544255671958e+00 0.0000000000000000e+00  -8.2655795319450025e+00 -2.6546422556574432e+00 0.0000000000000000e+00  -8.2654874854567382e+00 -1.2612806720262828e+00 0.0000000000000000e+00  -8.0635796185666013e+00 -1.6824815185754409e+00 0.0000000000000000e+00  -7.9018773931941730e+00 -1.0838603277802940e-01 0.0000000000000000e+00  -7.7861080896573416e+00 -6.4537887880494804e-01 0.0000000000000000e+00  -7.4482770563256482e+00 1.0338423779399499e+00 0.0000000000000000e+00  -7.4315652255986180e+00 3.6353292109659047e-01 0.0000000000000000e+00  -6.8936037066076263e+00 2.2441061845462102e+00 0.0000000000000000e+00  -6.9898834161552648e+00 1.4236498199930518e+00 0.0000000000000000e+00  -6.2261198240808717e+00 3.4954285351551078e+00 0.0000000000000000e+00  -6.4487823865176095e+00 2.5088718449040273e+00 0.0000000000000000e+00  -5.4468711931105531e+00 4.8046226812693860e+00 0.0000000000000000e+00  -5.7978484324320965e+00 3.6524089468303007e+00 0.0000000000000000e+00  -4.5884812270721946e+00 6.0922265031308527e+00 0.0000000000000000e+00  -5.0381872840488091e+00 4.8245296920740994e+00 0.0000000000000000e+00  -3.6911012876344844e+00 7.4546281978449436e+00 0.0000000000000000e+00  -4.2035662855049303e+00 6.1309303884184452e+00 0.0000000000000000e+00  -2.7987763602484512e+00 8.5126326744933873e+00 0.0000000000000000e+00  -3.3316568532323649e+00 7.2019508663368752e+00 0.0000000000000000e+00  -1.9811184901972576e+00 9.6399633696935325e+00 0.0000000000000000e+00  -2.4730044429683131e+00 8.4410189061471215e+00 0.0000000000000000e+00  -1.2700344739772473e+00 9.9962186904914656e+00 0.0000000000000000e+00  -1.6874494648843281e+00 8.9676983877945435e+00 0.0000000000000000e+00  -7.2444600987171437e-01 1.0388525931403517e+01 0.0000000000000000e+00  -1.0222951668413001e+00 9.6023638625539967e+00 0.0000000000000000e+00  -3.3370084601020700e-01 9.2092033926428485e+00 0.0000000000000000e+00  -5.1497442787173997e-01 8.6743014950318713e+00 0.0000000000000000e+00  -1.2329499815694320e-01 8.1864930656025763e+00 0.0000000000000000e+00  -1.8544968426901662e-01 7.9060434441712601e+00 0.0000000000000000e+00  -2.2041454258526719e-02 3.9954666989263385e+00 0.0000000000000000e+00  -1.8313018632703529e-02 3.9113019754054190e+00 0.0000000000000000e+00  -1.0691540722975411e-05 -7.3879785162259931e-05 0.0000000000000000e+00  -7.4071128556881546e-04 -8.3733009643155529e-04 0.0000000000000000e+00  -9.9200779070138190e-11 4.4370233354722074e-19 0.0000000000000000e+00  1.4489430361457010e+00 -7.1578101846892146e+00 0.0000000000000000e+00  -2.7294534121890261e-02 -9.3507625100045395e+00 0.0000000000000000e+00  -7.0761340495342512e-04 6.6112615356818459e-04 0.0000000000000000e+00  -1.9879472479179125e-01 -1.1843853401093922e+01 0.0000000000000000e+00  1.4507086017344855e+00 -9.4167720037687985e+00 0.0000000000000000e+00  -2.0604512911685899e-01 -1.1107298075608838e+01 0.0000000000000000e+00  -1.6153763844073207e-01 -1.1114034289767462e+01 0.0000000000000000e+00  -8.0944719799490117e-01 -1.1010894543075388e+01 0.0000000000000000e+00  -1.3778665911504429e-01 -1.0132343180366140e+01 0.0000000000000000e+00  -9.9427123466369705e-01 -8.8471957015664753e+00 0.0000000000000000e+00  -7.1534429831627111e-01 -8.5893606860216032e+00 0.0000000000000000e+00  -1.2551538222864067e+00 -7.1946079847771394e+00 0.0000000000000000e+00  -8.7733327143499917e-01 -6.8227664983358984e+00 0.0000000000000000e+00  -1.4032836016157453e+00 -5.3617412003089582e+00 0.0000000000000000e+00  -1.1167020753872254e+00 -5.1550273748860294e+00 0.0000000000000000e+00  -1.5656142720786024e+00 -4.0017234639527457e+00 0.0000000000000000e+00  -1.2467320217705946e+00 -3.7739167357804475e+00 0.0000000000000000e+00  -1.6331114017889590e+00 -2.9104358220677375e+00 0.0000000000000000e+00  -1.3926280898838197e+00 -2.8222344559476489e+00 0.0000000000000000e+00  -1.7519432420056760e+00 -2.3116525509044696e+00 0.0000000000000000e+00  -1.4450292813836627e+00 -2.1454386134152532e+00 0.0000000000000000e+00  -1.8994139545321733e+00 -1.9442002345097342e+00 0.0000000000000000e+00  -1.5506106372898256e+00 -1.7340258704795941e+00 0.0000000000000000e+00  -2.0256299348504476e+00 -1.7764301875922766e+00 0.0000000000000000e+00  -1.6861040702593988e+00 -1.5970523692454681e+00 0.0000000000000000e+00  -2.1218510897013805e+00 -1.7059415000442675e+00 0.0000000000000000e+00  -1.8012239703890951e+00 -1.5704927450560258e+00 0.0000000000000000e+00  -2.1906945007148653e+00 -1.6589308238175435e+00 0.0000000000000000e+00  -1.8875928513493589e+00 -1.5640178210131146e+00 0.0000000000000000e+00  -2.2115289296173408e+00 -1.6157073897260026e+00 0.0000000000000000e+00  -1.9474634512430973e+00 -1.5920004878853671e+00 0.0000000000000000e+00  -2.2088130895024904e+00 -1.5791955002835460e+00 0.0000000000000000e+00  -1.9599475571854046e+00 -1.5902035474045848e+00 0.0000000000000000e+00  -2.1923659531554351e+00 -1.5248640641361420e+00 0.0000000000000000e+00  -1.9496387405204902e+00 -1.5560986182888883e+00 0.0000000000000000e+00  -2.1545055589368216e+00 -1.4564534107254159e+00 0.0000000000000000e+00  -1.9261453835040507e+00 -1.5193735019151065e+00 0.0000000000000000e+00  -2.1076125563380930e+00 -1.3882212097248323e+00 0.0000000000000000e+00  -1.8815812638392222e+00 -1.4643282202012982e+00 0.0000000000000000e+00  -2.0621923960047872e+00 -1.2896322087504359e+00 0.0000000000000000e+00  -1.8284120161731712e+00 -1.3633679248531037e+00 0.0000000000000000e+00  -2.0027901012803877e+00 -1.2059623905880212e+00 0.0000000000000000e+00  -1.7769635149424561e+00 -1.3004261921333864e+00 0.0000000000000000e+00  -1.9413970746783866e+00 -1.0628044614137619e+00 0.0000000000000000e+00  -1.7117350327400542e+00 -1.1601491289576453e+00 0.0000000000000000e+00  -1.8709429867150746e+00 -9.7321851156497652e-01 0.0000000000000000e+00  -1.6446109139403167e+00 -1.0840107981607185e+00 0.0000000000000000e+00  -1.7895340388484582e+00 -7.2295756954001933e-01 0.0000000000000000e+00  -1.5686596087482765e+00 -8.5025591055087923e-01 0.0000000000000000e+00  -1.6831593733209191e+00 -6.7281782997834538e-01 0.0000000000000000e+00  -1.4815510293416025e+00 -8.3727758812182473e-01 0.0000000000000000e+00  -1.5517272320624755e+00 -1.8744350615671174e-01 0.0000000000000000e+00  -1.3699145966966102e+00 -3.8991925820697360e-01 0.0000000000000000e+00  -1.3784405361205345e+00 -2.9375288421856932e-01 0.0000000000000000e+00  -1.2325618240084406e+00 -5.5829424930952154e-01 0.0000000000000000e+00  -1.1018794188586816e+00 6.3888561976085601e-01 0.0000000000000000e+00  -1.0544557931052196e+00 2.1822999170728360e-01 0.0000000000000000e+00  -6.3499283989102118e-01 7.9440198587832134e-01 0.0000000000000000e+00  -7.7107956937356736e-01 9.0337944537621090e-02 0.0000000000000000e+00  4.6823405737583246e-01 2.8944296264054603e-01 0.0000000000000000e+00  -3.0147526927770429e-01 -1.3732879109876213e+00 0.0000000000000000e+00  -3.1269844774355455e+00 -2.0547292586146604e+00 0.0000000000000000e+00  -2.9418488904973139e+00 -2.6063593219113126e+00 0.0000000000000000e+00  -3.2842451224588829e+00 -1.8607950516636671e+00 0.0000000000000000e+00  -3.4802051230326314e+00 -1.9421436531554757e+00 0.0000000000000000e+00  -3.6606957776338138e+00 -1.7338102052586131e+00 0.0000000000000000e+00  -3.7344834840779280e+00 -1.5284654195598815e+00 0.0000000000000000e+00  -3.7068127076455588e+00 -1.0511461525221573e+00 0.0000000000000000e+00  -3.7163846024913076e+00 -6.7331511175386738e-01 0.0000000000000000e+00  -3.6488034015378625e+00 -1.3743113440173829e-01 0.0000000000000000e+00  -3.5210915313670497e+00 4.7508476234436098e-01 0.0000000000000000e+00  -3.6890228735943902e+00 7.0364017418534497e-01 0.0000000000000000e+00  -3.6630252116921431e+00 1.2944514428253122e+00 0.0000000000000000e+00  -6.1563465175845939e+00 -1.8047947974975302e+00 0.0000000000000000e+00  -7.3280271358035467e+00 -2.8544065374304153e+00 0.0000000000000000e+00  -7.6647787070375433e+00 -2.6603293433755968e+00 0.0000000000000000e+00  -7.6620110555542036e+00 -1.9828662395046774e+00 0.0000000000000000e+00  -7.4641324405591698e+00 -1.0580947316039750e+00 0.0000000000000000e+00  -7.1928858017499850e+00 -1.6422464268157186e-01 0.0000000000000000e+00  -6.8463268726551840e+00 7.6781012543901084e-01 0.0000000000000000e+00  -6.4159293931046557e+00 1.7057559141798289e+00 0.0000000000000000e+00  -5.8895414182401140e+00 2.6852236788173007e+00 0.0000000000000000e+00  -5.2562356872340708e+00 3.6991795000134955e+00 0.0000000000000000e+00  -4.5202925881685161e+00 4.8947855014873367e+00 0.0000000000000000e+00  -3.7144304942445925e+00 5.9147624132857599e+00 0.0000000000000000e+00  -2.8785599744441837e+00 7.1763515430633005e+00 0.0000000000000000e+00  -2.0629357947141806e+00 7.8229444413611953e+00 0.0000000000000000e+00  -1.3326912115371823e+00 8.6336459865839217e+00 0.0000000000000000e+00  -7.2674649888836274e-01 7.9678363544431177e+00 0.0000000000000000e+00  -3.0245963878899723e-01 7.4419201162555311e+00 0.0000000000000000e+00  -4.8362718195554551e-02 3.7487976753947829e+00 0.0000000000000000e+00  -2.4887315986284672e-03 -1.5921528923886394e-03 0.0000000000000000e+00  -5.5064396448924809e-02 -9.1934138039450843e+00 0.0000000000000000e+00  -2.4475677841783025e-03 1.2963797628982316e-03 0.0000000000000000e+00  -2.0800463797498139e-01 -1.1644545037006710e+01 0.0000000000000000e+00  1.3193688878105838e+00 -8.7364963928446837e+00 0.0000000000000000e+00  -2.3402404576558258e-01 -1.0194652919687295e+01 0.0000000000000000e+00  -1.6851975041907083e-01 -7.7467984383978443e+00 0.0000000000000000e+00  -7.0912449617964546e-01 -6.5952754809417060e+00 0.0000000000000000e+00  -8.4385089117160050e-01 -4.8139952656929710e+00 0.0000000000000000e+00  -1.0569115882751445e+00 -3.5912403370259365e+00 0.0000000000000000e+00  -1.1662522685718553e+00 -2.6146171645255336e+00 0.0000000000000000e+00  -1.2938709919162195e+00 -2.0773136388557325e+00 0.0000000000000000e+00  -1.3300054729134916e+00 -1.5845083897580887e+00 0.0000000000000000e+00  -1.4213166452481019e+00 -1.4012537212884417e+00 0.0000000000000000e+00  -1.5444561093297604e+00 -1.4051460672483778e+00 0.0000000000000000e+00  -1.6482196163379692e+00 -1.4405409052411449e+00 0.0000000000000000e+00  -1.7248131104678419e+00 -1.5073519603228884e+00 0.0000000000000000e+00  -1.7762591314145750e+00 -1.5763389007305388e+00 0.0000000000000000e+00  -1.7811770151214397e+00 -1.5756865930190505e+00 0.0000000000000000e+00  -1.7642741954932077e+00 -1.5581489532684805e+00 0.0000000000000000e+00  -1.7350055312016854e+00 -1.5345659626402197e+00 0.0000000000000000e+00  -1.6851051971834041e+00 -1.4461466945591499e+00 0.0000000000000000e+00  -1.6270638112095643e+00 -1.3803340963337400e+00 0.0000000000000000e+00  -1.5710929429758074e+00 -1.2607595850876756e+00 0.0000000000000000e+00  -1.5014302441829277e+00 -1.1872773032398702e+00 0.0000000000000000e+00  -1.4300186697148052e+00 -9.6681897508140524e-01 0.0000000000000000e+00  -1.3497538183034048e+00 -9.7045266325295876e-01 0.0000000000000000e+00  -1.2583667733619357e+00 -5.6023205192237246e-01 0.0000000000000000e+00  -1.1422207014228360e+00 -7.6659343492569043e-01 0.0000000000000000e+00  -1.0006544508176987e+00 -5.2275396218286176e-02 0.0000000000000000e+00  -8.1776541723737928e-01 -3.3642916037000442e-01 0.0000000000000000e+00  -5.3032851150104310e-01 -2.0813755558278246e+00 0.0000000000000000e+00  -2.2587798095358602e+00 -1.7787685396056423e+00 0.0000000000000000e+00  -2.0860694937437971e+00 -2.3447639965661393e+00 0.0000000000000000e+00  -2.4409565357300957e+00 -1.6281722351346539e+00 0.0000000000000000e+00  -2.5927533384067019e+00 -1.6523572251030707e+00 0.0000000000000000e+00  -2.7820978860340411e+00 -1.4686018274235353e+00 0.0000000000000000e+00  -2.9539809562629693e+00 -1.4243576034493659e+00 0.0000000000000000e+00  -3.0175814628153241e+00 -1.0998482719614115e+00 0.0000000000000000e+00  -2.9789200444195436e+00 -6.6687713454489517e-01 0.0000000000000000e+00  -2.9767135263244415e+00 -2.4652264727219350e-01 0.0000000000000000e+00  -2.8976684147016432e+00 2.7694276958326991e-01 0.0000000000000000e+00  -2.7606398170772675e+00 9.5081882223666025e-01 0.0000000000000000e+00  -2.9220383079066483e+00 1.2508527752972403e+00 0.0000000000000000e+00  -2.8854180871492430e+00 1.9223804867290966e+00 0.0000000000000000e+00  -5.3570086369812806e+00 -1.1114338220845366e+00 0.0000000000000000e+00  -6.5092530906886807e+00 -2.1607219120524159e+00 0.0000000000000000e+00  -6.8367286610512581e+00 -1.9890373123051430e+00 0.0000000000000000e+00  -6.8304285946426564e+00 -1.3537058862647913e+00 0.0000000000000000e+00  -6.6328710803867432e+00 -5.6713733553855816e-01 0.0000000000000000e+00  -6.3648008626309966e+00 2.5449400254517357e-01 0.0000000000000000e+00  -6.0252667140943492e+00 1.0690898669621176e+00 0.0000000000000000e+00  -5.6051584118786932e+00 1.9084075691722022e+00 0.0000000000000000e+00  -5.0934575533323843e+00 2.7672056893153552e+00 0.0000000000000000e+00  -4.4825110808941453e+00 3.8128858792855063e+00 0.0000000000000000e+00  -3.7757153878736309e+00 4.7385764520507774e+00 0.0000000000000000e+00  -3.0115941995707143e+00 5.9599072725699092e+00 0.0000000000000000e+00  -2.2281697136481236e+00 6.6546698896674608e+00 0.0000000000000000e+00  -1.4860825629646262e+00 7.5952324598414780e+00 0.0000000000000000e+00  -8.4096825366785177e-01 7.1528607160822828e+00 0.0000000000000000e+00  -3.5763800924752248e-01 6.8768825872754356e+00 0.0000000000000000e+00  -5.5372769392086262e-02 3.5308456972825137e+00 0.0000000000000000e+00  -5.2169231904415411e-03 -2.2756601813723339e-03 0.0000000000000000e+00  -6.4342382238557635e-02 -8.9479755272115167e+00 0.0000000000000000e+00  -5.1800358333357046e-03 1.8527856542760659e-03 0.0000000000000000e+00  -3.4697310620567473e-01 -1.1370287011347747e+01 0.0000000000000000e+00  -5.0412642845879241e-01 -1.1091295039572133e+01 0.0000000000000000e+00  1.1112857111346530e+00 -7.9390304254285686e+00 0.0000000000000000e+00  -3.4828413395674085e-01 -7.8935929478483287e+00 0.0000000000000000e+00  -2.1730217823908102e-01 -5.8293066936391709e+00 0.0000000000000000e+00  -7.0536210136292976e-01 -4.6423943616987353e+00 0.0000000000000000e+00  -7.9943314824457179e-01 -3.3004614543916810e+00 0.0000000000000000e+00  -9.7727221243095430e-01 -2.4735462989930830e+00 0.0000000000000000e+00  -1.0583527318643391e+00 -1.9060220900347205e+00 0.0000000000000000e+00  -1.1607584294222615e+00 -1.5474896826574183e+00 0.0000000000000000e+00  -1.1753231484158866e+00 -1.2798960395180938e+00 0.0000000000000000e+00  -1.2476505329023106e+00 -1.2338919203060368e+00 0.0000000000000000e+00  -1.3537891389617986e+00 -1.2969414187098751e+00 0.0000000000000000e+00  -1.4426288326388021e+00 -1.4029633939434609e+00 0.0000000000000000e+00  -1.5065535426996881e+00 -1.5080735773483036e+00 0.0000000000000000e+00  -1.5471071357538924e+00 -1.5759424094308905e+00 0.0000000000000000e+00  -1.5428287545262636e+00 -1.5901582193576449e+00 0.0000000000000000e+00  -1.5181705166926183e+00 -1.5841472410276061e+00 0.0000000000000000e+00  -1.4821822053829479e+00 -1.5260666280514992e+00 0.0000000000000000e+00  -1.4263530426967999e+00 -1.4720201606817791e+00 0.0000000000000000e+00  -1.3629920246585172e+00 -1.3490427431521241e+00 0.0000000000000000e+00  -1.3019415792576812e+00 -1.2959002387455658e+00 0.0000000000000000e+00  -1.2273757353528185e+00 -1.0781878692341180e+00 0.0000000000000000e+00  -1.1509478429598867e+00 -1.0949197944533189e+00 0.0000000000000000e+00  -1.0656977400522065e+00 -7.0188059562829064e-01 0.0000000000000000e+00  -9.6884535520143655e-01 -9.4482808009083519e-01 0.0000000000000000e+00  -8.4765237845598373e-01 -2.6985509804834618e-01 0.0000000000000000e+00  -6.9991155042753705e-01 -6.1410012647236856e-01 0.0000000000000000e+00  -5.1309100003841968e-01 -2.5182374784222983e+00 0.0000000000000000e+00  -1.6221990691596475e+00 -1.5221105792588796e+00 0.0000000000000000e+00  -1.4528418961754606e+00 -2.0872658160043160e+00 0.0000000000000000e+00  -1.7909964927515747e+00 -1.3594380720226196e+00 0.0000000000000000e+00  -1.9657370545573696e+00 -1.4310905487881795e+00 0.0000000000000000e+00  -2.1078983216462248e+00 -1.1927065696774461e+00 0.0000000000000000e+00  -2.2848935936815713e+00 -1.1764223112204737e+00 0.0000000000000000e+00  -2.4420409789711113e+00 -1.0162769783018217e+00 0.0000000000000000e+00  -2.4884334032505260e+00 -7.3782250015518613e-01 0.0000000000000000e+00  -2.4308934113540719e+00 -2.6336338886886068e-01 0.0000000000000000e+00  -2.4095572832798462e+00 1.4523448276650150e-01 0.0000000000000000e+00  -2.3130390992084502e+00 7.3503326652729795e-01 0.0000000000000000e+00  -2.1617111058845975e+00 1.4842209822006536e+00 0.0000000000000000e+00  -2.3102594675483061e+00 1.8538233625941607e+00 0.0000000000000000e+00  -2.2497506522801292e+00 2.5691757660730881e+00 0.0000000000000000e+00  -4.6806452860976453e+00 -4.5951252196083037e-01 0.0000000000000000e+00  -5.7983889941101596e+00 -1.5126696079798061e+00 0.0000000000000000e+00  -6.1059588519330790e+00 -1.3729656145000924e+00 0.0000000000000000e+00  -6.0863822229072175e+00 -8.6899320761945786e-01 0.0000000000000000e+00  -5.8809653412698379e+00 -1.5225865102614666e-01 0.0000000000000000e+00  -5.6065642808131724e+00 5.5786109494337399e-01 0.0000000000000000e+00  -5.2631198946595381e+00 1.2777936870125490e+00 0.0000000000000000e+00  -4.8423854227640302e+00 2.0025860732169503e+00 0.0000000000000000e+00  -4.3348687618195028e+00 2.9036685279889114e+00 0.0000000000000000e+00  -3.7344584503172302e+00 3.6949762845763647e+00 0.0000000000000000e+00  -3.0516701871907732e+00 4.8355943502050822e+00 0.0000000000000000e+00  -2.3230161505993627e+00 5.5228937603921073e+00 0.0000000000000000e+00  -1.6012745282422451e+00 6.5291558862966665e+00 0.0000000000000000e+00  -9.3732158666704979e-01 6.2772101874451822e+00 0.0000000000000000e+00  -4.1975791047389543e-01 6.2259860336307895e+00 0.0000000000000000e+00  -7.2963313255554135e-02 3.2643578226704206e+