<?xml version="1.0"?>
<VTKFile type="UnstructuredGrid"  version="0.1"  >
<UnstructuredGrid>
<Piece  NumberOfPoints="1933" NumberOfCells="3640">
<Points>
<DataArray  type="Float64"  NumberOfComponents="3"  format="ascii">0.2935801747938319 0.002014054328804589 0  5.293580193147735 0.001929680332515219 0  5.293706830505681 7.501929771548173 0  0.293706771459755 7.502014072849074 0  10.29358020112528 0.001845205603205296 0  10.29370694846178 7.501845326897149 0  15.29358025235398 0.001760542217764445 0  15.29370716151781 7.501760675629104 0  20.29358041508766 0.001675654589295087 0  20.29370750747761 7.501675792641886 0  25.29358075908705 0.001590540371581145 0  25.29370802631724 7.501590680479179 0  30.29358135137004 0.001505218965373229 0  30.29370875944593 7.501505360926372 0  35.29358225581215 0.001419724564586805 0  35.29370974917876 7.501419869379689 0  40.29358353438261 0.001334102177818166 0  40.2937110386659 7.50133425149374 0  45.29358524902901 0.001248405692462993 0  45.29371267220062 7.501248561558577 0  50.29358746378862 0.001162697413593783 0  50.2937146957702 7.501162862201408 0  55.29359024697133 0.00107704875196974 0  55.29371715773062 7.501077225164037 0  60.29359367337897 0.0009915419085052076 0  60.29372010950912 7.500991733041022 0  65.29359782658688 0.0009062725371243739 0  65.29372360624826 7.500906481979143 0  70.29360280132748 0.0008213534870641025 0  70.29372770730407 7.500821585447445 0  75.29360870602792 0.0007369198492654407 0  75.2937324764839 7.500737179301964 0  80.29361566553229 0.0006531356806158601 0  80.29373798185671 7.500653428508694 0  85.29362382401246 0.0005702029810086356 0  85.29374429489053 7.500570536070258 0  90.29363334798995 0.0004883737897527683 0  90.29375148853148 7.500488754954848 0  95.29364442924266 0.0004079667092181464 0  95.29375963364258 7.500408404185121 0  100.2936572870465 0.0003293898507373261 0  100.2937687929402 7.500329890756838 0  105.2936721685687 0.0002531732874531458 0  105.2937790111728 7.500253739777462 0  110.2936893449123 0.0001800158482270369 0  110.2937902998509 7.500180636183678 0  115.2937090976838 0.000110853912336847 0  115.2938026145076 7.500111482587363 0  120.2937316855938 4.696442003902145e-05 0  120.2938158228026 7.500047478944557 0  125.2937572697377 -9.878460686552399e-06 0  125.2938296642969 7.499990229962566 0  130.2937857540535 -5.716270668462455e-05 0  130.2938437111786 7.499941883141528 0  135.2938164519208 -9.127013711213454e-05 0  135.2938573629917 7.499905289159158 0  140.2938473939633 -0.0001069362996658208 0  140.2938699708688 7.499884150915028 0  145.2938738774118 -9.66077092248146e-05 0  145.293881350732 7.499883109440101 0  150.2938853036091 -5.058649797609616e-05 0  150.2938934076474 7.499907967043021 0  160.2938926261469 8.144171038522789e-19 0  165.2937408782742 -0.0001953644020043424 0  165.2938659164476 7.499777214783147 0  160.2939125886709 7.499934639525693 0  170.2936522105054 -0.0003694637549658083 0  170.2938185370526 7.499616609664084 0  175.2935984297602 -0.0005279643015355914 0  175.2937786054502 7.49946424288084 0  180.2935649479105 -0.0006738414308762078 0  180.2937471137064 7.499321568893532 0  185.2935437474821 -0.0008095297856977611 0  185.293723037284 7.499187671070057 0  190.2935302427953 -0.0009370615122758386 0  190.2937049458328 7.499061179963211 0  195.2935217181992 -0.001058065332617093 0  195.2936915129995 7.498940799606578 0  200.2935165084768 -0.001173813589505576 0  200.2936816478577 7.498825436040847 0  205.2935135555497 -0.001285291576872224 0  205.2936744960916 7.498714202722531 0  210.2935121630211 -0.001393264163870313 0  210.2936694024345 7.498606390621279 0  215.2935118570478 -0.001498330455008569 0  215.2936658677607 7.498501432827257 0  220.2935123054181 -0.001600965567268606 0  220.2936635117276 7.498398873179217 0  225.2935132691211 -0.001701551556803876 0  225.2936620432669 7.49829834104554 0  230.2935145724589 -0.001800400052340129 0  230.2936612382688 7.498199531861721 0  235.2935160840114 -0.001897768826357212 0  235.2936609230344 7.498102192344964 0  240.2935177041283 -0.001993874022420071 0  240.2936609620862 7.498006109289128 0  245.293519356479 -0.002088899290668292 0  245.2936612491957 7.497911101026681 0  250.2935209821956 -0.002183002720621855 0  250.2936617007532 7.497817010854072 0  255.2935225357517 -0.002276322196217289 0  255.2936622508599 7.497723701899391 0  260.2935239820294 -0.002368979610522742 0  260.2936628476758 7.497631053053426 0  265.2935252942736 -0.002461084244320586 0  265.2936634507158 7.497538955694385 0  270.2935264527141 -0.002552735514160319 0  270.2936640288648 7.497447311020785 0  275.2935274437804 -0.002644025214558858 0  275.2936645589419 7.497356027878658 0  280.2935282598578 -0.002735039298104125 0  280.2936650247007 7.497265021038633 0  285.2935288996252 -0.002825859133120478 0  285.2936654161579 7.497174209961135 0  290.2935293690048 -0.002916562012493878 0  290.2936657291478 7.49708351819958 0  295.2935296828188 -0.003007220385806652 0  295.2936659650169 7.496992873755187 0  300.2935298670597 -0.003097898697271118 0  300.2936661303589 7.496902210932673 0  305.2935299613497 -0.003188645495289614 0  305.2936662369265 7.496811474545343 0  310.2935300199784 -0.003279475838835687 0  310.2936663024706 7.496720627562423 0  5.293833093108414 15.00193000229249 0  0.2938330227949589 15.00201412476362 0  10.29383322796202 15.00184563132263 0  15.29383346215033 15.00176100370281 0  20.29383382186299 15.00167612342627 0  25.29383433041692 15.00159100782731 0  30.29383501072033 15.00150568601412 0  35.29383588614338 15.00142019690705 0  40.29383698071221 15.00133458781011 0  45.29383831904552 15.00124891378644 0  50.29383992619224 15.00116323786997 0  55.29384182739943 15.00107763209115 0  60.29384404777397 15.00099217931655 0  65.29384661176967 15.00090697595404 0  70.29384954239933 15.0008221356428 0  75.29385286005105 15.00073779412948 0  80.29385658075138 15.00065411562869 0  85.29386071369156 15.00057130108322 0  90.29386525780156 15.00048959888114 0  95.29387019717025 15.00040931874265 0  100.2938754951763 15.0003308496385 0  105.2938810874726 15.00025468265898 0  110.2938868745591 15.000181439537 0  115.2938927160105 15.00011190661323 0  120.2938984309828 15.00004707150818 0  125.2939038143474 14.99998815372865 0  130.2939086857492 14.99993660692213 0  135.2939130007002 14.99989404111426 0  140.2939170656259 14.99986194861053 0  145.2939218951516 14.99984096183928 0  150.2939296543867 14.99982891041189 0  165.2939443667995 14.99970237184468 0  160.2939527159856 14.99982242359881 0  170.2939279054648 14.99957033672828 0  175.2939081998062 14.99943583913668 0  180.2938887075929 14.99930390693875 0  185.2938711360537 14.99917645962968 0  190.2938561001618 14.99905389000889 0  195.2938436432754 14.99893593857394 0  200.2938335470078 14.99882211365707 0  205.2938254975004 14.99871187947062 0  210.2938191680183 14.99860473308936 0  215.2938142560662 14.99850023034818 0  220.2938104970358 14.99839798943436 0  225.2938076664481 14.99829768564962 0  230.2938055771319 14.9981990434388 0  235.2938040745723 14.99810182828011 0  240.2938030319465 14.99800583941086 0  245.2938023455324 14.99791090364315 0  250.2938019307288 14.99781687022907 0  255.2938017187244 14.99772360663141 0  260.2938016537675 14.9976309950408 0  265.2938016909476 14.99753892949535 0  270.2938017944062 14.99744731349072 0  275.2938019358863 14.9973560580011 0  280.2938020935328 14.99726507986675 0  285.2938022509021 14.99717430053626 0  290.29380239609 14.99708364517255 0  295.2938025210295 14.99699304210991 0  300.2938026210294 14.9969024225039 0  305.2938026949042 14.99681171950996 0  310.2938027463736 14.99672086483287 0  5.293958864379593 22.50193051382939 0  0.2939587927299912 22.50201443504632 0  10.29395898377535 22.50184623220764 0  15.29395917962945 22.50176163370265 0  20.29395947020801 22.50167675492987 0  25.29395986814061 22.50159163255236 0  30.2939603833044 22.50150630656468 0  35.29396102427198 22.50142082172372 0  40.29396179883832 22.50133522827742 0  45.29396271399288 22.50124958262992 0  50.293963775555 22.50116394827703 0  55.29396498757582 22.50107839718975 0  60.29396635154004 22.50099301176005 0  65.29396786535629 22.50090788741159 0  70.29396952210044 22.50082313599111 0  75.29397130846864 22.50073889008668 0  80.29397320290744 22.50065530844998 0  85.29397517341775 22.50057258272509 0  90.29397717511183 22.50049094568478 0  95.29397914774948 22.50041068111089 0  100.2939810137451 22.50033213525631 0  105.2939826775968 22.50025572936663 0  110.2939840284231 22.50018197177194 0  115.2939849484028 22.50011146617136 0  120.2939853314189 22.50004490919707 0  125.2939851179061 22.49998306400388 0  130.2939843528562 22.4999266857585 0  135.2939832715654 22.49987635742192 0  140.2939824057191 22.49983216936772 0  145.2939826671094 22.4997931532078 0  150.2939852824998 22.49975642130653 0  165.2940151848575 22.49961967118928 0  160.2940052342784 22.49971768009975 0  170.2940173216758 22.4995091886123 0  175.2940137541497 22.4993922638616 0  180.2940067885865 22.49927329605697 0  185.2939982792964 22.49915498068408 0  190.293989469322 22.49903872306238 0  195.293981091286 22.49892511626543 0  200.2939735207418 22.49881429471096 0  205.2939669068049 22.49870615627875 0  210.2939612654447 22.498600490557 0  215.2939565405059 22.49849704863651 0  220.2939526413989 22.49839557890882 0  225.2939494652839 22.49829584394233 0  230.2939469094588 22.49819762721574 0  235.2939448777912 22.49810073463915 0  240.2939432836399 22.49800499355702 0  245.2939420507888 22.49791025066358 0  250.2939411132998 22.49781636956459 0  255.2939404148319 22.49772322834391 0  260.2939399077154 22.49763071729565 0  265.2939395519661 22.49753873688153 0  270.2939393143049 22.49744719592507 0  275.293939167231 22.49735601003231 0  280.2939390881509 22.49726510021596 0  285.2939390585698 22.4971743916826 0  290.2939390633553 22.49708381269911 0  295.2939390901236 22.49699329334982 0  300.293939
[...]
<PointData  Vectors="v"> 
<DataArray  type="Float64"  Name="v"  NumberOfComponents="3" format="ascii">3.6574703524141259e+00 -1.6115759978836621e+00 0.0000000000000000e+00  3.5121039461321670e+00 -1.8361779405617482e+00 0.0000000000000000e+00  2.8947755592506863e+00 -1.6181275344851405e+00 0.0000000000000000e+00  3.0019219164901445e+00 -1.4515874882440001e+00 0.0000000000000000e+00  3.2681159511267475e+00 -2.3481639802602050e+00 0.0000000000000000e+00  2.7493415420984673e+00 -1.9826083596066733e+00 0.0000000000000000e+00  2.9630902695964045e+00 -3.0803826849742446e+00 0.0000000000000000e+00  2.5056524705660004e+00 -2.6233606968884899e+00 0.0000000000000000e+00  2.6051969089960965e+00 -3.7905618707611355e+00 0.0000000000000000e+00  2.2011553381723292e+00 -3.2547753983768319e+00 0.0000000000000000e+00  2.1996559423525248e+00 -4.6314081922639749e+00 0.0000000000000000e+00  1.8441166537145037e+00 -4.0246614121850284e+00 0.0000000000000000e+00  1.8042185853222554e+00 -5.3867320280586348e+00 0.0000000000000000e+00  1.4402533102324828e+00 -4.7954625814071834e+00 0.0000000000000000e+00  1.6319703247810240e+00 -5.8089890525899062e+00 0.0000000000000000e+00  1.0470193085824855e+00 -5.5533920083571982e+00 0.0000000000000000e+00  1.1327310699566082e+00 -6.6718439246767645e+00 0.0000000000000000e+00  8.7766123797815365e-01 -5.9264902380861386e+00 0.0000000000000000e+00  3.0276529851830469e+00 -3.9432686418938445e+00 0.0000000000000000e+00  3.8247728663334513e-01 -6.7895831086268039e+00 0.0000000000000000e+00  -1.3458182422989511e+00 -1.0491531619384544e+01 0.0000000000000000e+00  2.2823580464108049e+00 -3.9367189133997740e+00 0.0000000000000000e+00  2.8614308017246855e-02 -8.1876140428437605e+00 0.0000000000000000e+00  -2.0862809659038053e+00 -1.0254708589092870e+01 0.0000000000000000e+00  3.1587779796048687e-01 -7.5185488826440023e+00 0.0000000000000000e+00  -7.0532463174449944e-01 -7.9572670079092962e+00 0.0000000000000000e+00  -2.0029128357925623e-02 -7.8257651331347713e+00 0.0000000000000000e+00  -4.0903757711721161e-01 -7.3317519798547872e+00 0.0000000000000000e+00  -8.0935712345481137e-01 -8.8105385180931304e+00 0.0000000000000000e+00  -7.3386278196290244e-01 -7.6388546466606870e+00 0.0000000000000000e+00  -1.8670021313278280e+00 -1.0138841189915281e+01 0.0000000000000000e+00  -1.5088479559044659e+00 -8.5661049833895024e+00 0.0000000000000000e+00  -3.1369883239200971e+00 -1.1668035486910105e+01 0.0000000000000000e+00  -2.5499904544147909e+00 -9.7798076170740842e+00 0.0000000000000000e+00  -4.5747142442897308e+00 -1.3358376258670390e+01 0.0000000000000000e+00  -3.8011143192553876e+00 -1.1220993404863716e+01 0.0000000000000000e+00  -6.1353543387580318e+00 -1.5025406103289638e+01 0.0000000000000000e+00  -5.2159771636484331e+00 -1.2705626695005733e+01 0.0000000000000000e+00  -7.7832324614354160e+00 -1.6662944063202321e+01 0.0000000000000000e+00  -6.7513913037260247e+00 -1.4216303891029503e+01 0.0000000000000000e+00  -9.4780097925579572e+00 -1.8186895052216745e+01 0.0000000000000000e+00  -8.3702414190998535e+00 -1.5672386934466594e+01 0.0000000000000000e+00  -1.1152803368717326e+01 -1.9496207503352561e+01 0.0000000000000000e+00  -1.0032181656267765e+01 -1.7015484421126278e+01 0.0000000000000000e+00  -1.2745361484438524e+01 -2.0407458971146028e+01 0.0000000000000000e+00  -1.1669079292808412e+01 -1.8052861071739986e+01 0.0000000000000000e+00  -1.4203214081519345e+01 -2.1020623493330792e+01 0.0000000000000000e+00  -1.3222049532789358e+01 -1.8874429807244603e+01 0.0000000000000000e+00  -1.5453239179358494e+01 -2.0818631926320858e+01 0.0000000000000000e+00  -1.4630611773038819e+01 -1.8983174829474464e+01 0.0000000000000000e+00  -1.6477119510905752e+01 -2.0142126300957848e+01 0.0000000000000000e+00  -1.5834005800288578e+01 -1.8658273254410609e+01 0.0000000000000000e+00  -1.7227528797849782e+01 -1.8255574589480638e+01 0.0000000000000000e+00  -1.6795076381275027e+01 -1.7173781087807605e+01 0.0000000000000000e+00  -1.7742335652220717e+01 -1.5431015309292874e+01 0.0000000000000000e+00  -1.7493165113352926e+01 -1.4725096977382446e+01 0.0000000000000000e+00  -1.8011408663224831e+01 -1.1384143754765176e+01 0.0000000000000000e+00  -1.7928588889268916e+01 -1.1025953996086301e+01 0.0000000000000000e+00  -1.8136940860535613e+01 -4.7349182288299287e+00 0.0000000000000000e+00  -1.8141699114548668e+01 -4.6309755262329526e+00 0.0000000000000000e+00  -1.8163563202019155e+01 4.2201305664412410e-11 0.0000000000000000e+00  -1.8163229809384696e+01 3.1822788336874998e-04 0.0000000000000000e+00  -1.8163563200087268e+01 -2.2615207874732836e-19 0.0000000000000000e+00  -1.3885049141207928e+01 1.1501131189470582e+01 0.0000000000000000e+00  -1.8132846742258526e+01 5.1188656698820472e+00 0.0000000000000000e+00  -1.8163230960067722e+01 -3.3661021152259625e-04 0.0000000000000000e+00  -1.2622830655827373e+01 2.0107796128797069e+01 0.0000000000000000e+00  -1.3903921793332763e+01 1.8283875228983675e+01 0.0000000000000000e+00  -1.0751007817903254e+01 2.3971181758170136e+01 0.0000000000000000e+00  -1.2700480267422190e+01 2.1200064469571860e+01 0.0000000000000000e+00  -9.6663185348205385e+00 2.4800968127779697e+01 0.0000000000000000e+00  -1.0883334775319172e+01 2.3222012340407385e+01 0.0000000000000000e+00  -8.4433511008042839e+00 2.4355630535150663e+01 0.0000000000000000e+00  -9.8477234307755630e+00 2.2560939429943900e+01 0.0000000000000000e+00  -7.4333698145173610e+00 2.2837588846394336e+01 0.0000000000000000e+00  -8.6704710312325428e+00 2.1362908603014848e+01 0.0000000000000000e+00  -6.4848905062224134e+00 2.1055030382630786e+01 0.0000000000000000e+00  -7.7050461846102563e+00 1.9667812554126762e+01 0.0000000000000000e+00  -5.6327210308642934e+00 1.9045000727677213e+01 0.0000000000000000e+00  -6.7972064768431011e+00 1.7802772900688190e+01 0.0000000000000000e+00  -4.7442820599462552e+00 1.7231457849687970e+01 0.0000000000000000e+00  -5.9837738539767509e+00 1.5931761490786712e+01 0.0000000000000000e+00  -4.0347289906705548e+00 1.5494181102883609e+01 0.0000000000000000e+00  -5.1326154477473445e+00 1.4461671909524828e+01 0.0000000000000000e+00  -3.4034648302070289e+00 1.3978737568005290e+01 0.0000000000000000e+00  -4.4582105278033417e+00 1.3062536649282475e+01 0.0000000000000000e+00  -2.7509892154831532e+00 1.2763379036869599e+01 0.0000000000000000e+00  -3.8605903316304260e+00 1.1814117858275692e+01 0.0000000000000000e+00  -2.1563271507647621e+00 1.1703387583574624e+01 0.0000000000000000e+00  -3.2407524441316058e+00 1.0839552529483356e+01 0.0000000000000000e+00  -1.6192426431084630e+00 1.0780567555316797e+01 0.0000000000000000e+00  -2.6772285457767171e+00 1.0002452987445345e+01 0.0000000000000000e+00  -1.1378102312450500e+00 9.9358302320552827e+00 0.0000000000000000e+00  -2.1701768638536181e+00 9.2401737684289351e+00 0.0000000000000000e+00  -7.2145440432263019e-01 9.1317548581599084e+00 0.0000000000000000e+00  -1.7179663712554809e+00 8.5328974381975851e+00 0.0000000000000000e+00  -3.6518955177890317e-01 8.3732996705528375e+00 0.0000000000000000e+00  -1.3298349577719033e+00 7.8640325401061553e+00 0.0000000000000000e+00  -5.3539023976775520e-02 7.6314465011315313e+00 0.0000000000000000e+00  -1.0009943497107441e+00 7.1884856206663343e+00 0.0000000000000000e+00  2.1023119752658920e-01 6.9058294615900158e+00 0.0000000000000000e+00  -7.1625168187438715e-01 6.5340920122594062e+00 0.0000000000000000e+00  4.3103916636471790e-01 6.1901398607059264e+00 0.0000000000000000e+00  -4.7867456355721161e-01 5.8825678416650744e+00 0.0000000000000000e+00  6.1571776609639017e-01 5.4853177528988448e+00 0.0000000000000000e+00  -2.8367209880697336e-01 5.2314169550583394e+00 0.0000000000000000e+00  7.6486383139333325e-01 4.7638095675036753e+00 0.0000000000000000e+00  -1.2425031446278494e-01 4.5630709291681946e+00 0.0000000000000000e+00  8.7170728643345030e-01 4.0847488472861899e+00 0.0000000000000000e+00  -2.9678766800346793e-04 3.9468923038578945e+00 0.0000000000000000e+00  9.4623426960977164e-01 3.3302802530248616e+00 0.0000000000000000e+00  8.2230173384113633e-02 3.2412611039948591e+00 0.0000000000000000e+00  9.7451504232063790e-01 2.6993595161232764e+00 0.0000000000000000e+00  1.3167358499260157e-01 2.6784576557897779e+00 0.0000000000000000e+00  9.6080254197368620e-01 1.8811827011809268e+00 0.0000000000000000e+00  1.3679216266307326e-01 1.9249209552833351e+00 0.0000000000000000e+00  8.9621232763774428e-01 1.3994616300403400e+00 0.0000000000000000e+00  9.7310488820810628e-02 1.5163635017679384e+00 0.0000000000000000e+00  7.6624099309374893e-01 4.3151649150178822e-01 0.0000000000000000e+00  1.1785017331929824e-02 6.5139142778550618e-01 0.0000000000000000e+00  5.2157963181567235e-01 -4.9903318896975933e-02 0.0000000000000000e+00  -1.4735279940149726e-01 3.3306932794560740e-01 0.0000000000000000e+00  -5.8956437278268041e-02 -2.8478830103476477e-01 0.0000000000000000e+00  -4.0366675469809865e-01 6.1947992132260465e-01 0.0000000000000000e+00  2.0088458951243466e+00 -1.4563847380581765e+00 0.0000000000000000e+00  2.1167035137616828e+00 -1.2920565596144513e+00 0.0000000000000000e+00  1.9000149978111145e+00 -1.7631188326873832e+00 0.0000000000000000e+00  1.7523392024264000e+00 -2.2566416436064047e+00 0.0000000000000000e+00  1.5064671285286453e+00 -2.7969345616400414e+00 0.0000000000000000e+00  1.2000758912102665e+00 -3.4879422104401385e+00 0.0000000000000000e+00  8.4141100841092142e-01 -4.1892167561136917e+00 0.0000000000000000e+00  4.3679052875819074e-01 -4.9638419536186698e+00 0.0000000000000000e+00  4.4152632765694831e-02 -5.6729674965505916e+00 0.0000000000000000e+00  -1.2348765431265761e-01 -6.0490172792538317e+00 0.0000000000000000e+00  -6.1442040283439936e-01 -6.7904083188666755e+00 0.0000000000000000e+00  1.2907206344751834e+00 -3.7021049237546788e+00 0.0000000000000000e+00  -3.0786716927005715e+00 -1.0027893791368793e+01 0.0000000000000000e+00  -1.6973272664385295e+00 -7.7803074820935452e+00 0.0000000000000000e+00  -1.3938489674918848e+00 -7.1567118055951227e+00 0.0000000000000000e+00  -1.7078966145205290e+00 -7.4133272612747696e+00 0.0000000000000000e+00  -2.4664625272483773e+00 -8.2299509045276125e+00 0.0000000000000000e+00  -3.4869039045720664e+00 -9.3576371592449465e+00 0.0000000000000000e+00  -4.7136977283163857e+00 -1.0600801394621222e+01 0.0000000000000000e+00  -6.0987206062109198e+00 -1.1933792873599501e+01 0.0000000000000000e+00  -7.5987447507190842e+00 -1.3266049044904152e+01 0.0000000000000000e+00  -9.1776633625805939e+00 -1.4551121456914601e+01 0.0000000000000000e+00  -1.0791393913552293e+01 -1.5628437866697105e+01 0.0000000000000000e+00  -1.2373413345665224e+01 -1.6581888923680431e+01 0.0000000000000000e+00  -1.3862595348363119e+01 -1.6910206458901143e+01 0.0000000000000000e+00  -1.5199325171037565e+01 -1.6905374484498441e+01 0.0000000000000000e+00  -1.6316716445480854e+01 -1.5777439624204838e+01 0.0000000000000000e+00  -1.7189002001568003e+01 -1.3753645472740732e+01 0.0000000000000000e+00  -1.7771326611459266e+01 -1.0416172204164118e+01 0.0000000000000000e+00  -1.8104142307179391e+01 -4.4243027993668624e+00 0.0000000000000000e+00  -1.8162421581844420e+01 6.0656603361767560e-04 0.0000000000000000e+00  -1.8092016463503629e+01 4.9229094910055338e+00 0.0000000000000000e+00  -1.8162423653598747e+01 -6.9196007805727119e-04 0.0000000000000000e+00  -1.7900923025888392e+01 1.1959472385397580e+01 0.0000000000000000e+00  -1.3742578500764550e+01 1.9452462599894794e+01 0.0000000000000000e+00  -1.2625503458291599e+01 2.0538839252939361e+01 0.0000000000000000e+00  -1.0876385114048665e+01 2.1047614227692343e+01 0.0000000000000000e+00  -9.9043187162874524e+00 1.9626739643646939e+01 0.0000000000000000e+00  -8.7787648142344317e+00 1.8252766239649851e+01 0.0000000000000000e+00  -7.8639967159884057e+00 1.6467155010040042e+01 0.0000000000000000e+00  -6.9997913705989347e+00 1.4736116604990446e+01 0.0000000000000000e+00  -6.2267763219194370e+00 1.3208488890372871e+01 0.0000000000000000e+00  -5.4134510244443161e+00 1.2072505823052772e+01 0.0000000000000000e+00  -4.7743920505436401e+00 1.0937436182123854e+01 0.0000000000000000e+00  -4.2096929729581998e+00 9.9294414848380708e+00 0.0000000000000000e+00  -3.6215642951983225e+00 9.1753048038711746e+00 0.0000000000000000e+00  -3.0878201902825944e+00 8.4965472927861310e+00 0.0000000000000000e+00  -2.6088171598870225e+00 7.8711274217926839e+00 0.0000000000000000e+00  -2.1834975929839073e+00 7.2973976949527675e+00 0.0000000000000000e+00  -1.8209076918448783e+00 6.7099403597246470e+00 0.0000000000000000e+00  -1.5163887908334579e+00 6.1213576347393053e+00 0.0000000000000000e+00  -1.2551666733018478e+00 5.5400143872698981e+00 0.0000000000000000e+00  -1.0402795953939763e+00 4.9521122865956402e+00 0.0000000000000000e+00  -8.6718303038707711e-01 4.3371042055179032e+00 0.0000000000000000e+00  -7.2928538211919836e-01 3.7734993266368528e+00 0.0000000000000000e+00  -6.2622276891555539e-01 3.1301814863767174e+00 0.0000000000000000e+00  -5.6440942963562291e-01 2.6160756014480318e+00 0.0000000000000000e+00  -5.3496748501547797e-01 1.9302189023416472e+00 0.0000000000000000e+00  -5.5028077197469394e-01 1.5858099810350488e+00 0.0000000000000000e+00  -6.0846329192568060e-01 7.9411696287911093e-01 0.0000000000000000e+00  -7.1460545386620000e-01 5.7910931747217909e-01 0.0000000000000000e+00  -8.9106948563547472e-01 1.0196735058577771e+00 0.0000000000000000e+00  7.0007869077202656e-01 -1.2923244992405762e+00 0.0000000000000000e+00  7.9217899745130793e-01 -1.1573228867251777e+00 0.0000000000000000e+00  5.8850359528812779e-01 -1.5960505205227999e+00 0.0000000000000000e+00  4.7341824898808554e-01 -2.0311633684512009e+00 0.0000000000000000e+00  3.1945884803023045e-01 -2.4236829895456022e+00 0.0000000000000000e+00  6.6544746625673445e-02 -3.0239368616190934e+00 0.0000000000000000e+00  -2.4695939891538363e-01 -3.6475348439184714e+00 0.0000000000000000e+00  -6.1162983235734691e-01 -4.3537788511249254e+00 0.0000000000000000e+00  -1.0211805982402113e+00 -5.0825078065728535e+00 0.0000000000000000e+00  -1.4165085523777703e+00 -5.7986565087963440e+00 0.0000000000000000e+00  -1.5827247286939590e+00 -6.0579587695492458e+00 0.0000000000000000e+00  -2.0683413796499641e+00 -6.5639254781922443e+00 0.0000000000000000e+00  -1.6278365842476444e-01 -3.4685822852924404e+00 0.0000000000000000e+00  -4.5450095705266422e+00 -9.8444844968525356e+00 0.0000000000000000e+00  -3.1744270536301396e+00 -7.6150709588633294e+00 0.0000000000000000e+00  -2.8689199419691338e+00 -6.9515403963793165e+00 0.0000000000000000e+00  -3.1712237452980787e+00 -7.1074574167597104e+00 0.0000000000000000e+00  -3.9100263422645165e+00 -7.8482597323060448e+00 0.0000000000000000e+00  -4.9035801626290532e+00 -8.7875280712060153e+00 0.0000000000000000e+00  -6.0950965571030427e+00 -9.8884760542747845e+00 0.0000000000000000e+00  -7.4373290691129190e+00 -1.1055081048530836e+01 0.0000000000000000e+00  -8.8860648710169894e+00 -1.2230201804552962e+01 0.0000000000000000e+00  -1.0401397651528487e+01 -1.3261638299948965e+01 0.0000000000000000e+00  -1.1941005135892183e+01 -1.4276826799914144e+01 0.0000000000000000e+00  -1.3431942642536603e+01 -1.4750470210089189e+01 0.0000000000000000e+00  -1.4816497898469096e+01 -1.4995970097443015e+01 0.0000000000000000e+00  -1.6023321283377708e+01 -1.4197326633282955e+01 0.0000000000000000e+00  -1.6999350772427746e+01 -1.2584712204702749e+01 0.0000000000000000e+00  -1.7688194136961904e+01 -9.6489387302539846e+00 0.0000000000000000e+00  -1.8095456322206992e+01 -4.1401327957105982e+00 0.0000000000000000e+00  -1.8161163107271516e+01 8.6604945611864147e-04 0.0000000000000000e+00  -1.8071377152892918e+01 4.5778015721749599e+00 0.0000000000000000e+00  -1.8161165215243312e+01 -1.0058166065476390e-03 0.0000000000000000e+00  -1.7669550642418223e+01 1.1609565856267942e+01 0.0000000000000000e+00  -1.7468307166550161e+01 1.3304497468276001e+01 0.0000000000000000e+00  -1.3433666541220354e+01 1.8971835732181692e+01 0.0000000000000000e+00  -1.2455239457378619e+01 1.8503900243299494e+01 0.0000000000000000e+00  -1.0814314827225754e+01 1.8245725047510003e+01 0.0000000000000000e+00  -9.9355650638432671e+00 1.6623518532577222e+01 0.0000000000000000e+00  -8.8881499203206005e+00 1.5151580832145267e+01 0.0000000000000000e+00  -8.0440626904619563e+00 1.3488594056024299e+01 0.0000000000000000e+00  -7.2408943353581874e+00 1.2093751320872682e+01 0.0000000000000000e+00  -6.5243079544781750e+00 1.0893269660960684e+01 0.0000000000000000e+00  -5.7623991532657879e+00 1.0017470778687612e+01 0.0000000000000000e+00  -5.1712292512505016e+00 9.1182491022210819e+00 0.0000000000000000e+00  -4.6518274422859474e+00 8.3272199463017582e+00 0.0000000000000000e+00  -4.1064547127306685e+00 7.7281547696118382e+00 0.0000000000000000e+00  -3.6126816092279603e+00 7.1828352429828382e+00 0.0000000000000000e+00  -3.1713815381903161e+00 6.6879199581423325e+00 0.0000000000000000e+00  -2.7814824740560278e+00 6.1931662998937691e+00 0.0000000000000000e+00  -2.4522424072609970e+00 5.6901846239733533e+00 0.0000000000000000e+00  -2.1793705481423333e+00 5.1727287479365849e+00 0.0000000000000000e+00  -1.9483636722196782e+00 4.6533187890948913e+00 0.0000000000000000e+00  -1.7623173542667832e+00 4.1003235488537850e+00 0.0000000000000000e+00  -1.6172527091930744e+00 3.5885804627091180e+00 0.0000000000000000e+00  -1.5063101247080817e+00 2.9975381854106100e+00 0.0000000000000000e+00  -1.4299385103041005e+00 2.5439318496590415e+00 0.0000000000000000e+00  -1.3935252010394148e+00 1.9077885587709476e+00 0.0000000000000000e+00  -1.3901528040261646e+00 1.6273332295791993e+00 0.0000000000000000e+00  -1.4286525218686605e+00 9.0432956655736307e-01 0.0000000000000000e+00  -1.5137738782695886e+00 7.5272745985377199e-01 0.0000000000000000e+00  -1.6367741135709581e+00 1.3087301047140143e+00 0.0000000000000000e+00  -5.0474499274137685e-01 -1.1509477538380015e+00 0.0000000000000000e+00  -4.3295303194498541e-01 -1.0543263284803510e+00 0.0000000000000000e+00  -6.0200460517416676e-01 -1.4228843672818821e+00 0.0000000000000000e+00  -7.2306769009680782e-01 -1.8508156467790609e+00 0.0000000000000000e+00  -8.4954807366222629e-01 -2.1839859585871211e+00 0.0000000000000000e+00  -1.0166642640053409e+00 -2.6351743317101479e+00 0.0000000000000000e+00  -1.2834378897993648e+00 -3.1673033924888054e+00 0.0000000000000000e+00  -1.6111951542529221e+00 -3.7974466290038964e+00 0.0000000000000000e+00  -1.9893235435865797e+00 -4.4601949068670406e+00 0.0000000000000000e+00  -2.4098092491020608e+00 -5.1999455714283060e+00 0.0000000000000000e+00  -2.8117320660053093e+00 -5.8075504563978049e+00 0.0000000000000000e+00  -2.9794751873467926e+00 -5.8364469395223253e+00 0.0000000000000000e+00  -3.4651532788373416e+00 -6.3210528565740720e+00 0.0000000000000000e+00  -1.5741867088012356e+00 -3.2488704957919783e+00 0.0000000000000000e+00  -5.9927289685793985e+00 -9.6467624254676529e+00 0.0000000000000000e+00  -4.6527991023686788e+00 -7.4003091325619730e+00 0.0000000000000000e+00  -4.3595479453675656e+00 -6.6534106920782463e+00 0.0000000000000000e+00  -4.6619433883019026e+00 -6.7483423978784352e+00 0.0000000000000000e+00  -5.3887542801852026e+00 -7.3107074401122061e+00 0.0000000000000000e+00  -6.3623766367014420e+00 -8.1222858124948907e+00 0.0000000000000000e+00  -7.5249345222625719e+00 -9.0688535802243706e+00 0.0000000000000000e+00  -8.8281160498045228e+00 -1.0092311171906008e+01 0.0000000000000000e+00  -1.0226189281396959e+01 -1.1032647751371471e+01 0.0000000000000000e+00  -1.1678067965454742e+01 -1.2026202419766598e+01 0.0000000000000000e+00  -1.3133303187397944e+01 -1.2581213351688392e+01 0.0000000000000000e+00  -1.4523088766162960e+01 -1.3014145160083453e+01 0.0000000000000000e+00  -1.5773097100839975e+01 -1.2485285911218583e+01 0.0000000000000000e+00  -1.6827263859790470e+01 -1.1272471368688350e+01 0.0000000000000000e+00  -1.7594206930875607e+01 -8.7378105538653266e+00 0.0000000000000000e+00  -1.8073710713232366e+01 -3.7844794180391688e+00 0.0000000000000000e+00  -1.8159505306661778e+01 1.0955897768255059e-03 0.0000000000