<?xml version="1.0"?>
<VTKFile type="UnstructuredGrid"  version="0.1"  >
<UnstructuredGrid>
<Piece  NumberOfPoints="1933" NumberOfCells="3640">
<Points>
<DataArray  type="Float64"  NumberOfComponents="3"  format="ascii">-0.4754219268337425 -0.001331632304542777 0  4.52457812006535 -0.001307738274386611 0  4.524542287248536 7.498692384293589 0  -0.475457785189794 7.498668447506637 0  9.524578192675769 -0.00128394358384567 0  9.524542411318777 7.498716190264341 0  14.52457834394195 -0.001260265996857618 0  14.52454261081225 7.498739868325754 0  19.52457862460386 -0.001236684435626043 0  19.52454290720206 7.498763447148072 0  24.5245790776401 -0.001213156244165473 0  24.52454331982576 7.498786972280876 0  29.52457973791831 -0.001189625916291751 0  29.52454386525596 7.498810500288819 0  34.5245806334505 -0.001166029413706327 0  34.52454455683642 7.498834095530529 0  39.52458178692991 -0.001142295979304315 0  39.52454540443397 7.49885782879351 0  44.52458321708572 -0.001118348419748234 0  44.52454641427489 7.498881777197655 0  49.52458493971654 -0.001094102365008765 0  49.52454758872363 7.498906025009068 0  54.52458696837865 -0.001069464750027517 0  54.52454892588661 7.498930665180081 0  59.52458931472709 -0.001044331600131096 0  59.52455041893398 7.498955801557734 0  64.52459198849809 -0.001018585085419494 0  64.5245520550216 7.49898155180152 0  69.52459499707643 -0.0009920897095246723 0  69.52455381367194 7.499008051139016 0  74.52459834453857 -0.0009646873930426059 0  74.52455566441559 7.499035457179316 0  79.52460202996112 -0.0009361910813129715 0  79.52455756341413 7.499063956113643 0  84.52460604463573 -0.0009063763265792686 0  84.524559448673 7.499093770771468 0  89.52461036756665 -0.0008749700340248254 0  89.52456123328113 7.499125171182642 0  94.52461495818382 -0.0008416351739946854 0  94.52456279590325 7.499158488528571 0  99.52461974439188 -0.0008059496829888005 0  99.52456396750128 7.499194133639165 0  104.5246246026276 -0.0007673769146804983 0  104.5245645130202 7.49923262145168 0  109.5246293238912 -0.0007252237564389188 0  109.5245641067733 7.499274602909833 0  114.524633554714 -0.0006785808355227586 0  114.5245623009783 7.499320905175758 0  119.5246366925601 -0.0006262372760339226 0  119.5245584895704 7.499372578603099 0  124.5246376972884 -0.0005665612471181651 0  124.5245518768881 7.499430942064092 0  129.5246347463064 -0.0004973408088319686 0  129.5245414793399 7.499497601291672 0  134.5246245961432 -0.000415600109071079 0  134.5245262314451 7.499574376822022 0  139.5246013874863 -0.0003174895780957935 0  139.524505365688 7.499663002509895 0  144.5245543758132 -0.0001986784044565371 0  144.5244794580792 7.4997643501854 0  149.5244634786879 -5.70853620201131e-05 0  149.5244530686648 7.499877061880726 0  159.5244717418527 1.013957119812436e-18 0  164.5244076789782 -0.0001222620072277698 0  164.524462068823 7.499854683941233 0  159.5244751925173 7.499946290574342 0  169.524385319601 -0.0002093087019729172 0  169.5244484388378 7.49977929911409 0  174.5243828810505 -0.0002715897379397164 0  174.5244393594774 7.49972238013507 0  179.5243898161675 -0.0003155154930237407 0  179.5244350101249 7.499681183879491 0  184.5244008504935 -0.000345658609114733 0  184.5244343669244 7.499652503071166 0  189.5244133218953 -0.0003653683029725806 0  189.5244363026194 7.499633600883965 0  194.5244258959817 -0.0003771038796200426 0  194.5244398879891 7.499622321809357 0  199.5244379219513 -0.0003826778525384012 0  199.5244444340434 7.499617011602932 0  204.5244491031451 -0.000383437060161804 0  204.5244494569062 7.499616408105179 0  209.52445932638 -0.0003803940243444819 0  209.5244546282802 7.499619544981192 0  214.5244685726479 -0.0003743203087105302 0  214.52445973148 7.499625676322434 0  219.5244768699924 -0.0003658123182443928 0  219.5244646275362 7.499634220257065 0  224.5244842684985 -0.0003553377208802312 0  224.5244692306552 7.499644717532659 0  229.5244908270195 -0.0003432684380475456 0  229.524473491032 7.499656801222156 0  234.5244966062116 -0.0003299043553252856 0  234.5244773830377 7.499670174487076 0  239.524501665008 -0.0003154905932322676 0  239.5244808971905 7.499684594126218 0  244.5245060590071 -0.0003002302661622043 0  244.5244840347577 7.499699858282448 0  249.5245098399401 -0.0002842940371336958 0  249.5244868041662 7.499715797159864 0  254.524513055786 -0.0002678273563986953 0  254.5244892186705 7.499732265949886 0  259.5245157512809 -0.0002509559851433336 0  259.5244912948852 7.499749139411802 0  264.5245179687269 -0.0002337902034705856 0  264.5244930519311 7.499766307733265 0  269.5245197490224 -0.000216427950157076 0  269.524494511008 7.499783673433625 0  274.5245211329283 -0.0001989570141349829 0  274.5244956952567 7.499801149187473 0  279.5245221625567 -0.0001814562707093213 0  279.5244966298037 7.499818656553621 0  284.5245228830855 -0.0001639958037625113 0  284.5244973418822 7.499836125711317 0  289.524523344599 -0.0001466355449271019 0  289.5244978609089 7.499853496442162 0  294.5245236038234 -0.0001294217453596544 0  294.5244982184381 7.499870720761886 0  299.5245237250485 -0.0001123801172811529 0  299.5244984479478 7.499887767795237 0  304.5245237786507 -9.550382701569641e-05 0  304.5244985847876 7.49990463167728 0  309.5245238334835 -7.873407330007739e-05 0  309.5244986675382 7.499921343520245 0  4.524506185265165 14.99869264930492 0  -0.4754938893142321 14.99866863970155 0  9.524506295944093 14.99871646181652 0  14.5245064600366 14.99874012204925 0  19.5245066869519 14.99876367688738 0  24.52450698242311 14.99878717912705 0  29.52450734979338 14.99881068767588 0  34.52450779007819 14.99883426711164 0  39.52450830155833 14.99885798755403 0  44.524508879181 14.99888192508391 0  49.52450951383485 14.99890616272911 0  54.52451019147701 14.99893079199911 0  59.52451089205007 14.99895591497635 0  64.52451158811286 14.99898164701368 0  69.52451224309262 14.99900812013484 0  74.52451280906607 14.99903548728522 0  79.5245132239727 14.99906392762826 0  84.52451340819333 14.99909365312381 0  89.5245132604951 14.99912491664139 0  94.52451265352634 14.99915802180815 0  99.52451142939525 14.99919333458379 0  104.5245093966094 14.99923129600378 0  109.5245063309832 14.99927243428158 0  114.5245019855485 14.99931737181246 0  119.5244961185664 14.99936681729421 0  124.5244885551229 14.99942152289345 0  129.5244793065722 14.99948216731833 0  134.5244687809546 14.99954909188595 0  139.5244581164148 14.99962175940201 0  144.5244496261526 14.99969770635619 0  149.5244471582976 14.99977052295095 0  164.524475341637 14.99979094783 0  159.5244738821042 14.9998396048926 0  169.5244705833229 14.99974294510381 0  174.5244639077447 14.99970181613654 0  179.5244577453759 14.99966953432133 0  184.5244530614588 14.99964588784543 0  189.5244500383474 14.99962984997395 0  194.5244485097809 14.99962021714507 0  199.5244481899848 14.99961586341458 0  204.5244487819681 14.99961582124602 0  209.5244500221322 14.99961929007784 0  214.5244516937045 14.99962561837605 0  219.5244536261699 14.99963427875779 0  224.5244556893101 14.99964484394211 0  229.524457785902 14.99965696610204 0  234.5244598448384 14.99967036004136 0  239.5244618152765 14.99968478982139 0  244.5244636619282 14.9997000582453 0  249.5244653613941 14.99971599862145 0  254.5244668993599 14.999732468316 0  259.5244682684898 14.99974934371395 0  264.524469466844 14.99976651630469 0  269.5244704967 14.99978388969624 0  274.524471363661 14.99980137743594 0  279.5244720759631 14.99981890157842 0  284.5244726439521 14.99983639199278 0  289.5244730796958 14.99985378642613 0  294.524473396884 14.99987103130921 0  299.5244736112731 14.99988808312807 0  304.5244737423435 14.99990490972165 0  309.5244738173696 14.99992148971112 0  4.524469886574162 22.49869314427756 0  -0.4755301842725685 22.49866911211831 0  9.524469972114144 22.49871693002466 0  14.52447008106727 22.49874054182104 0  19.52447021581163 22.49876404268218 0  24.52447037468347 22.49878749314433 0  29.52447055326805 22.4988109548288 0  34.52447074479463 22.49883449226088 0  39.52447093997029 22.49885817401978 0  44.52447112649698 22.49888207377705 0  49.52447128840655 22.49890627148971 0  54.52447140527241 22.49893085487221 0  59.52447145131855 22.49895592121426 0  64.52447139443542 22.49898157959317 0  69.52447119512185 22.49900795352264 0  74.52447080540631 22.49903518407237 0  79.52447016786664 22.49906343346414 0  84.52446921497487 22.49909288908382 0  89.5244678691825 22.49912376770447 0  94.52446604445565 22.49915631943662 0  99.52446365042535 22.4991908303985 0  104.5244606009979 22.49922762216412 0  109.5244568302118 22.49926704441704 0  114.5244523192942 22.49930945450828 0  119.5244471400014 22.49935517323926 0  124.5244415196336 22.49940439963014 0  129.5244359306594 22.49945705869945 0  134.5244311986571 22.49951254754068 0  139.5244285987943 22.49956934488491 0  144.5244298618558 22.4996244852549 0  149.5244369259119 22.49967305917473 0  164.5244670678318 22.49971878466962 0  159.524460105099 22.49973904912638 0  169.5244682536251 22.49969395804037 0  174.5244657734213 22.49966966882047 0  179.5244615432119 22.49964883125596 0  184.5244568916421 22.4996327033491 0  189.5244525820215 22.49962152576088 0  194.5244489731777 22.49961501387965 0  199.5244461746929 22.49961266096452 0  204.5244441592702 22.4996139024944 0  209.5244428342438 22.49961819601717 0  214.5244420833828 22.49962505433706 0  219.5244417894718 22.49963405475589 0  224.5244418453043 22.49964483699521 0  229.5244421580703 22.49965709645243 0  234.5244426502121 22.49967057611072 0  239.5244432585302 22.49968505864729 0  244.5244439325512 22.49970035937018 0  249.5244446326884 22.49971632016896 0  254.5244453284688 22.49973280446178 0  259.5244459969243 22.49974969304312 0  264.5244466212021 22.49976688071728 0  269.5244471893713 22.49978427360904 0  274.5244476934243 22.49980178705746 0  279.5244481284579 22.49981934400668 0  284.5244484920522 22.49983687379497 0  289.5244487839108 22.49985431119116 0  294.5244490059109 22.49
[...]
<PointData  Vectors="v"> 
<DataArray  type="Float64"  Name="v"  NumberOfComponents="3" format="ascii">-3.3624591621378372e+00 -6.6673745090768488e+00 0.0000000000000000e+00  -3.8297773535864539e+00 -6.0343401691700516e+00 0.0000000000000000e+00  -3.3181747757389837e+00 -5.3336227356076709e+00 0.0000000000000000e+00  -2.9542699772429768e+00 -6.1213277406063549e+00 0.0000000000000000e+00  -4.3724527097710491e+00 -6.2951804510244962e+00 0.0000000000000000e+00  -3.7850389397173059e+00 -5.4818998846812166e+00 0.0000000000000000e+00  -4.8047985054663576e+00 -6.8647431552440974e+00 0.0000000000000000e+00  -4.3266644915913650e+00 -6.2174795052691287e+00 0.0000000000000000e+00  -5.1269968652619271e+00 -6.7368917685861049e+00 0.0000000000000000e+00  -4.7573363590012114e+00 -6.2552612088405652e+00 0.0000000000000000e+00  -5.5571460835727322e+00 -7.0906245074424668e+00 0.0000000000000000e+00  -5.0772902694295503e+00 -6.4474728798054297e+00 0.0000000000000000e+00  -5.8516313117874867e+00 -6.9772879747392658e+00 0.0000000000000000e+00  -5.5047688971063753e+00 -6.5380390722944339e+00 0.0000000000000000e+00  -5.8243439964803461e+00 -6.4535100349809031e+00 0.0000000000000000e+00  -5.7960909907946778e+00 -6.4971211791359238e+00 0.0000000000000000e+00  -6.5994784048338424e+00 -7.0158019407811105e+00 0.0000000000000000e+00  -5.7653101095065784e+00 -5.8560760351066303e+00 0.0000000000000000e+00  -4.6647946366108082e+00 -3.5385658617940430e+00 0.0000000000000000e+00  -6.5367328163812060e+00 -6.4437410742178445e+00 0.0000000000000000e+00  -1.3083660848723051e+01 -1.5376054486544323e+01 0.0000000000000000e+00  -4.5981540290886791e+00 -2.7511639875349423e+00 0.0000000000000000e+00  -1.3613412857046361e+01 -1.5025892342287159e+01 0.0000000000000000e+00  -1.3012545082923427e+01 -1.4235049285231293e+01 0.0000000000000000e+00  -1.3868154532352341e+01 -1.4119747167581087e+01 0.0000000000000000e+00  -1.3537795830042246e+01 -1.3740977625596765e+01 0.0000000000000000e+00  -1.4191651137753595e+01 -1.3262820291251311e+01 0.0000000000000000e+00  -1.3788288586782224e+01 -1.2781027502678002e+01 0.0000000000000000e+00  -1.4643966955661154e+01 -1.2621175587936115e+01 0.0000000000000000e+00  -1.4107440229221787e+01 -1.1946018398698101e+01 0.0000000000000000e+00  -1.5240482264861376e+01 -1.2191686068041918e+01 0.0000000000000000e+00  -1.4555579982992647e+01 -1.1300409313719998e+01 0.0000000000000000e+00  -1.5922150650878866e+01 -1.1855437607977757e+01 0.0000000000000000e+00  -1.5147775219771793e+01 -1.0836009331988279e+01 0.0000000000000000e+00  -1.6625952840823942e+01 -1.1697735896126522e+01 0.0000000000000000e+00  -1.5825254374594019e+01 -1.0644856371126508e+01 0.0000000000000000e+00  -1.7289126832165501e+01 -1.1406555491514803e+01 0.0000000000000000e+00  -1.6525479543447446e+01 -1.0414221072341061e+01 0.0000000000000000e+00  -1.7857004408772745e+01 -1.1019272681586795e+01 0.0000000000000000e+00  -1.7185389786675216e+01 -1.0168833623705204e+01 0.0000000000000000e+00  -1.8290940239966766e+01 -1.0425230799001209e+01 0.0000000000000000e+00  -1.7751019154312441e+01 -9.7749610691724040e+00 0.0000000000000000e+00  -1.8576838749678835e+01 -9.6512962813232299e+00 0.0000000000000000e+00  -1.8183812747429400e+01 -9.2216673855199733e+00 0.0000000000000000e+00  -1.8717414717781487e+01 -8.3586612795529618e+00 0.0000000000000000e+00  -1.8470273639803995e+01 -8.1457696648290359e+00 0.0000000000000000e+00  -1.8731471500409413e+01 -7.2604396467400960e+00 0.0000000000000000e+00  -1.8612477424033763e+01 -7.2348922975641381e+00 0.0000000000000000e+00  -1.8658516416273557e+01 -5.2360580396453162e+00 0.0000000000000000e+00  -1.8631724925068490e+01 -5.3404583114628670e+00 0.0000000000000000e+00  -1.8531869684644846e+01 -3.9836344157554699e+00 0.0000000000000000e+00  -1.8564091702717036e+01 -4.1638959711614287e+00 0.0000000000000000e+00  -1.8399526952581567e+01 -1.4656517236670163e+00 0.0000000000000000e+00  -1.8448949726320105e+01 -1.6558486334475986e+00 0.0000000000000000e+00  -1.8282145456375414e+01 -5.5038219044249470e-01 0.0000000000000000e+00  -1.8326230235441908e+01 -7.0992554987859335e-01 0.0000000000000000e+00  -1.8210802981724438e+01 1.8383100964591972e+00 0.0000000000000000e+00  -1.8228520215225867e+01 1.7427123191369596e+00 0.0000000000000000e+00  -1.8172579876190877e+01 1.6977755535836070e+00 0.0000000000000000e+00  -1.8171281355424345e+01 1.6655473635057267e+00 0.0000000000000000e+00  -1.8163571103827568e+01 -5.4631561533025386e-05 0.0000000000000000e+00  -1.8164444434355186e+01 -9.6814232169287217e-04 0.0000000000000000e+00  -1.8163563200194105e+01 6.0791590792698428e-19 0.0000000000000000e+00  -1.1541829721465506e+01 -4.2675380465362331e-02 0.0000000000000000e+00  -1.8177125748743830e+01 -9.9714837000985455e+00 0.0000000000000000e+00  -1.8164414099181297e+01 8.2215391971684798e-04 0.0000000000000000e+00  -1.2946221947880272e+01 9.4416668754426436e-01 0.0000000000000000e+00  -1.1557926269185698e+01 3.0480143017772048e+00 0.0000000000000000e+00  -1.1085171541291819e+01 5.9978683360415728e+00 0.0000000000000000e+00  -1.2963634528310472e+01 3.2143976629386986e+00 0.0000000000000000e+00  -1.0977627711230559e+01 6.9737183978919735e+00 0.0000000000000000e+00  -1.1107092704075669e+01 6.8175075669446681e+00 0.0000000000000000e+00  -1.0053715292167045e+01 1.0027883848498085e+01 0.0000000000000000e+00  -1.1006786527057301e+01 8.6504255746018810e+00 0.0000000000000000e+00  -9.4661422074643919e+00 1.1181632317459316e+01 0.0000000000000000e+00  -1.0091644075589965e+01 1.0309082144211196e+01 0.0000000000000000e+00  -8.7575348931840793e+00 1.2363735803047254e+01 0.0000000000000000e+00  -9.5138170861783689e+00 1.1311326906469247e+01 0.0000000000000000e+00  -8.1683548635127465e+00 1.2554169071466763e+01 0.0000000000000000e+00  -8.8165702127447840e+00 1.1681080674832785e+01 0.0000000000000000e+00  -7.3894197381818687e+00 1.2506815086939847e+01 0.0000000000000000e+00  -8.2395429822006108e+00 1.1350301938217818e+01 0.0000000000000000e+00  -6.8722986916032456e+00 1.1738936884155073e+01 0.0000000000000000e+00  -7.4734718028435232e+00 1.0975625249834046e+01 0.0000000000000000e+00  -6.4794285443176962e+00 1.0819339459020409e+01 0.0000000000000000e+00  -6.9700645688783611e+00 1.0242892133787622e+01 0.0000000000000000e+00  -6.0310126057843112e+00 9.8765878463989782e+00 0.0000000000000000e+00  -6.5914644133456122e+00 9.2173268229908540e+00 0.0000000000000000e+00  -5.5919116338520132e+00 8.9316786501471999e+00 0.0000000000000000e+00  -6.1577363797513271e+00 8.2868123903715620e+00 0.0000000000000000e+00  -5.1661258263103598e+00 8.0857456485908887e+00 0.0000000000000000e+00  -5.7338348542672417e+00 7.4610635798833957e+00 0.0000000000000000e+00  -4.7183188682715427e+00 7.3117994502881745e+00 0.0000000000000000e+00  -5.3235659137219100e+00 6.6543718187748215e+00 0.0000000000000000e+00  -4.2975098653642885e+00 6.5675218214664373e+00 0.0000000000000000e+00  -4.8914713972327215e+00 5.9507628892282050e+00 0.0000000000000000e+00  -3.9145705523820080e+00 5.8975609825819566e+00 0.0000000000000000e+00  -4.4866020824817108e+00 5.3376600819313014e+00 0.0000000000000000e+00  -3.5415863532187242e+00 5.2670497544272381e+00 0.0000000000000000e+00  -4.1196868740795605e+00 4.7221696389295253e+00 0.0000000000000000e+00  -3.2018571495302584e+00 4.6524168232573642e+00 0.0000000000000000e+00  -3.7627645460035164e+00 4.1574079096969578e+00 0.0000000000000000e+00  -2.9074515558085094e+00 4.0967554844675611e+00 0.0000000000000000e+00  -3.4390732753712636e+00 3.6697168881284834e+00 0.0000000000000000e+00  -2.6265335198244140e+00 3.5278989451532921e+00 0.0000000000000000e+00  -3.1607202653053466e+00 3.1209651882282556e+00 0.0000000000000000e+00  -2.3778974755352951e+00 3.0385542547980671e+00 0.0000000000000000e+00  -2.8956314527926441e+00 2.6800788447255726e+00 0.0000000000000000e+00  -2.1568948939787624e+00 2.5049702704823993e+00 0.0000000000000000e+00  -2.6629168488354447e+00 2.1876045552188690e+00 0.0000000000000000e+00  -1.9504345921803037e+00 2.1559661640248504e+00 0.0000000000000000e+00  -2.4573335517461716e+00 1.8606622881678772e+00 0.0000000000000000e+00  -1.7498413963446311e+00 1.6067523221906606e+00 0.0000000000000000e+00  -2.2667401704753436e+00 1.3194557723077356e+00 0.0000000000000000e+00  -1.5506151263683108e+00 1.5743828595904972e+00 0.0000000000000000e+00  -2.0807879620568830e+00 1.2901050990065834e+00 0.0000000000000000e+00  -1.3345985764172379e+00 9.2139241113971071e-01 0.0000000000000000e+00  -1.8977652646757588e+00 6.0991728093270381e-01 0.0000000000000000e+00  -1.0167479056029185e+00 1.4627558308840152e+00 0.0000000000000000e+00  -1.6948685721661743e+00 1.0015186451766929e+00 0.0000000000000000e+00  -5.0542552515834283e-01 1.2343946910936101e+00 0.0000000000000000e+00  -1.3951800944066592e+00 4.7735652235249926e-01 0.0000000000000000e+00  6.9828571935999284e-01 1.8349155583137217e-01 0.0000000000000000e+00  -8.9114590963533991e-01 -1.6013778029372483e+00 0.0000000000000000e+00  -3.0480622148082515e+00 -4.7880117070467634e+00 0.0000000000000000e+00  -2.6407289561216527e+00 -5.5098835619070190e+00 0.0000000000000000e+00  -3.4112642689321171e+00 -4.7825132317199905e+00 0.0000000000000000e+00  -3.8762264891575233e+00 -5.4066461334551192e+00 0.0000000000000000e+00  -4.4147420252128535e+00 -5.6115885643479819e+00 0.0000000000000000e+00  -4.8410716776736891e+00 -5.9706925278960670e+00 0.0000000000000000e+00  -5.1553835385311189e+00 -5.9005650009600039e+00 0.0000000000000000e+00  -5.5761276869584435e+00 -6.0644867451577715e+00 0.0000000000000000e+00  -5.8597864139607534e+00 -5.9071775173757723e+00 0.0000000000000000e+00  -5.8205686687369314e+00 -5.2915911221384562e+00 0.0000000000000000e+00  -6.5836181953872090e+00 -5.6636558951124769e+00 0.0000000000000000e+00  -4.6365339037444429e+00 -1.6198890002669575e+00 0.0000000000000000e+00  -1.3039737103356490e+01 -1.2959966138593469e+01 0.0000000000000000e+00  -1.3554077698541457e+01 -1.2410558549152533e+01 0.0000000000000000e+00  -1.3795399888531561e+01 -1.1473118745778377e+01 0.0000000000000000e+00  -1.4104938432556539e+01 -1.0633641418756843e+01 0.0000000000000000e+00  -1.4543328561406760e+01 -9.9538890565310005e+00 0.0000000000000000e+00  -1.5124897227468947e+01 -9.6353629441271984e+00 0.0000000000000000e+00  -1.5790966606034631e+01 -9.3704936933180853e+00 0.0000000000000000e+00  -1.6479612419546040e+01 -9.1857180219781256e+00 0.0000000000000000e+00  -1.7127940769447154e+01 -8.9334889394854855e+00 0.0000000000000000e+00  -1.7682163923997031e+01 -8.5780861954228929e+00 0.0000000000000000e+00  -1.8105124478719731e+01 -7.7213991922726066e+00 0.0000000000000000e+00  -1.8383244056039061e+01 -7.0249950316361804e+00 0.0000000000000000e+00  -1.8519970733328563e+01 -5.3136954077955654e+00 0.0000000000000000e+00  -1.8537016210321031e+01 -4.2631820422653846e+00 0.0000000000000000e+00  -1.8472874246420528e+01 -1.8268673237293975e+00 0.0000000000000000e+00  -1.8364771921435572e+01 -8.8150585554610394e-01 0.0000000000000000e+00  -1.8260639431499605e+01 1.6015675824722206e+00 0.0000000000000000e+00  -1.8182407222148829e+01 1.6093313379654324e+00 0.0000000000000000e+00  -1.8166536132141168e+01 -1.8422376310225569e-03 0.0000000000000000e+00  -1.8181348862727667e+01 -9.9128375332115066e+00 0.0000000000000000e+00  -1.8166495005744448e+01 1.6137881925961540e-03 0.0000000000000000e+00  -1.8237753815089857e+01 -6.8792891355519510e+00 0.0000000000000000e+00  -1.1609207522152108e+01 5.3143979373922043e+00 0.0000000000000000e+00  -1.3006051859233303e+01 4.0320630001344879e+00 0.0000000000000000e+00  -1.1149955264805861e+01 8.5016146605460694e+00 0.0000000000000000e+00  -1.1053404734715730e+01 8.9410482537217106e+00 0.0000000000000000e+00  -1.0145847298208039e+01 1.0448559360601756e+01 0.0000000000000000e+00  -9.5761147680761880e+00 1.0641377771720443e+01 0.0000000000000000e+00  -8.8890321915477823e+00 1.0491129081157229e+01 0.0000000000000000e+00  -8.3228566717038674e+00 9.8331413893032291e+00 0.0000000000000000e+00  -7.5683024561675811e+00 9.4950441015932494e+00 0.0000000000000000e+00  -7.0771559157296879e+00 8.6571393915728727e+00 0.0000000000000000e+00  -6.7114907227080609e+00 7.6439999452272911e+00 0.0000000000000000e+00  -6.2910985443427219e+00 6.8335148630368918e+00 0.0000000000000000e+00  -5.8811614600257487e+00 6.0475712319892221e+00 0.0000000000000000e+00  -5.4853108754627904e+00 5.3112983543729460e+00 0.0000000000000000e+00  -5.0678652170420859e+00 4.7392429969814129e+00 0.0000000000000000e+00  -4.6778684240938553e+00 4.1807911766843624e+00 0.0000000000000000e+00  -4.3259306712998926e+00 3.6309161888864363e+00 0.0000000000000000e+00  -3.9838942968951749e+00 3.1930990552598821e+00 0.0000000000000000e+00  -3.6750105438279075e+00 2.7122094751857664e+00 0.0000000000000000e+00  -3.4112451732684153e+00 2.2911360939212773e+00 0.0000000000000000e+00  -3.1605075094245976e+00 1.8468956352875030e+00 0.0000000000000000e+00  -2.9417438534082523e+00 1.5607388096274402e+00 0.0000000000000000e+00  -2.7499000667231823e+00 1.0412830029620985e+00 0.0000000000000000e+00  -2.5723778691051371e+00 1.0195407298330734e+00 0.0000000000000000e+00  -2.3995748043280614e+00 3.4192818583926160e-01 0.0000000000000000e+00  -2.2284178452248069e+00 7.0622010249120049e-01 0.0000000000000000e+00  -2.0384214417013005e+00 3.2398910150474726e-02 0.0000000000000000e+00  -1.7495217139773709e+00 -2.3477023393833991e+00 0.0000000000000000e+00  -2.9522123178444213e+00 -4.1775657691443673e+00 0.0000000000000000e+00  -2.5808002997327963e+00 -4.9520971470671791e+00 0.0000000000000000e+00  -3.3584817070097017e+00 -4.2391914421247927e+00 0.0000000000000000e+00  -3.7191009001677662e+00 -4.7119797825068286e+00 0.0000000000000000e+00  -4.1796394334361828e+00 -4.8083277095977968e+00 0.0000000000000000e+00  -4.7112728187146198e+00 -5.3374245320854490e+00 0.0000000000000000e+00  -5.1282314104233793e+00 -5.4370553111682680e+00 0.0000000000000000e+00  -5.4307671515043081e+00 -5.4430545330235418e+00 0.0000000000000000e+00  -5.8373841311361616e+00 -5.4926747621443361e+00 0.0000000000000000e+00  -6.1051848416715497e+00 -5.3621545264470969e+00 0.0000000000000000e+00  -6.0494685162194983e+00 -4.5306748832245392e+00 0.0000000000000000e+00  -6.7966325190541976e+00 -4.5521247770748596e+00 0.0000000000000000e+00  -4.8319439272745983e+00 -3.7070986894027047e-01 0.0000000000000000e+00  -1.3212820918566214e+01 -1.1654852718925227e+01 0.0000000000000000e+00  -1.3706477833831785e+01 -1.1123242737044150e+01 0.0000000000000000e+00  -1.3930764891624296e+01 -1.0181888351319405e+01 0.0000000000000000e+00  -1.4222846547807714e+01 -9.3096903591184947e+00 0.0000000000000000e+00  -1.4641996374902289e+01 -8.7778698825015997e+00 0.0000000000000000e+00  -1.5201819809966441e+01 -8.3877271406712168e+00 0.0000000000000000e+00  -1.5843980903601002e+01 -8.1704869268477278e+00 0.0000000000000000e+00  -1.6506487098465211e+01 -7.9793748376994991e+00 0.0000000000000000e+00  -1.7127294049365268e+01 -7.7650724462384559e+00 0.0000000000000000e+00  -1.7654110012268600e+01 -7.1050915295656027e+00 0.0000000000000000e+00  -1.8050113204449527e+01 -6.6229855107129101e+00 0.0000000000000000e+00  -1.8304688541195034e+01 -5.1221527592639893e+00 0.0000000000000000e+00  -1.8421656554712467e+01 -4.2440311941933420e+00 0.0000000000000000e+00  -1.8427781212139070e+01 -1.9268908667044347e+00 0.0000000000000000e+00  -1.8360040042548651e+01 -1.0311787148466536e+00 0.0000000000000000e+00  -1.8266889492204818e+01 1.4546011971571460e+00 0.0000000000000000e+00  -1.8185167328850778e+01 1.5409005130788849e+00 0.0000000000000000e+00  -1.8169801024627652e+01 -2.6338191554576783e-03 0.0000000000000000e+00  -1.8175846964269109e+01 -9.8607752977420731e+00 0.0000000000000000e+00  -1.8169764256374894e+01 2.3072248053117713e-03 0.0000000000000000e+00  -1.8231392937270062e+01 -6.7854566928356554e+00 0.0000000000000000e+00  -1.8284416610868341e+01 -4.6419987981228461e+00 0.0000000000000000e+00  -1.1637111831783603e+01 6.1153935193110316e+00 0.0000000000000000e+00  -1.3020771018946817e+01 5.7189311752253342e+00 0.0000000000000000e+00  -1.1166921489571992e+01 8.8006155762357015e+00 0.0000000000000000e+00  -1.1078664211044794e+01 9.0970121021244470e+00 0.0000000000000000e+00  -1.0183466238645464e+01 9.7967674231835904e+00 0.0000000000000000e+00  -9.6274281033163280e+00 9.4721983232240010e+00 0.0000000000000000e+00  -8.9556616410883532e+00 8.9960954296676441e+00 0.0000000000000000e+00  -8.4051210477638403e+00 8.3761719832209707e+00 0.0000000000000000e+00  -7.6670851222237442e+00 7.9337893190964550e+00 0.0000000000000000e+00  -7.1931124457318436e+00 7.1095842618315768e+00 0.0000000000000000e+00  -6.8452367275124582e+00 6.2175373899774709e+00 0.0000000000000000e+00  -6.4434535112287952e+00 5.4478891945109025e+00 0.0000000000000000e+00  -6.0529887172593133e+00 4.7333202349650429e+00 0.0000000000000000e+00  -5.6772161169617412e+00 4.1292202067644537e+00 0.0000000000000000e+00  -5.2803105441729015e+00 3.6121337707813432e+00 0.0000000000000000e+00  -4.9111146705479731e+00 3.1194228752616873e+00 0.0000000000000000e+00  -4.5799502646950421e+00 2.6963871686796961e+00 0.0000000000000000e+00  -4.2585362766494042e+00 2.2649366350476048e+00 0.0000000000000000e+00  -3.9698845607066438e+00 1.9113504104562657e+00 0.0000000000000000e+00  -3.7259335179328779e+00 1.4860338703032827e+00 0.0000000000000000e+00  -3.4942144771907722e+00 1.2476673054580198e+00 0.0000000000000000e+00  -3.2940303532752813e+00 7.6750414142201728e-01 0.0000000000000000e+00  -3.1195126181920543e+00 7.6760715116201872e-01 0.0000000000000000e+00  -2.9592307285778334e+00 9.4769227399844752e-02 0.0000000000000000e+00  -2.8014305446175825e+00 4.6397886627545898e-01 0.0000000000000000e+00  -2.6472442550170401e+00 -2.4360325660896651e-01 0.0000000000000000e+00  -2.4677774795041900e+00 -2.7659789405864954e+00 0.0000000000000000e+00  -3.1272585185096715e+00 -3.6211200905863135e+00 0.0000000000000000e+00  -2.7815122931469962e+00 -4.4325710423108280e+00 0.0000000000000000e+00  -3.4975050030761281e+00 -3.6313271225906982e+00 0.0000000000000000e+00  -3.9012341231534573e+00 -4.1737475101989538e+00 0.0000000000000000e+00  -4.2576549494434275e+00 -4.1219131224115975e+00 0.0000000000000000e+00  -4.7113725436238809e+00 -4.5465951317173081e+00 0.0000000000000000e+00  -5.2330226177593229e+00 -4.8207839159511563e+00 0.0000000000000000e+00  -5.6363934782017742e+00 -5.0008789610055757e+00 0.0000000000000000e+00  -5.9218422968995004e+00 -4.8966528670111371e+00 0.0000000000000000e+00  -6.3084435784318211e+00 -4.9759899447208040e+00 0.0000000000000000e+00  -6.5545681200268939e+00 -4.6297339397294488e+00 0.0000000000000000e+00  -6.4772433846677702e+00 -3.4464558633698013e+00 0.0000000000000000e+00  -7.2036774213984884e+00 -3.3339723235904284e+00 0.0000000000000000e+00  -5.2149299071490942e+00 8.9537089605576914e-01 0.0000000000000000e+00  -1.3566281339326983e+01 -1.0402615783651177e+01 0.0000000000000000e+00  -1.4034773151542190e+01 -9.8600177852277682e+00 0.0000000000000000e+00  -1.4239113191501280e+01 -8.8868509422569790e+00 0.0000000000000000e+00  -1.4509810273600634e+01 -8.1663490276269695e+00 0.0000000000000000e+00  -1.4904256258805606e+01 -7.5690026417662297e+00 0.0000000000000000e+00  -1.5433909250467124e+01 -7.2314260373974983e+00 0.0000000000000000e+00  -1.6040789100803828e+01 -7.0134416279011713e+00 0.0000000000000000e+00  -1.6663235242479111e+01 -6.8643034449660556e+00 0.0000000000000000e+00  -1.7240151903734898e+01 -6.3471899610813871e+00 0.0000000000000000e+00  -1.7720567091426243e+01 -6.0608882529185939e+00 0.0000000000000000e+00  -1.8071043555553565e+01 -4.7720223758497271e+00 0.0000000000000000e+00  -1.8281863150625920e+01 -4.0934103634189780e+00 0.0000000000000000e+00  -1.8364090349449157e+01 -1.9397506520379939e+00 0.0000000000000000e+00  -1.8344000668763925e+01 -1.1357217997683584e+00 0.0000000000000000e+00  -1.8273554618267529e+01 1.3126058811554142e+00 0.0000000000000000e+00  -1.8192022668468407e+01 1.4654176213220553e+00 0.0000000000000000e+00  -1.8174