<?xml version="1.0"?>
<VTKFile type="UnstructuredGrid"  version="0.1"  >
<UnstructuredGrid>
<Piece  NumberOfPoints="1933" NumberOfCells="3640">
<Points>
<DataArray  type="Float64"  NumberOfComponents="3"  format="ascii">0.4754577948028688 0.0002936944398557423 0  5.475457811688506 0.0002736814338333115 0  5.475487857580459 7.500273739856892 0  0.4754878214739209 7.500293719209055 0  10.4754578315435 0.0002536120055135892 0  10.47548792509613 7.500253682787758 0  15.47545788442915 0.0002334537566475786 0  15.47548804138542 7.500233528510866 0  20.4754580045304 0.0002132005179622254 0  20.47548822374911 7.500213276054328 0  25.47545822459108 0.000192862042648443 0  25.47548848963549 7.50019293743758 0  30.4754585744522 0.0001724582008405336 0  30.47548885623988 7.500172533549301 0  35.47545908121159 0.0001520156942731632 0  35.47548934021219 7.500152091551305 0  40.47545976997486 0.0001315663282060653 0  40.47548995756315 7.500131643459314 0  45.47546066476743 0.0001111463053782835 0  45.47549072371141 7.500111225581914 0  50.47546178943908 9.079623609474768e-05 0  50.47549165359415 7.500090878600225 0  55.47546316850242 7.056169913779498e-05 0  55.47549276177355 7.500070648162319 0  60.47546482789423 5.049428248415846e-05 0  60.47549406248308 7.500050585939081 0  65.47546679566209 3.065310315354664e-05 0  65.47549556955749 7.500030751148315 0  70.47546910257424 1.110686654757413e-05 0  70.47549729618483 7.500011212608593 0  75.47547178264126 -8.063411217003585e-06 0  75.47549925439687 7.499992051441362 0  80.47547487350506 -2.676081784512183e-05 0  80.47550145418087 7.499973364608402 0  85.47547841660949 -4.486779232200681e-05 0  85.47550390204096 7.499955269559643 0  90.47548245697158 -6.223975123598375e-05 0  90.47550659875841 7.49993791038578 0  95.47548704222545 -7.869641465302888e-05 0  95.47550953598834 7.499921466032833 0  100.4754922203094 -9.400980742991789e-05 0  100.475512691185 7.499906161353068 0  105.4754980346215 -0.0001078873794890718 0  105.4755160201795 7.499892282041468 0  110.4755045144167 -0.0001199478676996758 0  110.475519446599 7.499880194803763 0  115.4755116561988 -0.0001296862750702454 0  115.4755228474101 7.499870374297298 0  120.4755193879446 -0.0001364225194143077 0  120.4755260346338 7.499863438111758 0  125.4755275003744 -0.0001392258696915425 0  125.4755287358837 7.499860189400092 0  130.4755355145539 -0.0001368048410429111 0  130.4755305834907 7.499861661621652 0  135.4755424256795 -0.0001273530182582345 0  135.4755311397444 7.499869146892092 0  140.4755462038162 -0.0001083600210731476 0  140.4755300284812 7.499884162132631 0  145.475542807607 -7.650204464311312e-05 0  145.4755273461317 7.499908270198477 0  150.475524166908 -2.8263854752672e-05 0  150.4755247901257 7.499942748510972 0  160.4755282581476 1.32826898086345e-18 0  165.4754659345477 -8.918181394229116e-05 0  165.4755169355348 7.499896749572438 0  160.4755346187995 7.499966107821186 0  170.4754329893236 -0.0001632175331503624 0  170.4754988261083 7.499829786639796 0  175.475415522881 -0.0002266019993307006 0  175.4754841044692 7.499769581031262 0  180.4754065535281 -0.0002818076930254581 0  180.4754731320515 7.499716005601683 0  185.4754023728553 -0.0003306586462828528 0  185.4754653507491 7.499668048050654 0  190.4754009416623 -0.0003745588330178359 0  190.4754600515523 7.499624656641055 0  195.4754011066222 -0.0004145792468509169 0  195.4754566042005 7.499584934712299 0  200.4754021975177 -0.0004515311546975785 0  200.475454507597 7.499548162952006 0  205.4754038140877 -0.0004860299428244832 0  205.4754533818468 7.49951377608514 0  210.4754057107634 -0.0005185461059580413 0  210.4754529450507 7.499481331531666 0  215.4754077330338 -0.0005494436288980164 0  215.4754529897899 7.499450481169978 0  220.4754097815203 -0.0005790080014298033 0  220.4754533636944 7.499420948718044 0  225.475411791186 -0.0006074664152394414 0  225.4754539546105 7.499392512455626 0  230.4754137189844 -0.0006350023127795801 0  230.4754546796999 7.499364992276707 0  235.4754155363204 -0.0006617659352217411 0  235.4754554775645 7.499338240032662 0  240.4754172243256 -0.0006878820537149369 0  240.475456302598 7.499312132305549 0  245.475418770836 -0.0007134557134236076 0  245.4754571209386 7.499286564955912 0  250.4754201684237 -0.0007385765648629897 0  250.4754579075675 7.499261448964817 0  255.4754214131211 -0.0007633221789220836 0  255.4754586442336 7.49923670722568 0  260.4754225036073 -0.0007877606181473962 0  260.4754593179654 7.499212272042236 0  265.4754234407442 -0.0008119524492173824 0  265.475459920023 7.499188083164012 0  270.4754242273714 -0.0008359523161085024 0  270.475460445176 7.499164086248421 0  275.4754248683506 -0.00085981013883643 0  275.4754608912131 7.499140231687304 0  280.475425370828 -0.0008835719478555327 0  280.4754612586401 7.499116473782484 0  285.475425744741 -0.000907280295943867 0  285.4754615504899 7.499092770307926 0  290.4754260035481 -0.0009309740874366447 0  290.4754617722017 7.49906908256376 0  295.4754261651597 -0.0009546874945436828 0  295.4754619315075 7.499045376118072 0  300.4754262528806 -0.0009784473295173931 0  300.475462038299 7.49902162255205 0  305.4754262958493 -0.001002267697241835 0  305.4754621045795 7.498997802664442 0  310.4754263275961 -0.001026139797731201 0  310.4754621450488 7.498973911728545 0  5.475517718134032 15.00027387760933 0  0.4755176779055516 15.00029378205202 0  10.47551778780406 15.00025384564998 0  15.47551790227543 15.00023369448999 0  20.47551807222116 15.00021343688914 0  25.47551830648269 15.00019309135866 0  30.47551861316593 15.00017268169706 0  35.47551899993122 15.00015223624173 0  40.4755194739536 15.00013178736512 0  45.47552004175466 15.00011137135804 0  50.47552070897365 15.000091028714 0  55.47552148008147 15.00007080480167 0  60.47552235801256 15.00005075092471 0  65.47552334367458 15.00003092579449 0  70.47552443528355 15.00001139747298 0  75.47552562746601 14.99999224588026 0  80.47552691005669 14.99997356600137 0  85.47552826652182 14.9999554719723 0  90.47552967194527 14.99993810227 0  95.47553109056197 14.9999216262646 0  100.4755324729338 14.99990625238232 0  105.4755337531241 14.99989223800851 0  110.4755348467332 14.99987990088431 0  115.4755356516469 14.99986963082311 0  120.4755360551044 14.99986189850759 0  125.4755359536451 14.99985725379563 0  130.4755352969792 14.99985629725154 0  135.4755341723958 14.999859591592 0  140.4755329495819 14.99986744658748 0  145.4755324933027 14.99987944153572 0  150.4755343763672 14.99989336265204 0  165.4755436976988 14.99985886236839 0  160.475546246942 14.99990711841726 0  170.4755372734704 14.999807042149 0  175.4755294230252 14.99975601927336 0  180.4755217795488 14.99970782980986 0  185.4755150967245 14.99966303220574 0  190.4755096065695 14.999621516792 0  195.4755052822338 14.99958292797579 0  200.4755019877614 14.99954685479015 0  205.4754995549901 14.9995129083979 0  210.4754978195867 14.99948074816376 0  215.4754966357013 14.99945008567135 0  220.4754958800839 14.9994206801919 0  225.4754954514048 14.99939233158812 0  230.4754952676902 14.99936487314082 0  235.4754952632866 14.99933816520215 0  240.4754953859608 14.99931208989275 0  245.4754955943797 14.99928654678646 0  250.4754958560188 14.99926144943857 0  255.4754961454731 14.99923672260141 0  260.4754964431124 14.99921229999146 0  265.4754967340193 14.99918812249929 0  270.4754970071539 14.99916413676318 0  275.4754972546884 14.9991402940552 0  280.4754974714684 14.9991165494531 0  285.4754976545764 14.99909286129412 0  290.4754978029646 14.9990691909186 0  295.4754979172073 14.9990455026969 0  300.4754979994561 14.99902176424841 0  305.4754980538693 14.9989979464899 0  310.4754980880073 14.99897402240082 0  5.475547373692754 22.50027416119377 0  0.4755473339325073 22.50029399575506 0  10.47554743236805 22.50025415119045 0  15.47554752132118 22.50023399730228 0  20.47554764702383 22.5002137266475 0  25.47554781315226 22.50019336580463 0  30.47554802182444 22.50017294271353 0  35.47554827416165 22.50015248755987 0  40.47554857042048 22.50013203327127 0  45.47554890987149 22.50011161596395 0  50.47554929052859 22.50009127550964 0  55.47554970877565 22.50007105630836 0  60.47555015890789 22.50005100831792 0  65.47555063258764 22.50003118838199 0  70.47555111820832 22.50001166190085 0  75.47555160016874 22.49999250489547 0  80.47555205807457 22.49997380651833 0  85.47555246592511 22.49995567205454 0  90.47555279140889 22.49993822642144 0  95.47555299554979 22.49992161808627 0  100.4755530331368 22.49990602313395 0  105.4755528546702 22.49989164885013 0  110.4755524110057 22.49987873549799 0  115.4755516624913 22.49986755373772 0  120.4755505951034 22.49985839301904 0  125.4755492466547 22.49985153280035 0  130.4755477458015 22.49984718311817 0  135.4755463635609 22.49984537381041 0  140.4755455676938 22.49984576460629 0  145.4755460478146 22.49984735104757 0  150.4755486340158 22.49984809444831 0  165.4755631399068 22.49981664371776 0  160.4755587610348 22.49985164485806 0  170.4755638343397 22.49977677727715 0  175.4755619613041 22.49973506188252 0  180.4755586623551 22.49969352433938 0  185.4755548120308 22.49965329091232 0  190.4755509681062 22.49961485463245 0  195.475547437837 22.49957833501771 0  200.475544360696 22.4995436574793 0  205.475541774629 22.49951066024329 0  210.4755396614257 22.49947915266339 0  215.4755379752576 22.4994489446107 0  220.4755366595547 22.49941985977638 0  225.4755356564064 22.49939174048233 0  230.4755349114025 22.49936444826032 0  235.4755343758139 22.49933786249568 0  240.4755340072832 22.49931187832807 0  245.4755337697294 22.49928640439907 0  250.4755336328686 22.49926136071796 0  255.4755335715874 22.49923667675395 0  260.4755335652767 22.49921228978367 0  265.4755335971976 22.49918814348637 0  270.475533653896 22.49916418676687 0  275.4755337246779 22.49914037278151 0  280.4755338011433 22.49911665814123 0  285.4755338767851 22.49909300225628 0  290.4755339466724 22.49906936676124 0  295.4755340072684 22.499045
[...]
<PointData  Vectors="v"> 
<DataArray  type="Float64"  Name="v"  NumberOfComponents="3" format="ascii">3.3600981811482900e+00 6.6674764271168145e+00 0.0000000000000000e+00  3.8275883387548828e+00 6.0402797785969335e+00 0.0000000000000000e+00  3.3158246367790682e+00 5.3393098035927258e+00 0.0000000000000000e+00  2.9519908932990608e+00 6.1215459077420507e+00 0.0000000000000000e+00  4.3707635217528864e+00 6.3032797954666684e+00 0.0000000000000000e+00  3.7828510483966302e+00 5.4892371187696503e+00 0.0000000000000000e+00  4.8035746595563715e+00 6.8723361176415265e+00 0.0000000000000000e+00  4.3249705761345130e+00 6.2243575721545783e+00 0.0000000000000000e+00  5.1261363971637026e+00 6.7458163237928641e+00 0.0000000000000000e+00  4.7561146076101588e+00 6.2636382484815085e+00 0.0000000000000000e+00  5.5568271811534817e+00 7.0998969525809379e+00 0.0000000000000000e+00  5.0764281189939107e+00 6.4559199860752159e+00 0.0000000000000000e+00  5.8516674781020583e+00 6.9873504095335974e+00 0.0000000000000000e+00  5.5044518769385222e+00 6.5475663143624079e+00 0.0000000000000000e+00  5.8242411232635574e+00 6.4630303069954937e+00 0.0000000000000000e+00  5.7961284710238647e+00 6.5068592498414866e+00 0.0000000000000000e+00  6.5997203073594219e+00 7.0259177822059717e+00 0.0000000000000000e+00  5.7652104628485841e+00 5.8656529333767127e+00 0.0000000000000000e+00  4.6655091157718251e+00 3.5490429457610406e+00 0.0000000000000000e+00  6.5369780263940402e+00 6.4535990133022789e+00 0.0000000000000000e+00  1.3082840108245200e+01 1.5384445322098255e+01 0.0000000000000000e+00  4.5988751559416672e+00 2.7615220617760743e+00 0.0000000000000000e+00  1.3612559804496851e+01 1.5034550664923961e+01 0.0000000000000000e+00  1.3011735774377831e+01 1.4243754183313101e+01 0.0000000000000000e+00  1.3867368733617582e+01 1.4128801230505553e+01 0.0000000000000000e+00  1.3536956691048950e+01 1.3749943014172981e+01 0.0000000000000000e+00  1.4190942854735100e+01 1.3272120133909782e+01 0.0000000000000000e+00  1.3787518001591717e+01 1.2790221264663174e+01 0.0000000000000000e+00  1.4643330279191764e+01 1.2630835981203591e+01 0.0000000000000000e+00  1.4106747600381311e+01 1.1955575646752225e+01 0.0000000000000000e+00  1.5239899108764350e+01 1.2201490202359459e+01 0.0000000000000000e+00  1.4554959685037373e+01 1.1310131162591384e+01 0.0000000000000000e+00  1.5921608389416386e+01 1.1865200031432510e+01 0.0000000000000000e+00  1.5147209703152683e+01 1.0845705361706171e+01 0.0000000000000000e+00  1.6625440711249833e+01 1.1707549607921226e+01 0.0000000000000000e+00  1.5824728942412881e+01 1.0654615979453563e+01 0.0000000000000000e+00  1.7288639826380766e+01 1.1416347630904063e+01 0.0000000000000000e+00  1.6524986097773361e+01 1.0423969285838391e+01 0.0000000000000000e+00  1.7856539822026249e+01 1.1028880339463784e+01 0.0000000000000000e+00  1.7184922051470465e+01 1.0178404297355591e+01 0.0000000000000000e+00  1.8290499904562974e+01 1.0435069702870187e+01 0.0000000000000000e+00  1.7750575194517332e+01 9.7847654429601754e+00 0.0000000000000000e+00  1.8576424145013448e+01 9.6611982885489880e+00 0.0000000000000000e+00  1.8183393791678721e+01 9.2315373236885350e+00 0.0000000000000000e+00  1.8717032605356280e+01 8.3690085360860298e+00 0.0000000000000000e+00  1.8469885111720366e+01 8.1560847425482237e+00 0.0000000000000000e+00  1.8731122017063825e+01 7.2711740352210574e+00 0.0000000000000000e+00  1.8612118677890809e+01 7.2455921205399951e+00 0.0000000000000000e+00  1.8658211655059183e+01 5.2483053703133367e+00 0.0000000000000000e+00  1.8631408102143759e+01 5.3526660709191161e+00 0.0000000000000000e+00  1.8531604817320993e+01 3.9963062715863882e+00 0.0000000000000000e+00  1.8563812805313944e+01 4.1765237897036300e+00 0.0000000000000000e+00  1.8399317815759389e+01 1.4813554199475729e+00 0.0000000000000000e+00  1.8448722515988802e+01 1.6714962802174742e+00 0.0000000000000000e+00  1.8281984717830383e+01 5.6711767915914213e-01 0.0000000000000000e+00  1.8326048265850758e+01 7.2659619247453833e-01 0.0000000000000000e+00  1.8210703628457878e+01 -1.8187265075097767e+00 0.0000000000000000e+00  1.8228396540168408e+01 -1.7232069495859759e+00 0.0000000000000000e+00  1.8172538200280847e+01 -1.6702028351375562e+00 0.0000000000000000e+00  1.8171210140491805e+01 -1.6380626822220834e+00 0.0000000000000000e+00  1.8163563197345578e+01 6.0607171888083711e-11 0.0000000000000000e+00  1.8164429345542590e+01 8.6011278158197016e-04 0.0000000000000000e+00  1.8163563200131808e+01 -6.8929315058754119e-19 0.0000000000000000e+00  1.1542730348045353e+01 9.4213766898430026e-03 0.0000000000000000e+00  1.8177148021870732e+01 9.9368657772748712e+00 0.0000000000000000e+00  1.8164421974811638e+01 -8.7385396852417596e-04 0.0000000000000000e+00  1.2947567353773461e+01 -9.4289341014521755e-01 0.0000000000000000e+00  1.1559060230787239e+01 -3.0473952655425522e+00 0.0000000000000000e+00  1.1085627631268016e+01 -5.9966833576042795e+00 0.0000000000000000e+00  1.2965194167030722e+01 -3.2117390630528946e+00 0.0000000000000000e+00  1.0978874175953010e+01 -6.9633328508305192e+00 0.0000000000000000e+00  1.1107743666164190e+01 -6.8082820975197169e+00 0.0000000000000000e+00  1.0054965758120957e+01 -1.0016552637964374e+01 0.0000000000000000e+00  1.1008241477752692e+01 -8.6390132166581015e+00 0.0000000000000000e+00  9.4676954581611934e+00 -1.1168356323848815e+01 0.0000000000000000e+00  1.0093080255603482e+01 -1.0296223788666616e+01 0.0000000000000000e+00  8.7592802289004723e+00 -1.2349666629159328e+01 0.0000000000000000e+00  9.5155532600712700e+00 -1.1297507092808459e+01 0.0000000000000000e+00  8.1704167508594399e+00 -1.2540025568781481e+01 0.0000000000000000e+00  8.8184853545982929e+00 -1.1667398088905864e+01 0.0000000000000000e+00  7.3917555255532372e+00 -1.2493113627866032e+01 0.0000000000000000e+00  8.2417663164458421e+00 -1.1336999936205574e+01 0.0000000000000000e+00  6.8747705893406792e+00 -1.1725735083766939e+01 0.0000000000000000e+00  7.4759637143469080e+00 -1.0962635856122475e+01 0.0000000000000000e+00  6.4816803837621721e+00 -1.0807318672608709e+01 0.0000000000000000e+00  6.9726928665430181e+00 -1.0230554232723735e+01 0.0000000000000000e+00  6.0331125762407369e+00 -9.8655831430575827e+00 0.0000000000000000e+00  6.5938709627459380e+00 -9.2061066086108028e+00 0.0000000000000000e+00  5.5938867392985330e+00 -8.9215908788794032e+00 0.0000000000000000e+00  6.1599911212572414e+00 -8.2765494210734758e+00 0.0000000000000000e+00  5.1680123192236946e+00 -8.0763810276271997e+00 0.0000000000000000e+00  5.7359663531467531e+00 -7.4515759138822606e+00 0.0000000000000000e+00  4.7201225155847393e+00 -7.3031928064510696e+00 0.0000000000000000e+00  5.3256093248878553e+00 -6.6456486764338445e+00 0.0000000000000000e+00  4.2992555525159339e+00 -6.5595563015899438e+00 0.0000000000000000e+00  4.8934329500030724e+00 -5.9427176942307707e+00 0.0000000000000000e+00  3.9162548727669866e+00 -5.8901172833125077e+00 0.0000000000000000e+00  4.4885075369495846e+00 -5.3301303501606156e+00 0.0000000000000000e+00  3.5431996525075600e+00 -5.2601891310383095e+00 0.0000000000000000e+00  4.1215318019699003e+00 -4.7152076043461504e+00 0.0000000000000000e+00  3.2033908688739157e+00 -4.6460810899169269e+00 0.0000000000000000e+00  3.7645394773736576e+00 -4.1509578353305159e+00 0.0000000000000000e+00  2.9088875841004613e+00 -4.0908780505452293e+00 0.0000000000000000e+00  3.4407705075172164e+00 -3.6636971630129151e+00 0.0000000000000000e+00  2.6278564483728832e+00 -3.5225484860545899e+00 0.0000000000000000e+00  3.1623201030584944e+00 -3.1154495615967592e+00 0.0000000000000000e+00  2.3790832293518878e+00 -3.0336821395550997e+00 0.0000000000000000e+00  2.8971201290593762e+00 -2.6750040947498390e+00 0.0000000000000000e+00  2.1579371338241375e+00 -2.5005701331575021e+00 0.0000000000000000e+00  2.6642685719909793e+00 -2.1829933208123475e+00 0.0000000000000000e+00  1.9512942955199419e+00 -2.1520440604017326e+00 0.0000000000000000e+00  2.4585447811354157e+00 -1.8564668971282230e+00 0.0000000000000000e+00  1.7505322724369452e+00 -1.6033495334811716e+00 0.0000000000000000e+00  2.2677666345237619e+00 -1.3158040970271276e+00 0.0000000000000000e+00  1.5510772198502922e+00 -1.5713764166445188e+00 0.0000000000000000e+00  2.0816527794642674e+00 -1.2867494633332104e+00 0.0000000000000000e+00  1.3348692971415421e+00 -9.1904999117831565e-01 0.0000000000000000e+00  1.8983931179466624e+00 -6.0729359831942609e-01 0.0000000000000000e+00  1.0167798866974571e+00 -1.4605990984095625e+00 0.0000000000000000e+00  1.6953191459118295e+00 -9.9898453877226612e-01 0.0000000000000000e+00  5.0499041686594659e-01 -1.2334874599025945e+00 0.0000000000000000e+00  1.3953783348080819e+00 -4.7574168601160965e-01 0.0000000000000000e+00  -6.9792162940486280e-01 -1.8339424197602439e-01 0.0000000000000000e+00  8.9085284500054207e-01 1.6002759442005439e+00 0.0000000000000000e+00  3.0458206212775849e+00 4.7938166843450096e+00 0.0000000000000000e+00  2.6385477667975374e+00 5.5102019722219868e+00 0.0000000000000000e+00  3.4089419203916083e+00 4.7895995177427073e+00 0.0000000000000000e+00  3.8740606178924777e+00 5.4127636329434683e+00 0.0000000000000000e+00  4.4130770058584039e+00 5.6192521290461936e+00 0.0000000000000000e+00  4.8398751301753213e+00 5.9785933404161682e+00 0.0000000000000000e+00  5.1545503174448104e+00 5.9092680803948996e+00 0.0000000000000000e+00  5.5758391989500389e+00 6.0736906779212143e+00 0.0000000000000000e+00  5.8598544501789567e+00 5.9169728899378935e+00 0.0000000000000000e+00  5.8204999438172278e+00 5.3009111021093576e+00 0.0000000000000000e+00  6.5838975881619479e+00 5.6733946888558879e+00 0.0000000000000000e+00  4.6372941682306843e+00 1.6305650277093882e+00 0.0000000000000000e+00  1.3038970299857795e+01 1.2968977947213485e+01 0.0000000000000000e+00  1.3553283070504470e+01 1.2419663641981119e+01 0.0000000000000000e+00  1.3794674333427141e+01 1.1482569506529222e+01 0.0000000000000000e+00  1.4104291861746551e+01 1.0643259961037483e+01 0.0000000000000000e+00  1.4542755698087177e+01 9.9635024879377614e+00 0.0000000000000000e+00  1.5124378563345349e+01 9.6450554388552909e+00 0.0000000000000000e+00  1.5790490403250809e+01 9.3801871819389859e+00 0.0000000000000000e+00  1.6479169293279863e+01 9.1952438520649338e+00 0.0000000000000000e+00  1.7127525206892987e+01 8.9432545314747891e+00 0.0000000000000000e+00  1.7681773826317748e+01 8.5879197232349345e+00 0.0000000000000000e+00  1.8104764703814226e+01 7.7316791627144692e+00 0.0000000000000000e+00  1.8382912989812997e+01 7.0356590821144120e+00 0.0000000000000000e+00  1.8519679446007665e+01 5.3258633018792683e+00 0.0000000000000000e+00  1.8536761455274661e+01 4.2757661647687275e+00 0.0000000000000000e+00  1.8472669727329617e+01 1.8424640164313761e+00 0.0000000000000000e+00  1.8364609807573309e+01 8.9811716676796027e-01 0.0000000000000000e+00  1.8260534145882588e+01 -1.5821304416537285e+00 0.0000000000000000e+00  1.8182348831672403e+01 -1.5819268494694396e+00 0.0000000000000000e+00  1.8166525154136032e+01 1.6410121359132621e-03 0.0000000000000000e+00  1.8181392452624440e+01 9.8780982278950571e+00 0.0000000000000000e+00  1.8166511486831951e+01 -1.7683851017150499e-03 0.0000000000000000e+00  1.8237895440116890e+01 6.8785463201770769e+00 0.0000000000000000e+00  1.1610463118717735e+01 -5.3123949236469672e+00 0.0000000000000000e+00  1.3007713250479020e+01 -4.0213763346253328e+00 0.0000000000000000e+00  1.1150719145253813e+01 -8.4913681745134717e+00 0.0000000000000000e+00  1.1054952477296608e+01 -8.9281124659512638e+00 0.0000000000000000e+00  1.0147372998739296e+01 -1.0435158583532539e+01 0.0000000000000000e+00  9.5779279364094787e+00 -1.0627944205899341e+01 0.0000000000000000e+00  8.8910158566168285e+00 -1.0478286435466398e+01 0.0000000000000000e+00  8.3251428773291263e+00 -9.8205501166322247e+00 0.0000000000000000e+00  7.5708567759624108e+00 -9.4829171904374405e+00 0.0000000000000000e+00  7.0798443195130725e+00 -8.6456006573072504e+00 0.0000000000000000e+00  6.7139568270708354e+00 -7.6335204260997731e+00 0.0000000000000000e+00  6.2934138533882118e+00 -6.8238512780814160e+00 0.0000000000000000e+00  5.8833535061494473e+00 -6.0387244895310612e+00 0.0000000000000000e+00  5.4874152930620674e+00 -5.3031363045513009e+00 0.0000000000000000e+00  5.0698891287651886e+00 -4.7316334157288642e+00 0.0000000000000000e+00  4.6798366213293159e+00 -4.1737430330986713e+00 0.0000000000000000e+00  4.3278389382545548e+00 -3.6243647429464119e+00 0.0000000000000000e+00  3.9857340520133153e+00 -3.1869651483354966e+00 0.0000000000000000e+00  3.6767725434644047e+00 -2.7065517875156324e+00 0.0000000000000000e+00  3.4129113956255135e+00 -2.2858964989405632e+00 0.0000000000000000e+00  3.1620625003495446e+00 -1.8420821722486482e+00 0.0000000000000000e+00  2.9431646619718030e+00 -1.5563328018403404e+00 0.0000000000000000e+00  2.7511779181569986e+00 -1.0373585953571338e+00 0.0000000000000000e+00  2.5734779601254951e+00 -1.0159368329682368e+00 0.0000000000000000e+00  2.4005048713719752e+00 -3.3895601527516778e-01 0.0000000000000000e+00  2.2291249562423818e+00 -7.0340548559991578e-01 0.0000000000000000e+00  2.0389374954913118e+00 -3.0407576276667476e-02 0.0000000000000000e+00  1.7497612081643186e+00 2.3473073551445434e+00 0.0000000000000000e+00  2.9500538710163191e+00 4.1834735380626356e+00 0.0000000000000000e+00  2.5787581803060302e+00 4.9526038425651677e+00 0.0000000000000000e+00  3.3562532438995887e+00 4.2463981521349057e+00 0.0000000000000000e+00  3.7167859783809178e+00 4.7178487446884345e+00 0.0000000000000000e+00  4.1774878492528220e+00 4.8152328543508567e+00 0.0000000000000000e+00  4.7096185141256921e+00 5.3446138481695549e+00 0.0000000000000000e+00  5.1270494053940014e+00 5.4452138475206633e+00 0.0000000000000000e+00  5.4299482065040285e+00 5.4514357885212359e+00 0.0000000000000000e+00  5.8371121759729645e+00 5.5019372473051842e+00 0.0000000000000000e+00  6.1052700089428331e+00 5.3716940428363937e+00 0.0000000000000000e+00  6.0494203631996060e+00 4.5398771231477708e+00 0.0000000000000000e+00  6.7969373273171181e+00 4.5621813906596271e+00 0.0000000000000000e+00  4.8327321780549095e+00 3.8169603512418920e-01 0.0000000000000000e+00  1.3212085931875061e+01 1.1664003240893930e+01 0.0000000000000000e+00  1.3705716824162323e+01 1.1132604827285512e+01 0.0000000000000000e+00  1.3930073988760777e+01 1.0191400294023138e+01 0.0000000000000000e+00  1.4222235916494915e+01 9.3192000658911294e+00 0.0000000000000000e+00  1.4641458871678985e+01 8.7874791425161973e+00 0.0000000000000000e+00  1.5201338960386137e+01 8.3973524436661400e+00 0.0000000000000000e+00  1.5843543847234148e+01 8.1799563175672017e+00 0.0000000000000000e+00  1.6506085538421711e+01 7.9890934278066572e+00 0.0000000000000000e+00  1.7126922390202317e+01 7.7748644015131152e+00 0.0000000000000000e+00  1.7653769887260808e+01 7.1153311573892566e+00 0.0000000000000000e+00  1.8049802803306239e+01 6.6336103295001747e+00 0.0000000000000000e+00  1.8304417944289455e+01 5.1342794961894249e+00 0.0000000000000000e+00  1.8421421493264731e+01 4.2565703264599017e+00 0.0000000000000000e+00  1.8427596804968172e+01 1.9424383969196197e+00 0.0000000000000000e+00  1.8359896994740843e+01 1.0477347177690002e+00 0.0000000000000000e+00  1.8266803045196522e+01 -1.4352262166074037e+00 0.0000000000000000e+00  1.8185124153087706e+01 -1.5135676449944664e+00 0.0000000000000000e+00  1.8169797044331929e+01 2.3476930690404943e-03 0.0000000000000000e+00  1.8175875743608451e+01 9.8259058242002180e+00 0.0000000000000000e+00  1.8169784470400327e+01 -2.5586315419669089e-03 0.0000000000000000e+00  1.8231519943801025e+01 6.7846111424115190e+00 0.0000000000000000e+00  1.8284628131467962e+01 4.6426408558249284e+00 0.0000000000000000e+00  1.1638424671243575e+01 -6.1053594991441198e+00 0.0000000000000000e+00  1.3022496907131083e+01 -5.7072266553931579e+00 0.0000000000000000e+00  1.1167731832625790e+01 -8.7888440315980603e+00 0.0000000000000000e+00  1.1080254407461794e+01 -9.0835334777349424e+00 0.0000000000000000e+00  1.0185022028317057e+01 -9.7837508817129226e+00 0.0000000000000000e+00  9.6292627503042141e+00 -9.4596023952843673e+00 0.0000000000000000e+00  8.9576607740830454e+00 -8.9839610183802652e+00 0.0000000000000000e+00  8.4074217625122287e+00 -8.3644412009716014e+00 0.0000000000000000e+00  7.6696512139436921e+00 -7.9224594999904490e+00 0.0000000000000000e+00  7.1958116483553685e+00 -7.0987843342457344e+00 0.0000000000000000e+00  6.8477142829720234e+00 -6.2076556783998562e+00 0.0000000000000000e+00  6.4457799587940876e+00 -5.4388651169070670e+00 0.0000000000000000e+00  6.0551920860012114e+00 -4.7250333225709884e+00 0.0000000000000000e+00  5.6793329545997517e+00 -4.1214926594040211e+00 0.0000000000000000e+00  5.2823470340950118e+00 -3.6050047657298547e+00 0.0000000000000000e+00  4.9130958464514798e+00 -3.1127843970055560e+00 0.0000000000000000e+00  4.5818728282772607e+00 -2.6901510565272799e+00 0.0000000000000000e+00  4.2603901404919950e+00 -2.2591639873788139e+00 0.0000000000000000e+00  3.9716621802860632e+00 -1.9059680451925431e+00 0.0000000000000000e+00  3.7276152158585592e+00 -1.4810548904139518e+00 0.0000000000000000e+00  3.4957876620720003e+00 -1.2430584630975012e+00 0.0000000000000000e+00  3.2954668623273324e+00 -7.6336852106783970e-01 0.0000000000000000e+00  3.1208131714069371e+00 -7.6373001261752071e-01 0.0000000000000000e+00  2.9603451398358183e+00 -9.1548249523334499e-02 0.0000000000000000e+00  2.8023889930134174e+00 -4.6081536270175699e-01 0.0000000000000000e+00  2.6479659695140230e+00 2.4587565303647363e-01 0.0000000000000000e+00  2.4682839989457532e+00 2.7659607608233450e+00 0.0000000000000000e+00  3.1252452935975774e+00 3.6272188349374241e+00 0.0000000000000000e+00  2.7795554828160824e+00 4.4331801192615474e+00 0.0000000000000000e+00  3.4953659218583200e+00 3.6386392853069607e+00 0.0000000000000000e+00  3.8990193483452718e+00 4.1797394586819410e+00 0.0000000000000000e+00  4.2553605226984867e+00 4.1285721993440578e+00 0.0000000000000000e+00  4.7092377945505781e+00 4.5530283584795992e+00 0.0000000000000000e+00  5.2313888041748662e+00 4.8282330153997082e+00 0.0000000000000000e+00  5.6352316068020789e+00 5.0087175910232915e+00 0.0000000000000000e+00  5.9210456194778596e+00 4.9050944076342216e+00 0.0000000000000000e+00  6.3081943503183417e+00 4.9849981270082298e+00 0.0000000000000000e+00  6.5546793735962456e+00 4.6391575609783251e+00 0.0000000000000000e+00  6.4772259750047549e+00 3.4559784460968661e+00 0.0000000000000000e+00  7.2040146678661241e+00 3.3443392012309729e+00 0.0000000000000000e+00  5.2157519997397666e+00 -8.8424365922573278e-01 0.0000000000000000e+00  1.3565584272927916e+01 1.0412022852789672e+01 0.0000000000000000e+00  1.4034052056672154e+01 9.8694422559579937e+00 0.0000000000000000e+00  1.4238462856293522e+01 8.8962554742648585e+00 0.0000000000000000e+00  1.4509238733812252e+01 8.1758558276863624e+00 0.0000000000000000e+00  1.4903759059020443e+01 7.5785450944155093e+00 0.0000000000000000e+00  1.5433469247766924e+01 7.2408273126283813e+00 0.0000000000000000e+00  1.6040394615379654e+01 7.0231030871233893e+00 0.0000000000000000e+00  1.6662877921189196e+01 6.8740466937980358e+00 0.0000000000000000e+00  1.7239830326042394e+01 6.3573857041876236e+00 0.0000000000000000e+00  1.7720276298210361e+01 6.0714698194022985e+00 0.0000000000000000e+00  1.8070793672908831e+01 4.7841058509943366e+00 0.0000000000000000e+00  1.8281648703191177e+01 4.1059044522086818e+00 0.0000000000000000e+00  1.8363926628490237e+01 1.9552494981506532e+00 0.0000000000000000e+00  1.8343877704021221e+01 1.1522248637407557e+00 0.0000000000000000e+00  1.8273488836410657e+01 -1.2932878589246672e+00 0.0000000000000000e+00  1.8191997138325981e+01 -1.4381489113444201e+00 0.0000000000000000e+00  1.8174118399763632e+01 2.9769724631841890e-03 0.0000000000000000e+00  1.8176364913953595e+01 9.8055885154471554e+00 0.0000000000000000e+00  1.8174106401974882e+01 -3.2573807041013036e-03 0.0000000000000000e+00  1.8190006123203535e+01 6.7023448986464365e+00 0.0000000000000000e+00  1.8236017537287729e+01 4.5672814