<?xml version="1.0"?>
<VTKFile type="UnstructuredGrid"  version="0.1"  >
<UnstructuredGrid>
<Piece  NumberOfPoints="1933" NumberOfCells="3640">
<Points>
<DataArray  type="Float64"  NumberOfComponents="3"  format="ascii">-0.4754371223686342 -0.0008068133384331784 0  4.524562893117779 -0.0007852906362235102 0  4.524530600709227 7.499214744328063 0  -0.475469419037923 7.499193215181299 0  9.524562920798401 -0.0007637933826658652 0  9.524530632669714 7.499236241599639 0  14.52456297425241 -0.0007423153612364304 0  14.52453068108295 7.499257717926835 0  19.52456306388452 -0.0007208423555105884 0  19.52453074896652 7.499279189039658 0  24.52456319662805 -0.0006993563280655801 0  24.52453083809289 7.499300673415767 0  29.52456337643127 -0.0006778372636716266 0  29.52453094883256 7.49932219113975 0  34.52456360481537 -0.0006562639010443679 0  34.52453108003458 7.499343763419065 0  39.52456388129874 -0.0006346138958435594 0  39.52453122892697 7.499365412509163 0  44.52456420364682 -0.000612863672942879 0  44.52453139099534 7.4993871618897 0  49.52456456795478 -0.0005909880912241938 0  49.52453155980259 7.499409036604943 0  54.52456496857582 -0.0005689599742847662 0  54.52453172671993 7.499431063728369 0  59.52456539789975 -0.0005467495207934715 0  59.52453188054174 7.499453272941741 0  64.52456584597356 -0.0005243235823289826 0  64.52453200695065 7.499475697240593 0  69.52456629993489 -0.0005016447755573368 0  69.52453208779109 7.499498373795761 0  74.52456674320895 -0.0004786703738701616 0  74.52453210009233 7.499521345018371 0  79.52456715438038 -0.0004553508964475675 0  79.52453201475915 7.499544659895776 0  84.52456750559973 -0.0004316282750801264 0  84.52453179481654 7.499568375691159 0  89.52456776029292 -0.0004074334247525626 0  89.52453139305096 7.499592560128948 0  94.52456786979344 -0.0003826829646231495 0  94.52453074884291 7.499617294220451 0  99.52456776825009 -0.000357274721432006 0  99.52452978392965 7.499642675906899 0  104.5245673646998 -0.0003310814880663125 0  104.5245283968142 7.49966882467974 0  109.5245665303513 -0.000303942307035017 0  109.524526455604 7.499695887201653 0  114.5245650775865 -0.0002756503440029621 0  114.5245237894113 7.499724043514759 0  119.5245627243556 -0.0002459363775390646 0  119.5245201794478 7.499753512272763 0  124.5245590323909 -0.0002144475790128986 0  124.5245153535003 7.49978455067337 0  129.5245532979476 -0.000180724086931262 0  129.5245089934191 7.499817438491338 0  134.5245443557845 -0.0001441851203840948 0  134.5245007784788 7.499852421958777 0  139.5245302239297 -0.0001041643965480389 0  139.5244905158717 7.499889565117849 0  144.5245074551942 -6.012090760477579e-05 0  144.5244784692191 7.499928404462747 0  149.5244699411597 -1.243983591635462e-05 0  149.5244661214558 7.49996723856797 0  159.5244717418524 6.096795650490473e-19 0  164.5244687985863 -1.893401168490949e-05 0  164.5244714008175 7.499975973270917 0  159.5244694722074 7.499987424855712 0  169.5244728511531 -2.718748199859819e-05 0  169.5244730328 7.499970445538546 0  174.5244795329429 -2.826849012211384e-05 0  174.5244753013489 7.49997055747696 0  179.5244869100364 -2.422401594829137e-05 0  179.5244781646545 7.499975181194804 0  184.524494123611 -1.642693035366883e-05 0  184.5244813859224 7.499983274706525 0  189.5245008143502 -5.839700548002796e-06 0  189.5244847420566 7.499994017914827 0  194.5245068579694 6.850424958521257e-06 0  194.5244880689109 7.500006791476907 0  199.5245122391674 2.114575566120215e-05 0  199.5244912592666 7.50002113186303 0  204.524516990755 3.668057829338213e-05 0  204.5244942496375 7.500036691060154 0  209.524521164293 5.318199667770924e-05 0  209.5244970070511 7.500053205531453 0  214.5245248161438 7.044318259759633e-05 0  214.5244995186452 7.500070473485907 0  219.5245280010898 8.830497703667269e-05 0  219.5245017842397 7.50008833852454 0  224.5245307696568 0.0001066430984741903 0  224.5245038112911 7.500106677907834 0  229.5245331672365 0.0001253591273378692 0  229.5245056115781 7.500125394096939 0  234.5245352340611 0.0001443740540160676 0  234.524507199081 7.500144408598666 0  239.5245370055665 0.0001636235883717704 0  239.5245085886659 7.500163657436365 0  244.5245385129178 0.000183054698373924 0  244.5245097953001 7.500183087778145 0  249.5245397835886 0.0002026230224484584 0  249.5245108336189 7.500202655400513 0  254.5245408419507 0.0002222909173609146 0  254.5245117177261 7.500222322766633 0  259.5245417098573 0.0002420259827915724 0  259.5245124611422 7.500242057569631 0  264.524542407223 0.0002617999598192865 0  264.5245130768558 7.500261831642385 0  269.5245429525993 0.0002815879432535715 0  269.5245135774372 7.500281620174612 0  274.5245433637702 0.0003013678845874059 0  274.5245139751815 7.500301401211191 0  279.5245436583567 0.0003211203997284919 0  279.5245142822678 7.500321155437158 0  284.5245438544346 0.0003408289401913664 0  284.52451451089 7.500340866288157 0  289.5245439711153 0.0003604804457302028 0  289.5245146733471 7.50036052046307 0  294.5245440289793 0.0003800666784070992 0  294.5245147820551 7.500380108957219 0  299.5245440500961 0.0003995865436620008 0  299.5245148494885 7.500399628775474 0  304.5245440570443 0.0004190497891801888 0  304.5245148881585 7.500419085516279 0  309.5245440696715 0.0004384822663526637 0  309.5245149110224 7.50043849708349 0  4.524498255048271 14.99921481653477 0  -0.4755017638574051 14.99919328484279 0  9.524498278943923 14.99923630513639 0  14.52449830964696 14.99925777035568 0  19.52449834702736 14.9992792309566 0  24.52449838986209 14.99930070613571 0  29.52449843598315 14.99932221582353 0  34.52449848216825 14.99934378077993 0  39.52449852394439 14.99936542273328 0  44.52449855535328 14.99938716461656 0  49.52449856868369 14.99940903090185 0  54.52449855415659 14.99943104802681 0  59.52449849954552 14.99945324491331 0  64.52449838971255 14.99947565358647 0  69.5244982060396 14.99949830991048 0  74.52449792573879 14.99952125446414 0  79.5244975210282 14.99954453358218 0  84.52449695817836 14.99956820058536 0  89.52449619646455 14.9995923172054 0  94.52449518712893 14.99961695516442 0  99.52449387258761 14.9996421977617 0  104.5244921863569 14.99966814109423 0  109.5244900546036 14.99969489407987 0  114.524487400953 14.99972257555779 0  119.52448415736 14.99975130505265 0  124.5244802855613 14.99978118071242 0  129.5244758157268 14.99981223259214 0  134.5244709103158 14.99984433086242 0  139.5244659581848 14.99987701647374 0  144.5244616863101 14.99990920955629 0  149.5244592170161 14.99993874857153 0  164.5244651711735 14.99996276511216 0  159.5244634320085 14.99996414312778 0  169.524465798202 14.99996335682243 0  174.5244661505125 14.99996684361945 0  179.5244666533838 14.99997328616972 0  184.5244674352244 14.99998235482737 0  189.5244684818449 14.99999361936366 0  194.5244697265624 15.00000666963194 0  199.5244710934491 15.00002115427084 0  204.5244725151167 15.00003678572183 0  209.5244739381446 15.00005333327136 0  214.5244753230879 15.00007061309919 0  219.5244766424635 15.00008847873236 0  224.5244778782721 15.00010681296232 0  229.5244790197023 15.00012552135863 0  234.5244800612303 15.00014452719047 0  239.524481001136 15.00016376749199 0  244.5244818403857 15.00018319002308 0  249.524482581817 15.00020275092161 0  254.5244832295526 15.00022241288949 0  259.5244837885879 15.0002421437963 0  264.5244842645043 15.00026191561763 0  269.524484663274 15.00028170365377 0  274.5244849911205 15.00030148599682 0  279.524485254423 15.00032124323353 0  284.5244854596528 15.00034095838551 0  289.5244856133437 15.00036061709477 0  294.5244857221546 15.00038020805261 0  299.5244857931129 15.00039972362482 0  304.5244858342587 15.00041916051304 0  309.5244858560736 15.00043852004414 0  4.524465903737589 22.4992149403866 0  -0.475534113451343 22.49919343022225 0  9.524465919755638 22.4992364041319 0  14.52446593386757 22.49925784462697 0  19.52446594431827 22.49927928228864 0  24.52446594854165 22.49930073655315 0  29.52446594325231 22.49932222681427 0  34.52446592439019 22.49934377292826 0  39.52446588697749 22.49936539554951 0  44.52446582493118 22.49938711642649 0  49.52446573085514 22.49940895871497 0  54.52446559581911 22.4994309473298 0  59.52446540912908 22.49945310934346 0  64.52446515809547 22.49947547443314 0  69.52446482781107 22.49949807537207 0  74.52446440096821 22.49952094855452 0  79.52446385776526 22.4995441345257 0  84.52446317599231 22.49956767845919 0  89.52446233144492 22.49959163046708 0  94.52446129890693 22.49961604552959 0  99.52446005407548 22.49964098265826 0  104.5244585769949 22.4996665026152 0  109.5244568578104 22.49969266303071 0  114.524454905924 22.49971950900035 0  119.5244527638227 22.49974705610767 0  124.5244505266726 22.49977526129145 0  129.5244483676198 22.49980397536282 0  134.5244465654429 22.49983287052972 0  139.524445523885 22.49986134074766 0  144.5244457585347 22.49988839200551 0  149.5244478085302 22.49991259930946 0  164.5244522999093 22.49994760992733 0  159.5244512086015 22.49994172482024 0  169.5244524039551 22.49995367980195 0  174.5244519780489 22.4999609306475 0  179.5244513911474 22.49996980858901 0  184.5244508706961 22.49998039977834 0  189.5244505244822 22.49999259598921 0  194.5244503826611 22.50000620689391 0  199.5244504328818 22.50002102283991 0  204.5244506435161 22.50003684511492 0  209.5244509771735 22.50005349797057 0  214.5244513977457 22.50007083140664 0  219.5244518735718 22.50008871974255 0  224.5244523784588 22.50010705857847 0  229.524452891604 22.50012576140514 0  234.5244533970285 22.50014475641728 0  239.5244538828441 22.5001639837356 0  244.5244543405192 22.50018339307659 0  249.5244547642132 22.50020294184137 0  254.5244551502107 22.50022259356926 0  259.5244554964463 22.50024231670168 0  264.5244558021202 22.50026208360608 0  269.5244560673852 22.50028186982086 0  274.5244562930989 22.5003016534881 0  279.524456480633 22.50032141494689 0  284.5244566317545 22.50034113645566 0  289.5244567485954 22.50036080199738 0  294.5244568337685 22.50038
[...]
<PointData  Vectors="v"> 
<DataArray  type="Float64"  Name="v"  NumberOfComponents="3" format="ascii">-3.3623473025054538e+00 -6.6665170778355911e+00 0.0000000000000000e+00  -3.8297094870082242e+00 -6.0366106072704113e+00 0.0000000000000000e+00  -3.3180394383307754e+00 -5.3358270086533004e+00 0.0000000000000000e+00  -2.9542040958848381e+00 -6.1205741618336926e+00 0.0000000000000000e+00  -4.3726070631264760e+00 -6.2985916555139365e+00 0.0000000000000000e+00  -3.7849479465539591e+00 -5.4849782174626238e+00 0.0000000000000000e+00  -4.8051476751248350e+00 -6.8678379918724017e+00 0.0000000000000000e+00  -4.3267959277134267e+00 -6.2202826978180514e+00 0.0000000000000000e+00  -5.1274860979907180e+00 -6.7405980234694001e+00 0.0000000000000000e+00  -4.7576623818176591e+00 -6.2587574100460595e+00 0.0000000000000000e+00  -5.5578850296235602e+00 -7.0945076471932857e+00 0.0000000000000000e+00  -5.0777565166190781e+00 -6.4509818268835488e+00 0.0000000000000000e+00  -5.8524889243102898e+00 -6.9814957435247651e+00 0.0000000000000000e+00  -5.5054847692170528e+00 -6.5420688364971893e+00 0.0000000000000000e+00  -5.8251035835954799e+00 -6.4574510745266851e+00 0.0000000000000000e+00  -5.7969256040662120e+00 -6.5012088585717445e+00 0.0000000000000000e+00  -6.6003220770671840e+00 -7.0199301539658139e+00 0.0000000000000000e+00  -5.7660466952456382e+00 -5.8600786565221865e+00 0.0000000000000000e+00  -4.6658347789398924e+00 -3.5429091831163451e+00 0.0000000000000000e+00  -6.5375535759869532e+00 -6.4477866526286469e+00 0.0000000000000000e+00  -1.3084068149898570e+01 -1.5379426309902763e+01 0.0000000000000000e+00  -4.5991711261751522e+00 -2.7554960559996431e+00 0.0000000000000000e+00  -1.3613769943140616e+01 -1.5029396820409435e+01 0.0000000000000000e+00  -1.3012929794466693e+01 -1.4238628759404834e+01 0.0000000000000000e+00  -1.3868464106706355e+01 -1.4123390452573824e+01 0.0000000000000000e+00  -1.3538130366041734e+01 -1.3744691198801206e+01 0.0000000000000000e+00  -1.4191916313037691e+01 -1.3266527860075492e+01 0.0000000000000000e+00  -1.3788575689578753e+01 -1.2784800622444106e+01 0.0000000000000000e+00  -1.4644191314506459e+01 -1.2625015538959452e+01 0.0000000000000000e+00  -1.4107683093869923e+01 -1.1949918688147546e+01 0.0000000000000000e+00  -1.5240669796087866e+01 -1.2195570946473577e+01 0.0000000000000000e+00  -1.4555782223409818e+01 -1.1304348780948697e+01 0.0000000000000000e+00  -1.5922305461409122e+01 -1.1859290261257508e+01 0.0000000000000000e+00  -1.5147940862474448e+01 -1.0839910521316359e+01 0.0000000000000000e+00  -1.6626079238949618e+01 -1.1701623660710883e+01 0.0000000000000000e+00  -1.5825387818372830e+01 -1.0648786563822069e+01 0.0000000000000000e+00  -1.7289228889548742e+01 -1.1410448868830295e+01 0.0000000000000000e+00  -1.6525584888687057e+01 -1.0418150466193135e+01 0.0000000000000000e+00  -1.7857086316096098e+01 -1.1023108950559536e+01 0.0000000000000000e+00  -1.7185471342084192e+01 -1.0172699293606991e+01 0.0000000000000000e+00  -1.8291005978194505e+01 -1.0429218409976368e+01 0.0000000000000000e+00  -1.7751081045384758e+01 -9.7789712479460302e+00 0.0000000000000000e+00  -1.8576892313206695e+01 -9.6553756579513905e+00 0.0000000000000000e+00  -1.8183859046333247e+01 -9.2257622323633122e+00 0.0000000000000000e+00  -1.8717458970173244e+01 -8.3629960280103433e+00 0.0000000000000000e+00  -1.8470307329648289e+01 -8.1501123522162366e+00 0.0000000000000000e+00  -1.8731511076789211e+01 -7.2650634216548973e+00 0.0000000000000000e+00  -1.8612503359084037e+01 -7.2395168829245264e+00 0.0000000000000000e+00  -1.8658550450273268e+01 -5.2414467109936718e+00 0.0000000000000000e+00  -1.8631743124781163e+01 -5.3458411162373078e+00 0.0000000000000000e+00  -1.8531904468287888e+01 -3.9893658765071418e+00 0.0000000000000000e+00  -1.8564108295934918e+01 -4.1696157793749702e+00 0.0000000000000000e+00  -1.8399553400427543e+01 -1.4728874653214885e+00 0.0000000000000000e+00  -1.8448959767031976e+01 -1.6630721148983090e+00 0.0000000000000000e+00  -1.8282174873919654e+01 -5.5824103523203061e-01 0.0000000000000000e+00  -1.8326241840555046e+01 -7.1776964778560848e-01 0.0000000000000000e+00  -1.8210811205130579e+01 1.8288007560514203e+00 0.0000000000000000e+00  -1.8228523265107174e+01 1.7331982351023547e+00 0.0000000000000000e+00  -1.8172578464252876e+01 1.6846774503406632e+00 0.0000000000000000e+00  -1.8171281560207650e+01 1.6524335962352379e+00 0.0000000000000000e+00  -1.8163571108828634e+01 -5.4636065131129016e-05 0.0000000000000000e+00  -1.8164444448293420e+01 -9.6815558621436920e-04 0.0000000000000000e+00  -1.8163563200133165e+01 4.5316102924632318e-19 0.0000000000000000e+00  -1.1542073419044341e+01 -2.5418665814645601e-02 0.0000000000000000e+00  -1.8177118011638779e+01 -9.9539010385140454e+00 0.0000000000000000e+00  -1.8164414106824132e+01 8.2215708866403467e-04 0.0000000000000000e+00  -1.2946671481821266e+01 9.4446067940615186e-01 0.0000000000000000e+00  -1.1558282878599353e+01 3.0486169160746939e+00 0.0000000000000000e+00  -1.1085252441973109e+01 5.9970794482444418e+00 0.0000000000000000e+00  -1.2964188960712075e+01 3.2129739560748827e+00 0.0000000000000000e+00  -1.0978055750964295e+01 6.9684944508847835e+00 0.0000000000000000e+00  -1.1107262778676153e+01 6.8127916477781074e+00 0.0000000000000000e+00  -1.0054200076242603e+01 1.0021875953891190e+01 0.0000000000000000e+00  -1.1007308724315507e+01 8.6444651398036196e+00 0.0000000000000000e+00  -9.4667773900263583e+00 1.1174646347680866e+01 0.0000000000000000e+00  -1.0092211490688110e+01 1.0302307012945707e+01 0.0000000000000000e+00  -8.7583028505009786e+00 1.2356231159143277e+01 0.0000000000000000e+00  -9.5145320310383177e+00 1.1304007699197681e+01 0.0000000000000000e+00  -8.1692967978897268e+00 1.2546612504682034e+01 0.0000000000000000e+00  -8.8174122611609889e+00 1.1673779433225462e+01 0.0000000000000000e+00  -7.3905298983486443e+00 1.2499437422201231e+01 0.0000000000000000e+00  -8.2405553392938664e+00 1.1343171741395288e+01 0.0000000000000000e+00  -6.8735000697443427e+00 1.1731802803055443e+01 0.0000000000000000e+00  -7.4746495436503801e+00 1.0968627642905824e+01 0.0000000000000000e+00  -6.4805457402776989e+00 1.0812790193683011e+01 0.0000000000000000e+00  -6.9713322125595605e+00 1.0236217107047660e+01 0.0000000000000000e+00  -6.0320744683138754e+00 9.8705641929735961e+00 0.0000000000000000e+00  -6.5926464435485057e+00 9.2112203285344112e+00 0.0000000000000000e+00  -5.5929348976404727e+00 8.9261286979114658e+00 0.0000000000000000e+00  -6.1588619342876711e+00 8.2812045712667111e+00 0.0000000000000000e+00  -5.1671211309719203e+00 8.0805799719699714e+00 0.0000000000000000e+00  -5.7349209112758883e+00 7.4558557023800542e+00 0.0000000000000000e+00  -4.7192918120514911e+00 7.3070390621529206e+00 0.0000000000000000e+00  -5.3246230446991474e+00 6.6495773834548730e+00 0.0000000000000000e+00  -4.2984703584794106e+00 6.5631130927237846e+00 0.0000000000000000e+00  -4.8925052755390750e+00 5.9463349621436379e+00 0.0000000000000000e+00  -3.9155120790808922e+00 5.8934423438053347e+00 0.0000000000000000e+00  -4.4876227297566489e+00 5.3335124256706585e+00 0.0000000000000000e+00  -3.5425046016300459e+00 5.2632556468721079e+00 0.0000000000000000e+00  -4.1206877450292350e+00 4.7183400183173756e+00 0.0000000000000000e+00  -3.2027453635779475e+00 4.6489194914166738e+00 0.0000000000000000e+00  -3.7637413729490530e+00 4.1538649718023279e+00 0.0000000000000000e+00  -2.9082955760881242e+00 4.0935182767833869e+00 0.0000000000000000e+00  -3.4400193838364923e+00 3.6664128428713907e+00 0.0000000000000000e+00  -2.6273248992626197e+00 3.5249594029991003e+00 0.0000000000000000e+00  -3.1616214467399284e+00 3.1179461832481117e+00 0.0000000000000000e+00  -2.3786212845822785e+00 3.0358851264042981e+00 0.0000000000000000e+00  -2.8964793655490255e+00 2.6773078329112510e+00 0.0000000000000000e+00  -2.1575419694409148e+00 2.5025699230284832e+00 0.0000000000000000e+00  -2.6636965071703567e+00 2.1850886613783698e+00 0.0000000000000000e+00  -1.9509847576494390e+00 2.1538322376362462e+00 0.0000000000000000e+00  -2.4580359415898276e+00 1.8583824188618514e+00 0.0000000000000000e+00  -1.7502950855462072e+00 1.6049146507679295e+00 0.0000000000000000e+00  -2.2673449049586489e+00 1.3174730036820357e+00 0.0000000000000000e+00  -1.5509390578514224e+00 1.5727686340006002e+00 0.0000000000000000e+00  -2.0812958970682613e+00 1.2882954278270711e+00 0.0000000000000000e+00  -1.3348076565259677e+00 9.2014162114221154e-01 0.0000000000000000e+00  -1.8981424727998326e+00 6.0849395057517253e-01 0.0000000000000000e+00  -1.0168017143253376e+00 1.4616486862505951e+00 0.0000000000000000e+00  -1.6951309567739132e+00 1.0001772227820100e+00 0.0000000000000000e+00  -5.0524026062515759e-01 1.2339164731619763e+00 0.0000000000000000e+00  -1.3952859463697356e+00 4.7651903662733991e-01 0.0000000000000000e+00  6.9812584699974278e-01 1.8347866485031611e-01 0.0000000000000000e+00  -8.9101143263506055e-01 -1.6008738032230914e+00 0.0000000000000000e+00  -3.0479818971161281e+00 -4.7903197271870326e+00 0.0000000000000000e+00  -2.6407121532066555e+00 -5.5092249181125617e+00 0.0000000000000000e+00  -3.4111148909179989e+00 -4.7855253249244782e+00 0.0000000000000000e+00  -3.8761217224831799e+00 -5.4091163970591820e+00 0.0000000000000000e+00  -4.4148594837472688e+00 -5.6147930041027809e+00 0.0000000000000000e+00  -4.8413839663891229e+00 -5.9739913072048108e+00 0.0000000000000000e+00  -5.1558360245229604e+00 -5.9042204353304877e+00 0.0000000000000000e+00  -5.5768299648942312e+00 -6.0683962477267670e+00 0.0000000000000000e+00  -5.8606075196875640e+00 -5.9113264948656497e+00 0.0000000000000000e+00  -5.8212919139705335e+00 -5.2955110389985292e+00 0.0000000000000000e+00  -6.5844256993152959e+00 -5.6676891885946663e+00 0.0000000000000000e+00  -4.6375375056744925e+00 -1.6244313758412687e+00 0.0000000000000000e+00  -1.3040109451636329e+01 -1.2963754349056122e+01 0.0000000000000000e+00  -1.3554400109503360e+01 -1.2414401429601226e+01 0.0000000000000000e+00  -1.3795675149946801e+01 -1.1477084074594371e+01 0.0000000000000000e+00  -1.4105169747249178e+01 -1.0637640732427236e+01 0.0000000000000000e+00  -1.4543519577571772e+01 -9.9578443729978883e+00 0.0000000000000000e+00  -1.5125052296900423e+01 -9.6393413069919447e+00 0.0000000000000000e+00  -1.5791089908007637e+01 -9.3744651011257165e+00 0.0000000000000000e+00  -1.6479708321744589e+01 -9.1896192697925709e+00 0.0000000000000000e+00  -1.7128013541352082e+01 -8.9375280543405555e+00 0.0000000000000000e+00  -1.7682217780808507e+01 -8.5822031307374527e+00 0.0000000000000000e+00  -1.8105162596253752e+01 -7.7257569623748932e+00 0.0000000000000000e+00  -1.8383271152867636e+01 -7.0296275232376439e+00 0.0000000000000000e+00  -1.8519987873949098e+01 -5.3190802542483837e+00 0.0000000000000000e+00  -1.8537028745498130e+01 -4.2688977422510046e+00 0.0000000000000000e+00  -1.8472880475042977e+01 -1.8340860813420019e+00 0.0000000000000000e+00  -1.8364777548124046e+01 -8.8934224335399426e-01 0.0000000000000000e+00  -1.8260640935853512e+01 1.5920517081885854e+00 0.0000000000000000e+00  -1.8182407529185088e+01 1.5962128804499742e+00 0.0000000000000000e+00  -1.8166536192655879e+01 -1.8422612624418178e-03 0.0000000000000000e+00  -1.8181342335371948e+01 -9.8952279208782645e+00 0.0000000000000000e+00  -1.8166495054217499e+01 1.6137925053450355e-03 0.0000000000000000e+00  -1.8237772542003839e+01 -6.8783186673955248e+00 0.0000000000000000e+00  -1.1609575359083978e+01 5.3132850343640134e+00 0.0000000000000000e+00  -1.3006612638277772e+01 4.0267285123826495e+00 0.0000000000000000e+00  -1.1150132419680245e+01 8.4961689996010126e+00 0.0000000000000000e+00  -1.1053927141983880e+01 8.9343246645567387e+00 0.0000000000000000e+00  -1.0146412510221674e+01 1.0441452292936951e+01 0.0000000000000000e+00  -9.5768232318188957e+00 1.0634261551744459e+01 0.0000000000000000e+00  -8.8898646845878027e+00 1.0484252780393161e+01 0.0000000000000000e+00  -8.3238573288655058e+00 9.8263899310608309e+00 0.0000000000000000e+00  -7.5694672929255056e+00 9.4885041404941077e+00 0.0000000000000000e+00  -7.0784093972655446e+00 8.6509057685185731e+00 0.0000000000000000e+00  -6.7126577162053724e+00 7.6383081263552892e+00 0.0000000000000000e+00  -6.2922083849086388e+00 6.8282481110348909e+00 0.0000000000000000e+00  -5.8822310385153358e+00 6.0427336830766221e+00 0.0000000000000000e+00  -5.4863508464150534e+00 5.3068355484107617e+00 0.0000000000000000e+00  -5.0688813476517485e+00 4.7350753677555941e+00 0.0000000000000000e+00  -4.6788706878371453e+00 4.1769318066428349e+00 0.0000000000000000e+00  -4.3269125707484433e+00 3.6273370406488361e+00 0.0000000000000000e+00  -3.9848516423820599e+00 3.1897487316117754e+00 0.0000000000000000e+00  -3.6759365932132542e+00 2.7091229897832365e+00 0.0000000000000000e+00  -3.4121258333444713e+00 2.2882849879852727e+00 0.0000000000000000e+00  -3.1613343668317553e+00 1.8442772491050008e+00 0.0000000000000000e+00  -2.9425020760773761e+00 1.5583427830808503e+00 0.0000000000000000e+00  -2.7505804078380947e+00 1.0391537112104599e+00 0.0000000000000000e+00  -2.5729603811726554e+00 1.0175853427400801e+00 0.0000000000000000e+00  -2.4000596620126964e+00 3.4030885963736890e-01 0.0000000000000000e+00  -2.2287721261333440e+00 7.0470550614642258e-01 0.0000000000000000e+00  -2.0386598113068164e+00 3.1326565940516790e-02 0.0000000000000000e+00  -1.7496020995240653e+00 -2.3475579080473685e+00 0.0000000000000000e+00  -2.9521799938704425e+00 -4.1799685682463128e+00 0.0000000000000000e+00  -2.5808642002963569e+00 -4.9515823364145204e+00 0.0000000000000000e+00  -3.3583863050561478e+00 -4.2423071184808796e+00 0.0000000000000000e+00  -3.7189367710892807e+00 -4.7143836231597085e+00 0.0000000000000000e+00  -4.1795197739839169e+00 -4.8111989742704893e+00 0.0000000000000000e+00  -4.7113757388326096e+00 -5.3404312671382561e+00 0.0000000000000000e+00  -5.1285292489906924e+00 -5.4405002128836877e+00 0.0000000000000000e+00  -5.4312055077352239e+00 -5.4465893245597474e+00 0.0000000000000000e+00  -5.8380725352697391e+00 -5.4966451080262013e+00 0.0000000000000000e+00  -6.1059924424012024e+00 -5.3662202434551700e+00 0.0000000000000000e+00  -6.0501784765498758e+00 -4.5345820659005565e+00 0.0000000000000000e+00  -6.7974269556915354e+00 -4.5563672286437571e+00 0.0000000000000000e+00  -4.8329345097131275e+00 -3.7546219082261628e-01 0.0000000000000000e+00  -1.3213181990484875e+01 -1.1658769542712287e+01 0.0000000000000000e+00  -1.3706789539734235e+01 -1.1127277036820377e+01 0.0000000000000000e+00  -1.3931029970450746e+01 -1.0185951891964626e+01 0.0000000000000000e+00  -1.4223068226268550e+01 -9.3137047041812089e+00 0.0000000000000000e+00  -1.4642178599845876e+01 -8.7819015553700623e+00 0.0000000000000000e+00  -1.5201966739414953e+01 -8.3917458598561350e+00 0.0000000000000000e+00  -1.5844096975853121e+01 -8.1744292955466236e+00 0.0000000000000000e+00  -1.6506576651879012e+01 -7.9834486159036047e+00 0.0000000000000000e+00  -1.7127361438924918e+01 -7.7692174422281974e+00 0.0000000000000000e+00  -1.7654158735315917e+01 -7.1094708967243143e+00 0.0000000000000000e+00  -1.8050147761991802e+01 -6.6276328043697541e+00 0.0000000000000000e+00  -1.8304710868403038e+01 -5.1275470394090696e+00 0.0000000000000000e+00  -1.8421671337061035e+01 -4.2497504690444314e+00 0.0000000000000000e+00  -1.8427788822535842e+01 -1.9341116257446602e+00 0.0000000000000000e+00  -1.8360044803227364e+01 -1.0390137553501044e+00 0.0000000000000000e+00  -1.8266891150695670e+01 1.4450829861423160e+00 0.0000000000000000e+00  -1.8185167817149242e+01 1.5277798021609850e+00 0.0000000000000000e+00  -1.8169801159123178e+01 -2.6338513803064968e-03 0.0000000000000000e+00  -1.8175849081929144e+01 -9.8431662493679717e+00 0.0000000000000000e+00  -1.8169764375111534e+01 2.3072323405891005e-03 0.0000000000000000e+00  -1.8231396129932509e+01 -6.7844551186014614e+00 0.0000000000000000e+00  -1.8284443438017117e+01 -4.6427077055928772e+00 0.0000000000000000e+00  -1.1637475960557872e+01 6.1103657639711590e+00 0.0000000000000000e+00  -1.3021331749031546e+01 5.7128781309713474e+00 0.0000000000000000e+00  -1.1167092695827010e+01 8.7944069257476283e+00 0.0000000000000000e+00  -1.1079179672409571e+01 9.0899583804491488e+00 0.0000000000000000e+00  -1.0184021062877665e+01 9.7898624098115796e+00 0.0000000000000000e+00  -9.6281238144095589e+00 9.4655055528384366e+00 0.0000000000000000e+00  -8.9564794993750887e+00 8.9895959066613980e+00 0.0000000000000000e+00  -8.4061061206582313e+00 8.3698766307844057e+00 0.0000000000000000e+00  -7.6682330941431758e+00 7.9276890083150056e+00 0.0000000000000000e+00  -7.1943481731273318e+00 7.1037636344422825e+00 0.0000000000000000e+00  -6.8463853332548865e+00 6.2121851844247811e+00 0.0000000000000000e+00  -6.4445442157246315e+00 5.4429914335798921e+00 0.0000000000000000e+00  -6.0540384849076778e+00 4.7288130791390790e+00 0.0000000000000000e+00  -5.6782357015386138e+00 4.1250165613959053e+00 0.0000000000000000e+00  -5.2813056453629823e+00 3.6082533475565262e+00 0.0000000000000000e+00  -4.9120953021948885e+00 3.1158129468587283e+00 0.0000000000000000e+00  -4.5809100109336924e+00 2.6929996467508235e+00 0.0000000000000000e+00  -4.2594708650968371e+00 2.2618029172662952e+00 0.0000000000000000e+00  -3.9707873647046856e+00 1.9084308910140679e+00 0.0000000000000000e+00  -3.7267903610875708e+00 1.4833344852228683e+00 0.0000000000000000e+00  -3.4950171046911023e+00 1.2451678761209370e+00 0.0000000000000000e+00  -3.2947636671926723e+00 7.6525782147088195e-01 0.0000000000000000e+00  -3.1201678415655589e+00 7.6550431175531852e-01 0.0000000000000000e+00  -2.9597871626973955e+00 9.3003355120499370e-02 0.0000000000000000e+00  -2.8018894435721795e+00 4.6226727348222751e-01 0.0000000000000000e+00  -2.6475713251009108e+00 -2.4484951490251128e-01 0.0000000000000000e+00  -2.4679871598355536e+00 -2.7660703343606983e+00 0.0000000000000000e+00  -3.1273014200045939e+00 -3.6236665517402327e+00 0.0000000000000000e+00  -2.7816171179386999e+00 -4.4321484734305079e+00 0.0000000000000000e+00  -3.4974521467482638e+00 -3.6345373711714193e+00 0.0000000000000000e+00  -3.9011185728621012e+00 -4.1762546450399372e+00 0.0000000000000000e+00  -4.2574705961337687e+00 -4.1247175868927464e+00 0.0000000000000000e+00  -4.7112331141881798e+00 -4.5492682428397337e+00 0.0000000000000000e+00  -5.2331059789664582e+00 -4.8239362243489374e+00 0.0000000000000000e+00  -5.6366722299986600e+00 -5.0042025792498732e+00 0.0000000000000000e+00  -5.9222619925846809e+00 -4.9002477870400343e+00 0.0000000000000000e+00  -6.3091139001885148e+00 -4.9798762422545160e+00 0.0000000000000000e+00  -6.5553580975758310e+00 -4.6337860298680820e+00 0.0000000000000000e+00  -6.4779360870950260e+00 -3.4505713001669358e+00 0.0000000000000000e+00  -7.2044552443270256e+00 -3.3384235781586629e+00 0.0000000000000000e+00  -5.2159042415170092e+00 8.9049070546431486e-01 0.0000000000000000e+00  -1.3566628302409249e+01 -1.0406722922527631e+01 0.0000000000000000e+00  -1.4035071584289701e+01 -9.8641491654730551e+00 0.0000000000000000e+00  -1.4239365795545291e+01 -8.8909283238003827e+00 0.0000000000000000e+00  -1.4510020534566097e+01 -8.1704384440735627e+00 0.0000000000000000e+00  -1.4904427961797150e+01 -7.5730732865780874e+00 0.0000000000000000e+00  -1.5434046777667863e+01 -7.2354141795906681e+00 0.0000000000000000e+00  -1.6040896878565260e+01 -7.0175548722300034e+00 0.0000000000000000e+00  -1.6663317693167986e+01 -6.8684813927337691e+00 0.0000000000000000e+00  -1.7240212844727150e+01 -6.3515959948264911e+00 0.0000000000000000e+00  -1.7720610965113533e+01 -6.0655557498728312e+00 0.0000000000000000e+00  -1.8071072987452986e+01 -4.7774316934784204e+00 0.0000000000000000e+00  -1.8281882344561847e+01 -4.0991390144066058e+00 0.0000000000000000e+00  -1.8364101082352526e+01 -1.9469783403181862e+00 0.0000000000000000e+00  -1.8344006461792848e+01 -1.1435600338714560e+00 0.0000000000000000e+00  -1.8273557019523288e+01 1.3030840342055348e+00 0.0000000000000000e+00  -1.8192023390776587e+01 1.4522950530658796e+00 0.0000000000000000e+00  -1.8174