<?xml version="1.0"?>
<VTKFile type="UnstructuredGrid"  version="0.1"  >
<UnstructuredGrid>
<Piece  NumberOfPoints="1933" NumberOfCells="3640">
<Points>
<DataArray  type="Float64"  NumberOfComponents="3"  format="ascii">-0.2940056005579559 0.0009121876144410079 0  4.705994395151229 0.0008811052526362237 0  4.706041039503613 7.50088110766933 0  -0.2939589633171178 7.500912176769406 0  9.705994382999853 0.0008500120453888904 0  9.706041049875477 7.500850021145045 0  14.70599436875897 0.0008188856051964237 0  14.70604107392875 7.50081889813284 0  19.70599436287466 0.0007877116247013156 0  19.70604111867933 7.500787725966287 0  24.70599437764145 0.0007564815242972654 0  24.70604119214311 7.500756496953845 0  29.70599442599667 0.0007251907080866509 0  29.70604130322523 7.500725206998853 0  34.70599452114398 0.0006938373120889267 0  34.70604146164197 7.500693854528048 0  39.70599467660469 0.0006624213463123502 0  39.70604167793772 7.500662439732436 0  44.7059949064944 0.0006309441403095286 0  44.70604196359908 7.500630964069473 0  49.70599522592621 0.0005994080195953202 0  49.70604233125352 7.500599429973446 0  54.70599565149892 0.0005678161606435814 0  54.706042794941 7.500567840732749 0  59.70599620186065 0.0005361725907681887 0  59.70604337045165 7.500536200506947 0  64.7059968983576 0.0005044823151033666 0  64.70604407572968 7.500504514470366 0  69.70599776579203 0.0004727515668269296 0  69.70604493134788 7.500472789082155 0  74.70599883332851 0.0004409881901248964 0  74.70604596106277 7.500441032496577 0  79.70600013560205 0.0004092021800497817 0  79.70604719246298 7.500409255143584 0  84.70600171410779 0.0003774064220064214 0  84.70604865772572 7.50037747053159 0  89.7060036189835 0.0003456177002085511 0  89.70605039449333 7.500345696356803 0  94.7060059113514 0.0003138580861473556 0  94.70605244687303 7.500313956054875 0  99.7060086664671 0.0002821568880323771 0  99.70605486653672 7.500282281016301 0  104.7060119780561 0.0002505534657460985 0  104.7060577138412 7.500250713834075 0  109.7060159644246 0.0002191014443705004 0  109.7060610587674 7.500219313210837 0  114.7060207772602 0.0001878752992973306 0  114.7060649812392 7.500188161614784 0  119.7060266145455 0.0001569811659556762 0  119.706069569914 7.500157377605684 0  124.7060337397525 0.00012657555683988 0  124.7060749176834 7.500127136249247 0  129.7060425104912 9.689964040260083e-05 0  129.7060811106097 7.500097703688793 0  134.7060534208296 6.834583531245176e-05 0  134.706088204616 7.500069496419859 0  139.7060671617201 4.159588923909326e-05 0  139.7060961810519 7.500043182391844 0  144.7060847009602 1.793061332015814e-05 0  144.706104870191 7.500019846047945 0  149.7061073738538 -7.819628373832045e-20 0  149.7061138383696 7.50000121670552 0  159.7061073738538 3.572252382205883e-19 0  164.7060748502122 -3.267262718791719e-05 0  164.7061007672236 7.499963921926749 0  159.7061118215927 7.499990867261582 0  169.7060524560797 -6.662893053696522e-05 0  169.7060893839459 7.499931649145191 0  174.7060363507225 -0.0001014736890666402 0  174.7060792100999 7.499897499575034 0  179.7060244205191 -0.0001366685333918536 0  179.7060705521564 7.499862670228678 0  184.7060153878588 -0.0001718941263412942 0  184.7060633395381 7.499827660858097 0  189.7060084376665 -0.0002069892369591242 0  189.7060573919084 7.499792700994437 0  194.706003028354 -0.0002418788907577279 0  194.7060525126712 7.499757898970357 0  199.7059987868401 -0.0002765321239114233 0  199.7060485215239 7.499723304268108 0  204.7059954474988 -0.0003109401892418436 0  204.7060452636171 7.499688936476649 0  209.7059928155436 -0.000345105655456733 0  209.7060426097252 7.499654799539903 0  214.7059907444462 -0.0003790369195696391 0  214.7060404533127 7.499620889048043 0  219.7059891216016 -0.0004127453685094779 0  219.7060387068978 7.49958719610289 0  224.7059878589478 -0.0004462438503991353 0  224.7060372986258 7.499553709443354 0  229.7059868866338 -0.0004795458120585637 0  229.7060361693372 7.499520416658416 0  234.7059861486136 -0.0005126647914977942 0  234.7060352701606 7.499487304902597 0  239.7059855994901 -0.0005456141121221146 0  239.7060345605734 7.49945436132671 0  244.705985202193 -0.0005784067011612244 0  244.7060340068461 7.499421573335796 0  249.7059849262292 -0.0006110549920733116 0  249.706033580797 7.499388928734422 0  254.7059847463371 -0.0006435708898432938 0  254.7060332587908 7.499356415792247 0  259.7059846414315 -0.0006759657888150943 0  259.7060330209314 7.499324023247371 0  264.7059845937662 -0.0007082506395175233 0  264.7060328504097 7.499291740255799 0  269.7059845882644 -0.0007404360659799153 0  269.7060327329791 7.499259556289206 0  274.7059846119885 -0.0007725325391491994 0  274.7060326565377 7.499227460978894 0  279.7059846537362 -0.0008045506150401831 0  279.7060326108045 7.49919544390136 0  284.705984703769 -0.0008365012465907278 0  284.7060325870781 7.499163494301036 0  289.7059847537103 -0.0008683961710591105 0  289.7060325780737 7.499131600751105 0  294.7059847966704 -0.0009002483474474497 0  294.7060325778245 7.499099750768878 0  299.7059848277254 -0.0009320723363550282 0  299.70603258163 7.499067930434648 0  304.7059848449228 -0.000963884278277947 0  304.7060325860209 7.499036124114482 0  309.7059848510701 -0.0009957004182045825 0  309.7060325887259 7.49900431440858 0  4.70608762471123 15.0008811241909 0  -0.2939123810160366 15.00091215455815 0  9.706087642606958 15.00085005796799 0  14.70608767964747 15.00081894507756 0  19.70608774175797 15.00078777795609 0  24.70608783468928 15.0007565518911 0  29.70608796449466 15.00072526449828 0  34.70608813777214 15.00069391520054 0  39.70608836179935 15.00066250480026 0  44.70608864463137 15.00063103517823 0  49.70608899519689 15.00059950912315 0  54.70608942340613 15.00056793028556 0  59.70608994027364 15.0005363032511 0  64.70609055805176 15.00050463373377 0  69.70609129036598 15.00047292890007 0  74.70609215233702 15.00044119784694 0  79.70609316066563 15.00040945227428 0  84.70609433364199 15.00037770741713 0  89.7060956910191 15.00034598333901 0  94.70609725365301 15.00031430674309 0  99.70609904275777 15.0002827135441 0  104.7061010785411 15.00025125257692 0  109.7061033778697 15.00021999102337 0  114.7061059504655 15.00018902244249 0  119.7061087929819 15.00015847870822 0  124.7061118802591 15.00012854763095 0  129.7061151533684 15.00009949824598 0  134.7061185053506 15.00007171456117 0  139.7061217689687 15.00004573246119 0  144.7061247179196 15.00002225320221 0  149.7061271032997 15.00000204166958 0  164.706122080669 14.99995563553058 0  159.7061249202408 14.99998159115889 0  169.7061182257711 14.99992575659128 0  174.7061137912435 14.99989345493653 0  179.7061092865432 14.9998598771481 0  184.7061050243418 14.99982569638816 0  189.7061011579215 14.99979128827789 0  194.7060977419587 14.99975685969743 0  199.7060947762234 14.99972252315256 0  204.7060922325755 14.99968833800538 0  209.7060900705982 14.99965433333963 0  214.7060882462347 14.99962052078638 0  219.706086716314 14.99958690183235 0  224.7060854407335 14.99955347206195 0  229.7060843833437 14.99952022366881 0  234.7060835121399 14.99948714697164 0  239.7060827991019 14.9994542313433 0  244.7060822198708 14.99942146578344 0  249.7060817533692 14.99938883926668 0  254.7060813814148 14.99935634094279 0  259.7060810883598 14.99932396023364 0  264.7060808607633 14.99929168685262 0  269.7060806871039 14.9992595107613 0  274.70608055753 14.99922742207069 0  279.7060804636418 14.99919541089081 0  284.7060803982972 14.99916346713071 0  289.7060803554262 14.99913158025098 0  294.7060803298361 14.99909973897002 0  299.7060803169808 14.99906793091228 0  304.7060803126664 14.99903614212523 0  309.7060803126581 14.99900435616792 0  4.706134102818416 22.50088117981972 0  -0.2938659040313077 22.50091215535217 0  9.706134121031223 22.50085014467318 0  14.7061341574786 22.50081904905731 0  19.70613421714866 22.50078789195914 0  24.70613430412374 22.50075667290014 0  29.70613442218626 22.50072539219809 0  34.7061345751742 22.50069405101498 0  39.70613476717391 22.50066265132304 0  44.70613500261165 22.50063119586903 0  49.70613528628321 22.50059968818238 0  54.70613562334081 22.50056813265369 0  59.706136019244 22.50053653470182 0  64.70613647966967 22.50050490104724 0  69.70613701036643 22.50047324011462 0  74.70613761693004 22.50044156259706 0  79.70613830446358 22.50040988222978 0  84.70613907707313 22.50037821684256 0  89.7061399371309 22.50034658979014 0  94.70614088421607 22.50031503190223 0  99.70614191362142 22.50028358415022 0  104.7061430142947 22.5002523012987 0  109.7061441660889 22.5002212568862 0  114.7061453362532 22.5001905499321 0  119.7061464752705 22.50016031370921 0  124.7061475125449 22.50013072654522 0  129.7061483532064 22.50010202345109 0  134.7061488785538 22.50007450442819 0  139.7061489542486 22.50004852872201 0  144.7061484510462 22.50002447136715 0  149.7061472784005 22.50000259875913 0  164.7061464193991 22.49994709281371 0  159.7061450510209 22.49997323755766 0  169.706146804164 22.49991828730754 0  174.7061463140371 22.49988742551493 0  179.7061451905648 22.49985516913625 0  184.7061436895888 22.49982205859463 0  189.7061420159523 22.49978847548191 0  194.7061403126884 22.49975467136463 0  199.7061386707443 22.49972080597396 0  204.70613714276 22.49968697794324 0  209.7061357551853 22.49965324629251 0  214.7061345174535 22.49961964463355 0  219.7061334284437 22.49958619035024 0  224.7061324808441 22.49955289048849 0  229.7061316640103 22.49951974553819 0  234.7061309657929 22.49948675187347 0  239.7061303736743 22.49945390333643 0  244.7061298754526 22.49942119226914 0  249.7061294596342 22.49938861018472 0  254.7061291156391 22.49935614819769 0  259.7061288338892 22.49932379728986 0  264.7061286058249 22.49929154846022 0  269.7061284238746 22.49925939279023 0  274.7061282813959 22.49922732144539 0  279.7061281725919 22.49919532562754 0  284.7061280924036 22.49916339648809 0  289.7061280363682 22.49913152501008 0  294.7061280004319 22.49909970
[...]
<PointData  Vectors="v"> 
<DataArray  type="Float64"  Name="v"  NumberOfComponents="3" format="ascii">-1.4388125018290689e+00 -7.7710833860464561e+00 0.0000000000000000e+00  -2.0060855253178271e+00 -7.2816131263880282e+00 0.0000000000000000e+00  -1.8501475681940853e+00 -6.4309552440621527e+00 0.0000000000000000e+00  -1.4088523825256021e+00 -7.1093651931654804e+00 0.0000000000000000e+00  -2.7066381521091851e+00 -7.8518669767930902e+00 0.0000000000000000e+00  -2.4170212061433198e+00 -6.8020130051338485e+00 0.0000000000000000e+00  -3.3259716611505015e+00 -8.8463060504511635e+00 0.0000000000000000e+00  -3.1163729545922472e+00 -7.9188475186065146e+00 0.0000000000000000e+00  -3.8614789096703195e+00 -9.1188044601392253e+00 0.0000000000000000e+00  -3.7337528356849852e+00 -8.3177940496549407e+00 0.0000000000000000e+00  -4.5405785053061827e+00 -9.9592992292315916e+00 0.0000000000000000e+00  -4.2665668838003459e+00 -8.9436062861694410e+00 0.0000000000000000e+00  -5.0803141498092304e+00 -1.0282477361004585e+01 0.0000000000000000e+00  -4.9420646264824102e+00 -9.4764097331313604e+00 0.0000000000000000e+00  -5.1610423959818457e+00 -9.9887987193162324e+00 0.0000000000000000e+00  -5.4774111698508783e+00 -9.8719589766907294e+00 0.0000000000000000e+00  -6.2692741605448852e+00 -1.1089965113563329e+01 0.0000000000000000e+00  -5.5530174053554209e+00 -9.4326139286762380e+00 0.0000000000000000e+00  -3.1580319023352805e+00 -5.8892989260295119e+00 0.0000000000000000e+00  -6.6552237103879976e+00 -1.0561494803638178e+01 0.0000000000000000e+00  -1.4419562074606535e+01 -2.1955432772175701e+01 0.0000000000000000e+00  -3.5372388162988497e+00 -5.0699128053994587e+00 0.0000000000000000e+00  -1.4151597299186921e+01 -2.0231426908773312e+01 0.0000000000000000e+00  -1.4791544689924178e+01 -2.0640281431232658e+01 0.0000000000000000e+00  -1.4265707653531765e+01 -1.8940290860138902e+01 0.0000000000000000e+00  -1.4515327170413574e+01 -1.8777016438591623e+01 0.0000000000000000e+00  -1.4810438306802302e+01 -1.8267135337780246e+01 0.0000000000000000e+00  -1.4619940632449659e+01 -1.7459238897689392e+01 0.0000000000000000e+00  -1.5737807637900410e+01 -1.8190483537725171e+01 0.0000000000000000e+00  -1.5153860173162077e+01 -1.6809959058887408e+01 0.0000000000000000e+00  -1.6951162322282926e+01 -1.8502068267719427e+01 0.0000000000000000e+00  -1.6068652206854111e+01 -1.6693580427913577e+01 0.0000000000000000e+00  -1.8361964649470462e+01 -1.9002058804325127e+01 0.0000000000000000e+00  -1.7268020921581890e+01 -1.6898779596411305e+01 0.0000000000000000e+00  -1.9886263452356570e+01 -1.9766482801652252e+01 0.0000000000000000e+00  -1.8663576082180523e+01 -1.7494169428819525e+01 0.0000000000000000e+00  -2.1440646128102468e+01 -2.0375912174955634e+01 0.0000000000000000e+00  -2.0170852056586110e+01 -1.8059257343786729e+01 0.0000000000000000e+00  -2.2954441249221997e+01 -2.0878157376631453e+01 0.0000000000000000e+00  -2.1707121260701797e+01 -1.8623744115559063e+01 0.0000000000000000e+00  -2.4368619217672425e+01 -2.1119138784635140e+01 0.0000000000000000e+00  -2.3201523598445768e+01 -1.9014906133234000e+01 0.0000000000000000e+00  -2.5630949079186443e+01 -2.1073247161307346e+01 0.0000000000000000e+00  -2.4595111710607192e+01 -1.9197690745774803e+01 0.0000000000000000e+00  -2.6707232992032040e+01 -2.0285370296020609e+01 0.0000000000000000e+00  -2.5835477401326774e+01 -1.8689325313363565e+01 0.0000000000000000e+00  -2.7583979811569101e+01 -1.9553402545142081e+01 0.0000000000000000e+00  -2.6889815211363246e+01 -1.8258100295027429e+01 0.0000000000000000e+00  -2.8255094093230834e+01 -1.7409045822233971e+01 0.0000000000000000e+00  -2.7742252449594165e+01 -1.6421032871049949e+01 0.0000000000000000e+00  -2.8741158894916673e+01 -1.5803120116436249e+01 0.0000000000000000e+00  -2.8390775633050396e+01 -1.5095562701949136e+01 0.0000000000000000e+00  -2.9059685707683670e+01 -1.2186733595200646e+01 0.0000000000000000e+00  -2.8850534197900647e+01 -1.1726945843338619e+01 0.0000000000000000e+00  -2.9252821567843110e+01 -9.6593454600172741e+00 0.0000000000000000e+00  -2.9147214933877116e+01 -9.3931368659256709e+00 0.0000000000000000e+00  -2.9344187432766567e+01 -4.8759417847961668e+00 0.0000000000000000e+00  -2.9312021691877788e+01 -4.7548580245209688e+00 0.0000000000000000e+00  -2.9382093234736185e+01 -1.0736670239817523e+00 0.0000000000000000e+00  -2.9383676460091802e+01 -1.0427991524960327e+00 0.0000000000000000e+00  -2.9389262614623725e+01 -4.8514170376148249e-19 0.0000000000000000e+00  -2.9389930983284636e+01 -6.9882570001808975e-04 0.0000000000000000e+00  -2.9389262614623714e+01 5.1987063329559475e-19 0.0000000000000000e+00  -2.0003658101557757e+01 6.7062164544294935e+00 0.0000000000000000e+00  -2.9384107839223041e+01 -7.3476468248468105e+00 0.0000000000000000e+00  -2.9389919214052842e+01 6.6737773847128849e-04 0.0000000000000000e+00  -2.0730492231806654e+01 1.2735717552183706e+01 0.0000000000000000e+00  -2.0030446778400851e+01 1.3864492287390963e+01 0.0000000000000000e+00  -1.7703479892307996e+01 2.0132180602932880e+01 0.0000000000000000e+00  -2.0793422721496270e+01 1.5621090309201758e+01 0.0000000000000000e+00  -1.6961760850637500e+01 2.1515482451190607e+01 0.0000000000000000e+00  -1.7803182065040222e+01 2.0436328902836298e+01 0.0000000000000000e+00  -1.5289632108921978e+01 2.4330079034365404e+01 0.0000000000000000e+00  -1.7097536872566682e+01 2.1853547205837337e+01 0.0000000000000000e+00  -1.4090056544629070e+01 2.4591714663659534e+01 0.0000000000000000e+00  -1.5460952198791992e+01 2.2824719651328547e+01 0.0000000000000000e+00  -1.2801819853009393e+01 2.4764850586651384e+01 0.0000000000000000e+00  -1.4297170866935220e+01 2.2863644813950582e+01 0.0000000000000000e+00  -1.1696849876783068e+01 2.3806137182770517e+01 0.0000000000000000e+00  -1.3043950994993308e+01 2.2180311909151811e+01 0.0000000000000000e+00  -1.0375657663609083e+01 2.2736910144976584e+01 0.0000000000000000e+00  -1.1973627622704660e+01 2.0786085811248348e+01 0.0000000000000000e+00  -9.4312189760033469e+00 2.0973114059452904e+01 0.0000000000000000e+00  -1.0686897299959581e+01 1.9587194173705079e+01 0.0000000000000000e+00  -8.6620751698158394e+00 1.9179002386080459e+01 0.0000000000000000e+00  -9.7764646465765193e+00 1.8055819190574045e+01 0.0000000000000000e+00  -7.8254094998732571e+00 1.7524898260526690e+01 0.0000000000000000e+00  -9.0409643808055868e+00 1.6300173195451258e+01 0.0000000000000000e+00  -7.0350251268632187e+00 1.5944471623038890e+01 0.0000000000000000e+00  -8.2377401078591728e+00 1.4788800414921322e+01 0.0000000000000000e+00  -6.2942621028436223e+00 1.4532954701127839e+01 0.0000000000000000e+00  -7.4803909103253403e+00 1.3451531756248004e+01 0.0000000000000000e+00  -5.5635379021884628e+00 1.3232474434984415e+01 0.0000000000000000e+00  -6.7723065841533394e+00 1.2165775588472455e+01 0.0000000000000000e+00  -4.8983847747628877e+00 1.1981350671055003e+01 0.0000000000000000e+00  -6.0739623483166776e+00 1.1012686004561443e+01 0.0000000000000000e+00  -4.3064268685884493e+00 1.0832461560292163e+01 0.0000000000000000e+00  -5.4408102159764855e+00 9.9733152039521098e+00 0.0000000000000000e+00  -3.7488896973225962e+00 9.7371075112583565e+00 0.0000000000000000e+00  -4.8804567335195639e+00 8.9293098561963848e+00 0.0000000000000000e+00  -3.2518034925268786e+00 8.6721293220297397e+00 0.0000000000000000e+00  -4.3542510065910811e+00 7.9546413923445449e+00 0.0000000000000000e+00  -2.8251148516459668e+00 7.6810611496668839e+00 0.0000000000000000e+00  -3.8880464505939112e+00 7.0689890763467478e+00 0.0000000000000000e+00  -2.4314407833142875e+00 6.6884624460675610e+00 0.0000000000000000e+00  -3.4920224953056227e+00 6.1254793206429285e+00 0.0000000000000000e+00  -2.0904802525363433e+00 5.7775464319383847e+00 0.0000000000000000e+00  -3.1284712235926455e+00 5.2935856644913954e+00 0.0000000000000000e+00  -1.8010606716628019e+00 4.8467935262462740e+00 0.0000000000000000e+00  -2.8176829094885352e+00 4.4394773168783859e+00 0.0000000000000000e+00  -1.5440477435187565e+00 4.0746121638932742e+00 0.0000000000000000e+00  -2.5574324861630440e+00 3.7163595449028701e+00 0.0000000000000000e+00  -1.3179527203532817e+00 3.1558928689722596e+00 0.0000000000000000e+00  -2.3304738883647236e+00 2.8425122065581832e+00 0.0000000000000000e+00  -1.1157678053265794e+00 2.6842543793662634e+00 0.0000000000000000e+00  -2.1321141521612370e+00 2.4086492702333659e+00 0.0000000000000000e+00  -9.2362384912437145e-01 1.7306174226762336e+00 0.0000000000000000e+00  -1.9607140849543052e+00 1.4662711884975748e+00 0.0000000000000000e+00  -6.5882531275973044e-01 1.7839096753915249e+00 0.0000000000000000e+00  -1.7935238959258009e+00 1.4163624072329490e+00 0.0000000000000000e+00  -2.5010770169463387e-01 1.2835310381674785e+00 0.0000000000000000e+00  -1.5634001059153413e+00 6.8944750324351012e-01 0.0000000000000000e+00  7.0934327248996665e-01 3.8669142344825699e-02 0.0000000000000000e+00  -1.1685788428780761e+00 -1.3608693229555986e+00 0.0000000000000000e+00  -2.0898651820173577e+00 -5.7686640311908155e+00 0.0000000000000000e+00  -1.6009505231320336e+00 -6.3768387803435704e+00 0.0000000000000000e+00  -2.5314356170820940e+00 -5.9518342542803859e+00 0.0000000000000000e+00  -3.0977292379483119e+00 -6.8707291389144975e+00 0.0000000000000000e+00  -3.7952832072889406e+00 -7.3933837396498916e+00 0.0000000000000000e+00  -4.4095118189758375e+00 -8.1467899886705180e+00 0.0000000000000000e+00  -4.9377617260848554e+00 -8.4665599655802346e+00 0.0000000000000000e+00  -5.6071326365120937e+00 -9.0733606925402643e+00 0.0000000000000000e+00  -6.1346528239955553e+00 -9.3243045266133784e+00 0.0000000000000000e+00  -6.2010178735869115e+00 -8.9143742465783955e+00 0.0000000000000000e+00  -7.2925308103427664e+00 -9.7536245089871514e+00 0.0000000000000000e+00  -4.1631290456078620e+00 -3.7655236267779113e+00 0.0000000000000000e+00  -1.5407031998068021e+01 -1.9197509123704037e+01 0.0000000000000000e+00  -1.5119995199050621e+01 -1.7309892107040781e+01 0.0000000000000000e+00  -1.5211395405478200e+01 -1.6017783851460422e+01 0.0000000000000000e+00  -1.5729530660488974e+01 -1.5332460691984487e+01 0.0000000000000000e+00  -1.6625070265196062e+01 -1.5112759951533068e+01 0.0000000000000000e+00  -1.7801844589770138e+01 -1.5415253894515768e+01 0.0000000000000000e+00  -1.9171949030006058e+01 -1.5815072588531443e+01 0.0000000000000000e+00  -2.0650401078729217e+01 -1.6338033535721685e+01 0.0000000000000000e+00  -2.2154604505412319e+01 -1.6792972655130967e+01 0.0000000000000000e+00  -2.3614453523618931e+01 -1.7129573675537621e+01 0.0000000000000000e+00  -2.4970105219760324e+01 -1.6852156038314785e+01 0.0000000000000000e+00  -2.6170024790883598e+01 -1.6701703661952578e+01 0.0000000000000000e+00  -2.7181347953512546e+01 -1.5167987800058910e+01 0.0000000000000000e+00  -2.7989132557086943e+01 -1.4151626344373696e+01 0.0000000000000000e+00  -2.8589994019059908e+01 -1.1062498740616656e+01 0.0000000000000000e+00  -2.9003828199052442e+01 -8.9810345762532187e+00 0.0000000000000000e+00  -2.9249580050935709e+01 -4.5281720252605826e+00 0.0000000000000000e+00  -2.9372125506481442e+01 -9.7397132195766689e-01 0.0000000000000000e+00  -2.9391531370768661e+01 -1.3311732385338875e-03 0.0000000000000000e+00  -2.9363986045570744e+01 -7.4078069499781485e+00 0.0000000000000000e+00  -2.9391509908741920e+01 1.3116595493934033e-03 0.0000000000000000e+00  -2.9304548240053222e+01 -1.5346148000023224e-01 0.0000000000000000e+00  -1.9983826702888230e+01 1.6791550138331171e+01 0.0000000000000000e+00  -2.0789640652097241e+01 1.5975626493562258e+01 0.0000000000000000e+00  -1.7840240121846538e+01 2.0820476244247406e+01 0.0000000000000000e+00  -1.7175939127442678e+01 2.0391978343734959e+01 0.0000000000000000e+00  -1.5577326470911387e+01 2.1141445198947412e+01 0.0000000000000000e+00  -1.4451398582841158e+01 2.0321935124751043e+01 0.0000000000000000e+00  -1.3233857780410036e+01 1.9201276932831199e+01 0.0000000000000000e+00  -1.2197974602681892e+01 1.7677461010330479e+01 0.0000000000000000e+00  -1.0944792834759573e+01 1.6709966791006128e+01 0.0000000000000000e+00  -1.0067143954331454e+01 1.5216057308060178e+01 0.0000000000000000e+00  -9.3636238855447989e+00 1.3603094170625509e+01 0.0000000000000000e+00  -8.5920281484903178e+00 1.2334233718321640e+01 0.0000000000000000e+00  -7.8657448603862106e+00 1.1121945347519407e+01 0.0000000000000000e+00  -7.1881135762341879e+00 9.9832876043836247e+00 0.0000000000000000e+00  -6.5197384650013586e+00 9.0413141629501173e+00 0.0000000000000000e+00  -5.9159558715597305e+00 8.1061013063820990e+00 0.0000000000000000e+00  -5.3843396041284839e+00 7.1823543971366837e+00 0.0000000000000000e+00  -4.8863028282447356e+00 6.3863923507190306e+00 0.0000000000000000e+00  -4.4476982956390714e+00 5.5476496713432422e+00 0.0000000000000000e+00  -4.0785980107240967e+00 4.7643678182796352e+00 0.0000000000000000e+00  -3.7415204385647400e+00 3.9887181792702688e+00 0.0000000000000000e+00  -3.4564479870696547e+00 3.3415982244722082e+00 0.0000000000000000e+00  -3.2216123182827339e+00 2.5164352897818332e+00 0.0000000000000000e+00  -3.0190038574866591e+00 2.1268043059053023e+00 0.0000000000000000e+00  -2.8453366084646579e+00 1.2214872781263884e+00 0.0000000000000000e+00  -2.6963623855833880e+00 1.1827986094306975e+00 0.0000000000000000e+00  -2.5537425714499471e+00 3.5298426943577915e-01 0.0000000000000000e+00  -2.3442264081241748e+00 -1.9344956385031675e+00 0.0000000000000000e+00  -2.7429509637868450e+00 -5.0345288432183501e+00 0.0000000000000000e+00  -2.3000819695177728e+00 -5.7138155875257040e+00 0.0000000000000000e+00  -3.2329454968712583e+00 -5.2887576926369384e+00 0.0000000000000000e+00  -3.6755433283969863e+00 -6.0217675829180024e+00 0.0000000000000000e+00  -4.2410732878859800e+00 -6.3489260374860157e+00 0.0000000000000000e+00  -4.9359402986075009e+00 -7.2289868750285233e+00 0.0000000000000000e+00  -5.5451296185312495e+00 -7.6798089942811192e+00 0.0000000000000000e+00  -6.0653902693364783e+00 -8.0769124007782427e+00 0.0000000000000000e+00  -6.7238837040038453e+00 -8.5428444173851705e+00 0.0000000000000000e+00  -7.2375332963417227e+00 -8.8269110271908708e+00 0.0000000000000000e+00  -7.2869566390181593e+00 -8.1300261580554913e+00 0.0000000000000000e+00  -8.3597965050286334e+00 -8.4733029739901156e+00 0.0000000000000000e+00  -5.2130027468917755e+00 -2.3438830971637841e+00 0.0000000000000000e+00  -1.6442882190722834e+01 -1.7751113518697956e+01 0.0000000000000000e+00  -1.6142134059806470e+01 -1.5894368908580871e+01 0.0000000000000000e+00  -1.6215651324318930e+01 -1.4573056824167043e+01 0.0000000000000000e+00  -1.6709694735120067e+01 -1.3791642766923447e+01 0.0000000000000000e+00  -1.7574709879767930e+01 -1.3677163647225868e+01 0.0000000000000000e+00  -1.8714427808699352e+01 -1.3791656111623462e+01 0.0000000000000000e+00  -2.0040569939871194e+01 -1.4156484358189434e+01 0.0000000000000000e+00  -2.1468617924393723e+01 -1.4577377614897994e+01 0.0000000000000000e+00  -2.2916192337631465e+01 -1.4985353329460841e+01 0.0000000000000000e+00  -2.4312334106943414e+01 -1.4867755444681778e+01 0.0000000000000000e+00  -2.5598531936481095e+01 -1.4956453054481052e+01 0.0000000000000000e+00  -2.6722208081027333e+01 -1.3707674197429307e+01 0.0000000000000000e+00  -2.7652865418288716e+01 -1.3002688205619254e+01 0.0000000000000000e+00  -2.8373357641184253e+01 -1.0221661911088402e+01 0.0000000000000000e+00  -2.8887063629087084e+01 -8.4310323322869571e+00 0.0000000000000000e+00  -2.9206421349646767e+01 -4.2137500841333368e+00 0.0000000000000000e+00  -2.9369747072891894e+01 -8.7090596215211080e-01 0.0000000000000000e+00  -2.9394029015859214e+01 -1.9035783407413726e-03 0.0000000000000000e+00  -2.9346554713172171e+01 -7.5629618764931399e+00 0.0000000000000000e+00  -2.9394009969090323e+01 1.8757878524573869e-03 0.0000000000000000e+00  -2.9160979551341335e+01 -2.7139538250879797e-01 0.0000000000000000e+00  -2.9092235548735584e+01 2.8506486347884485e+00 0.0000000000000000e+00  -1.9827044059409253e+01 1.7237445882148513e+01 0.0000000000000000e+00  -2.0702608434302039e+01 1.6445290090711040e+01 0.0000000000000000e+00  -1.7819611534254943e+01 1.9445506095147202e+01 0.0000000000000000e+00  -1.7218648824333922e+01 1.8787997147496640e+01 0.0000000000000000e+00  -1.5678274672855469e+01 1.8676234350354751e+01 0.0000000000000000e+00  -1.4607476931506019e+01 1.7415193323347275e+01 0.0000000000000000e+00  -1.3440941512599487e+01 1.6162011696482818e+01 0.0000000000000000e+00  -1.2453667977501556e+01 1.4866902375027101e+01 0.0000000000000000e+00  -1.1246981133524754e+01 1.3935412600035106e+01 0.0000000000000000e+00  -1.0414350046228909e+01 1.2582661109202684e+01 0.0000000000000000e+00  -9.7548664317321290e+00 1.1211128616870996e+01 0.0000000000000000e+00  -9.0265371256569633e+00 1.0066242304680840e+01 0.0000000000000000e+00  -8.3426409278862721e+00 8.9998841778908378e+00 0.0000000000000000e+00  -7.7065801484325922e+00 8.0710858127273433e+00 0.0000000000000000e+00  -7.0788231913488096e+00 7.2320991812534885e+00 0.0000000000000000e+00  -6.5146514173384382e+00 6.4157678356524084e+00 0.0000000000000000e+00  -6.0215932201974161e+00 5.6694758239121947e+00 0.0000000000000000e+00  -5.5611165162023175e+00 4.9190044457030071e+00 0.0000000000000000e+00  -5.1588853317918897e+00 4.2394021028279072e+00 0.0000000000000000e+00  -4.8252885626908713e+00 3.5106466063867576e+00 0.0000000000000000e+00  -4.5223245842896054e+00 2.9413940766953037e+00 0.0000000000000000e+00  -4.2708055230777857e+00 2.1897366323804919e+00 0.0000000000000000e+00  -4.0675659640290203e+00 1.8494926939373948e+00 0.0000000000000000e+00  -3.8968900661037109e+00 9.8349667678118857e-01 0.0000000000000000e+00  -3.7513003140487666e+00 9.8680637090965684e-01 0.0000000000000000e+00  -3.6345338022130762e+00 1.5619150393191938e-01 0.0000000000000000e+00  -3.5119946712285315e+00 -2.2199351920473478e+00 0.0000000000000000e+00  -3.5975507326483092e+00 -4.3690347251449584e+00 0.0000000000000000e+00  -3.1935109998207118e+00 -5.1095277658957068e+00 0.0000000000000000e+00  -4.0422111966842298e+00 -4.5519939059186267e+00 0.0000000000000000e+00  -4.5350723763731047e+00 -5.3561573331222840e+00 0.0000000000000000e+00  -4.9799789244686030e+00 -5.4999687973303804e+00 0.0000000000000000e+00  -5.5462980335049554e+00 -6.1878042631773846e+00 0.0000000000000000e+00  -6.2393240985943237e+00 -6.7692236095657856e+00 0.0000000000000000e+00  -6.8434708512885551e+00 -7.3024414909274986e+00 0.0000000000000000e+00  -7.3548906415648556e+00 -7.5639874360244610e+00 0.0000000000000000e+00  -8.0002581957116590e+00 -8.0682280760642868e+00 0.0000000000000000e+00  -8.4966080556192853e+00 -8.0703825251765107e+00 0.0000000000000000e+00  -8.5257708647909318e+00 -6.8793721262208978e+00 0.0000000000000000e+00  -9.5783292912941302e+00 -7.0763480054647356e+00 0.0000000000000000e+00  -6.4167232853143688e+00 -9.1380831433187359e-01 0.0000000000000000e+00  -1.7639458617866609e+01 -1.6350468207523630e+01 0.0000000000000000e+00  -1.7332295362664127e+01 -1.4471495497763659e+01 0.0000000000000000e+00  -1.7393342452885598e+01 -1.3065329910014484e+01 0.0000000000000000e+00  -1.7866263876534550e+01 -1.2401471523077323e+01 0.0000000000000000e+00  -1.8699888512393315e+01 -1.2110539299920529e+01 0.0000000000000000e+00  -1.9798469232545347e+01 -1.2203085690431813e+01 0.0000000000000000e+00  -2.1073492088325747e+01 -1.2477994628231327e+01 0.0000000000000000e+00  -2.2440147620371594e+01 -1.2863802163055531e+01 0.0000000000000000e+00  -2.3816030221782718e+01 -1.2830218152422379e+01 0.0000000000000000e+00  -2.5130689184605259e+01 -1.3092114005720683e+01 0.0000000000000000e+00  -2.6323929788244396e+01 -1.2091874165524422e+01 0.0000000000000000e+00  -2.7346414418416863e+01 -1.1686385979622196e+01 0.0000000000000000e+00  -2.8164592707641386e+01 -9.2199150179191509e+00 0.0000000000000000e+00  -2.8769884051445345e+01 -7.7531126334513294e+00 0.0000000000000000e+00  -2.9157200904255532e+01 -3.8092590100435073e+00 0.0000000000000000e+00  -2.9363565541033459e+01 -7.3220926035929623e-01 0.0000000000000000e+00 