<?xml version="1.0"?>
<VTKFile type="UnstructuredGrid"  version="0.1"  >
<UnstructuredGrid>
<Piece  NumberOfPoints="1933" NumberOfCells="3640">
<Points>
<DataArray  type="Float64"  NumberOfComponents="3"  format="ascii">0.4754704577399164 -0.0001436721645326855 0  5.475470500819265 -0.0001617084716468108 0  5.475497595482466 7.499838422978981 0  0.4754975154500002 7.499856395372391 0  10.4754705581319 -0.000179862776845728 0  10.4754977397721 7.499820290417708 0  15.4754706925433 -0.0001981874619686446 0  15.47549798197655 7.499801971511364 0  20.47547097185096 -0.0002166829784702757 0  20.47549835477612 7.499783476071737 0  25.47547145883654 -0.0002353190577360832 0  25.47549889025679 7.499764838678249 0  30.47547220910715 -0.0002540462539060084 0  30.47549961911563 7.499746110619671 0  35.47547327183641 -0.0002728022178123597 0  35.47550057008178 7.499727355017115 0  40.47547469144236 -0.0002915148003026604 0  40.47550176969828 7.499708644329676 0  45.47547650942044 -0.0003101031168720879 0  45.47550324233466 7.499690059566118 0  50.47547876603991 -0.0003284771998623385 0  50.47550501026279 7.499671690759099 0  55.47548150181624 -0.000346536563343907 0  55.47550709365773 7.499653638455742 0  60.47548475874064 -0.000364167808286092 0  60.47550951039963 7.499636016131337 0  65.47548858126854 -0.0003812412498302169 0  65.47551227555124 7.499618953557057 0  70.47549301704086 -0.0003976064217713128 0  70.47551540036569 7.499602601265462 0  75.47549811727762 -0.0004130861807205611 0  75.47551889062636 7.499587136376402 0  80.47550393669768 -0.0004274689695738669 0  80.47552274403459 7.499572770188315 0  85.47551053269575 -0.0004404985777540971 0  85.47552694624545 7.499559758123151 0  90.47551796327075 -0.0004518604137459716 0  90.47553146495946 7.499548412859591 0  95.47552628280407 -0.000461162823672304 0  95.47553624123563 7.499539121818853 0  100.4755355340302 -0.000467911257261579 0  100.4755411768832 7.499532370593866 0  105.4755457331806 -0.0004714719651588268 0  105.4755461164358 7.499528774417748 0  110.4755568426696 -0.0004710202216571224 0  110.4755508220264 7.499529120230207 0  115.4755687207916 -0.0004654655810401322 0  115.4755549398783 7.499534421954644 0  120.4755810284513 -0.0004533432487679999 0  120.4755579592832 7.499545990262653 0  125.475593054807 -0.0004326566577378477 0  125.4755591716486 7.499565513033326 0  130.4756033885495 -0.0004006542555745839 0  130.4755576547709 7.49959512868633 0  135.4756092930106 -0.0003535337295708247 0  135.4755523503059 7.499637441248679 0  140.4756055071224 -0.0002861319490821334 0  140.4755424031566 7.499695359136068 0  145.4755819083794 -0.000191966906440513 0  145.4755281700592 7.49977155794888 0  150.4755187815691 -6.54678832238744e-05 0  150.4755139126732 7.499867601216574 0  160.4755282581469 9.275285257029819e-19 0  165.4754150017104 -0.0001752867089712542 0  165.4755091586667 7.499795676943906 0  160.4755393855189 7.499931830100499 0  170.4753600464563 -0.0003149823257843239 0  170.4754783307313 7.499670500554455 0  175.4753349796265 -0.0004293660000726871 0  175.4754541523025 7.49956276989832 0  180.4753256418773 -0.000524546218619108 0  180.4754371691811 7.499471011826555 0  185.4753246451061 -0.0006050134110088003 0  185.4754261673757 7.499392409643999 0  190.4753280310931 -0.0006741604705880258 0  190.4754196843995 7.499324314350068 0  195.4753336380834 -0.000734535085934599 0  195.4754164524212 7.499264549153886 0  200.4753402662714 -0.0007880442006732247 0  200.4754154855271 7.499211402486356 0  205.4753472408353 -0.000836120801035178 0  205.4754160534928 7.49916354728751 0  210.4753541789172 -0.0008798517344938447 0  210.4754176283107 7.499119955314762 0  215.4753608631966 -0.0009200715978800929 0  215.4754198327073 7.49907982501689 0  220.4753671720107 -0.000957430252402503 0  220.4754223986529 7.499042525552171 0  225.4753730399551 -0.0009924410451724768 0  225.475425136284 7.499007554773608 0  230.4753784352013 -0.001025515337080609 0  230.4754279114418 7.498974508085386 0  235.4753833461732 -0.001056987432898308 0  235.47543062972 7.498943055384657 0  240.4753877735835 -0.001087132796078441 0  240.4754332252217 7.498912923899769 0  245.4753917256286 -0.001116181540746309 0  245.475435652668 7.498883885303541 0  250.4753952150961 -0.001144328568941729 0  250.4754378818664 7.498855745933298 0  255.4753982576898 -0.001171741291047097 0  255.4754398938571 7.498828339289215 0  260.4754008711588 -0.001198565570631552 0  260.4754416782473 7.498801520230036 0  265.4754030750197 -0.001224930325648628 0  265.4754432314075 7.498775160467423 0  270.4754048907358 -0.001250951061676969 0  270.475444555298 7.498749145099996 0  275.4754063423153 -0.001276732482686764 0  275.4754456567456 7.49872337004417 0  280.475407457315 -0.001302370195397049 0  280.4754465470452 7.498697740329758 0  285.4754082682556 -0.001327951365648758 0  285.4754472417625 7.498672169350248 0  290.4754088144072 -0.001353553957467267 0  290.4754477606012 7.498646579307926 0  295.4754091438019 -0.00137924382088973 0  295.4754481272422 7.498620903287828 0  300.4754093149279 -0.001405068282945498 0  300.47544836908 7.4985950896378 0  305.4754093967562 -0.001431043876771767 0  305.4754485171501 7.498569109603934 0  310.4754094636547 -0.001457134343848321 0  310.4754486075055 7.498542969466921 0  5.475524324880405 14.99983872142776 0  0.4755242382401379 14.99985656035304 0  10.47552446688562 14.99982062665162 0  15.47552469252951 14.99980230526146 0  20.47552502043452 14.99978379345077 0  25.47552546523907 14.99976513773052 0  30.47552603964185 14.9997463943802 0  35.47552675483483 14.99972762825218 0  40.47552762028813 14.99970891204504 0  45.47552864327808 14.9996903263395 0  50.47552982827746 14.99967196042562 0  55.47553117620424 14.9996539138986 0  60.47553268346736 14.99963629902935 0  65.47553434072211 14.99961924396906 0  70.47553613122273 14.99960289691278 0  75.47553802865006 14.99958743141952 0  80.47553999427387 14.99957305316499 0  85.47554197331976 14.99956000848449 0  90.47554389044915 14.99954859513652 0  95.47554564440293 14.99953917574526 0  100.4755471021547 14.99953219428703 0  105.4755480935951 14.99952819559528 0  110.4755484090327 14.99952784682296 0  115.4755478041943 14.99953195741153 0  120.4755460215756 14.999541489018 0  125.4755428438417 14.99955753651058 0  130.4755382050226 14.99958124099004 0  135.4755323970548 14.9996135577837 0  140.4755264140249 14.99965473152523 0  145.4755224425388 14.99970318845595 0  150.4755243268947 14.99975317454405 0  165.4755521724118 14.9997156837553 0  160.4755549549285 14.99980333890213 0  170.4755412601667 14.99962336857062 0  175.475527552922 14.99953516639643 0  180.4755143548815 14.99945470718476 0  185.4755031170983 14.9993826475502 0  190.4754942353745 14.99931838072092 0  195.4754875998722 14.99926088991751 0  200.4754828997578 14.99920911868404 0  205.4754797755276 14.99916211153367 0  210.4754778876957 14.99911905295758 0  215.475476942636 14.99907926477801 0  220.4754766979028 14.99904218884158 0  225.4754769586477 14.99900736661758 0  230.4754775708861 14.99897442022333 0  235.4754784143109 14.99894303629004 0  240.4754793957522 14.99891295279439 0  245.4754804436638 14.99888394851308 0  250.4754815036571 14.99885583464346 0  255.4754825349621 14.99882844815808 0  260.4754835076723 14.99880164653623 0  265.4754844006022 14.99877530359651 0  270.4754851996333 14.99874930623363 0  275.4754858964197 14.99872355193219 0  280.4754864873553 14.99869794699313 0  285.4754869727507 14.99867240545984 0  290.4754873561693 14.99864684876015 0  295.4754876440447 14.99862120604732 0  300.4754878458023 14.99859541504097 0  305.4754879751346 14.99856942260576 0  310.4754880535953 14.99854318279994 0  5.475550690071571 22.49983931430608 0  0.4755506055792258 22.49985704661466 0  10.47555080669755 22.49982123989537 0  15.47555097469943 22.49980289601684 0  20.47555120399347 22.49978434528762 0  25.47555149900803 22.49976564853638 0  30.47555186092027 22.49974686889258 0  35.47555228859275 22.49972807376617 0  40.47555277868644 22.49970933602216 0  45.47555332529294 22.49969073504605 0  50.47555391928326 22.49967235804399 0  55.47555454746122 22.4996543017491 0  60.47555519155411 22.49963667463357 0  65.47555582704152 22.49961959970795 0  70.47555642182239 22.49960321798954 0  75.47555693474298 22.49958769272894 0  80.47555731405936 22.49957321447573 0  85.47555749600663 22.49956000702515 0  90.47555740382087 22.49954833417843 0  95.4755569478461 22.49953850701094 0  100.4755560278176 22.49953089086241 0  105.475554539122 22.49952591036044 0  110.4755523858613 22.49952404914406 0  115.475549504906 22.49952583808346 0  120.4755459066243 22.49953182097252 0  125.4755417389414 22.49954247899856 0  130.4755373799473 22.49955808403017 0  135.4755335563223 22.49957843663415 0  140.4755314620068 22.49960243384185 0  145.4755327992706 22.49962742829457 0  150.475539563972 22.49964847755735 0  165.475575445251 22.49962595900123 0  160.475566173701 22.49968275144864 0  170.4755770409202 22.49956034568348 0  175.4755734557452 22.49949234725666 0  180.475567120496 22.49942604724036 0  185.4755598273884 22.49936354840704 0  190.4755526804691 22.49930563450475 0  195.4755462608868 22.49925234646698 0  200.4755408097219 22.499203362122 0  205.4755363685256 22.49915821484949 0  210.4755328730209 22.49911640841337 0  215.4755302106068 22.49907747168641 0  220.4755282534158 22.49904098084394 0  225.4755268760229 22.49900656497505 0  230.4755259640104 22.49897390386674 0  235.4755254173319 22.49894272256116 0  240.4755251508693 22.49891278499507 0  245.475525093589 22.49888388780283 0  250.4755251870849 22.49885585473413 0  255.4755253839448 22.4988285318238 0  260.4755256461401 22.49880178330934 0  265.4755259435537 22.49877548823394 0  270.4755262526625 22.49874953765768 0  275.4755265553835 22.49872383240101 0  280.4755268380868 22.49869828124568 0  285.4755270907766 22.49867279950167 0  290.475527306499 22.49864730779179 0  295.4755274811023 22.49
[...]
<PointData  Vectors="v"> 
<DataArray  type="Float64"  Name="v"  NumberOfComponents="3" format="ascii">3.3593339121744905e+00 6.6673428878790286e+00 0.0000000000000000e+00  3.8268978831060614e+00 6.0426366900539108e+00 0.0000000000000000e+00  3.3150774129703859e+00 5.3415561319827072e+00 0.0000000000000000e+00  2.9512715907553124e+00 6.1214545283932145e+00 0.0000000000000000e+00  4.3702729514050480e+00 6.3065960102724157e+00 0.0000000000000000e+00  3.7821773542621946e+00 5.4922531103976304e+00 0.0000000000000000e+00  4.8032678738204249e+00 6.8754858366642191e+00 0.0000000000000000e+00  4.3244966112426289e+00 6.2272311115836265e+00 0.0000000000000000e+00  5.1259905140820834e+00 6.7494547910232949e+00 0.0000000000000000e+00  4.7558246449059371e+00 6.2670353009125854e+00 0.0000000000000000e+00  5.5569060917606929e+00 7.1037334726647732e+00 0.0000000000000000e+00  5.0762989589863139e+00 6.4594189675110618e+00 0.0000000000000000e+00  5.8518683353264471e+00 6.9914353565112046e+00 0.0000000000000000e+00  5.5045476275821414e+00 6.5514683068517314e+00 0.0000000000000000e+00  5.8244122357793779e+00 6.4669635665965099e+00 0.0000000000000000e+00  5.7963461566933958e+00 6.5108374138707763e+00 0.0000000000000000e+00  6.5999930723505784e+00 7.0300073541873944e+00 0.0000000000000000e+00  5.7653984625433843e+00 5.8695895294455118e+00 0.0000000000000000e+00  4.6659448379217112e+00 3.5532760388365103e+00 0.0000000000000000e+00  6.5372676688982052e+00 6.4575901482071911e+00 0.0000000000000000e+00  1.3082801965025240e+01 1.5387929876541161e+01 0.0000000000000000e+00  4.5993279359399324e+00 2.7657082052037461e+00 0.0000000000000000e+00  1.3612521159019115e+01 1.5038164496649214e+01 0.0000000000000000e+00  1.3011714382752455e+01 1.4247368976928085e+01 0.0000000000000000e+00  1.3867330039389543e+01 1.4132543525942435e+01 0.0000000000000000e+00  1.3536934844249656e+01 1.3753686132240697e+01 0.0000000000000000e+00  1.4190904790750798e+01 1.3275929938890007e+01 0.0000000000000000e+00  1.3787496125135466e+01 1.2794030927061492e+01 0.0000000000000000e+00  1.4643293456307271e+01 1.2634751573744078e+01 0.0000000000000000e+00  1.4106726306832854e+01 1.1959490042404259e+01 0.0000000000000000e+00  1.5239864062985530e+01 1.2205436590979366e+01 0.0000000000000000e+00  1.4554939564601828e+01 1.1314075355851594e+01 0.0000000000000000e+00  1.5921575545189306e+01 1.1869111870387734e+01 0.0000000000000000e+00  1.5147191262240444e+01 1.0849614276291591e+01 0.0000000000000000e+00  1.6625410191031360e+01 1.1711465961365567e+01 0.0000000000000000e+00  1.5824712362076180e+01 1.0658528927450194e+01 0.0000000000000000e+00  1.7288611767427984e+01 1.1420240144008641e+01 0.0000000000000000e+00  1.6524971678325841e+01 1.0427858442877517e+01 0.0000000000000000e+00  1.7856513969572578e+01 1.1032701455744375e+01 0.0000000000000000e+00  1.7184909732085377e+01 1.0182222711824442e+01 0.0000000000000000e+00  1.8290475820063072e+01 1.0438965464833917e+01 0.0000000000000000e+00  1.7750564773296283e+01 9.7886598775398053e+00 0.0000000000000000e+00  1.8576401053310384e+01 9.6651289929012911e+00 0.0000000000000000e+00  1.8183384757281772e+01 9.2354687860566251e+00 0.0000000000000000e+00  1.8717010312673196e+01 8.3730965209788231e+00 0.0000000000000000e+00  1.8469877531185972e+01 8.1601764705173885e+00 0.0000000000000000e+00  1.8731098474857848e+01 7.2754519809949416e+00 0.0000000000000000e+00  1.8612110694200325e+01 7.2498770233845367e+00 0.0000000000000000e+00  1.8658189096376670e+01 5.2531444648536079e+00 0.0000000000000000e+00  1.8631401515980723e+01 5.3575154173723094e+00 0.0000000000000000e+00  1.8531579189946914e+01 4.0014127308057130e+00 0.0000000000000000e+00  1.8563804021582563e+01 4.1816435314018285e+00 0.0000000000000000e+00  1.8399297592823970e+01 1.4876562919371377e+00 0.0000000000000000e+00  1.8448716833398827e+01 1.6778095669426798e+00 0.0000000000000000e+00  1.8281961147461459e+01 5.7388530047954034e-01 0.0000000000000000e+00  1.8326039843127472e+01 7.3337730057114769e-01 0.0000000000000000e+00  1.8210697263256517e+01 -1.8103628905336591e+00 0.0000000000000000e+00  1.8228394461034409e+01 -1.7148467211605725e+00 0.0000000000000000e+00  1.8172539372511778e+01 -1.6593811772102958e+00 0.0000000000000000e+00  1.8171210009538530e+01 -1.6272535449856917e+00 0.0000000000000000e+00  1.8163563193758218e+01 1.4038458852085942e-10 0.0000000000000000e+00  1.8164429335389915e+01 8.6010361389834056e-04 0.0000000000000000e+00  1.8163563200211986e+01 -5.3838694148209482e-19 0.0000000000000000e+00  1.1543292819543886e+01 -3.3171089947583946e-03 0.0000000000000000e+00  1.8177154485949554e+01 9.9232500856314765e+00 0.0000000000000000e+00  1.8164421969159903e+01 -8.7384786982923747e-04 0.0000000000000000e+00  1.2948190249514575e+01 -9.4330532332925865e-01 0.0000000000000000e+00  1.1559529334093941e+01 -3.0478971631964735e+00 0.0000000000000000e+00  1.1085996426482483e+01 -5.9952752818481088e+00 0.0000000000000000e+00  1.2965729901185888e+01 -3.2100180031924999e+00 0.0000000000000000e+00  1.0979438868004419e+01 -6.9588129939198620e+00 0.0000000000000000e+00  1.1108038403559146e+01 -6.8040664213865982e+00 0.0000000000000000e+00  1.0055578760123256e+01 -1.0011220125265147e+01 0.0000000000000000e+00  1.1008727815758084e+01 -8.6337844713788936e+00 0.0000000000000000e+00  9.4683954756816604e+00 -1.1162366486312520e+01 0.0000000000000000e+00  1.0093624441789871e+01 -1.0290376683484665e+01 0.0000000000000000e+00  8.7600699055044942e+00 -1.2343307770055088e+01 0.0000000000000000e+00  9.5161867738964805e+00 -1.1291294086661322e+01 0.0000000000000000e+00  8.1713297071954951e+00 -1.2533677453573375e+01 0.0000000000000000e+00  8.8192131764422133e+00 -1.1661239525797379e+01 0.0000000000000000e+00  7.3927932355707515e+00 -1.2486944797268473e+01 0.0000000000000000e+00  8.2426203996674214e+00 -1.1331022233840580e+01 0.0000000000000000e+00  6.8758646925324483e+00 -1.1719821097512060e+01 0.0000000000000000e+00  7.4769448486308834e+00 -1.0956806691471551e+01 0.0000000000000000e+00  6.4827024565314151e+00 -1.0801897677305469e+01 0.0000000000000000e+00  6.9737314179338004e+00 -1.0225024709911398e+01 0.0000000000000000e+00  6.0340755792634271e+00 -9.8606154520272185e+00 0.0000000000000000e+00  6.5948386049649663e+00 -9.2010501233922550e+00 0.0000000000000000e+00  5.5948070812662802e+00 -8.9170216460245282e+00 0.0000000000000000e+00  6.1609005751117962e+00 -8.2719161119745035e+00 0.0000000000000000e+00  5.1689007460320093e+00 -8.0721373240651673e+00 0.0000000000000000e+00  5.7368338252060376e+00 -7.4472844969086669e+00 0.0000000000000000e+00  4.7209837604829596e+00 -7.2992788366104691e+00 0.0000000000000000e+00  5.3264456171736354e+00 -6.6416942968625703e+00 0.0000000000000000e+00  4.3000972094160810e+00 -6.5559290959475733e+00 0.0000000000000000e+00  4.8942427348919511e+00 -5.9390614828489774e+00 0.0000000000000000e+00  3.9170749802821856e+00 -5.8867278479015388e+00 0.0000000000000000e+00  4.4892983164554492e+00 -5.3267090054805726e+00 0.0000000000000000e+00  3.5439940511945300e+00 -5.2570583069652166e+00 0.0000000000000000e+00  4.1223016395827896e+00 -4.7120386559565350e+00 0.0000000000000000e+00  3.2041547021031724e+00 -4.6431880772288148e+00 0.0000000000000000e+00  3.7652841784143400e+00 -4.1480193795126734e+00 0.0000000000000000e+00  2.9096120487290942e+00 -4.0881959955461742e+00 0.0000000000000000e+00  3.4414851486518909e+00 -3.6609564545435802e+00 0.0000000000000000e+00  2.6285341665310789e+00 -3.5201034995796032e+00 0.0000000000000000e+00  3.1629959224749475e+00 -3.1129348183919170e+00 0.0000000000000000e+00  2.3797038237992623e+00 -3.0314553272185170e+00 0.0000000000000000e+00  2.8977496630142352e+00 -2.6726919818010000e+00 0.0000000000000000e+00  2.1584943971374648e+00 -2.4985608199946894e+00 0.0000000000000000e+00  2.6648414902730870e+00 -2.1808893294139042e+00 0.0000000000000000e+00  1.9517738378814575e+00 -2.1502506649877104e+00 0.0000000000000000e+00  2.4590547543612034e+00 -1.8545573480974866e+00 0.0000000000000000e+00  1.7509335231874112e+00 -1.6017933919531100e+00 0.0000000000000000e+00  2.2681994467725568e+00 -1.3141307864894836e+00 0.0000000000000000e+00  1.5513773452362500e+00 -1.5700073031019557e+00 0.0000000000000000e+00  2.0820075135632310e+00 -1.2852292815466340e+00 0.0000000000000000e+00  1.3350780405985638e+00 -9.1796760141639511e-01 0.0000000000000000e+00  1.8986474717734978e+00 -6.0607430890430958e-01 0.0000000000000000e+00  1.0168561902826683e+00 -1.4596540799321651e+00 0.0000000000000000e+00  1.6954820449564989e+00 -9.9784194416058891e-01 0.0000000000000000e+00  5.0488971958567697e-01 -1.2330503094553436e+00 0.0000000000000000e+00  1.3954097746004128e+00 -4.7503954745843846e-01 0.0000000000000000e+00  -6.9779900765822134e-01 -1.8342809970611587e-01 0.0000000000000000e+00  8.9070830088488528e-01 1.5999065087041633e+00 0.0000000000000000e+00  3.0451082322918617e+00 4.7961052446667560e+00 0.0000000000000000e+00  2.6378722815137285e+00 5.5101662410170977e+00 0.0000000000000000e+00  3.4082013023968063e+00 4.7925049615108746e+00 0.0000000000000000e+00  3.8733933502167295e+00 5.4153369493718788e+00 0.0000000000000000e+00  4.4126096987292875e+00 5.6223730332656849e+00 0.0000000000000000e+00  4.8395917036794529e+00 5.9818509213772710e+00 0.0000000000000000e+00  5.1544278150439462e+00 5.9128325512079574e+00 0.0000000000000000e+00  5.5759415834515611e+00 6.0774859180611074e+00 0.0000000000000000e+00  5.8600788290664489e+00 5.9209545034781295e+00 0.0000000000000000e+00  5.8206946432190927e+00 5.3047491815500480e+00 0.0000000000000000e+00  6.5841940186820871e+00 5.6773395833728681e+00 0.0000000000000000e+00  4.6377541062901155e+00 1.6348790442560923e+00 0.0000000000000000e+00  1.3038955300221577e+01 1.2972722160461354e+01 0.0000000000000000e+00  1.3553267605482498e+01 1.2423474388687385e+01 0.0000000000000000e+00  1.3794658802358288e+01 1.1486484007707629e+01 0.0000000000000000e+00  1.4104276876029983e+01 1.0647203177705517e+01 0.0000000000000000e+00  1.4542741827210842e+01 9.9674093960767483e+00 0.0000000000000000e+00  1.5124366047793758e+01 9.6489655769635387e+00 0.0000000000000000e+00  1.5790479607132911e+01 9.3840730787210020e+00 0.0000000000000000e+00  1.6479160297752827e+01 9.1990590736504689e+00 0.0000000000000000e+00  1.7127517984526136e+01 8.9471464592418180e+00 0.0000000000000000e+00  1.7681768096933531e+01 8.5918500562604123e+00 0.0000000000000000e+00  1.8104760703667132e+01 7.7357717710237583e+00 0.0000000000000000e+00  1.8382909338533160e+01 7.0399475653197099e+00 0.0000000000000000e+00  1.8519677436393451e+01 5.3307183858991456e+00 0.0000000000000000e+00  1.8536758450539189e+01 4.2808944959678081e+00 0.0000000000000000e+00  1.8472668644267593e+01 1.8487846459574662e+00 0.0000000000000000e+00  1.8364607075427543e+01 9.0490670067373902e-01 0.0000000000000000e+00  1.8260533619502478e+01 -1.5737706340191671e+00 0.0000000000000000e+00  1.8182348680464589e+01 -1.5711211841002859e+00 0.0000000000000000e+00  1.8166525108642229e+01 1.6409961045103405e-03 0.0000000000000000e+00  1.8181398037388192e+01 9.8645043961525651e+00 0.0000000000000000e+00  1.8166511451613403e+01 -1.7683704611161793e-03 0.0000000000000000e+00  1.8237880722793676e+01 6.8772018793555798e+00 0.0000000000000000e+00  1.1610923540985029e+01 -5.3107619991978261e+00 0.0000000000000000e+00  1.3008244347275916e+01 -4.0168340998887118e+00 0.0000000000000000e+00  1.1151008535815548e+01 -8.4864379374123082e+00 0.0000000000000000e+00  1.1055439133425406e+01 -8.9223656530687414e+00 0.0000000000000000e+00  1.0147919446236612e+01 -1.0429087143128200e+01 0.0000000000000000e+00  9.5785671997686794e+00 -1.0621931760296508e+01 0.0000000000000000e+00  8.8917519183992333e+00 -1.0472499385662170e+01 0.0000000000000000e+00  8.3260069130698504e+00 -9.8149130894974537e+00 0.0000000000000000e+00  7.5718487897919386e+00 -9.4774735755007757e+00 0.0000000000000000e+00  7.0808947233275958e+00 -8.6404366913844051e+00 0.0000000000000000e+00  6.7149369738951901e+00 -7.6287991985603973e+00 0.0000000000000000e+00  6.2943363006716746e+00 -6.8194965376215846e+00 0.0000000000000000e+00  5.8842345342765716e+00 -6.0347230684308455e+00 0.0000000000000000e+00  5.4882656356565800e+00 -5.2994402910830036e+00 0.0000000000000000e+00  5.0707133825270452e+00 -4.7281836283473941e+00 0.0000000000000000e+00  4.6806423304880305e+00 -4.1705427030778512e+00 0.0000000000000000e+00  4.3286241285086007e+00 -3.6213886649076250e+00 0.0000000000000000e+00  3.9864944666865796e+00 -3.1841794808983006e+00 0.0000000000000000e+00  3.6775033180230654e+00 -2.7039788516346062e+00 0.0000000000000000e+00  3.4136036747760929e+00 -2.2835150833188118e+00 0.0000000000000000e+00  3.1627088825038330e+00 -1.8398933180351762e+00 0.0000000000000000e+00  2.9437546916243797e+00 -1.5543290155567473e+00 0.0000000000000000e+00  2.7517054611379259e+00 -1.0355695485146659e+00 0.0000000000000000e+00  2.5739284377868121e+00 -1.0142999334275642e+00 0.0000000000000000e+00  2.4008779332663792e+00 -3.3758605339152042e-01 0.0000000000000000e+00  2.2293974685792968e+00 -7.0212645685539377e-01 0.0000000000000000e+00  2.0391194097549517e+00 -2.9508282327880133e-02 0.0000000000000000e+00  1.7498128297550049e+00 2.3472026989458992e+00 0.0000000000000000e+00  2.9493809658095471e+00 4.1858178414633223e+00 0.0000000000000000e+00  2.5781394973784804e+00 4.9526498862883903e+00 0.0000000000000000e+00  3.3555431077232631e+00 4.2493459008691161e+00 0.0000000000000000e+00  3.7160474125307710e+00 4.7203115529075008e+00 0.0000000000000000e+00  4.1768228652366188e+00 4.8180535816658585e+00 0.0000000000000000e+00  4.7091533501269796e+00 5.3475953136694860e+00 0.0000000000000000e+00  5.1267682404417609e+00 5.4485369752750685e+00 0.0000000000000000e+00  5.4298279282189901e+00 5.4548935407774719e+00 0.0000000000000000e+00  5.8372168332689958e+00 5.5057359960553987e+00 0.0000000000000000e+00  6.1054966456999065e+00 5.3755772468945269e+00 0.0000000000000000e+00  6.0496174607881308e+00 4.5436689512412443e+00 0.0000000000000000e+00  6.7972363230604067e+00 4.5662547062533907e+00 0.0000000000000000e+00  4.8331950074682357e+00 3.8613803538236630e-01 0.0000000000000000e+00  1.3212072754562232e+01 1.1667815210980153e+01 0.0000000000000000e+00  1.3705703109220234e+01 1.1136520594677709e+01 0.0000000000000000e+00  1.3930060196161119e+01 1.0195343798203419e+01 0.0000000000000000e+00  1.4222222655110723e+01 9.3231061728037439e+00 0.0000000000000000e+00  1.4641446471846479e+01 8.7913874372067369e+00 0.0000000000000000e+00  1.5201327830301130e+01 8.4012357216000613e+00 0.0000000000000000e+00  1.5843534142137633e+01 8.1837684989343487e+00 0.0000000000000000e+00  1.6506077362458427e+01 7.9929823992374871e+00 0.0000000000000000e+00  1.7126915641797240e+01 7.7787924314772905e+00 0.0000000000000000e+00  1.7653764884052716e+01 7.1194225326481613e+00 0.0000000000000000e+00  1.8049798668624152e+01 6.6378994096027615e+00 0.0000000000000000e+00  1.8304415610270219e+01 5.1391363910467787e+00 0.0000000000000000e+00  1.8421419229041636e+01 4.2617026118249388e+00 0.0000000000000000e+00  1.8427596113907686e+01 1.9487620642391259e+00 0.0000000000000000e+00  1.8359895759839070e+01 1.0545282702387695e+00 0.0000000000000000e+00  1.8266802673472164e+01 -1.4268667522080296e+00 0.0000000000000000e+00  1.8185123890804441e+01 -1.5027633058595185e+00 0.0000000000000000e+00  1.8169796942743222e+01 2.3476715597128602e-03 0.0000000000000000e+00  1.8175874290091837e+01 9.8123105350335749e+00 0.0000000000000000e+00  1.8169784382057372e+01 -2.5586107106735554e-03 0.0000000000000000e+00  1.8231518846409859e+01 6.7832913033484266e+00 0.0000000000000000e+00  1.8284608320889600e+01 4.6434613569167063e+00 0.0000000000000000e+00  1.1638889887414859e+01 -6.1009087308538579e+00 0.0000000000000000e+00  1.3023029658749376e+01 -5.7019604456297914e+00 0.0000000000000000e+00  1.1168027735844149e+01 -8.7833954767405462e+00 0.0000000000000000e+00  1.1080748325033737e+01 -9.0775607097209008e+00 0.0000000000000000e+00  1.0185578516955788e+01 -9.7778806385079680e+00 0.0000000000000000e+00  9.6299139253358241e+00 -9.4539625610977627e+00 0.0000000000000000e+00  8.9584102125664948e+00 -8.9785161270177536e+00 0.0000000000000000e+00  8.4082998549620029e+00 -8.3591908500520233e+00 0.0000000000000000e+00  7.6706582373389471e+00 -7.9173827442184530e+00 0.0000000000000000e+00  7.1968776857747381e+00 -7.0939568675989682e+00 0.0000000000000000e+00  6.8487104751866861e+00 -6.2032140724311144e+00 0.0000000000000000e+00  6.4467189591386980e+00 -5.4348013318279733e+00 0.0000000000000000e+00  6.0560901159282299e+00 -4.7212911469038037e+00 0.0000000000000000e+00  5.6802006689722715e+00 -4.1180038708331645e+00 0.0000000000000000e+00  5.2831890897978928e+00 -3.6017767521621251e+00 0.0000000000000000e+00  4.9139197589137860e+00 -3.1097776615821942e+00 0.0000000000000000e+00  4.5826765609842868e+00 -2.6873284610956181e+00 0.0000000000000000e+00  4.2611695108383234e+00 -2.2565467652412079e+00 0.0000000000000000e+00  3.9724122332840275e+00 -1.9035290980051487e+00 0.0000000000000000e+00  3.7283271705297523e+00 -1.4787973774918715e+00 0.0000000000000000e+00  3.4964539904002483e+00 -1.2409704667979407e+00 0.0000000000000000e+00  3.2960773335540838e+00 -7.6148586412743380e-01 0.0000000000000000e+00  3.1213612660147749e+00 -7.6197805259088791e-01 0.0000000000000000e+00  2.9608169049526509e+00 -9.0062173957285566e-02 0.0000000000000000e+00  2.8027831880476968e+00 -4.5938639809480625e-01 0.0000000000000000e+00  2.6482605937787445e+00 2.4691083777377670e-01 0.0000000000000000e+00  2.4684892155248175e+00 2.7660525567057737e+00 0.0000000000000000e+00  3.1246285993872682e+00 3.6296450036211318e+00 0.0000000000000000e+00  2.7789692408135105e+00 4.4332724086677944e+00 0.0000000000000000e+00  3.4946946641333199e+00 3.6416428567762544e+00 0.0000000000000000e+00  3.8983106449992602e+00 4.1822446445753032e+00 0.0000000000000000e+00  4.2546236091055443e+00 4.1312824931581034e+00 0.0000000000000000e+00  4.7085743018663369e+00 4.5557097071042145e+00 0.0000000000000000e+00  5.2309252315081407e+00 4.8312801023805445e+00 0.0000000000000000e+00  5.6349519724465713e+00 5.0119340841715312e+00 0.0000000000000000e+00  5.9209269014610308e+00 4.9085557530047650e+00 0.0000000000000000e+00  6.3083005203115423e+00 4.9886985566569999e+00 0.0000000000000000e+00  6.5549076202476391e+00 4.6429946354496101e+00 0.0000000000000000e+00  6.4774248994876551e+00 3.4598987802164736e+00 0.0000000000000000e+00  7.2043155109310000e+00 3.3485407566584175e+00 0.0000000000000000e+00  5.2162169526232960e+00 -8.7973400716398897e-01 0.0000000000000000e+00  1.3565572038624701e+01 1.0415939996914766e+01 0.0000000000000000e+00  1.4034039224968538e+01 9.8733871682314849e+00 0.0000000000000000e+00  1.4238449947167714e+01 8.9001620299031767e+00 0.0000000000000000e+00  1.4509226159101482e+01 8.1797635393366566e+00 0.0000000000000000e+00  1.4903747301984358e+01 7.5824268246394482e+00 0.0000000000000000e+00  1.5433458535765503e+01 7.2446372872938465e+00 0.0000000000000000e+00  1.6040385114509053e+01 7.0269895291081284e+00 0.0000000000000000e+00  1.6662869666166998e+01 6.8779723363214949e+00 0.0000000000000000e+00  1.7239823655529953e+01 6.3614750882866513e+00 0.0000000000000000e+00  1.7720270728631938e+01 6.0757579836002291e+00 0.0000000000000000e+00  1.8070789884086039e+01 4.7889623395322038e+00 0.0000000000000000e+00  1.8281645715410125e+01 4.1110377773877111e+00 0.0000000000000000e+00  1.8363925127526070e+01 1.9615735665014864e+00 0.0000000000000000e+00  1.8343876536426151e+01 1.1590196560771182e+00 0.0000000000000000e+00  1.8273488218816226e+01 -1.2849291962216309e+00 0.0000000000000000e+00  1.8191996749824671e+01 -1.4273453612247720e+00 0.0000000000000000e+00  1.8174118228384224e+01 2.9769470564816004e-03 0.0000000000000000e+00  1.8176364000639310e+01 9.7919958498851827e+00 0.0000000000000000e+00  1.8174106245933849e+01 -3.2573553409151073e-03 0.0000000000000000e+00  1.8190003841797278e+01 6.7010226324883995e+00 0.0000000000000000e+00  1.8236016520201023e+01 4.568127