<?xml version="1.0"?>
<VTKFile type="UnstructuredGrid"  version="0.1"  >
<UnstructuredGrid>
<Piece  NumberOfPoints="1933" NumberOfCells="3640">
<Points>
<DataArray  type="Float64"  NumberOfComponents="3"  format="ascii">-0.2939859654789673 0.0001093848641729484 0  4.706014080276654 8.087667469729772e-05 0  4.706056890655442 7.500081019072722 0  -0.293943196429717 7.500109455563672 0  9.706014139406619 5.223937850940127e-05 0  9.706057048450489 7.500052406686985 0  14.7060142806841 2.341144423342509e-05 0  14.70605731450979 7.500023585777856 0  19.70601457929422 -5.611076818683993e-06 0  19.70605772556221 7.499994563797552 0  24.7060151055075 -3.479786227067743e-05 0  24.70605831795956 7.499965375904758 0  29.7060159220938 -6.409711062833976e-05 0  29.70605912680816 7.499936075997873 0  34.70601708504416 -9.344256102589968e-05 0  34.70606018533957 7.499906731237152 0  39.70601864539977 -0.000122757015738972 0  39.70606152469158 7.499877419199258 0  44.70602065130268 -0.0001519536012089449 0  44.70606317396071 7.499848226926463 0  49.70602314993318 -0.0001809354560622454 0  49.70606516034371 7.499819251382678 0  54.70602618923141 -0.0002095942061332056 0  54.70606750921772 7.499790601043737 0  59.70602981938237 -0.0002378073695574252 0  59.7060702440249 7.499762398517277 0  64.70603409407067 -0.0002654346740005084 0  64.70607338582658 7.499734784225059 0  69.70603907148505 -0.0002923131277398786 0  69.7060769523728 7.499707921305688 0  74.70604481501961 -0.0003182505392469919 0  74.706080956476 7.499682002028264 0  79.70605139353152 -0.0003430169993703567 0  79.70608540338603 7.499657256166416 0  84.7060588808905 -0.0003663335938794196 0  84.70609028673857 7.499633961987499 0  89.70606735430879 -0.0003878572568626458 0  89.70609558244001 7.499612460789205 0  94.70607689053057 -0.0004071601399243423 0  94.70610123958593 7.49959317628975 0  99.70608755816805 -0.0004237010556048408 0  99.70610716716712 7.499576640668447 0  104.7060994030414 -0.0004367853019389575 0  104.706113214918 7.499563529649718 0  109.7061124206174 -0.0004455072684153676 0  109.7061191464138 7.499554709611612 0  114.7061265044464 -0.0004486673843561249 0  114.7061246028777 7.499551299913781 0  119.7061413494308 -0.000444650966212976 0  119.7061290583325 7.499554752473279 0  124.7061562693605 -0.0004312515924216026 0  124.706131773704 7.499566945633086 0  129.7061698504025 -0.0004054180796008207 0  129.7061317759994 7.499590275084259 0  134.7061792883451 -0.0003629123122842805 0  134.706127934226 7.499627690109922 0  139.7061791098801 -0.0002979289168248026 0  139.7061193117327 7.49968255364711 0  144.7061586669231 -0.0002030450826706055 0  144.7061062325495 7.499758120249706 0  149.7060970356401 -7.142029767642972e-05 0  149.7060931620217 7.499856684424594 0  159.7061073738552 1.118741822437847e-18 0  164.705976011656 -0.0001991240590259065 0  164.7060857113174 7.499768581656495 0  159.7061212401263 7.49992435840207 0  169.7059106037728 -0.0003602330759765276 0  169.706049489915 7.499623558677209 0  174.7058793264952 -0.0004941388002151673 0  174.7060207863577 7.499497041744397 0  179.7058662345329 -0.0006072779324504604 0  179.7060002687749 7.499387715791515 0  184.7058629544804 -0.0007044336760353676 0  184.7059866027512 7.499292645474442 0  189.7058649650874 -0.0007892504006239859 0  189.7059781548552 7.499209009083324 0  194.7058697726418 -0.0008644796532654637 0  194.7059734981528 7.499134466358518 0  199.705875975318 -0.0009321885466653197 0  199.7059715159623 7.499067167456762 0  204.7058827712896 -0.0009939345137141289 0  204.7059713760116 7.499005673065371 0  209.7058896952433 -0.001050901188761391 0  209.705972472465 7.498948865073901 0  214.7058964746739 -0.001103999034026802 0  214.7059743692111 7.498895870063611 0  219.7059029499626 -0.001153938055664839 0  219.7059767537935 7.498845999405052 0  224.7059090289794 -0.001201279901998535 0  224.70597940271 7.498798704072123 0  229.7059146607105 -0.001246475244622709 0  229.705982156212 7.498753541038271 0  234.7059198195965 -0.001289890808085585 0  234.7059849003217 7.4987101483404 0  239.7059244960433 -0.00133182914092689 0  239.7059875541007 7.498668226487949 0  244.7059286905949 -0.001372543274818487 0  244.7059900606641 7.498627524483384 0  249.7059324103425 -0.001412247749887132 0  249.7059923808482 7.498587829198724 0  254.7059356667629 -0.00145112702168659 0  254.705994488765 7.498548957215072 0  259.7059384745113 -0.001489341945371832 0  259.7059963687016 7.498510748497083 0  264.705940850912 -0.001527034806684428 0  264.7059980129974 7.498473061470208 0  269.705942815991 -0.001564333200674386 0  269.7059994206395 7.498435769218876 0  274.7059443929961 -0.001601352918541212 0  274.7060005963736 7.498398756649089 0  279.7059456093878 -0.00163819986318398 0  279.7060015501915 7.498361918578441 0  284.7059464983093 -0.001674970843197449 0  284.7060022970578 7.498325158848949 0  289.7059471004921 -0.001711752846732091 0  289.7060028567267 7.498288390722181 0  294.7059474664632 -0.001748619995761982 0  294.7060032535418 7.49825153902938 0  299.7059476584843 -0.001785626700919645 0  299.7060035161392 7.498214544820136 0  304.7059477508013 -0.001822794381404057 0  304.7060036773596 7.498177373558892 0  309.705947824537 -0.001860087334917865 0  309.706003775734 7.498140028244485 0  4.706099295213038 15.00008134389755 0  -0.2939007996525025 15.00010962804288 0  9.70609945233956 15.00005277688937 0  14.70609970369378 15.00002395580201 0  19.70610007065021 14.9999949176023 0  24.70610057028458 14.99996571095694 0  29.7061012176846 14.99993639552752 0  34.70610202647605 14.99990704057399 0  39.70610300862742 14.99987772408504 0  44.70610417396998 14.99984853275893 0  49.70610552956931 14.99981956286697 0  54.70610707894625 14.99979092197573 0  59.70610882108295 14.99976273153487 0  64.70611074911636 14.99973513039738 0  69.70611284859726 14.9997082794123 0  74.706115095176 14.99968236731275 0  79.70611745155709 14.99965761821217 0  84.70611986356849 14.99963430111799 0  89.70612225522824 14.99961274196243 0  94.70612452283039 14.99959333869905 0  99.70612652837679 14.99957657994016 0  104.7061280933839 14.99956306723285 0  109.7061289954262 14.99955354001686 0  114.7061289723275 14.99954889982104 0  119.7061277433807 14.99955022487289 0  124.7061250643833 14.99955875525316 0  129.7061208442933 14.99957580696686 0  134.7061153645736 14.99960253172979 0  139.706109648776 14.999639360448 0  144.7061059958332 14.99968480698199 0  149.7061084997823 14.99973287015887 0  164.7061388966899 14.99967938867436 0  159.7061423153356 14.99978195651384 0  169.7061263007306 14.99957074065933 0  174.7061104784356 14.99946594860755 0  179.7060951595679 14.99936924489206 0  184.7060820062996 14.9992815132022 0  189.7060714923747 14.99920218949262 0  194.7060635159128 14.99913022084332 0  199.7060577417707 14.99906448681218 0  204.7060537742036 14.99900396304817 0  209.7060512357016 14.99894776972132 0  214.7060497974106 14.99889517202156 0  219.7060491861475 14.99884556324435 0  224.7060491811081 14.99879844368914 0  229.7060496067964 14.99875340064854 0  234.7060503252757 14.99871009122474 0  239.7060512290267 14.99866822822034 0  244.7060522348771 14.99862756879275 0  249.706053279055 14.99858790541038 0  254.7060543132486 14.99854905866067 0  259.706055301524 14.99851087153299 0  264.7060562179154 14.99847320488244 0  269.7060570445634 14.99843593386402 0  274.7060577702427 14.9983989452 0  279.7060583891943 14.99836213521082 0  284.7060589001816 14.99832540859531 0  289.70605930573 14.99828867797749 0  294.7060596116646 14.99825186420152 0  299.7060598271902 14.9982148971562 0  304.7060599662057 14.99817771628745 0  309.7060600511057 14.99814026827811 0  4.706141283704654 22.5000819937434 0  -0.293858809113121 22.50011015055473 0  9.706141413630091 22.50005345602879 0  14.70614160288416 22.50002461512159 0  19.70614186324298 22.49999553788937 0  24.70614220038907 22.49996628936275 0  29.70614261645401 22.49993693719674 0  34.70614311110569 22.49990755381753 0  39.70614368171221 22.49987821768691 0  44.7061443229646 22.49984901445116 0  49.70614502617922 22.49982003835463 0  54.70614577837751 22.49979139411036 0  59.7061465611798 22.49976319934011 0  64.70614734951066 22.49973558767838 0  69.70614811011178 22.4997087126361 0  74.70614879987913 22.49968275233227 0  79.70614936409153 22.49965791519616 0  84.70614973470344 22.49963444670879 0  89.70614982905269 22.49961263714303 0  94.70614954964113 22.49959283001721 0  99.70614878613351 22.49957543047587 0  104.7061474214842 22.49956091185533 0  109.7061453452157 22.49954981693623 0  114.7061424783644 22.4995427472901 0  119.7061388163003 22.4995403288858 0  124.7061344968078 22.49954313367769 0  129.7061298995258 22.49955152429435 0  134.706125774657 22.49956537261946 0  139.7061233746402 22.49958358896284 0  144.7061245059976 22.49960341193622 0  149.7061313080254 22.49961955072202 0  164.7061715209288 22.49957948245784 0  159.7061607126326 22.49964842128961 0  169.7061736474248 22.49950021330489 0  174.7061698581329 22.499417795185 0  179.7061628740699 22.49933684896133 0  184.7061547189094 22.49925980326803 0  189.706146652006 22.49918760970311 0  194.7061393467265 22.49912037807522 0  199.7061330922566 22.49905779941474 0  204.7061279502205 22.49899939179402 0  209.7061238598639 22.49894463084029 0  214.7061207030812 22.49889301298056 0  219.7061183421271 22.49884408198394 0  224.7061166400707 22.49879743659735 0  229.7061154708993 22.49875272910932 0  234.7061147236839 22.49870966004912 0  239.7061143035045 22.49866797166348 0  244.7061141307294 22.49862744142796 0  249.7061141395448 22.49858787613513 0  254.7061142762446 22.49854910674061 0  259.7061144975099 22.49851098398252 0  264.7061147688213 22.49847337471854 0  269.7061150630233 22.49843615890511 0  274.7061153590631 22.49839922714073 0  279.7061156409 22.49836247869574 0  284.7061158965925 22.49832581993145 0  289.7061161176273 22.49828916294956 0  294.706116298614 22.49825242415584 0  29
[...]
<PointData  Vectors="v"> 
<DataArray  type="Float64"  Name="v"  NumberOfComponents="3" format="ascii">-1.1012929728640848e+00 -7.6635598256549287e+00 0.0000000000000000e+00  -1.6584808250550656e+00 -7.1705171619386174e+00 0.0000000000000000e+00  -1.5283897255157297e+00 -6.3349910025696774e+00 0.0000000000000000e+00  -1.0982899283952485e+00 -7.0186658512091604e+00 0.0000000000000000e+00  -2.3520684145823170e+00 -7.7482012453998008e+00 0.0000000000000000e+00  -2.0851718009672346e+00 -6.7088239378677841e+00 0.0000000000000000e+00  -2.9730401158707682e+00 -8.7701685520032999e+00 0.0000000000000000e+00  -2.7775288503495004e+00 -7.8402964912036692e+00 0.0000000000000000e+00  -3.5164918235980323e+00 -9.0815405655662023e+00 0.0000000000000000e+00  -3.3964956774345221e+00 -8.2686829618092776e+00 0.0000000000000000e+00  -4.1974007764353214e+00 -9.9550018453760085e+00 0.0000000000000000e+00  -3.9371775020828066e+00 -8.9366864328628566e+00 0.0000000000000000e+00  -4.7363565983701834e+00 -1.0308683261009726e+01 0.0000000000000000e+00  -4.6143769991562689e+00 -9.5038963247380757e+00 0.0000000000000000e+00  -4.8154526312590322e+00 -1.0045707807956228e+01 0.0000000000000000e+00  -5.1488087091620365e+00 -9.9314528879699839e+00 0.0000000000000000e+00  -5.8992298714230591e+00 -1.1141444350391822e+01 0.0000000000000000e+00  -5.2226241470893910e+00 -9.5209349689154799e+00 0.0000000000000000e+00  -2.7933534749662106e+00 -5.9777841388164576e+00 0.0000000000000000e+00  -6.3001838144135602e+00 -1.0642114758371779e+01 0.0000000000000000e+00  -1.3915313196566707e+01 -2.1862293341312938e+01 0.0000000000000000e+00  -3.1873459914034878e+00 -5.1863227531285885e+00 0.0000000000000000e+00  -1.3595528113684054e+01 -2.0088172540021084e+01 0.0000000000000000e+00  -1.4301841619314350e+01 -2.0574997475625445e+01 0.0000000000000000e+00  -1.3672690003929448e+01 -1.8768542810365972e+01 0.0000000000000000e+00  -1.3973522536233405e+01 -1.8660967930913735e+01 0.0000000000000000e+00  -1.4203776094010658e+01 -1.8101512608464503e+01 0.0000000000000000e+00  -1.4040858492272021e+01 -1.7314414449854834e+01 0.0000000000000000e+00  -1.5143929736156986e+01 -1.8068579643052434e+01 0.0000000000000000e+00  -1.4560751152341254e+01 -1.6669270356640443e+01 0.0000000000000000e+00  -1.6394119389568033e+01 -1.8460080700753693e+01 0.0000000000000000e+00  -1.5487864435408394e+01 -1.6596781047042224e+01 0.0000000000000000e+00  -1.7860699282140317e+01 -1.9068945180579899e+01 0.0000000000000000e+00  -1.6723534649237596e+01 -1.6882507128080437e+01 0.0000000000000000e+00  -1.9453083838562513e+01 -1.9955982275889820e+01 0.0000000000000000e+00  -1.8174268921640024e+01 -1.7582106342363215e+01 0.0000000000000000e+00  -2.1080803300452388e+01 -2.0695116593680389e+01 0.0000000000000000e+00  -1.9748945535372144e+01 -1.8269059626331003e+01 0.0000000000000000e+00  -2.2667140639883094e+01 -2.1319874861586907e+01 0.0000000000000000e+00  -2.1357810892131226e+01 -1.8957309707935256e+01 0.0000000000000000e+00  -2.4148519672098420e+01 -2.1667776854637289e+01 0.0000000000000000e+00  -2.2923959385665423e+01 -1.9463435436677514e+01 0.0000000000000000e+00  -2.5469508836904481e+01 -2.1703071583382439e+01 0.0000000000000000e+00  -2.4383901590797581e+01 -1.9740250571623349e+01 0.0000000000000000e+00  -2.6594347279225076e+01 -2.0973740414797224e+01 0.0000000000000000e+00  -2.5682029394760885e+01 -1.9305605154311429e+01 0.0000000000000000e+00  -2.7509416799893415e+01 -2.0254543933066643e+01 0.0000000000000000e+00  -2.6784031172566998e+01 -1.8902550616495070e+01 0.0000000000000000e+00  -2.8209025179038132e+01 -1.8105671231841235e+01 0.0000000000000000e+00  -2.7673822298764875e+01 -1.7075669541909971e+01 0.0000000000000000e+00  -2.8715184572596460e+01 -1.6435147143188445e+01 0.0000000000000000e+00  -2.8349937792644692e+01 -1.5698306601105632e+01 0.0000000000000000e+00  -2.9046629797880186e+01 -1.2751867931477406e+01 0.0000000000000000e+00  -2.8828776083174489e+01 -1.2273448353292588e+01 0.0000000000000000e+00  -2.9247438718447363e+01 -1.0091039466823238e+01 0.0000000000000000e+00  -2.9137516981509631e+01 -9.8142672176895811e+00 0.0000000000000000e+00  -2.9342412963692009e+01 -5.2016067671582134e+00 0.0000000000000000e+00  -2.9308930390273659e+01 -5.0757984006279635e+00 0.0000000000000000e+00  -2.9381811078464860e+01 -1.2348200603739774e+00 0.0000000000000000e+00  -2.9383432856137521e+01 -1.2027649283488890e+00 0.0000000000000000e+00  -2.9389262608414235e+01 5.2622182349244153e-09 0.0000000000000000e+00  -2.9389940975494437e+01 -7.0928823325298776e-04 0.0000000000000000e+00  -2.9389262614658175e+01 4.1363289339257896e-19 0.0000000000000000e+00  -2.0123452011146284e+01 7.0726875613165561e+00 0.0000000000000000e+00  -2.9383913825740926e+01 -6.8002572916447575e+00 0.0000000000000000e+00  -2.9389929045744879e+01 6.7738780885034824e-04 0.0000000000000000e+00  -2.0747844068537564e+01 1.3370890222221735e+01 0.0000000000000000e+00  -2.0151147748746421e+01 1.4347684632568772e+01 0.0000000000000000e+00  -1.7729652119780436e+01 2.0813253967825553e+01 0.0000000000000000e+00  -2.0813210104399854e+01 1.6316808223170952e+01 0.0000000000000000e+00  -1.6951938589989336e+01 2.2299823513866816e+01 0.0000000000000000e+00  -1.7833336506432314e+01 2.1168095149114734e+01 0.0000000000000000e+00  -1.5272131140454578e+01 2.5078802099657377e+01 0.0000000000000000e+00  -1.7093188919901415e+01 2.2592129968092642e+01 0.0000000000000000e+00  -1.4060417521562126e+01 2.5293908445060648e+01 0.0000000000000000e+00  -1.5450421213586846e+01 2.3510069859544085e+01 0.0000000000000000e+00  -1.2765636518787662e+01 2.5374193010995370e+01 0.0000000000000000e+00  -1.4275993698671300e+01 2.3464486068198362e+01 0.0000000000000000e+00  -1.1649850459746720e+01 2.4322328144613067e+01 0.0000000000000000e+00  -1.3017698539666986e+01 2.2681602034982589e+01 0.0000000000000000e+00  -1.0321878931033366e+01 2.3154212524573907e+01 0.0000000000000000e+00  -1.1938011345732669e+01 2.1194521665429416e+01 0.0000000000000000e+00  -9.3662713533398172e+00 2.1312698723706895e+01 0.0000000000000000e+00  -1.0645947606952056e+01 1.9911316410432654e+01 0.0000000000000000e+00  -8.5832226663114781e+00 1.9456725169966774e+01 0.0000000000000000e+00  -9.7257763331353893e+00 1.8313971406013248e+01 0.0000000000000000e+00  -7.7315366119708626e+00 1.7763011488132722e+01 0.0000000000000000e+00  -8.9777918859854289e+00 1.6517039640107054e+01 0.0000000000000000e+00  -6.9248974764485673e+00 1.6163149874942548e+01 0.0000000000000000e+00  -8.1609650843613419e+00 1.4984371270568181e+01 0.0000000000000000e+00  -6.1671648776840895e+00 1.4746999245077564e+01 0.0000000000000000e+00  -7.3887690349728796e+00 1.3641394381862559e+01 0.0000000000000000e+00  -5.4218049968107591e+00 1.3451106093583181e+01 0.0000000000000000e+00  -6.6651146012895008e+00 1.2363717504980546e+01 0.0000000000000000e+00  -4.7436683368325951e+00 1.2209984645681059e+01 0.0000000000000000e+00  -5.9535270515729914e+00 1.1223098790218261e+01 0.0000000000000000e+00  -4.1405383897447665e+00 1.1071350069424092e+01 0.0000000000000000e+00  -5.3087729496694509e+00 1.0196691067605054e+01 0.0000000000000000e+00  -3.5749344472385118e+00 9.9824424165682135e+00 0.0000000000000000e+00  -4.7386161732344450e+00 9.1637808920990391e+00 0.0000000000000000e+00  -3.0721759520675547e+00 8.9194326402992878e+00 0.0000000000000000e+00  -4.2057039266627854e+00 8.1946590772440100e+00 0.0000000000000000e+00  -2.6412894647308880e+00 7.9215161330349169e+00 0.0000000000000000e+00  -3.7351709328073954e+00 7.3043642133723434e+00 0.0000000000000000e+00  -2.2462174955462104e+00 6.9171381263117793e+00 0.0000000000000000e+00  -3.3362860928317972e+00 6.3532582195620328e+00 0.0000000000000000e+00  -1.9053822644723988e+00 5.9819465418720608e+00 0.0000000000000000e+00  -2.9726522912018889e+00 5.4993734989160430e+00 0.0000000000000000e+00  -1.6183264576538576e+00 5.0287489701318746e+00 0.0000000000000000e+00  -2.6633087795282129e+00 4.6261505305474175e+00 0.0000000000000000e+00  -1.3657746933852517e+00 4.2135286664592995e+00 0.0000000000000000e+00  -2.4066994403769262e+00 3.8631611171800970e+00 0.0000000000000000e+00  -1.1476809454206334e+00 3.2744635468486050e+00 0.0000000000000000e+00  -2.1855190574675634e+00 2.9742135638886844e+00 0.0000000000000000e+00  -9.5688681113255614e-01 2.7364829700797073e+00 0.0000000000000000e+00  -1.9963775092772365e+00 2.4791771142560886e+00 0.0000000000000000e+00  -7.8076556067416891e-01 1.7858896945037899e+00 0.0000000000000000e+00  -1.8377187931873957e+00 1.5466253801963850e+00 0.0000000000000000e+00  -5.4319740154944174e-01 1.7290250023564950e+00 0.0000000000000000e+00  -1.6876480643974980e+00 1.4036241510454561e+00 0.0000000000000000e+00  -1.8296420233506194e-01 1.2033950721401958e+00 0.0000000000000000e+00  -1.4862769565564655e+00 6.8287214065774504e-01 0.0000000000000000e+00  6.6175649918015345e-01 7.4352408923719542e-03 0.0000000000000000e+00  -1.1405487897363165e+00 -1.2182655541034675e+00 0.0000000000000000e+00  -1.8058832117571273e+00 -5.6894472285231057e+00 0.0000000000000000e+00  -1.3319026527921520e+00 -6.3086381336996951e+00 0.0000000000000000e+00  -2.2363278739757684e+00 -5.8737377079344091e+00 0.0000000000000000e+00  -2.7925976292496721e+00 -6.8026458212497367e+00 0.0000000000000000e+00  -3.4831897453210376e+00 -7.3418942873441688e+00 0.0000000000000000e+00  -4.0989879572774450e+00 -8.1281009287711150e+00 0.0000000000000000e+00  -4.6350310184311976e+00 -8.4915664264375792e+00 0.0000000000000000e+00  -5.3059650333378681e+00 -9.1343414183542766e+00 0.0000000000000000e+00  -5.8323644791150713e+00 -9.4154507354464378e+00 0.0000000000000000e+00  -5.8966821597196626e+00 -9.0321386206677765e+00 0.0000000000000000e+00  -6.9632399890420826e+00 -9.8625272606522589e+00 0.0000000000000000e+00  -3.8386433195838530e+00 -3.9101175804392416e+00 0.0000000000000000e+00  -1.4942416430216831e+01 -1.9159805842472771e+01 0.0000000000000000e+00  -1.4602948104979529e+01 -1.7221218634389892e+01 0.0000000000000000e+00  -1.4656670147296783e+01 -1.5898400101665848e+01 0.0000000000000000e+00  -1.5160289588772665e+01 -1.5217544369064363e+01 0.0000000000000000e+00  -1.6067505930109903e+01 -1.5042502930864551e+01 0.0000000000000000e+00  -1.7279757252323687e+01 -1.5420973073489442e+01 0.0000000000000000e+00  -1.8704044864872543e+01 -1.5924456230880585e+01 0.0000000000000000e+00  -2.0248700729257667e+01 -1.6563503545623181e+01 0.0000000000000000e+00  -2.1824112185157723e+01 -1.7134744318717381e+01 0.0000000000000000e+00  -2.3354175987127437e+01 -1.7573588628568327e+01 0.0000000000000000e+00  -2.4774487923254810e+01 -1.7382838193958733e+01 0.0000000000000000e+00  -2.6030360475885349e+01 -1.7275763487766483e+01 0.0000000000000000e+00  -2.7087456916061637e+01 -1.5767718656682888e+01 0.0000000000000000e+00  -2.7930656428845378e+01 -1.4714216224015525e+01 0.0000000000000000e+00  -2.8557104114185410e+01 -1.1581452894597982e+01 0.0000000000000000e+00  -2.8988118438352231e+01 -9.3854253833056553e+00 0.0000000000000000e+00  -2.9243894544092797e+01 -4.8400403322496848e+00 0.0000000000000000e+00  -2.9371380923303377e+01 -1.1312033225255620e+00 0.0000000000000000e+00  -2.9391565317951329e+01 -1.3511114093016315e-03 0.0000000000000000e+00  -2.9362957927312678e+01 -6.8626997546432698e+00 0.0000000000000000e+00  -2.9391543560769581e+01 1.3313391738956387e-03 0.0000000000000000e+00  -2.9301250495185613e+01 5.1199409259156103e-01 0.0000000000000000e+00  -2.0102763972881384e+01 1.7336915665556322e+01 0.0000000000000000e+00  -2.0809354367690574e+01 1.6724016991447371e+01 0.0000000000000000e+00  -1.7871963588199282e+01 2.1508359594678485e+01 0.0000000000000000e+00  -1.7174857051544752e+01 2.1068988492739162e+01 0.0000000000000000e+00  -1.5571626687552449e+01 2.1727285127668367e+01 0.0000000000000000e+00  -1.4436607884010906e+01 2.0816491755506039e+01 0.0000000000000000e+00  -1.3215448406066166e+01 1.9596501623145155e+01 0.0000000000000000e+00  -1.2171594293166109e+01 1.7994402048038189e+01 0.0000000000000000e+00  -1.0914428515149689e+01 1.6954306252103841e+01 0.0000000000000000e+00  -1.0028363213888630e+01 1.5414970484748741e+01 0.0000000000000000e+00  -9.3136594527498531e+00 1.3779044405268971e+01 0.0000000000000000e+00  -8.5297643975308439e+00 1.2502607247270889e+01 0.0000000000000000e+00  -7.7899370838962119e+00 1.1297309075483767e+01 0.0000000000000000e+00  -7.0980352060764567e+00 1.0174616358078598e+01 0.0000000000000000e+00  -6.4177147229271814e+00 9.2480617744903295e+00 0.0000000000000000e+00  -5.8036181411960071e+00 8.3266315528906514e+00 0.0000000000000000e+00  -5.2634698773531037e+00 7.4130670123885514e+00 0.0000000000000000e+00  -4.7599790289046391e+00 6.6160184973581968e+00 0.0000000000000000e+00  -4.3182767962640325e+00 5.7718594426719712e+00 0.0000000000000000e+00  -3.9475172446188722e+00 4.9707488802228621e+00 0.0000000000000000e+00  -3.6115373844335426e+00 4.1782446138756724e+00 0.0000000000000000e+00  -3.3290546415412487e+00 3.4945540479560298e+00 0.0000000000000000e+00  -3.0989882686840473e+00 2.6574398425243126e+00 0.0000000000000000e+00  -2.9032366816601254e+00 2.2118517659300099e+00 0.0000000000000000e+00  -2.7398773036111788e+00 1.3214968231393895e+00 0.0000000000000000e+00  -2.6046339609776670e+00 1.1964963996436717e+00 0.0000000000000000e+00  -2.4802141168756622e+00 3.8992180354571138e-01 0.0000000000000000e+00  -2.3003552527519537e+00 -1.7174318244028117e+00 0.0000000000000000e+00  -2.5189480804960094e+00 -4.9776162792100926e+00 0.0000000000000000e+00  -2.0906424784446580e+00 -5.6676135127823084e+00 0.0000000000000000e+00  -2.9941688625259322e+00 -5.2271894689018268e+00 0.0000000000000000e+00  -3.4259004019861310e+00 -5.9685760653416304e+00 0.0000000000000000e+00  -3.9816260892575137e+00 -6.3077760461669667e+00 0.0000000000000000e+00  -4.6696915537915435e+00 -7.2079041036204359e+00 0.0000000000000000e+00  -5.2805133544133653e+00 -7.6931814715379652e+00 0.0000000000000000e+00  -5.8084933875657629e+00 -8.1356910389734338e+00 0.0000000000000000e+00  -6.4683473151470121e+00 -8.6359056297527506e+00 0.0000000000000000e+00  -6.9805525207472705e+00 -8.9480674935197761e+00 0.0000000000000000e+00  -7.0274906576791318e+00 -8.2767330353965143e+00 0.0000000000000000e+00  -8.0748754828869682e+00 -8.6110888846039160e+00 0.0000000000000000e+00  -4.9324175406753321e+00 -2.5166772074360417e+00 0.0000000000000000e+00  -1.6021797391930296e+01 -1.7741371909906928e+01 0.0000000000000000e+00  -1.5668299247617444e+01 -1.5831852812207462e+01 0.0000000000000000e+00  -1.5703734226697687e+01 -1.4480398230587598e+01 0.0000000000000000e+00  -1.6182640060915368e+01 -1.3704549115107458e+01 0.0000000000000000e+00  -1.7058404306424549e+01 -1.3630610698783705e+01 0.0000000000000000e+00  -1.8232293786958898e+01 -1.3820999962781451e+01 0.0000000000000000e+00  -1.9610872050602339e+01 -1.4284171934527683e+01 0.0000000000000000e+00  -2.1102943563289660e+01 -1.4814153257993894e+01 0.0000000000000000e+00  -2.2619137150129561e+01 -1.5326145234014746e+01 0.0000000000000000e+00  -2.4082494531724656e+01 -1.5303745877194757e+01 0.0000000000000000e+00  -2.5430042139538955e+01 -1.5449125748433902e+01 0.0000000000000000e+00  -2.6606074733638188e+01 -1.4241363982462920e+01 0.0000000000000000e+00  -2.7578755791071256e+01 -1.3514965372851321e+01 0.0000000000000000e+00  -2.8330741920848197e+01 -1.0704887644737921e+01 0.0000000000000000e+00  -2.8866233400133520e+01 -8.8126285987269934e+00 0.0000000000000000e+00  -2.9198819748925658e+01 -4.5127948577101220e+00 0.0000000000000000e+00  -2.9368822889417686e+01 -1.0239636577773195e+00 0.0000000000000000e+00  -2.9394100366390678e+01 -1.9320967125877335e-03 0.0000000000000000e+00  -2.9344749233729928e+01 -7.0238781325415651e+00 0.0000000000000000e+00  -2.9394081066011147e+01 1.9039416591125537e-03 0.0000000000000000e+00  -2.9151962567773932e+01 3.8958727484049011e-01 0.0000000000000000e+00  -2.9080606791107641e+01 3.5811692337787822e+00 0.0000000000000000e+00  -1.9939821090060608e+01 1.7839066860082973e+01 0.0000000000000000e+00  -2.0718910076076359e+01 1.7153226912058130e+01 0.0000000000000000e+00  -1.7850642546654075e+01 2.0075366736578221e+01 0.0000000000000000e+00  -1.7219501522957589e+01 1.9368768707352285e+01 0.0000000000000000e+00  -1.5676927655899947e+01 1.9158923816226618e+01 0.0000000000000000e+00  -1.4599288719506996e+01 1.7806608347981342e+01 0.0000000000000000e+00  -1.3431168910133158e+01 1.6468511639829288e+01 0.0000000000000000e+00  -1.2437822344758318e+01 1.5106704398619637e+01 0.0000000000000000e+00  -1.1228951277082832e+01 1.4123105540484149e+01 0.0000000000000000e+00  -1.0389655397079103e+01 1.2743221231392948e+01 0.0000000000000000e+00  -9.7207341320679124e+00 1.1362449309483324e+01 0.0000000000000000e+00  -8.9818713666431602e+00 1.0222701402000192e+01 0.0000000000000000e+00  -8.2862183710094506e+00 9.1712287878187144e+00 0.0000000000000000e+00  -7.6376943762217406e+00 8.2613395150350026e+00 0.0000000000000000e+00  -6.9998040690117982e+00 7.4385777671538476e+00 0.0000000000000000e+00  -6.4271187552277587e+00 6.6350808004222985e+00 0.0000000000000000e+00  -5.9273013925003157e+00 5.8922955861795003e+00 0.0000000000000000e+00  -5.4631067169918808e+00 5.1399044647317078e+00 0.0000000000000000e+00  -5.0594599206798305e+00 4.4446021679343319e+00 0.0000000000000000e+00  -4.7258393442954993e+00 3.7030708380632174e+00 0.0000000000000000e+00  -4.4255356510854655e+00 3.0994712543549690e+00 0.0000000000000000e+00  -4.1781300438955240e+00 2.3390422185167119e+00 0.0000000000000000e+00  -3.9810837912459300e+00 1.9460100243996601e+00 0.0000000000000000e+00  -3.8186898411274313e+00 1.0999666896873619e+00 0.0000000000000000e+00  -3.6846552337918652e+00 1.0223120600884965e+00 0.0000000000000000e+00  -3.5830406057220867e+00 2.2118452702748354e-01 0.0000000000000000e+00  -3.4795844437380219e+00 -1.9571137080464946e+00 0.0000000000000000e+00  -3.4386782470301620e+00 -4.3338246931249866e+00 0.0000000000000000e+00  -3.0485772041392027e+00 -5.0844426399237301e+00 0.0000000000000000e+00  -3.8690135509485177e+00 -4.5123101189691095e+00 0.0000000000000000e+00  -4.3475623361241542e+00 -5.3189076407181917e+00 0.0000000000000000e+00  -4.7821343429005507e+00 -5.4731675652796223e+00 0.0000000000000000e+00  -5.3391739343255953e+00 -6.1766279047986465e+00 0.0000000000000000e+00  -6.0258206490036050e+00 -6.7799496338723433e+00 0.0000000000000000e+00  -6.6318654259290897e+00 -7.3495823618452345e+00 0.0000000000000000e+00  -7.1510763637396826e+00 -7.6550912136125469e+00 0.0000000000000000e+00  -7.7976743039773213e+00 -8.1917574093439747e+00 0.0000000000000000e+00  -8.2922786838364644e+00 -8.2211248260298397e+00 0.0000000000000000e+00  -8.3185504560856671e+00 -7.0556754708971487e+00 0.0000000000000000e+00  -9.3452436114973860e+00 -7.2428928012217426e+00 0.0000000000000000e+00  -6.1877468801910336e+00 -1.1148310604382170e+00 0.0000000000000000e+00  -1.7270048802630836e+01 -1.6367001726681085e+01 0.0000000000000000e+00  -1.6910333493269142e+01 -1.4435924094489742e+01 0.0000000000000000e+00  -1.6933398654497687e+01 -1.3001095736500602e+01 0.0000000000000000e+00  -1.7390980180456530e+01 -1.2339283231933173e+01 0.0000000000000000e+00  -1.8234630892684436e+01 -1.2089522969007742e+01 0.0000000000000000e+00  -1.9366034038081501e+01 -1.2253516075707077e+01 0.0000000000000000e+00  -2.0691435714814226e+01 -1.2620634679928996e+01 0.0000000000000000e+00  -2.2119314566222656e+01 -1.3104059574903653e+01 0.0000000000000000e+00  -2.3560306507460922e+01 -1.3168226556989266e+01 0.0000000000000000e+00  -2.4938050850320042e+01 -1.3496041049003670e+01 0.0000000000000000e+00  -2.6187923373490879e+01 -1.2550534994017566e+01 0.0000000000000000e+00  -2.7257691969065011e+01 -1.2139485550513198e+01 0.0000000000000000e+00  -2.8112471677883473e+01 -9.6596224250840041e+00 0.0000000000000000e+00  -2.8743906740123286e+01 -8.1061342120745223e+00 0.0000000000000000e+00  -2.9147463542654151e+01 -4.0916486181932203e+00 0.0000000000000000e+00  -2.9362301849561796e+01 -8.7960065631243745e-01 0.0000000000000000e+00  -2