<?xml version="1.0"?>
<VTKFile type="UnstructuredGrid"  version="0.1"  >
<UnstructuredGrid>
<Piece  NumberOfPoints="1933" NumberOfCells="3640">
<Points>
<DataArray  type="Float64"  NumberOfComponents="3"  format="ascii">-0.2935579852007977 -0.002727712101758738 0  4.706442042106104 -0.002642537494695085 0  4.706314230755715 7.49735750459361 0  -0.2936857899507483 7.497272344438413 0  9.706442101180555 -0.002557380287738616 0  9.706314255592183 7.497442649828964 0  14.70644220134937 -0.002472191284865075 0  14.70631427969975 7.497527830179805 0  19.70644233892542 -0.002386924121613183 0  19.70631429482735 7.49761309125236 0  24.7064425018024 -0.002301537096191667 0  24.70631428906801 7.497698473791774 0  29.70644267227764 -0.002215992733822318 0  29.70631424680888 7.497784014476984 0  34.70644282849535 -0.002130256639337079 0  34.70631414867885 7.49786974710142 0  39.70644294493079 -0.002044296243831788 0  39.70631397135688 7.497955703775979 0  44.706442992219 -0.001958079656859246 0  44.70631368717696 7.49804191601627 0  49.70644293651262 -0.001871574674782525 0  49.70631326349887 7.498128415680768 0  54.70644273846082 -0.001784747933305485 0  54.7063126618246 7.498215235771508 0  59.70644235183277 -0.001697564170280181 0  59.7063118366332 7.498302411125275 0  64.70644172175531 -0.001609985558557225 0  64.7063107338908 7.498389979027265 0  69.70644078248091 -0.00152197106678477 0  69.70630928917116 7.498477979777784 0  74.70643945454745 -0.001433475803508124 0  74.70630742529289 7.498566457238965 0  79.70643764111018 -0.001344450294089894 0  79.7063050493441 7.498655459382106 0  84.7064352231137 -0.001254839629498366 0  84.70630204892372 7.498745038844215 0  89.70643205278814 -0.001164582411093123 0  89.70629828737715 7.49883525347451 0  94.70642794466136 -0.001073609399796098 0  94.70629359776557 7.498926166788199 0  99.70642266277824 -0.0009818417748770306 0  99.70628777528998 7.499017848100779 0  104.7064159019731 -0.0008891889559284134 0  104.7062805679805 7.499110371797107 0  109.7064072595656 -0.0007955461449302629 0  109.7062716657938 7.499203814495445 0  114.7063961912596 -0.0007007923675824175 0  114.7062606891921 7.499298247382706 0  119.7063819404455 -0.0006047914935168419 0  119.7062471804904 7.499393717863713 0  124.7063634220051 -0.0005074031303788787 0  124.706230606242 7.49949020813903 0  129.7063390274762 -0.0004085215069461498 0  129.7062103895354 7.49958754492195 0  134.7063062937964 -0.0003081889071525621 0  134.7061860127519 7.499685207534873 0  139.7062613364526 -0.0002069034137942735 0  139.7061572736393 7.499781929162259 0  144.706197881694 -0.0001064355591445633 0  144.7061248552299 7.499874890808342 0  149.7061056342786 -1.201759643975521e-05 0  149.7060914992952 7.499958164084212 0  159.7061073738538 3.390291596300515e-19 0  164.7061622984796 3.489051946564128e-05 0  164.7061177519692 7.500034193414323 0  159.7060947017339 7.499998335299837 0  169.706208020698 8.624261495638669e-05 0  169.7061406583268 7.500086300953162 0  174.7062457502274 0.0001483628569390813 0  174.7061621099348 7.5001487327927 0  179.7062768351596 0.0002176079485440242 0  179.7061815599075 7.500218054603922 0  184.7063024979845 0.0002916703864525895 0  184.7061988503833 7.500292097841767 0  189.7063237561021 0.0003690584582091922 0  189.7062140287744 7.500369435860428 0  194.7063414269439 0.0004487806163060579 0  194.7062272431685 7.500449103620595 0  199.7063561597542 0.0005301591735214713 0  199.7062386827116 7.500530432807841 0  204.7063684702059 0.0006127191107283649 0  204.7062485450781 7.500612950783418 0  209.7063787701293 0.0006961201256990095 0  209.7062570198749 7.50069631703378 0  214.7063873909674 0.0007801139234324427 0  214.7062642810748 7.500780282265005 0  219.7063946016779 0.0008645165721098367 0  219.7062704843786 7.500864661448608 0  224.7064006222594 0.0009491900868708674 0  224.7062757671337 7.50094931563606 0  229.7064056340006 0.001034029824237724 0  229.7062802494941 7.50103413940506 0  234.7064097873177 0.00111895564098013 0  234.7062840361066 7.501119052007279 0  239.7064132078275 0.001203905562748758 0  239.7062872179498 7.501203991009096 0  244.706416001132 0.001288831175237787 0  244.7062898741387 7.501288907654802 0  249.7064182566502 0.001373694234166321 0  249.7062920736105 7.501373763453492 0  254.7064200507509 0.001458464168093516 0  254.7062938766645 7.501458527663811 0  259.7064214493659 0.001543116264534458 0  259.7062953363417 7.501543175465152 0  264.7064225102199 0.00162763041123772 0  264.7062964996558 7.501627686683739 0  269.7064232847707 0.001711990327038013 0  269.7062974086772 7.501712045001986 0  274.7064238199331 0.001796183271349008 0  274.7062981014673 7.501796237629649 0  279.7064241596042 0.001880200276218872 0  279.7062986128598 7.501880255460997 0  284.7064243459719 0.001964037005914043 0  284.7062989750584 7.501964093786818 0  289.7064244204828 0.002047695418198339 0  289.7062992180344 7.502047753672184 0  294.7064244241923 0.00213118646718638 0  294.7062993697004 7.502131244140894 0  299.7064243969127 0.002214534089863311 0  299.7062994558984 7.502214585305976 0  304.7064243740093 0.002297780418921718 0  304.7062995004087 7.502297812537756 0  309.7064243786165 0.002380990620293749 0  309.7062995255606 7.502380981813577 0  4.706186448472161 14.99735757530831 0  -0.2938135658178589 14.99727248088088 0  9.706186448227376 14.99744267150675 0  14.70618642362443 14.9975278173834 0  19.70618636388127 14.99761305378513 0  24.70618625690793 14.99769841716505 0  29.70618608865896 14.99778394091718 0  34.70618584253744 14.99786965640497 0  39.7061854988693 14.99795559387942 0  44.70618503439221 14.99804178330152 0  49.70618442170471 14.99812825506056 0  54.7061836286324 14.9982150405859 0  59.70618261748308 14.99830217285536 0  64.70618134417276 14.99838968680316 0  69.70617975721422 14.9984776196217 0  74.70617779657563 14.99856601093551 0  79.70617539244093 14.99865490279547 0  84.70617246395251 14.99874433938825 0  89.70616891810337 14.99883436626241 0  94.70616464910248 14.99892502870246 0  99.70615953881284 14.99901636857507 0  104.7061534593268 14.99910841841871 0  109.7061462795149 14.99920119055827 0  114.7061378785915 14.99929465728801 0  119.7061281715012 14.9993887151926 0  124.7061171531502 14.99948312183232 0  129.7061049704074 14.99957738582331 0  134.7060920296855 14.99967058279144 0  139.7060791365719 14.99976106675971 0  144.7060676255189 14.99984607641842 0  149.7060593384421 14.99992138844377 0  164.7060707468362 15.00003279230454 0  159.706063396956 14.99998699758743 0  169.7060786540108 15.00008811519533 0  174.7060872578005 15.00015140404222 0  179.7060961687978 15.00022072521077 0  184.7061049894175 15.00029448228793 0  189.7061134281435 15.00037147144721 0  194.7061213033932 15.00045080982613 0  199.7061285199286 15.00053185416811 0  204.7061350430151 15.00061413461039 0  209.7061408773202 15.00069730567131 0  214.7061460515132 15.00078111121988 0  219.706150607686 15.00086535971562 0  224.7061545943805 15.00094990669425 0  229.7061580621583 15.00103464229161 0  234.706161060898 15.0011194822663 0  239.7061636382359 15.00120436146939 0  244.7061658387513 15.00128922904714 0  249.7061677036277 15.00137404489331 0  254.7061692706061 15.00145877702333 0  259.7061705741137 15.00154339965065 0  264.7061716454848 15.00162789182051 0  269.7061725132239 15.0017122365119 0  274.7061732032736 15.00179642015973 0  279.7061737392756 15.00188043258017 0  284.7061741428298 15.00196426730391 0  289.7061744337839 15.00204792232873 0  294.706174630664 15.00213140128957 0  299.7061747514238 15.00221471500256 0  304.7061748148666 15.00229788328691 0  309.7061748433482 15.00238093701291 0  4.706058849880604 22.49735765076393 0  -0.2939411599620189 22.49727268564018 0  9.706058837858649 22.49744265506303 0  14.70605879074257 22.49752773361235 0  19.70605869718145 22.49761291793711 0  24.70605854625243 22.49769823727973 0  29.70605832651199 22.49778371944105 0  34.70605802528664 22.49786939138002 0  39.70605762813133 22.4979552797121 0  44.70605711840815 22.49804141114746 0  49.70605647695091 22.49812781286538 0  54.70605568179149 22.49821451280516 0  59.70605470794504 22.49830153984773 0  64.70605352727158 22.49838892385369 0  69.70605210845889 22.49847669550471 0  74.70605041720999 22.49856488586738 0  79.7060484167687 22.49865352554606 0  84.70604606899482 22.49874264321175 0  89.70604333630953 22.49883226316205 0  94.7060401849899 22.49892240135961 0  99.70603659050344 22.49901305906799 0  104.7060325458463 22.49910421269718 0  109.7060280741463 22.49919579771658 0  114.706023247002 22.49928768343691 0  119.7060182099029 22.49937963416329 0  124.7060132150205 22.49947125108365 0  129.7060086586328 22.49956188964387 0  134.7060051137027 22.49965055273417 0  139.7060033356931 22.49973577954655 0  144.7060042017036 22.49981560228466 0  149.7060085304808 22.49988776205481 0  164.7060103554987 22.50002979384961 0  159.7060118031393 22.49997520676425 0  169.7060096420324 22.50008970557633 0  174.7060099438312 22.5001549627424 0  179.7060112362493 22.50022488208108 0  184.7060133205725 22.50029858283431 0  189.7060159520413 22.50037523575332 0  194.7060189048383 22.50045414447344 0  199.70602199588 22.50053475371085 0  204.7060250880212 22.50061663156376 0  209.7060280846817 22.50069944593741 0  214.7060309219153 22.50078294256532 0  219.7060335606205 22.50086692680288 0  224.7060359799002 22.50095124931327 0  229.7060381717854 22.50103579508749 0  234.7060401372193 22.50112047511318 0  239.706041883081 22.50120522007755 0  244.7060434200257 22.50128997560875 0  249.7060447609382 22.50137469867948 0  254.7060459198444 22.50145935489301 0  259.7060469111497 22.50154391644954 0  264.7060477491181 22.50162836064623 0  269.706048447523 22.50171266880817 0  274.7060490194341 22.50179682557408 0  279.706049477121 22.5018808184782 0  284.7060498320929 22.50196463777032 0  289.706050095321 22.50204827639868 0  294.7060502777457 22.50213173003691 0  299.7060503912232 22.502214
[...]
<PointData  Vectors="v"> 
<DataArray  type="Float64"  Name="v"  NumberOfComponents="3" format="ascii">-3.6606527278768359e+00 1.6131975784240369e+00 0.0000000000000000e+00  -3.5150859780718737e+00 1.8418592407979368e+00 0.0000000000000000e+00  -2.8980113931559806e+00 1.6235155644002837e+00 0.0000000000000000e+00  -3.0051552548001563e+00 1.4532232715911277e+00 0.0000000000000000e+00  -3.2706664789605742e+00 2.3554257100426645e+00 0.0000000000000000e+00  -2.7523806876954637e+00 1.9892163984849722e+00 0.0000000000000000e+00  -2.9652351128249514e+00 3.0874117618090824e+00 0.0000000000000000e+00  -2.5082635697404347e+00 2.6297647037094998e+00 0.0000000000000000e+00  -2.6070159659841146e+00 3.7985924955272612e+00 0.0000000000000000e+00  -2.2033583571939523e+00 3.2623002944342931e+00 0.0000000000000000e+00  -2.2010407186648546e+00 4.6397480883630324e+00 0.0000000000000000e+00  -1.8459957418931858e+00 4.0323264932743044e+00 0.0000000000000000e+00  -1.8053033809692867e+00 5.3956668833242967e+00 0.0000000000000000e+00  -1.4416966886229889e+00 4.8039276713970915e+00 0.0000000000000000e+00  -1.6331381387694037e+00 5.8175197890963020e+00 0.0000000000000000e+00  -1.0481632577090652e+00 5.5620464667867981e+00 0.0000000000000000e+00  -1.1335627794553924e+00 6.6808821034978134e+00 0.0000000000000000e+00  -8.7888744932100638e-01 5.9349973612659257e+00 0.0000000000000000e+00  -3.0281555585941220e+00 3.9523693541854183e+00 0.0000000000000000e+00  -3.8336805092766396e-01 6.7983688357132470e+00 0.0000000000000000e+00  1.3446541687149733e+00 1.0499827728735104e+01 0.0000000000000000e+00  -2.2829167864002482e+00 3.9456513713362105e+00 0.0000000000000000e+00  -2.9604759334362418e-02 8.1961465038300680e+00 0.0000000000000000e+00  2.0850654206917816e+00 1.0263129202455257e+01 0.0000000000000000e+00  -3.1676872234103726e-01 7.5272799233943193e+00 0.0000000000000000e+00  7.0428184534452465e-01 7.9659032387190818e+00 0.0000000000000000e+00  1.9221588541940091e-02 7.8345985352303060e+00 0.0000000000000000e+00  4.0809225260497078e-01 7.3404590749099183e+00 0.0000000000000000e+00  8.0862194675629673e-01 8.8195805358176820e+00 0.0000000000000000e+00  7.3299970863992270e-01 7.6477473655668042e+00 0.0000000000000000e+00  1.8663341886354590e+00 1.0147962272319129e+01 0.0000000000000000e+00  1.5080574578200763e+00 8.5750630880375383e+00 0.0000000000000000e+00  3.1363793166239575e+00 1.1677112167195492e+01 0.0000000000000000e+00  2.5492687425427674e+00 9.7887194151355761e+00 0.0000000000000000e+00  4.5741535000215556e+00 1.3367477192551000e+01 0.0000000000000000e+00  3.8004523104423140e+00 1.1229933897210932e+01 0.0000000000000000e+00  6.1348338156700715e+00 1.5034474759399952e+01 0.0000000000000000e+00  5.2153671787912517e+00 1.2714543709379466e+01 0.0000000000000000e+00  7.7827436003230810e+00 1.6671845182404603e+01 0.0000000000000000e+00  6.7508239998150410e+00 1.4225064151697101e+01 0.0000000000000000e+00  9.4775464278851000e+00 1.8195918980154186e+01 0.0000000000000000e+00  8.3697089225760930e+00 1.5681281497271309e+01 0.0000000000000000e+00  1.1152362970905829e+01 1.9505202947112316e+01 0.0000000000000000e+00  1.0031677898275071e+01 1.7024362149985450e+01 0.0000000000000000e+00  1.2744947080250034e+01 2.0416701688927525e+01 0.0000000000000000e+00  1.1668604125649546e+01 1.8061997563057556e+01 0.0000000000000000e+00  1.4202826696450511e+01 2.1030016988198966e+01 0.0000000000000000e+00  1.3221601823027186e+01 1.8883729131046366e+01 0.0000000000000000e+00  1.5452892240847577e+01 2.0829020443233830e+01 0.0000000000000000e+00  1.4630202334716932e+01 1.8993480881115115e+01 0.0000000000000000e+00  1.6476816951679112e+01 2.0152643231517196e+01 0.0000000000000000e+00  1.5833639636773208e+01 1.8668720857113843e+01 0.0000000000000000e+00  1.7227286893153483e+01 1.8268168831417576e+01 0.0000000000000000e+00  1.6794771216528520e+01 1.7186318560724292e+01 0.0000000000000000e+00  1.7742160644606461e+01 1.5444192276381665e+01 0.0000000000000000e+00  1.7492931342484017e+01 1.4738227438205955e+01 0.0000000000000000e+00  1.8011302399749614e+01 1.1399177067065843e+01 0.0000000000000000e+00  1.7928435611010379e+01 1.1040949719052392e+01 0.0000000000000000e+00  1.8136912447843159e+01 4.7561008576584456e+00 0.0000000000000000e+00  1.8141641515230830e+01 4.6521111704277027e+00 0.0000000000000000e+00  1.8163558466301868e+01 -3.2714769580861133e-05 0.0000000000000000e+00  1.8163235001077904e+01 -3.7069352979998276e-04 0.0000000000000000e+00  1.8163563200134856e+01 2.6153738554751824e-19 0.0000000000000000e+00  1.3886192534779994e+01 -1.1524637400202931e+01 0.0000000000000000e+00  1.8132912422318050e+01 -5.1437940894831469e+00 0.0000000000000000e+00  1.8163249643186695e+01 2.9279491422592308e-04 0.0000000000000000e+00  1.2624432054351976e+01 -2.0106301108761990e+01 0.0000000000000000e+00  1.3905249185338343e+01 -1.8282725575024315e+01 0.0000000000000000e+00  1.0751997271377292e+01 -2.3970080510517455e+01 0.0000000000000000e+00  1.2702133133257139e+01 -2.1197845751294881e+01 0.0000000000000000e+00  9.6679005183763866e+00 -2.4793290288610759e+01 0.0000000000000000e+00  1.0884332586304231e+01 -2.3215158746631889e+01 0.0000000000000000e+00  8.4448845904882877e+00 -2.4347399165796581e+01 0.0000000000000000e+00  9.8492719614232183e+00 -2.2552620359280944e+01 0.0000000000000000e+00  7.4350664915179197e+00 -2.2828034361369056e+01 0.0000000000000000e+00  8.6719496416237263e+00 -2.1353634716541116e+01 0.0000000000000000e+00  6.4866455979666906e+00 -2.1045019393760644e+01 0.0000000000000000e+00  7.7066830807804969e+00 -1.9657935811427887e+01 0.0000000000000000e+00  5.6346375233776609e+00 -1.9034989732796923e+01 0.0000000000000000e+00  6.7988993784133802e+00 -1.7793061030737654e+01 0.0000000000000000e+00  4.7463231000858466e+00 -1.7221816690423747e+01 0.0000000000000000e+00  5.9856322379075229e+00 -1.5922352275458532e+01 0.0000000000000000e+00  4.0368168790348022e+00 -1.5484920407008131e+01 0.0000000000000000e+00  5.1346083832276328e+00 -1.4452526344997384e+01 0.0000000000000000e+00  3.4053621409786627e+00 -1.3970331561481675e+01 0.0000000000000000e+00  4.4602601119538843e+00 -1.3053880550123429e+01 0.0000000000000000e+00  2.7527467965194954e+00 -1.2755704550893601e+01 0.0000000000000000e+00  3.8624570494100769e+00 -1.1806254656810816e+01 0.0000000000000000e+00  2.1579647125641519e+00 -1.1696370174867434e+01 0.0000000000000000e+00  3.2424863554069305e+00 -1.0832369780071330e+01 0.0000000000000000e+00  1.6207928129283469e+00 -1.0774068024438925e+01 0.0000000000000000e+00  2.6788488507013684e+00 -9.9958318242134769e+00 0.0000000000000000e+00  1.1392744306599547e+00 -9.9298633710599500e+00 0.0000000000000000e+00  2.1717144463884437e+00 -9.2340847408954030e+00 0.0000000000000000e+00  7.2285313649828287e-01 -9.1262281297178927e+00 0.0000000000000000e+00  1.7194220244516583e+00 -8.5272785536649458e+00 0.0000000000000000e+00  3.6652720898480617e-01 -8.3681275924355454e+00 0.0000000000000000e+00  1.3312291450008140e+00 -7.8587738598666395e+00 0.0000000000000000e+00  5.4808007327448387e-02 -7.6266651066670681e+00 0.0000000000000000e+00  1.0023300392564498e+00 -7.1836060050747275e+00 0.0000000000000000e+00  -2.0903367889733135e-01 -6.9013925338610864e+00 0.0000000000000000e+00  7.1752142084652826e-01 -6.5295525910922354e+00 0.0000000000000000e+00  -4.2992033329951557e-01 -6.1860034431127877e+00 0.0000000000000000e+00  4.7987521001430433e-01 -5.8783181620920333e+00 0.0000000000000000e+00  -6.1468805711836483e-01 -5.4815268675887427e+00 0.0000000000000000e+00  2.8479619118226535e-01 -5.2274969927388746e+00 0.0000000000000000e+00  -7.6393883653874661e-01 -4.7603324176826725e+00 0.0000000000000000e+00  1.2528665636310510e-01 -4.5594422931670655e+00 0.0000000000000000e+00  -8.7088487462070241e-01 -4.0815821976408504e+00 0.0000000000000000e+00  1.2316773818886863e-03 -3.9435761059800560e+00 0.0000000000000000e+00  -9.4554688789957297e-01 -3.3274370786033511e+00 0.0000000000000000e+00  -8.1398185639169687e-02 -3.2382230058397643e+00 0.0000000000000000e+00  -9.7394481589783899e-01 -2.6968631746830511e+00 0.0000000000000000e+00  -1.3097101559770644e-01 -2.6757887542779253e+00 0.0000000000000000e+00  -9.6040397924279675e-01 -1.8789696342885065e+00 0.0000000000000000e+00  -1.3620966034074550e-01 -1.9224616889764909e+00 0.0000000000000000e+00  -8.9594495284105968e-01 -1.3977138285091519e+00 0.0000000000000000e+00  -9.6888144411661506e-02 -1.5144172276753423e+00 0.0000000000000000e+00  -7.6617206089382661e-01 -4.2991792677388252e-01 0.0000000000000000e+00  -1.1503823037983576e-02 -6.4951444715619289e-01 0.0000000000000000e+00  -5.2187401033048875e-01 5.0563019864861586e-02 0.0000000000000000e+00  1.4745357908378864e-01 -3.3186636826407917e-01 0.0000000000000000e+00  5.9224440427504202e-02 2.8484985716381861e-01 0.0000000000000000e+00  4.0342512971464012e-01 -6.2026273455509873e-01 0.0000000000000000e+00  -2.0120557708592299e+00 1.4617930018048082e+00 0.0000000000000000e+00  -2.1199140543600508e+00 1.2937078341271715e+00 0.0000000000000000e+00  -1.9032310058584490e+00 1.7694397675571547e+00 0.0000000000000000e+00  -1.7553619500567479e+00 2.2623983391239251e+00 0.0000000000000000e+00  -1.5090594254368772e+00 2.8038409893799168e+00 0.0000000000000000e+00  -1.2022619470776270e+00 3.4951084199774733e+00 0.0000000000000000e+00  -8.4327177806183773e-01 4.1970141370243219e+00 0.0000000000000000e+00  -4.3821622940093991e-01 4.9720340265353764e+00 0.0000000000000000e+00  -4.5278310379969204e-02 5.6816058335347295e+00 0.0000000000000000e+00  1.2227886904954674e-01 6.0572798187973138e+00 0.0000000000000000e+00  6.1354941180538825e-01 6.7990319186949639e+00 0.0000000000000000e+00  -1.2912542184951996e+00 3.7111734434092924e+00 0.0000000000000000e+00  3.0774799425334081e+00 1.0036424684025869e+01 0.0000000000000000e+00  1.6963058346127537e+00 7.7889276069218782e+00 0.0000000000000000e+00  1.3929238031749003e+00 7.1654872420769395e+00 0.0000000000000000e+00  1.7070536168981025e+00 7.4221461474023700e+00 0.0000000000000000e+00  2.4656933928956564e+00 8.2387106751794157e+00 0.0000000000000000e+00  3.4862040228325424e+00 9.3664245267566173e+00 0.0000000000000000e+00  4.7130607249519967e+00 1.0609570319899406e+01 0.0000000000000000e+00  6.0981376157273326e+00 1.1942414463876018e+01 0.0000000000000000e+00  7.5982071027199893e+00 1.3274816122699722e+01 0.0000000000000000e+00  9.1771631106511649e+00 1.4559883359667740e+01 0.0000000000000000e+00  1.0790927383860426e+01 1.5637469661725227e+01 0.0000000000000000e+00  1.2372976485768568e+01 1.6591094345030889e+01 0.0000000000000000e+00  1.3862196040186699e+01 1.6920427624053954e+01 0.0000000000000000e+00  1.5198966410952401e+01 1.6915745999847275e+01 0.0000000000000000e+00  1.6316416084257803e+01 1.5789907524407647e+01 0.0000000000000000e+00  1.7188771864818598e+01 1.3766712458605532e+01 0.0000000000000000e+00  1.7771180967976374e+01 1.0431109501078183e+01 0.0000000000000000e+00  1.8104104740015082e+01 4.4453857052977890e+00 0.0000000000000000e+00  1.8162460743512653e+01 -7.0458767155267828e-04 0.0000000000000000e+00  1.8092157501432546e+01 -4.9478063850187599e+00 0.0000000000000000e+00  1.8162478948611231e+01 5.7391846989533562e-04 0.0000000000000000e+00  1.7901136637818251e+01 -1.1959747815417947e+01 0.0000000000000000e+00  1.3743970655885626e+01 -1.9450610995356389e+01 0.0000000000000000e+00  1.2627185722020290e+01 -2.0530885625714436e+01 0.0000000000000000e+00  1.0877380551960668e+01 -2.1040120082283622e+01 0.0000000000000000e+00  9.9058472140110538e+00 -1.9617375871848633e+01 0.0000000000000000e+00  8.7802200152500145e+00 -1.8243166971308547e+01 0.0000000000000000e+00  7.8656084721838466e+00 -1.6457574780891751e+01 0.0000000000000000e+00  7.0014632326800399e+00 -1.4727005164395575e+01 0.0000000000000000e+00  6.2286234425324984e+00 -1.3199575965145002e+01 0.0000000000000000e+00  5.4154422057999909e+00 -1.2063966353599699e+01 0.0000000000000000e+00  4.7764474204272709e+00 -1.0929325181607094e+01 0.0000000000000000e+00  4.2115723760579833e+00 -9.9220730997358366e+00 0.0000000000000000e+00  3.6233172613661839e+00 -9.1685217694148040e+00 0.0000000000000000e+00  3.0894642207238774e+00 -8.4903403847088121e+00 0.0000000000000000e+00  2.6103825745484621e+00 -7.8653903385076314e+00 0.0000000000000000e+00  2.1849851162830625e+00 -7.2920509736880632e+00 0.0000000000000000e+00  1.8223363713717708e+00 -6.7049783898311919e+00 0.0000000000000000e+00  1.5177617663613969e+00 -6.1167243782243377e+00 0.0000000000000000e+00  1.2564761231554704e+00 -5.5356667071491588e+00 0.0000000000000000e+00  1.0415221286155041e+00 -4.9480836769788485e+00 0.0000000000000000e+00  8.6835044376079207e-01 -4.3333512155059166e+00 0.0000000000000000e+00  7.3036834322392163e-01 -3.7700364827596937e+00 0.0000000000000000e+00  6.2720399658322823e-01 -3.1269987679693907e+00 0.0000000000000000e+00  5.6529338596441081e-01 -2.6132168357227452e+00 0.0000000000000000e+00  5.3571913370695645e-01 -1.9275921967513525e+00 0.0000000000000000e+00  5.5092382294196518e-01 -1.5836227659044635e+00 0.0000000000000000e+00  6.0893623647804496e-01 -7.9204680831637997e-01 0.0000000000000000e+00  7.1495516669175607e-01 -5.7763345548751033e-01 0.0000000000000000e+00  8.9125956187289956e-01 -1.0199182521587009e+00 0.0000000000000000e+00  -7.0321157214212948e-01 1.2977593293286565e+00 0.0000000000000000e+00  -7.9528187482700996e-01 1.1590481433825390e+00 0.0000000000000000e+00  -5.9163940801992476e-01 1.6024028855906238e+00 0.0000000000000000e+00  -4.7656352766249088e-01 2.0366444551828424e+00 0.0000000000000000e+00  -3.2240837356177277e-01 2.4299539530181380e+00 0.0000000000000000e+00  -6.9065617001515464e-02 3.0304968582172394e+00 0.0000000000000000e+00  2.4484610245009933e-01 3.6548460532081242e+00 0.0000000000000000e+00  6.0984110532335756e-01 4.3613163939871145e+00 0.0000000000000000e+00  1.0198273156889501e+00 5.0906973827430697e+00 0.0000000000000000e+00  1.4154541102020319e+00 5.8070641509978351e+00 0.0000000000000000e+00  1.5815890636577348e+00 6.0660733570070375e+00 0.0000000000000000e+00  2.0675485443874919e+00 6.5726972135291648e+00 0.0000000000000000e+00  1.6232715002675374e-01 3.4777797125698524e+00 0.0000000000000000e+00  4.5438926082963693e+00 9.8530123179903395e+00 0.0000000000000000e+00  3.1734782862229611e+00 7.6237739705439935e+00 0.0000000000000000e+00  2.8680670307574814e+00 6.9602581966534025e+00 0.0000000000000000e+00  3.1704537631322225e+00 7.1160955567209614e+00 0.0000000000000000e+00  3.9093300206408612e+00 7.8569138161529875e+00 0.0000000000000000e+00  4.9029553230384995e+00 8.7961634250077037e+00 0.0000000000000000e+00  6.0945354861560519e+00 9.8969697831690464e+00 0.0000000000000000e+00  7.4368233192289921e+00 1.1063730074795131e+01 0.0000000000000000e+00  8.8856055221821428e+00 1.2238856953001982e+01 0.0000000000000000e+00  1.0400978980191335e+01 1.3270574529477621e+01 0.0000000000000000e+00  1.1940619321595811e+01 1.4285947055531757e+01 0.0000000000000000e+00  1.3431594495678118e+01 1.4760614693663166e+01 0.0000000000000000e+00  1.4816187194439737e+01 1.5006271723593203e+01 0.0000000000000000e+00  1.6023064239775952e+01 1.4209729362353805e+01 0.0000000000000000e+00  1.6999158812876111e+01 1.2597717285254056e+01 0.0000000000000000e+00  1.7688085315120038e+01 9.6638185025778061e+00 0.0000000000000000e+00  1.8095461375307153e+01 4.1611659319715582e+00 0.0000000000000000e+00  1.8161252986798956e+01 -1.0064995252201444e-03 0.0000000000000000e+00  1.8071573734240708e+01 -4.6027216869135534e+00 0.0000000000000000e+00  1.8161269272275852e+01 8.1979537173687621e-04 0.0000000000000000e+00  1.7669858132732710e+01 -1.1609782318856380e+01 0.0000000000000000e+00  1.7468601007611447e+01 -1.3304073113620200e+01 0.0000000000000000e+00  1.3435112190628487e+01 -1.8964257215828127e+01 0.0000000000000000e+00  1.2456943806103798e+01 -1.8495310790712626e+01 0.0000000000000000e+00  1.0815316747354011e+01 -1.8237185732654712e+01 0.0000000000000000e+00  9.9370956037499916e+00 -1.6613827360799448e+01 0.0000000000000000e+00  8.8896049049252213e+00 -1.5142274862549540e+01 0.0000000000000000e+00  8.0456772973704904e+00 -1.3479610871435236e+01 0.0000000000000000e+00  7.2425776508286432e+00 -1.2085133136448517e+01 0.0000000000000000e+00  6.5261749855041797e+00 -1.0884960406043529e+01 0.0000000000000000e+00  5.7644170625437026e+00 -1.0009474040780553e+01 0.0000000000000000e+00  5.1733176189705263e+00 -9.1106306622563800e+00 0.0000000000000000e+00  4.6537457134207614e+00 -8.3202492261918302e+00 0.0000000000000000e+00  4.1082508613759883e+00 -7.7217839086121609e+00 0.0000000000000000e+00  3.6143726497207558e+00 -7.1769781065444747e+00 0.0000000000000000e+00  3.1729977874725854e+00 -6.6824527665335474e+00 0.0000000000000000e+00  2.7830233194879970e+00 -6.1881138680433114e+00 0.0000000000000000e+00  2.4537270956477073e+00 -5.6854664439527989e+00 0.0000000000000000e+00  2.1808018961371363e+00 -5.1682845322122244e+00 0.0000000000000000e+00  1.9497336431001433e+00 -4.6491893371130510e+00 0.0000000000000000e+00  1.7636218520725744e+00 -4.0964589290021687e+00 0.0000000000000000e+00  1.6184854024040793e+00 -3.5849901504235087e+00 0.0000000000000000e+00  1.5074581616352531e+00 -2.9942055636009415e+00 0.0000000000000000e+00  1.4309904833996887e+00 -2.5409250509643244e+00 0.0000000000000000e+00  1.3944771515919396e+00 -1.9049684355186343e+00 0.0000000000000000e+00  1.3909839166823965e+00 -1.6249748142189806e+00 0.0000000000000000e+00  1.4293653207458510e+00 -9.0201461267138439e-01 0.0000000000000000e+00  1.5143343317149269e+00 -7.5105419564442499e-01 0.0000000000000000e+00  1.6372324112086474e+00 -1.3086979443731712e+00 0.0000000000000000e+00  5.0174222524902923e-01 1.1564535557017483e+00 0.0000000000000000e+00  4.2994207171734733e-01 1.0560671278979674e+00 0.0000000000000000e+00  5.9896833406622518e-01 1.4292603195273268e+00 0.0000000000000000e+00  7.2002532658049767e-01 1.8563252916978934e+00 0.0000000000000000e+00  8.4649889596905004e-01 2.1899786744256224e+00 0.0000000000000000e+00  1.0138092958927187e+00 2.6410966252626342e+00 0.0000000000000000e+00  1.2810131545266854e+00 3.1740065867633303e+00 0.0000000000000000e+00  1.6091774651109572e+00 3.8044967406059520e+00 0.0000000000000000e+00  1.9876309483585552e+00 4.4677293065662660e+00 0.0000000000000000e+00  2.4085509662789581e+00 5.2079043659180373e+00 0.0000000000000000e+00  2.8107743625914479e+00 5.8158101758898315e+00 0.0000000000000000e+00  2.9784410918754731e+00 5.8447097895508549e+00 0.0000000000000000e+00  3.4644617778883937e+00 6.3299516860080294e+00 0.0000000000000000e+00  1.5738296399344387e+00 3.2580695589498654e+00 0.0000000000000000e+00  5.9917107562364693e+00 9.6553723308387074e+00 0.0000000000000000e+00  4.6519481884692908e+00 7.4089553948485030e+00 0.0000000000000000e+00  4.3587940693896856e+00 6.6619508128340792e+00 0.0000000000000000e+00  4.6612726133201035e+00 6.7568799586261923e+00 0.0000000000000000e+00  5.3881597364284950e+00 7.3192162081280472e+00 0.0000000000000000e+00  6.3618544201392462e+00 8.1306540116363255e+00 0.0000000000000000e+00  7.5244772356939666e+00 9.0773839495835897e+00 0.0000000000000000e+00  8.8277147675829415e+00 1.0100858283917882e+01 0.0000000000000000e+00  1.0225837009776731e+01 1.1041487687919576e+01 0.0000000000000000e+00  1.1677754572411040e+01 1.2035237861024374e+01 0.0000000000000000e+00  1.3133029800432201e+01 1.2591282868055842e+01 0.0000000000000000e+00  1.4522851380962907e+01 1.3024379531327011e+01 0.0000000000000000e+00  1.5772909742603288e+01 1.2497627183451433e+01 0.0000000000000000e+00  1.6827135433019802e+01 1.1285418829541978e+01 0.0000000000000000e+00  1.7594157780655419e+01 8.7526370333462111e+00 0.0000000000000000e+00  1.8073776417149926e+01 3.8054676575609654e+00 0.0000000000000000e+00  1.8159659562868715e+01 -1.2745123772654307e-03 0.0000000000000000e+00  1.8048156766283132e+01 -4.1666906521008444e+00 0.0000000000000000e+00  1.8159674370555077e+01 1.0367773973928450e-03 0.0000000000000000e+00  1.7543824234250728e+01 -1.0835691337950017e+01 0.