<?xml version="1.0"?>
<VTKFile type="UnstructuredGrid"  version="0.1"  >
<UnstructuredGrid>
<Piece  NumberOfPoints="1933" NumberOfCells="3640">
<Points>
<DataArray  type="Float64"  NumberOfComponents="3"  format="ascii">-0.2939971089653095 0.000494271277780174 0  4.70600291373631 0.0004640234556474384 0  4.706048321402861 7.500464101584174 0  -0.2939517270239292 7.500494304336345 0  9.706002939900081 0.0004337007134362226 0  9.706048411633459 7.500433795493946 0  14.70600300943161 0.0004032591052816458 0  14.70604856688428 7.500403359321042 0  19.70600316793699 0.000372689650815803 0  19.70604881035028 7.500372791028015 0  24.70600345925349 0.0003420046188716127 0  24.70604916550204 7.500342105920789 0  29.70600392347685 0.0003112297843505267 0  29.70604965556434 7.500311331145694 0  34.70600459717137 0.0002804000384300919 0  34.70605030313901 7.500280502218847 0  39.70600551438334 0.0002495570762684878 0  39.70605113009547 7.500249661126784 0  44.70600670788116 0.0002187484515336002 0  44.70605215765326 7.500218855575671 0  49.70600821039592 0.0001880275911942341 0  49.70605340655467 7.50018813910013 0  54.70601005578524 0.0001574545511953352 0  54.70605489723742 7.500157571864865 0  59.70601228010615 0.0001270974197467823 0  59.70605664993459 7.500127222089712 0  64.70601492260444 9.703436955994175e-05 0  64.70605868462677 7.500097168109519 0  69.70601802662067 6.735644292995386e-05 0  69.70606102076654 7.500067501154638 0  74.7060216404047 3.817123946823673e-05 0  74.70606367666504 7.500038329015651 0  79.70602581778586 9.607780981864484e-06 0  79.70606666838351 7.500009780849993 0  84.70603061859717 -1.817702982746317e-05 0  84.7060700079047 7.499982013509716 0  89.70603610862645 -4.498973409341241e-05 0  89.70607370024589 7.499955219935161 0  94.70604235868041 -7.058849241126628e-05 0  94.70607773902695 7.499929640386453 0  99.70604944195041 -9.46667033751688e-05 0  99.70608209980655 7.499905577591234 0  104.7060574281633 -0.0001168299203629952 0  104.7060867302603 7.499883417280511 0  109.7060663716054 -0.000136562779982762 0  109.7060915360779 7.499863656026581 0  114.7060762874513 -0.0001531809066177318 0  114.7060963615373 7.499846938635211 0  119.7060871056269 -0.0001657601639949373 0  119.7061009646631 7.499834107111733 0  124.7060985812979 -0.0001730320670326169 0  124.7061049902427 7.499826261240704 0  129.7061101211227 -0.0001732302929874547 0  129.7061079532759 7.499824824349139 0  134.7061204449359 -0.0001638731180653004 0  134.7061092689301 7.499831591240154 0  139.7061269228351 -0.0001414895924951025 0  139.7061084220185 7.499848700340258 0  144.7061242581553 -0.0001014361374852061 0  144.7061055075026 7.499878427001929 0  149.7061017746876 -3.868114448044804e-05 0  149.7061027341998 7.499922814015519 0  159.7061073738539 1.25327396038952e-18 0  164.7060208324543 -0.0001233526200057187 0  164.7060925550579 7.499857524616441 0  159.7061170454971 7.499954522305833 0  169.7059747934521 -0.0002266814104078122 0  169.7060675260168 7.499763729150925 0  174.7059502045898 -0.0003157081228368352 0  174.7060471445004 7.499679034013089 0  179.7059374368775 -0.0003936698670280706 0  179.7060319163853 7.499603308592353 0  184.7059313550351 -0.0004630034650513497 0  184.7060210844376 7.499535205392471 0  189.7059291265517 -0.000525603062634202 0  189.7060136782889 7.499473308281909 0  194.7059291451355 -0.0005829207283596537 0  194.7060088320711 7.499416403506727 0  199.7059304750021 -0.0006360593862395671 0  199.7060058557433 7.499363514403901 0  204.7059325559414 -0.0006858569846968166 0  204.7060042253254 7.499313872027984 0  209.7059350434562 -0.0007329547693990933 0  209.7060035515588 7.499266873649525 0  214.7059377203149 -0.0007778490647623417 0  214.7060035478046 7.499222044866666 0  219.7059404465101 -0.0008209292303567119 0  219.7060040033878 7.499179009061876 0  224.705943130236 -0.0008625050977234243 0  224.7060047631916 7.499137463984327 0  229.705945710607 -0.0009028267700789881 0  229.7060057126293 7.499097164158413 0  234.7059481470878 -0.0009420989957798268 0  234.7060067667713 7.499057907740812 0  239.7059504128528 -0.000980491713883576 0  239.7060078625344 7.499019526672358 0  244.7059524905295 -0.001018147895113833 0  244.7060089530817 7.49898187924087 0  249.7059543694191 -0.0010551894579966 0  249.706010003802 7.498944844405037 0  254.7059560436881 -0.00109172179908255 0  254.7060109894306 7.498908317412205 0  259.7059575112097 -0.00112783730838993 0  259.706011891986 7.49887220637882 0  264.7059587728922 -0.001163618122314092 0  264.7060126993112 7.498836429603822 0  269.705959832373 -0.001199138277485224 0  269.7060134040642 7.498800913463567 0  274.7059606960505 -0.001234465355027532 0  274.7060140030379 7.498765590802615 0  279.7059613734242 -0.001269661630546135 0  279.7060144967288 7.498730399798062 0  284.705961877764 -0.001304784652981408 0  284.706014889074 7.498695283346901 0  289.705962227087 -0.001339887037822846 0  289.7060151872736 7.498660189116913 0  294.7059624454128 -0.001375015030459462 0  294.7060154016369 7.498625070524487 0  299.7059625640415 -0.001410204988483087 0  299.7060155453971 7.498589889064585 0  304.7059626221666 -0.001445476194281447 0  304.7060156346472 7.49855461860793 0  309.7059626649734 -0.001480817109253408 0  309.7060156891259 7.498519252466678 0  4.706093481583377 15.00046428499079 0  -0.2939065724361531 15.00049438692875 0  9.706093575051586 15.00043401312389 0  14.70609372857092 15.00040358170139 0  19.7060939565204 15.00037300706846 0  24.70609427087435 15.00034231325204 0  29.70609468267886 15.00031153133044 0  34.70609520245181 15.00028069843049 0  39.70609584014191 15.00024985705394 0  44.70609660491638 15.00021905492392 0  49.70609750486703 15.00018834537086 0  54.70609854664144 15.000157788242 0  59.70609973496382 15.0001274513359 0  64.70610107199339 15.00009741239854 0  69.70610255644708 15.00006776176191 0  74.70610418240737 15.00003860575693 0  79.70610593771575 15.00001007108935 0  84.70610780185181 14.99998231043124 0  89.70610974320513 14.99995550954725 0  94.70611171570444 14.99992989632744 0  99.70611365490893 14.99990575210023 0  104.7061154740069 14.99988342545868 0  109.7061170608294 14.99986334836043 0  114.7061182783004 14.99984605306214 0  119.7061189730868 14.99983218573465 0  124.7061190011964 14.99982250685061 0  129.7061182853863 14.99981785674458 0  134.7061169270306 14.99981904163757 0  139.7061154002099 14.99982654976065 0  144.7061148406358 14.99983990967312 0  149.7061173434309 14.99985623563705 0  164.7061314391462 14.99980538448263 0  159.7061346523816 14.99987328108186 0  169.7061227927297 14.99973237194762 0  174.7061121244874 14.99966029755487 0  179.7061016936881 14.99959199108589 0  184.7060925488213 14.99952824985186 0  189.7060850195041 14.99946894726047 0  194.7060790768875 14.9994136122357 0  199.7060745397226 14.99936169236475 0  204.7060711806475 14.99931266194716 0  209.7060687762875 14.99926605904086 0  214.7060671278323 14.99922149182515 0  219.706066066992 14.99917863292877 0  224.7060654552592 14.99913721003717 0  229.7060651805081 14.99909699626675 0  234.7060651528971 14.99905780159417 0  239.7060653009316 14.99901946566877 0  244.7060655680269 14.99898185194954 0  249.706065909652 14.99894484298005 0  254.7060662910161 14.99890833659406 0  259.7060666852279 14.99887224286986 0  264.7060670718396 14.99883648168599 0  269.7060674356983 14.99880098077197 0  274.7060677660373 14.99876567418321 0  279.7060680557332 14.99873050116384 0  284.7060683007096 14.99869540539144 0  289.7060684994337 14.99866033461312 0  294.7060686525746 14.99862524066417 0  299.7060687629362 14.99859007974521 0  304.7060688360271 14.99855481246805 0  309.7060688819278 14.99851940216611 0  4.706138365803599 22.50046466265256 0  -0.2938616876462342 22.50049466958331 0  9.706138444729083 22.50043442147907 0  14.7061385644172 22.50040398762571 0  19.70613873361282 22.50037339672103 0  24.70613895733656 22.50034268365559 0  29.70613923854788 22.50031188511753 0  34.70613957890225 22.50028104077566 0  39.70613997893188 22.50025019394702 0  44.70614043788527 22.50021939220087 0  49.70614095336437 22.50018868812735 0  54.70614152082104 22.50015814038639 0  59.70614213293521 22.50012781510716 0  64.70614277887235 22.50009778769735 0  69.70614344340899 22.50006814512499 0  74.70614410592722 22.50003898874704 0  79.70614473929355 22.50001043776343 0  84.70614530869457 22.49998263336643 0  89.70614577058612 22.49995574361114 0  94.70614607206826 22.49992996892098 0  99.70614615125277 22.49990554789644 0  104.7061459395937 22.49988276261333 0  109.7061453677568 22.49986194168191 0  114.7061443774389 22.49984345768954 0  119.706142942545 22.499827712783 0  124.7061411039608 22.49981510139628 0  129.7061390218238 22.49980593174723 0  134.706137045354 22.49980027748036 0  139.7061357879513 22.49979772008308 0  144.7061361650011 22.49979694392531 0  149.7061392899249 22.49979521349787 0  164.706160692535 22.49974728327768 0  159.7061541897147 22.49979704558279 0  169.7061620260221 22.49969067142856 0  174.7061597434817 22.49963138235189 0  179.7061554314198 22.49957222703608 0  184.7061503059544 22.49951477480783 0  189.7061451457221 22.49945972144518 0  194.7061403830652 22.49940724591707 0  199.7061362177569 22.49935725712993 0  204.70613270825 22.49930954142247 0  209.7061298343299 22.49926384334166 0  214.7061275366519 22.49921990659341 0  219.7061257402131 22.49917749276098 0  224.706124367496 22.49913638823625 0  229.7061233452951 22.49909640524318 0  234.7061226078408 22.4990573801333 0  239.7061220978431 22.4990191706119 0  244.706121766428 22.49898165272104 0  249.7061215725301 22.49894471796186 0  254.7061214820666 22.4989082707124 0  259.7061214670472 22.49887222598531 0  264.7061215047259 22.49883650751817 0  269.7061215768078 22.49880104617091 0  274.7061216687427 22.4987657785978 0  279.7061217690917 22.49873064615893 0  284.7061218689844 22.49869559402399 0  289.7061219616871 22.49866057038513 0  294.7061220423499 22.4986
[...]
<PointData  Vectors="v"> 
<DataArray  type="Float64"  Name="v"  NumberOfComponents="3" format="ascii">-1.1007043337142934e+00 -7.6634726051861710e+00 0.0000000000000000e+00  -1.6579596940099794e+00 -7.1725793990135598e+00 0.0000000000000000e+00  -1.5277884903877836e+00 -6.3369518195165302e+00 0.0000000000000000e+00  -1.0977119194424805e+00 -7.0186131553370226e+00 0.0000000000000000e+00  -2.3517188786478802e+00 -7.7511095906950285e+00 0.0000000000000000e+00  -2.0846383441151626e+00 -6.7114753076213374e+00 0.0000000000000000e+00  -2.9728491747272230e+00 -8.7729575653994463e+00 0.0000000000000000e+00  -2.7771671422516713e+00 -7.8428481984673146e+00 0.0000000000000000e+00  -3.5164457651702321e+00 -9.0847336566904744e+00 0.0000000000000000e+00  -3.3962923447263322e+00 -8.2716589334930646e+00 0.0000000000000000e+00  -4.1975478866409617e+00 -9.9583809781329773e+00 0.0000000000000000e+00  -3.9371191366642146e+00 -8.9397763156313630e+00 0.0000000000000000e+00  -4.7366083495993632e+00 -1.0312263688036746e+01 0.0000000000000000e+00  -4.6145116668220085e+00 -9.5073199864882945e+00 0.0000000000000000e+00  -4.8156848889992085e+00 -1.0049174368845263e+01 0.0000000000000000e+00  -5.1490480062329285e+00 -9.9349484688347758e+00 0.0000000000000000e+00  -5.8995537389100372e+00 -1.1145044991492275e+01 0.0000000000000000e+00  -5.2228438654629725e+00 -9.5243988461767142e+00 0.0000000000000000e+00  -2.7937993537731991e+00 -5.9814889658384702e+00 0.0000000000000000e+00  -6.3004951256739048e+00 -1.0645633166439071e+01 0.0000000000000000e+00  -1.3915346895595206e+01 -2.1865332518653172e+01 0.0000000000000000e+00  -3.1877790523672633e+00 -5.1899909184511168e+00 0.0000000000000000e+00  -1.3595563487429159e+01 -2.0091325648720982e+01 0.0000000000000000e+00  -1.4301862808177024e+01 -2.0578146708317039e+01 0.0000000000000000e+00  -1.3672725852881227e+01 -1.8771809289115275e+01 0.0000000000000000e+00  -1.3973545250342772e+01 -1.8664232543881159e+01 0.0000000000000000e+00  -1.4203811510193267e+01 -1.8104840095922082e+01 0.0000000000000000e+00  -1.4040881609025906e+01 -1.7317741868512865e+01 0.0000000000000000e+00  -1.5143964000878919e+01 -1.8071996647495631e+01 0.0000000000000000e+00  -1.4560773848899268e+01 -1.6672688922636130e+01 0.0000000000000000e+00  -1.6394151902960470e+01 -1.8463522625982392e+01 0.0000000000000000e+00  -1.5487886033650875e+01 -1.6600225927757208e+01 0.0000000000000000e+00  -1.7860729509493247e+01 -1.9072354929345735e+01 0.0000000000000000e+00  -1.6723554593943568e+01 -1.6885921029616842e+01 0.0000000000000000e+00  -1.9453111504665593e+01 -1.9959391717790112e+01 0.0000000000000000e+00  -1.8174286963396892e+01 -1.7585520992477580e+01 0.0000000000000000e+00  -2.1080827976045256e+01 -2.0698500916392710e+01 0.0000000000000000e+00  -1.9748961233126199e+01 -1.8272449864364930e+01 0.0000000000000000e+00  -2.2667162239403375e+01 -2.1323199504347759e+01 0.0000000000000000e+00  -2.1357824102989543e+01 -1.8960640522107745e+01 0.0000000000000000e+00  -2.4148538273142989e+01 -2.1671164162731255e+01 0.0000000000000000e+00  -2.2923970051918275e+01 -1.9466828497393436e+01 0.0000000000000000e+00  -2.5469524932794187e+01 -2.1706502843297027e+01 0.0000000000000000e+00  -2.4383909965935597e+01 -1.9743686226770695e+01 0.0000000000000000e+00  -2.6594360962343561e+01 -2.0977315298844633e+01 0.0000000000000000e+00  -2.5682035226290932e+01 -1.9309181676207757e+01 0.0000000000000000e+00  -2.7509430521673355e+01 -2.0258322067892450e+01 0.0000000000000000e+00  -2.6784036383161283e+01 -1.8906326395637510e+01 0.0000000000000000e+00  -2.8209037379586626e+01 -1.8109935359580867e+01 0.0000000000000000e+00  -2.7673825292983175e+01 -1.7079925672280229e+01 0.0000000000000000e+00  -2.8715200921961156e+01 -1.6439719481177470e+01 0.0000000000000000e+00  -2.8349942866733858e+01 -1.5702863377230978e+01 0.0000000000000000e+00  -2.9046643667757017e+01 -1.2757439314748920e+01 0.0000000000000000e+00  -2.8828778814198685e+01 -1.2278997895589644e+01 0.0000000000000000e+00  -2.9247460215293135e+01 -1.0097093353273829e+01 0.0000000000000000e+00  -2.9137523594908849e+01 -9.8202890358606023e+00 0.0000000000000000e+00  -2.9342425615882298e+01 -5.2090307538831686e+00 0.0000000000000000e+00  -2.9308933655784973e+01 -5.0831957018407241e+00 0.0000000000000000e+00  -2.9381811773157828e+01 -1.2441508808345665e+00 0.0000000000000000e+00  -2.9383432811779819e+01 -1.2120872733976653e+00 0.0000000000000000e+00  -2.9389262611249741e+01 2.8500237675670779e-09 0.0000000000000000e+00  -2.9389940984136199e+01 -7.0929641908508596e-04 0.0000000000000000e+00  -2.9389262614631466e+01 4.1363485989487557e-19 0.0000000000000000e+00  -2.0123773362747261e+01 7.0838729372602964e+00 0.0000000000000000e+00  -2.9383909724408618e+01 -6.7886839777351380e+00 0.0000000000000000e+00  -2.9389929051290931e+01 6.7739375369417552e-04 0.0000000000000000e+00  -2.0748289868016386e+01 1.3371697999794188e+01 0.0000000000000000e+00  -2.0151568185341514e+01 1.4348624492310664e+01 0.0000000000000000e+00  -1.7729922831635811e+01 2.0812110984451028e+01 0.0000000000000000e+00  -2.0813727785806847e+01 1.6315312078685579e+01 0.0000000000000000e+00  -1.6952390420845102e+01 2.2296031911825612e+01 0.0000000000000000e+00  -1.7833659574864463e+01 2.1164556627460755e+01 0.0000000000000000e+00  -1.5272659196844387e+01 2.5074170766710857e+01 0.0000000000000000e+00  -1.7093691014400008e+01 2.2587581827672164e+01 0.0000000000000000e+00  -1.4061033354053226e+01 2.5288683629843568e+01 0.0000000000000000e+00  -1.5450987980296130e+01 2.3504967265761742e+01 0.0000000000000000e+00  -1.2766345581726728e+01 2.5368608026198405e+01 0.0000000000000000e+00  -1.4276645067365017e+01 2.3459032850580567e+01 0.0000000000000000e+00  -1.1650674240307554e+01 2.4316732190616285e+01 0.0000000000000000e+00  -1.3018438335558962e+01 2.2676176448406750e+01 0.0000000000000000e+00  -1.0322814174299889e+01 2.3148765587773134e+01 0.0000000000000000e+00  -1.1938863117004967e+01 2.1189239829002510e+01 0.0000000000000000e+00  -9.3672556220305143e+00 2.1307471299568643e+01 0.0000000000000000e+00  -1.0646909036883775e+01 1.9906163713756083e+01 0.0000000000000000e+00  -8.5841467879835260e+00 1.9451920911708658e+01 0.0000000000000000e+00  -9.7267861867495427e+00 1.8309078328668249e+01 0.0000000000000000e+00  -7.7324068451053618e+00 1.7758608015271232e+01 0.0000000000000000e+00  -8.9787408656205177e+00 1.6512555911033576e+01 0.0000000000000000e+00  -6.9257296176449792e+00 1.6159096936953684e+01 0.0000000000000000e+00  -8.1618596368494760e+00 1.4980261529401119e+01 0.0000000000000000e+00  -6.1679681500157715e+00 1.4743237423905230e+01 0.0000000000000000e+00  -7.3896251424781498e+00 1.3637589292390222e+01 0.0000000000000000e+00  -5.4225834701104541e+00 1.3447635453806940e+01 0.0000000000000000e+00  -6.6659414175617506e+00 1.2360209507687397e+01 0.0000000000000000e+00  -4.7444285473473871e+00 1.2206768216599897e+01 0.0000000000000000e+00  -5.9543287074298847e+00 1.1219854824813504e+01 0.0000000000000000e+00  -4.1412788649042307e+00 1.1068346368581597e+01 0.0000000000000000e+00  -5.3095560768289278e+00 1.0193657606090763e+01 0.0000000000000000e+00  -3.5756512201313337e+00 9.9796662895431840e+00 0.0000000000000000e+00  -4.7393792675251403e+00 9.1609690533668768e+00 0.0000000000000000e+00  -3.0728646384601972e+00 8.9168667379727076e+00 0.0000000000000000e+00  -4.2064430646311060e+00 8.1920509350617419e+00 0.0000000000000000e+00  -2.6419424408946814e+00 7.9191384066886288e+00 0.0000000000000000e+00  -3.7358817904671704e+00 7.3019328329822430e+00 0.0000000000000000e+00  -2.2468276172075425e+00 6.9149682499631089e+00 0.0000000000000000e+00  -3.3369610135447894e+00 6.3510240118774979e+00 0.0000000000000000e+00  -1.9059404722122895e+00 5.9799713397717529e+00 0.0000000000000000e+00  -2.9732842011796099e+00 5.4973203749864190e+00 0.0000000000000000e+00  -1.6188261329274549e+00 5.0269665485860680e+00 0.0000000000000000e+00  -2.6638886010042655e+00 4.6242803083197392e+00 0.0000000000000000e+00  -1.3662034499861182e+00 4.2119414890067945e+00 0.0000000000000000e+00  -2.4072206263460774e+00 3.8614674995566811e+00 0.0000000000000000e+00  -1.1480356109862446e+00 3.2730860616463771e+00 0.0000000000000000e+00  -2.1859691308638158e+00 2.9727249717299928e+00 0.0000000000000000e+00  -9.5714870564919075e-01 2.7352856143065671e+00 0.0000000000000000e+00  -1.9967535136814105e+00 2.4778404068842836e+00 0.0000000000000000e+00  -7.8093970712540084e-01 1.7849406494150941e+00 0.0000000000000000e+00  -1.8380017300199021e+00 1.5455447650808272e+00 0.0000000000000000e+00  -5.4324762534390270e-01 1.7282281308354257e+00 0.0000000000000000e+00  -1.6878434459902036e+00 1.4026408723177168e+00 0.0000000000000000e+00  -1.8287028930337970e-01 1.2030282531373993e+00 0.0000000000000000e+00  -1.4863480031003085e+00 6.8228884990912342e-01 0.0000000000000000e+00  6.6167269967511655e-01 7.4687191950578054e-03 0.0000000000000000e+00  -1.1404751059792297e+00 -1.2179656914409678e+00 0.0000000000000000e+00  -1.8053022038457942e+00 -5.6914424593536266e+00 0.0000000000000000e+00  -1.3313565934551377e+00 -6.3086374809465466e+00 0.0000000000000000e+00  -2.2357239373935682e+00 -5.8762875895180295e+00 0.0000000000000000e+00  -2.7920616537010461e+00 -6.8049405322565288e+00 0.0000000000000000e+00  -3.4828252913878730e+00 -7.3446329163237101e+00 0.0000000000000000e+00  -4.0987819890905532e+00 -8.1309736860162456e+00 0.0000000000000000e+00  -4.6349698820228271e+00 -8.4947008429361937e+00 0.0000000000000000e+00  -5.3060969340439010e+00 -9.1376802389587244e+00 0.0000000000000000e+00  -5.8326009236652849e+00 -9.4189435409581304e+00 0.0000000000000000e+00  -5.8968989932169436e+00 -9.0355203927093246e+00 0.0000000000000000e+00  -6.9635482823040133e+00 -9.8660080741931875e+00 0.0000000000000000e+00  -3.8390728378167061e+00 -3.9138985773338328e+00 0.0000000000000000e+00  -1.4942434942850710e+01 -1.9163066153521175e+01 0.0000000000000000e+00  -1.4602968006136914e+01 -1.7224543838594364e+01 0.0000000000000000e+00  -1.4656690388689961e+01 -1.5901818372179719e+01 0.0000000000000000e+00  -1.5160309383812077e+01 -1.5220990694667336e+01 0.0000000000000000e+00  -1.6067524647811485e+01 -1.5045919735752904e+01 0.0000000000000000e+00  -1.7279774637051212e+01 -1.5424391898831745e+01 0.0000000000000000e+00  -1.8704060496670124e+01 -1.5927851645482614e+01 0.0000000000000000e+00  -2.0248714458792119e+01 -1.6566840170986850e+01 0.0000000000000000e+00  -2.1824123891454786e+01 -1.7138143297279893e+01 0.0000000000000000e+00  -2.3354185774137886e+01 -1.7577029609815707e+01 0.0000000000000000e+00  -2.4774495358081683e+01 -1.7386418504996044e+01 0.0000000000000000e+00  -2.6030366862060340e+01 -1.7279540257419363e+01 0.0000000000000000e+00  -2.7087460842475050e+01 -1.5771972548560262e+01 0.0000000000000000e+00  -2.7930660724227106e+01 -1.4718765525112147e+01 0.0000000000000000e+00  -2.8557106023943721e+01 -1.1586992462412949e+01 0.0000000000000000e+00  -2.8988121598104712e+01 -9.3914320714170625e+00 0.0000000000000000e+00  -2.9243895857392392e+01 -4.8474270851787375e+00 0.0000000000000000e+00  -2.9371380947426282e+01 -1.1405231479969555e+00 0.0000000000000000e+00  -2.9391565354914690e+01 -1.3511260890511315e-03 0.0000000000000000e+00  -2.9362954541661626e+01 -6.8511137800812518e+00 0.0000000000000000e+00  -2.9391543590662351e+01 1.3313526504286522e-03 0.0000000000000000e+00  -2.9301269318929634e+01 5.1337693618355829e-01 0.0000000000000000e+00  -2.0103183394999299e+01 1.7335561612222335e+01 0.0000000000000000e+00  -2.0809863369847655e+01 1.6720142568165521e+01 0.0000000000000000e+00  -1.7872274594444058e+01 2.1504068884163935e+01 0.0000000000000000e+00  -1.7175340278937430e+01 2.1063970965176516e+01 0.0000000000000000e+00  -1.5572172183867671e+01 2.1721953951391846e+01 0.0000000000000000e+00  -1.4437234594698968e+01 2.0811196794634945e+01 0.0000000000000000e+00  -1.3216161448624858e+01 1.9591388666519723e+01 0.0000000000000000e+00  -1.2172418242107071e+01 1.7989413518386996e+01 0.0000000000000000e+00  -1.0915361714401884e+01 1.6949487061848149e+01 0.0000000000000000e+00  -1.0029344361811669e+01 1.5410397264035591e+01 0.0000000000000000e+00  -9.3145795246217791e+00 1.3774853999414832e+01 0.0000000000000000e+00  -8.5306299602769826e+00 1.2498745086138708e+01 0.0000000000000000e+00  -7.7907640146596444e+00 1.1293757627797723e+01 0.0000000000000000e+00  -7.0988327123855592e+00 1.0171334921980796e+01 0.0000000000000000e+00  -6.4184870068468065e+00 9.2450006963692140e+00 0.0000000000000000e+00  -5.8043717738128970e+00 8.3237898991590935e+00 0.0000000000000000e+00  -5.2642033922251610e+00 7.4104231244838754e+00 0.0000000000000000e+00  -4.7606885515427084e+00 6.6135448488741435e+00 0.0000000000000000e+00  -4.3189579443867396e+00 5.7695715652233162e+00 0.0000000000000000e+00  -3.9481624313297954e+00 4.9686314101073874e+00 0.0000000000000000e+00  -3.6121394987861812e+00 4.1762964572255568e+00 0.0000000000000000e+00  -3.3296046709311184e+00 3.4927726089383762e+00 0.0000000000000000e+00  -3.0994795506547312e+00 2.6558447966516008e+00 0.0000000000000000e+00  -2.9036569643804966e+00 2.2104039054882771e+00 0.0000000000000000e+00  -2.7402232694804636e+00 1.3202768335759651e+00 0.0000000000000000e+00  -2.6048871189306619e+00 1.1953814764953750e+00 0.0000000000000000e+00  -2.4803793510077639e+00 3.8915205170998524e-01 0.0000000000000000e+00  -2.3003954981306967e+00 -1.7173484055813970e+00 0.0000000000000000e+00  -2.5184016703842262e+00 -4.9796633762198050e+00 0.0000000000000000e+00  -2.0901438242546222e+00 -5.6676838730699881e+00 0.0000000000000000e+00  -2.9935878292744582e+00 -5.2297736198664397e+00 0.0000000000000000e+00  -3.4252966516933454e+00 -5.9707691904770117e+00 0.0000000000000000e+00  -3.9810900764402857e+00 -6.3102575894193427e+00 0.0000000000000000e+00  -4.6693271936964864e+00 -7.2105394576751527e+00 0.0000000000000000e+00  -5.2803073463993666e+00 -7.6960986936210505e+00 0.0000000000000000e+00  -5.8084322235112111e+00 -8.1387405787443168e+00 0.0000000000000000e+00  -6.4684791056381927e+00 -8.6392416209896421e+00 0.0000000000000000e+00  -6.9807888380612440e+00 -8.9514780811908583e+00 0.0000000000000000e+00  -7.0277071610131978e+00 -8.2800772238890250e+00 0.0000000000000000e+00  -8.0751831876590856e+00 -8.6146817913304528e+00 0.0000000000000000e+00  -4.9328459919261052e+00 -2.5205709629959760e+00 0.0000000000000000e+00  -1.6021816016319097e+01 -1.7744692480620230e+01 0.0000000000000000e+00  -1.5668319103530504e+01 -1.5835268573111861e+01 0.0000000000000000e+00  -1.5703754277579957e+01 -1.4483843992306307e+01 0.0000000000000000e+00  -1.6182659554067449e+01 -1.3707967082250681e+01 0.0000000000000000e+00  -1.7058422897177156e+01 -1.3634032098913602e+01 0.0000000000000000e+00  -1.8232311053846775e+01 -1.3824399095069385e+01 0.0000000000000000e+00  -1.9610887835836415e+01 -1.4287513099246279e+01 0.0000000000000000e+00  -2.1102957730322796e+01 -1.4817557182380066e+01 0.0000000000000000e+00  -2.2619149702614379e+01 -1.5329591016328513e+01 0.0000000000000000e+00  -2.4082504999284321e+01 -1.5307330326798324e+01 0.0000000000000000e+00  -2.5430051283818127e+01 -1.5452904875047572e+01 0.0000000000000000e+00  -2.6606081384403279e+01 -1.4245618554341601e+01 0.0000000000000000e+00  -2.7578761584482141e+01 -1.3519511979675384e+01 0.0000000000000000e+00  -2.8330745212080526e+01 -1.0710423546810357e+01 0.0000000000000000e+00  -2.8866236166926370e+01 -8.8186287096341598e+00 0.0000000000000000e+00  -2.9198820941291238e+01 -4.5201776065378514e+00 0.0000000000000000e+00  -2.9368823113129825e+01 -1.0332826384956284e+00 0.0000000000000000e+00  -2.9394100448354958e+01 -1.9321168375943272e-03 0.0000000000000000e+00  -2.9344750318263625e+01 -7.0122938354786770e+00 0.0000000000000000e+00  -2.9394081138886762e+01 1.9039608994211338e-03 0.0000000000000000e+00  -2.9151966128013541e+01 3.9099168625260283e-01 0.0000000000000000e+00  -2.9080628172721166e+01 3.5802967172322484e+00 0.0000000000000000e+00  -1.9940230739011753e+01 1.7835334368046841e+01 0.0000000000000000e+00  -2.0719410182408971e+01 1.7148609971492611e+01 0.0000000000000000e+00  -1.7850939087192508e+01 2.0070606030262741e+01 0.0000000000000000e+00  -1.7219969373492248e+01 1.9363523339571280e+01 0.0000000000000000e+00  -1.5677455197129419e+01 1.9153749630681002e+01 0.0000000000000000e+00  -1.4599896091540346e+01 1.7801624639279851e+01 0.0000000000000000e+00  -1.3431861846558732e+01 1.6463690596194773e+01 0.0000000000000000e+00  -1.2438626135293365e+01 1.5102048597917507e+01 0.0000000000000000e+00  -1.1229863953190984e+01 1.4118605376412130e+01 0.0000000000000000e+00  -1.0390615958622165e+01 1.2738940646263842e+01 0.0000000000000000e+00  -9.7216337334517888e+00 1.1358506048989415e+01 0.0000000000000000e+00  -8.9827164354082996e+00 1.0219092558952767e+01 0.0000000000000000e+00  -8.2870248223010847e+00 9.1679036580986928e+00 0.0000000000000000e+00  -7.6384714846412853e+00 8.2582407961710818e+00 0.0000000000000000e+00  -7.0005559540721007e+00 7.4357083595529136e+00 0.0000000000000000e+00  -6.4278520131726733e+00 6.6324069816856746e+00 0.0000000000000000e+00  -5.9280146019517987e+00 5.8897860942412352e+00 0.0000000000000000e+00  -5.4637959283043482e+00 5.1375742282363994e+00 0.0000000000000000e+00  -5.0601208144434375e+00 4.4424309356664136e+00 0.0000000000000000e+00  -4.7264642848397385e+00 3.7010582396400324e+00 0.0000000000000000e+00  -4.4261175872904408e+00 3.0976117687857023e+00 0.0000000000000000e+00  -4.1786598250784017e+00 2.3373592310029059e+00 0.0000000000000000e+00  -3.9815549887555379e+00 1.9444555482479728e+00 0.0000000000000000e+00  -3.8190897998956488e+00 1.0986353884891633e+00 0.0000000000000000e+00  -3.6849811719580554e+00 1.0210575257371595e+00 0.0000000000000000e+00  -3.5832733384953772e+00 2.2028293536140717e-01 0.0000000000000000e+00  -3.4797285939816112e+00 -1.9572169877259096e+00 0.0000000000000000e+00  -3.4381784273987703e+00 -4.3359427492575620e+00 0.0000000000000000e+00  -3.0481053843333723e+00 -5.0845542833875426e+00 0.0000000000000000e+00  -3.8684663202271525e+00 -4.5149460957219096e+00 0.0000000000000000e+00  -4.3469807095811346e+00 -5.3211350052629314e+00 0.0000000000000000e+00  -4.7815297898263145e+00 -5.4755474978957963e+00 0.0000000000000000e+00  -5.3386372719849415e+00 -6.1790061732715573e+00 0.0000000000000000e+00  -6.0254555233996570e+00 -6.7826294480323108e+00 0.0000000000000000e+00  -6.6316586879552117e+00 -7.3524147060265577e+00 0.0000000000000000e+00  -7.1510144065173167e+00 -7.6581379316480209e+00 0.0000000000000000e+00  -7.7978053146497404e+00 -8.1950111861026915e+00 0.0000000000000000e+00  -8.2925140692739721e+00 -8.2244977943261652e+00 0.0000000000000000e+00  -8.3187657187346602e+00 -7.0591317614017006e+00 0.0000000000000000e+00  -9.3455500107787906e+00 -7.2465982751112525e+00 0.0000000000000000e+00  -6.1881735740628434e+00 -1.1187853697237833e+00 0.0000000000000000e+00  -1.7270066934183731e+01 -1.6370412836512834e+01 0.0000000000000000e+00  -1.6910352663303236e+01 -1.4439367313783119e+01 0.0000000000000000e+00  -1.6933417841811526e+01 -1.3004513046064764e+01 0.0000000000000000e+00  -1.7390998882952175e+01 -1.2342705569235537e+01 0.0000000000000000e+00  -1.8234648622627908e+01 -1.2092924272681776e+01 0.0000000000000000e+00  -1.9366050600175626e+01 -1.2256860303498966e+01 0.0000000000000000e+00  -2.0691450961197219e+01 -1.2624042204039688e+01 0.0000000000000000e+00  -2.2119328456330720e+01 -1.3107509052854924e+01 0.0000000000000000e+00  -2.3560318614559179e+01 -1.3171814497875710e+01 0.0000000000000000e+00  -2.4938061559696081e+01 -1.3499822621140353e+01 0.0000000000000000e+00  -2.6187931775813308e+01 -1.2554791245077924e+01 0.0000000000000000e+00  -2.7257698858282620e+01 -1.2144031760586561e+01 0.0000000000000000e+00  -2.8112476102294416e+01 -9.6651575951789717e+00 0.0000000000000000e+00  -2.8743909681050429e+01 -8.1121318943215730e+00 0.0000000000000000e+00  -2.9147464899338278e+01 -4.0990301412684360e+00 0.0000000000000000e+00  -2.9362302222806179e+01 -8.8891948942342747e-01 0.0000000000000000e+00  -2