<?xml version="1.0"?>
<VTKFile type="UnstructuredGrid"  version="0.1"  >
<UnstructuredGrid>
<Piece  NumberOfPoints="1933" NumberOfCells="3640">
<Points>
<DataArray  type="Float64"  NumberOfComponents="3"  format="ascii">-0.2935498807825505 -0.003007598856240792 0  4.706450163261805 -0.002921160101448628 0  4.706320464534525 7.49707892868506 0  -0.2936795842577835 7.496992485015282 0  9.706450246283165 -0.002834778155258061 0  9.706320538480815 7.497165304666559 0  14.70645039860334 -0.002748416611330223 0  14.70632064314996 7.497251658715469 0  19.70645063804741 -0.002662025445811801 0  19.70632078013391 7.497338043339342 0  24.7064509717332 -0.0025755498269746 0  24.70632094689357 7.497424513721622 0  29.70645139844834 -0.002488933351478951 0  29.70632113645721 7.497511125997231 0  34.70645191046533 -0.002402118809692501 0  34.70632133718401 7.497597936973542 0  39.70645249461937 -0.002315047812515673 0  39.70632153249359 7.497685004645199 0  44.70645313272593 -0.002227659873074485 0  44.70632170044801 7.497772389135925 0  49.70645380144604 -0.00213989119893595 0  49.70632181310114 7.497860153889141 0  54.70645447167036 -0.002051673285151747 0  54.70632183554685 7.497948367042239 0  59.70645510744277 -0.001962931310427212 0  59.70632172459774 7.498037102986762 0  64.70645566439093 -0.001873582284131899 0  64.70632142700552 7.498126444161929 0  69.7064560875655 -0.001783532847940498 0  69.70632087710531 7.498216483164877 0  74.70645630851854 -0.001692676588887042 0  74.70631999371608 7.498307325296532 0  79.70645624133394 -0.001600890659598881 0  79.70631867606278 7.498399091703432 0  84.70645577716515 -0.001508031415263957 0  84.70631679840004 7.49849192332443 0  89.70645477655046 -0.001413928651986891 0  89.7063142029008 7.498585985904765 0  94.70645305833597 -0.001318377851285845 0  94.70631069024405 7.498681476383508 0  99.70645038323642 -0.001221129584249829 0  99.70630600721627 7.498778630949921 0  104.7064464286993 -0.001121874902820065 0  104.7062998306156 7.498877734893219 0  109.706440749267 -0.001020225192818748 0  109.7062917470407 7.49897913378163 0  114.7064327121895 -0.0009156847927363846 0  114.7062812292747 7.499083243933201 0  119.7064213899315 -0.0008076153565718246 0  119.7062676130829 7.499190556327217 0  124.706405376376 -0.0006951943579862162 0  124.7062500858444 7.49930161939305 0  129.7063824663423 -0.0005773815856255344 0  129.7062277157442 7.499416967026204 0  134.7063490883818 -0.0004529419565857411 0  134.706199587963 7.499536918186131 0  139.7062992900771 -0.000320675811492398 0  139.7061651937469 7.499661096638769 0  144.7062229058026 -0.0001803324823071288 0  144.7061253827572 7.49978739559696 0  149.7061021876033 -3.582890220426928e-05 0  149.7060845379319 7.499910069928582 0  159.7061073738535 1.43979894963862e-18 0  164.7061297012352 -2.021902941079858e-05 0  164.7061127750514 7.49996950451859 0  159.7060977527226 7.499976396485782 0  169.7061613371235 -1.089087269260143e-05 0  169.7061275418682 7.499984354302923 0  174.7061942025291 1.858865767816774e-05 0  174.7061429414347 7.500016369030115 0  179.7062250517869 6.224902014907576e-05 0  179.7061585447973 7.500061252910188 0  184.7062527523796 0.0001160761184194354 0  184.7061737743277 7.500115682576954 0  189.7062770935424 0.0001773052837301534 0  189.7061881952272 7.500177209128359 0  194.7062982473196 0.0002439998608986049 0  194.7062015475515 7.500244048234983 0  199.7063165240243 0.0003147809187839695 0  199.7062137101748 7.500314896532715 0  204.7063322636135 0.0003886501692478399 0  204.7062246565675 7.500388793836373 0  209.7063457900546 0.0004648728420535341 0  209.7062344188336 7.500465024805412 0  214.7063573945936 0.0005428994495946518 0  214.7062430622421 7.500543049948849 0  219.7063673319277 0.0006223128620917006 0  219.7062506684744 7.500622457318558 0  224.7063758218208 0.0007027919552845153 0  224.7062573251451 7.500702928491855 0  229.706383052741 0.0007840862181196746 0  229.7062631195651 7.500784214372289 0  234.7063891859976 0.0008659977069630866 0  234.7062681352561 7.500866117760399 0  239.7063943597392 0.0009483680047205584 0  239.7062724502119 7.500948480635918 0  244.7063986925995 0.001031068653289416 0  244.7062761362409 7.501031174762866 0  249.7064022869344 0.001113994047750268 0  249.7062792589695 7.501114094678289 0  254.7064052317038 0.001197056119720125 0  254.7062818782446 7.501197152429187 0  259.7064076050435 0.001280180364384572 0  259.7062840487575 7.501280273630233 0  264.7064094766187 0.00136330292499508 0  264.7062858207919 7.501363394563548 0  269.7064109098054 0.00144636856927351 0  269.7062872410214 7.501446460154043 0  274.7064119637732 0.001529329495206572 0  274.7062883532918 7.50152942274736 0  279.7064126954805 0.001612145006325722 0  279.7062891993422 7.501612241703842 0  284.7064131615701 0.001694782214809055 0  284.7062898193973 7.5016948839109 0  289.7064134200078 0.001777218080457733 0  289.7062902525582 7.50177732541109 0  294.7064135311263 0.001859443283752501 0  294.7062905369441 7.50185955443906 0  299.7064135572559 0.001941468632292772 0  299.7062907095997 7.501941576238358 0  304.7064135592522 0.00202333470457986 0  304.706290806485 7.502023420065338 0  309.7064135863876 0.002105124239624449 0  309.7062908635948 7.502105148941497 0  4.706190679718443 14.9970791022038 0  -0.2938093642477115 14.9969926867832 0  9.706190725742738 14.9971654372611 0  14.70619077226661 14.99725175325148 0  19.70619081359553 14.99733810601917 0  24.7061908413493 14.99742454993695 0  29.70619084442161 14.99751113918655 0  34.70619080847549 14.99759792850091 0  39.70619071530535 14.99768497393967 0  44.70619054213162 14.9977723338093 0  49.7061902608058 14.99786006972875 0  54.7061898368792 14.99794824783226 0  59.70618922848283 14.99803694011652 0  64.7061883849707 14.99812622595706 0  69.70618724527924 14.99821619383124 0  74.70618573597076 14.99830694329232 0  79.70618376894659 14.99839858723296 0  84.70618123887388 14.99849125444722 0  89.70617802047386 14.99858509242371 0  94.70617396603762 14.99868027012962 0  99.70616890392908 14.99877698018402 0  104.7061626395678 14.99887543909304 0  109.7061549616342 14.99897588280694 0  114.7061456583573 14.99907855218502 0  119.7061345520427 14.99918365804077 0  124.7061215647146 14.99929130674941 0  129.7061068332065 14.99940135288301 0  134.7060908949109 14.99951312335655 0  139.7060749550432 14.99962493053089 0  144.7060611940569 14.99973327517398 0  149.7060529076535 14.9998316682464 0  164.7060761716858 14.99994115478879 0  159.7060689707696 14.999920575748 0  169.7060812068719 14.99997056025193 0  174.7060860626588 15.00001005354101 0  179.7060914190465 15.00005872118098 0  184.7060973247496 15.00011502962586 0  189.7061035930749 15.00017745692674 0  194.7061099893358 15.00024469707472 0  199.7061163063813 15.00031569370683 0  204.7061223870268 15.00038961430763 0  209.7061281238491 15.00046580947746 0  214.7061334509457 15.00054377363822 0  219.7061383341273 15.00062311209735 0  224.7061427620875 15.0007035150184 0  229.7061467393031 15.00078473739209 0  234.7061502806758 15.00086658379519 0  239.7061534076442 15.00094889682634 0  244.7061561454524 15.00103154832134 0  249.706158521291 15.0011144326647 0  254.7061605630691 15.00119746169266 0  259.7061622986371 15.00128056082682 0  264.7061637553182 15.00136366618637 0  269.7061649596467 15.0014467225144 0  274.7061659372351 15.00152968182192 0  279.7061667127152 15.00161250270794 0  284.7061673097534 15.00169515035514 0  289.7061677511494 15.00177759721732 0  294.706168059179 15.00185982439041 0  299.706168256451 15.00194182355459 0  304.7061683678714 15.00202359913543 0  309.7061684247513 15.00210516989334 0  4.706060976694006 22.4970793755646 0  -0.2939390617493524 22.49699306593557 0  9.706061001735144 22.49716561770533 0  14.70606100518701 22.497251853722 0  19.70606097790287 22.49733813785907 0  24.70606090944091 22.49742452127888 0  29.70606078775507 22.49751105430355 0  34.70606059872588 22.49759778771545 0  39.70606032560671 22.49768477368986 0  44.70605994844459 22.49777206662919 0  49.70605944350137 22.49785972400665 0  54.7060587826772 22.49794780725453 0  59.70605793294304 22.49803638270287 0  64.70605685580129 22.49812552255886 0  69.70605550682207 22.49821530589907 0  74.70605383535403 22.49830581961682 0  79.70605178457589 22.49839715921065 0  84.70604929217684 22.49848942919816 0  89.70604629212673 22.49858274276293 0  94.70604271826534 22.49867721993752 0  99.70603851082316 22.49877298310967 0  104.7060336275214 22.49887014779027 0  109.7060280615618 22.49896880521222 0  114.7060218695151 22.49906899122526 0  119.7060152124796 22.49917063292131 0  124.7060084130976 22.49927346060383 0  129.7060020272871 22.49937686930324 0  134.7059969196415 22.49947971519071 0  139.7059943103913 22.49958004934828 0  144.705995724752 22.49967485254038 0  149.7060027275815 22.49976000749113 0  164.7060182329199 22.49990775174145 0  159.7060165489949 22.49986711121581 0  169.7060180965721 22.49995118504889 0  174.7060173029465 22.49999962045586 0  179.7060166524613 22.50005369106329 0  184.7060165336957 22.50011314112376 0  189.7060170514969 22.50017732747857 0  194.7060181553387 22.50024550349004 0  199.7060197271714 22.50031695543518 0  204.7060216321632 22.50039105631935 0  209.7060237442573 22.50046727847562 0  214.7060259567785 22.50054518780173 0  219.7060281849993 22.50062443124479 0  224.7060303648167 22.50070472299998 0  229.7060324498605 22.500785831742 0  234.7060344082329 22.50086756967913 0  239.7060362194482 22.50094978352864 0  244.7060378717935 22.50103234723412 0  249.7060393601562 22.501115156162 0  254.7060406842926 22.50119812251747 0  259.7060418474604 22.50128117175567 0  264.7060428553621 22.50136423980666 0  269.7060437153266 22.50144727097488 0  274.7060444356964 22.50153021640404 0  279.7060450253949 22.5016130330177 0  284.7060454936982 22.50169568284156 0  289.7060458502822 22.50177813257627 0  294.7060461056959 22.50186035319627 0  299.7060462724838 22.501942
[...]
<PointData  Vectors="v"> 
<DataArray  type="Float64"  Name="v"  NumberOfComponents="3" format="ascii">-3.6600095606653738e+00 1.6119847294119443e+00 0.0000000000000000e+00  -3.5144626715426353e+00 1.8424422279276291e+00 0.0000000000000000e+00  -2.8973757192481187e+00 1.6241283661296486e+00 0.0000000000000000e+00  -3.0044503924350656e+00 1.4521142868937988e+00 0.0000000000000000e+00  -3.2699493098811159e+00 2.3566147353544111e+00 0.0000000000000000e+00  -2.7517648766341565e+00 1.9902645251017499e+00 0.0000000000000000e+00  -2.9644479199766618e+00 3.0883316257117417e+00 0.0000000000000000e+00  -2.5075538778968296e+00 2.6305793330242593e+00 0.0000000000000000e+00  -2.6062066192785336e+00 3.7998440292494386e+00 0.0000000000000000e+00  -2.2025785638544302e+00 3.2635183695344980e+00 0.0000000000000000e+00  -2.2001244195814067e+00 4.6410446950806712e+00 0.0000000000000000e+00  -1.8451937208071731e+00 4.0334623797262070e+00 0.0000000000000000e+00  -1.8043570750261322e+00 5.3971471556516724e+00 0.0000000000000000e+00  -1.4407875970117616e+00 4.8053626647455143e+00 0.0000000000000000e+00  -1.6323039022647052e+00 5.8187874148874243e+00 0.0000000000000000e+00  -1.0472240351697373e+00 5.5634820791233137e+00 0.0000000000000000e+00  -1.1327226965688308e+00 6.6822461361904812e+00 0.0000000000000000e+00  -8.7806014975018321e-01 5.9363522791317545e+00 0.0000000000000000e+00  -3.0272350702271202e+00 3.9538496629532300e+00 0.0000000000000000e+00  -3.8253475216031191e-01 6.7997298672716164e+00 0.0000000000000000e+00  1.3452237570890953e+00 1.0500825919578221e+01 0.0000000000000000e+00  -2.2820028287150782e+00 3.9471727370251455e+00 0.0000000000000000e+00  -2.9117095476584375e-02 8.1971879974010662e+00 0.0000000000000000e+00  2.0856285721740360e+00 1.0264294852846565e+01 0.0000000000000000e+00  -3.1635676323033823e-01 7.5283784160430969e+00 0.0000000000000000e+00  7.0476335075675611e-01 7.9671157450849623e+00 0.0000000000000000e+00  1.9564496747158277e-02 7.8357192076769175e+00 0.0000000000000000e+00  4.0849827867394256e-01 7.3416832066220730e+00 0.0000000000000000e+00  8.0890290281961419e-01 8.8207791695491746e+00 0.0000000000000000e+00  7.3333688132457486e-01 7.6490382962921917e+00 0.0000000000000000e+00  1.8665607025199549e+00 1.0149198647335032e+01 0.0000000000000000e+00  1.5083328602933235e+00 8.5763801153398873e+00 0.0000000000000000e+00  3.1365588947122753e+00 1.1678350149021139e+01 0.0000000000000000e+00  2.5494898661213519e+00 9.7900264148134877e+00 0.0000000000000000e+00  4.5742933814402376e+00 1.3368769444569537e+01 0.0000000000000000e+00  3.8006265770429519e+00 1.1231283855663676e+01 0.0000000000000000e+00  6.1349410509209381e+00 1.5035809581217746e+01 0.0000000000000000e+00  5.2155018476348820e+00 1.2715925326424962e+01 0.0000000000000000e+00  7.7828246767204243e+00 1.6673185894039825e+01 0.0000000000000000e+00  6.7509259886225212e+00 1.4226441490433523e+01 0.0000000000000000e+00  9.4776071434531115e+00 1.8197394868853774e+01 0.0000000000000000e+00  8.3697846277723915e+00 1.5682784926451834e+01 0.0000000000000000e+00  1.1152408366078937e+01 1.9506769898442261e+01 0.0000000000000000e+00  1.0031732993230461e+01 1.7025948854660705e+01 0.0000000000000000e+00  1.2744981379851394e+01 2.0418450581756886e+01 0.0000000000000000e+00  1.1668643654892589e+01 1.8063760159422703e+01 0.0000000000000000e+00  1.4202852552906240e+01 2.1031953556075891e+01 0.0000000000000000e+00  1.3221629572113828e+01 1.8885675640963001e+01 0.0000000000000000e+00  1.5452912023437889e+01 2.0831420337293647e+01 0.0000000000000000e+00  1.4630221738329867e+01 1.8995889672996423e+01 0.0000000000000000e+00  1.6476830424983966e+01 2.0155218207542777e+01 0.0000000000000000e+00  1.5833652208696213e+01 1.8671307124692824e+01 0.0000000000000000e+00  1.7227294788070271e+01 1.8271616874425749e+01 0.0000000000000000e+00  1.6794778894626951e+01 1.7189783597075760e+01 0.0000000000000000e+00  1.7742161384374469e+01 1.5447977392889083e+01 0.0000000000000000e+00  1.7492934581796654e+01 1.4742038591521530e+01 0.0000000000000000e+00  1.8011294898372761e+01 1.1403818355463169e+01 0.0000000000000000e+00  1.7928434750681127e+01 1.1045626967022837e+01 0.0000000000000000e+00  1.8136910421776051e+01 4.7629610131731548e+00 0.0000000000000000e+00  1.8141641771737540e+01 4.6589950981173347e+00 0.0000000000000000e+00  1.8163558467277252e+01 -3.2713970209100454e-05 0.0000000000000000e+00  1.8163235002670024e+01 -3.7069226104428530e-04 0.0000000000000000e+00  1.8163563200123210e+01 1.6083269434210280e-19 0.0000000000000000e+00  1.3886218497851951e+01 -1.1534500085510285e+01 0.0000000000000000e+00  1.8132910569355388e+01 -5.1537723460720759e+00 0.0000000000000000e+00  1.8163249643574130e+01 2.9279540974753635e-04 0.0000000000000000e+00  1.2624583616561770e+01 -2.0106212327046975e+01 0.0000000000000000e+00  1.3905256099821536e+01 -1.8282888918472430e+01 0.0000000000000000e+00  1.0751885574980347e+01 -2.3969932287561814e+01 0.0000000000000000e+00  1.2702290467659347e+01 -2.1197338322215654e+01 0.0000000000000000e+00  9.6680151683192328e+00 -2.4790451882617685e+01 0.0000000000000000e+00  1.0884235883930824e+01 -2.3212670599094281e+01 0.0000000000000000e+00  8.4450067486882041e+00 -2.4344292530483404e+01 0.0000000000000000e+00  9.8494081836117271e+00 -2.2549528967402285e+01 0.0000000000000000e+00  7.4352870726258189e+00 -2.2824320779287778e+01 0.0000000000000000e+00  8.6720968400904059e+00 -2.1350066982510338e+01 0.0000000000000000e+00  6.4869441373705321e+00 -2.1041006504748864e+01 0.0000000000000000e+00  7.7069297879820082e+00 -1.9654037363636593e+01 0.0000000000000000e+00  5.6350424419419678e+00 -1.9030926887167318e+01 0.0000000000000000e+00  6.7992246275342829e+00 -1.7789154742485710e+01 0.0000000000000000e+00  4.7468319417579341e+00 -1.7217828633429527e+01 0.0000000000000000e+00  5.9860637543291668e+00 -1.5918518212300908e+01 0.0000000000000000e+00  4.0373926453122859e+00 -1.5481032819611229e+01 0.0000000000000000e+00  5.1351433223403280e+00 -1.4448737290341079e+01 0.0000000000000000e+00  3.4058999480769612e+00 -1.3966755540115779e+01 0.0000000000000000e+00  4.4608613795524494e+00 -1.3050246234124202e+01 0.0000000000000000e+00  2.7532701838336680e+00 -1.2752400277121543e+01 0.0000000000000000e+00  3.8630198097440003e+00 -1.1802928065435397e+01 0.0000000000000000e+00  2.1584798055102477e+00 -1.1693319973236665e+01 0.0000000000000000e+00  3.2430341777890668e+00 -1.0829306622951625e+01 0.0000000000000000e+00  1.6213026804930883e+00 -1.0771222005912721e+01 0.0000000000000000e+00  2.6793878535197813e+00 -9.9929775545177186e+00 0.0000000000000000e+00  1.1397824613493768e+00 -9.9272452102087065e+00 0.0000000000000000e+00  2.1722477233444781e+00 -9.2314634306004475e+00 0.0000000000000000e+00  7.2336406147193510e-01 -9.1238094912525813e+00 0.0000000000000000e+00  1.7199529591370979e+00 -8.5248638294916308e+00 0.0000000000000000e+00  3.6703395785937537e-01 -8.3658731820294729e+00 0.0000000000000000e+00  1.3317624540961048e+00 -7.8565127389823006e+00 0.0000000000000000e+00  5.5308823650056828e-02 -7.6246016260515717e+00 0.0000000000000000e+00  1.0028586665622761e+00 -7.1815331573697385e+00 0.0000000000000000e+00  -2.0854367517521127e-01 -6.8995026498835808e+00 0.0000000000000000e+00  7.1804359870964962e-01 -6.5276460004936867e+00 0.0000000000000000e+00  -4.2945172442015200e-01 -6.1842634993363967e+00 0.0000000000000000e+00  4.8038606026723363e-01 -5.8765456211875549e+00 0.0000000000000000e+00  -6.1424495564272608e-01 -5.4799613864778811e+00 0.0000000000000000e+00  2.8528512969124814e-01 -5.2258927409297851e+00 0.0000000000000000e+00  -7.6353090975531968e-01 -4.7589214242191265e+00 0.0000000000000000e+00  1.2574958144965231e-01 -4.5579780075668364e+00 0.0000000000000000e+00  -8.7051830064833258e-01 -4.0803216461257845e+00 0.0000000000000000e+00  1.6588951442514169e-03 -3.9422530117692158e+00 0.0000000000000000e+00  -9.4523353356979700e-01 -3.3263244442924438e+00 0.0000000000000000e+00  -8.1012803800537395e-02 -3.2370299836729752e+00 0.0000000000000000e+00  -9.7368316702476954e-01 -2.6959122321029882e+00 0.0000000000000000e+00  -1.3063941477656596e-01 -2.6747597628636726e+00 0.0000000000000000e+00  -9.6021509168879660e-01 -1.8781313748820478e+00 0.0000000000000000e+00  -1.3593020564939698e-01 -1.9215136850291690e+00 0.0000000000000000e+00  -8.9581822764566132e-01 -1.3970718504222239e+00 0.0000000000000000e+00  -9.6682087471461245e-02 -1.5136816013413510e+00 0.0000000000000000e+00  -7.6612658693124802e-01 -4.2933252941236028e-01 0.0000000000000000e+00  -1.1360253824116992e-02 -6.4880646371528750e-01 0.0000000000000000e+00  -5.2197807482671799e-01 5.0803202942850144e-02 0.0000000000000000e+00  1.4751512510371986e-01 -3.3140153018797414e-01 0.0000000000000000e+00  5.9320696557208057e-02 2.8486973162637413e-01 0.0000000000000000e+00  4.0333668538533179e-01 -6.2054266602073493e-01 0.0000000000000000e+00  -2.0113642058926100e+00 1.4625096929475920e+00 0.0000000000000000e+00  -2.1191677683594543e+00 1.2926810917961711e+00 0.0000000000000000e+00  -1.9026086135114091e+00 1.7705177006207946e+00 0.0000000000000000e+00  -1.7547593646639672e+00 2.2630720024980944e+00 0.0000000000000000e+00  -1.5083628190599259e+00 2.8049537126731505e+00 0.0000000000000000e+00  -1.2014950826766997e+00 3.4962106850206545e+00 0.0000000000000000e+00  -8.4248246509169022e-01 4.1982881999976556e+00 0.0000000000000000e+00  -4.3731960238294959e-01 4.9734241054120352e+00 0.0000000000000000e+00  -4.4351261844005681e-02 5.6831284923567429e+00 0.0000000000000000e+00  1.2309430602945415e-01 6.0586314038937843e+00 0.0000000000000000e+00  6.1437121761430891e-01 6.8004340823111704e+00 0.0000000000000000e+00  -1.2903511935914600e+00 3.7128611613219968e+00 0.0000000000000000e+00  3.0780322722413205e+00 1.0037761395787768e+01 0.0000000000000000e+00  1.6967770471976500e+00 7.7902655545240727e+00 0.0000000000000000e+00  1.3933200261146512e+00 7.1668813050522822e+00 0.0000000000000000e+00  1.7073814446218374e+00 7.4235550218932911e+00 0.0000000000000000e+00  2.4659598892179697e+00 8.2400978225989228e+00 0.0000000000000000e+00  3.4864166110985582e+00 9.3678429989960517e+00 0.0000000000000000e+00  4.7132268380897306e+00 1.0611009152604936e+01 0.0000000000000000e+00  6.0982644036584333e+00 1.1943838169412823e+01 0.0000000000000000e+00  7.5983014234669213e+00 1.3276355913361192e+01 0.0000000000000000e+00  9.1772312449855740e+00 1.4561497521801012e+01 0.0000000000000000e+00  1.0790975039694374e+01 1.5639252219864941e+01 0.0000000000000000e+00  1.2373008373561674e+01 1.6593055131395815e+01 0.0000000000000000e+00  1.3862216590831272e+01 1.6922847117818247e+01 0.0000000000000000e+00  1.5198978457729012e+01 1.6918341899949343e+01 0.0000000000000000e+00  1.6316422672877220e+01 1.5793383111676800e+01 0.0000000000000000e+00  1.7188774639736724e+01 1.3770536464656674e+01 0.0000000000000000e+00  1.7771181320765891e+01 1.0435801611012945e+01 0.0000000000000000e+00  1.8104105055142604e+01 4.4522769621348806e+00 0.0000000000000000e+00  1.8162460751429300e+01 -7.0458561358719145e-04 0.0000000000000000e+00  1.8092155921546698e+01 -4.9577931903398840e+00 0.0000000000000000e+00  1.8162478954205817e+01 5.7391985151013692e-04 0.0000000000000000e+00  1.7901130901976384e+01 -1.1959998037368377e+01 0.0000000000000000e+00  1.3743988535115584e+01 -1.9450345624915297e+01 0.0000000000000000e+00  1.2627358638018340e+01 -2.0528031792183697e+01 0.0000000000000000e+00  1.0877303872122107e+01 -2.1037379454087080e+01 0.0000000000000000e+00  9.9060053525438256e+00 -1.9613824491652554e+01 0.0000000000000000e+00  8.7803896987752594e+00 -1.8239415494525847e+01 0.0000000000000000e+00  7.8658777748562878e+00 -1.6453783708460357e+01 0.0000000000000000e+00  7.0018107093361239e+00 -1.4723327961971771e+01 0.0000000000000000e+00  6.2290764116003894e+00 -1.3195940652461468e+01 0.0000000000000000e+00  5.4159978586672057e+00 -1.2060430135085284e+01 0.0000000000000000e+00  4.7770686967186924e+00 -1.0925939697946651e+01 0.0000000000000000e+00  4.2121544517949872e+00 -9.9189869009012046e+00 0.0000000000000000e+00  3.6238837378603601e+00 -9.1656537899382045e+00 0.0000000000000000e+00  3.0900212690873401e+00 -8.4877100509762453e+00 0.0000000000000000e+00  2.6109333000020833e+00 -7.8629716866509947e+00 0.0000000000000000e+00  2.1855329042433835e+00 -7.2897930040455527e+00 0.0000000000000000e+00  1.8228859736597602e+00 -6.7028980780151057e+00 0.0000000000000000e+00  1.5183061277944849e+00 -6.1148076781088188e+00 0.0000000000000000e+00  1.2570134909400494e+00 -5.5338767365601989e+00 0.0000000000000000e+00  1.0420476399859828e+00 -4.9464461192617017e+00 0.0000000000000000e+00  8.6885353643487162e-01 -4.3318474639415028e+00 0.0000000000000000e+00  7.3084490170855809e-01 -3.7686594217634215e+00 0.0000000000000000e+00  6.2764438788021537e-01 -3.1257425399400063e+00 0.0000000000000000e+00  5.6569141929487921e-01 -2.6121068142671016e+00 0.0000000000000000e+00  5.3606298325759116e-01 -1.9265655104410120e+00 0.0000000000000000e+00  5.5121496105638645e-01 -1.5827767967063207e+00 0.0000000000000000e+00  6.0915369084151982e-01 -7.9124456733579429e-01 0.0000000000000000e+00  7.1510950888478064e-01 -5.7704544191750851e-01 0.0000000000000000e+00  8.9133129831391378e-01 -1.0199731364270219e+00 0.0000000000000000e+00  -7.0248718159067847e-01 1.2985583046693789e+00 0.0000000000000000e+00  -7.9447618882880633e-01 1.1581436553317663e+00 0.0000000000000000e+00  -5.9096970696321793e-01 1.6035846795111077e+00 0.0000000000000000e+00  -4.7596288988451174e-01 2.0373477809280218e+00 0.0000000000000000e+00  -3.2182730628579798e-01 2.4309254619298821e+00 0.0000000000000000e+00  -6.8390235536978677e-02 3.0314934176848318e+00 0.0000000000000000e+00  2.4559214378594843e-01 3.6560860412114078e+00 0.0000000000000000e+00  6.1061006406909424e-01 4.3625450027553843e+00 0.0000000000000000e+00  1.0207041389326466e+00 5.0921738947814088e+00 0.0000000000000000e+00  1.4163619545404602e+00 5.8085828139245423e+00 0.0000000000000000e+00  1.5823860128953506e+00 6.0674653330197064e+00 0.0000000000000000e+00  2.0683526628494624e+00 6.5742652462222475e+00 0.0000000000000000e+00  1.6321341456591643e-01 3.4796371853172783e+00 0.0000000000000000e+00  4.5444286296957017e+00 9.8544738736740474e+00 0.0000000000000000e+00  3.1739342168359608e+00 7.6252811054634551e+00 0.0000000000000000e+00  2.8684489582486572e+00 6.9617693930332685e+00 0.0000000000000000e+00  3.1707682769862000e+00 7.1175737447278822e+00 0.0000000000000000e+00  3.9095841124024480e+00 7.8584116747503039e+00 0.0000000000000000e+00  4.9031564486523527e+00 8.7976701210925832e+00 0.0000000000000000e+00  6.0946909992477432e+00 9.8984502371599437e+00 0.0000000000000000e+00  7.4369403267940104e+00 1.1065316014234694e+01 0.0000000000000000e+00  8.8856908068948250e+00 1.2240507588663942e+01 0.0000000000000000e+00  1.0401038878164064e+01 1.3272385083039476e+01 0.0000000000000000e+00  1.1940659271378994e+01 1.4287928807916700e+01 0.0000000000000000e+00  1.3431619709942703e+01 1.4763049725460057e+01 0.0000000000000000e+00  1.4816201638468600e+01 1.5008879756252012e+01 0.0000000000000000e+00  1.6023071708037733e+01 1.4213214977449043e+01 0.0000000000000000e+00  1.6999161966395778e+01 1.2601550324210836e+01 0.0000000000000000e+00  1.7688086188584879e+01 9.6685186992367171e+00 0.0000000000000000e+00  1.8095461639809646e+01 4.1680605738840377e+00 0.0000000000000000e+00  1.8161253004736409e+01 -1.0064969460454826e-03 0.0000000000000000e+00  1.8071574454043958e+01 -4.6127104261756156e+00 0.0000000000000000e+00  1.8161269287156536e+01 8.1979712087795471e-04 0.0000000000000000e+00  1.7669857399857783e+01 -1.1610034320780340e+01 0.0000000000000000e+00  1.7468599891337423e+01 -1.3303880150519472e+01 0.0000000000000000e+00  1.3435138789124018e+01 -1.8961641787853296e+01 0.0000000000000000e+00  1.2457127327348836e+01 -1.8492202407284196e+01 0.0000000000000000e+00  1.0815251882335563e+01 -1.8233985615940139e+01 0.0000000000000000e+00  9.9372655079171430e+00 -1.6610092562375712e+01 0.0000000000000000e+00  8.8897861525215820e+00 -1.5138631073228654e+01 0.0000000000000000e+00  8.0459574783772538e+00 -1.3476048846883623e+01 0.0000000000000000e+00  7.2429350104700383e+00 -1.2081654259014956e+01 0.0000000000000000e+00  6.5266368043145642e+00 -1.0881577142542890e+01 0.0000000000000000e+00  5.7649806150419254e+00 -1.0006185749730697e+01 0.0000000000000000e+00  5.1739458305193686e+00 -9.1074845679109160e+00 0.0000000000000000e+00  4.6543337753244209e+00 -8.3173571057176154e+00 0.0000000000000000e+00  4.1088224468700725e+00 -7.7191387450097873e+00 0.0000000000000000e+00  3.6149339560239033e+00 -7.1745493139726007e+00 0.0000000000000000e+00  3.1735519355521995e+00 -6.6801897617779087e+00 0.0000000000000000e+00  2.7835737438437409e+00 -6.1860356222635744e+00 0.0000000000000000e+00  2.4542785628312282e+00 -5.6835412240870422e+00 0.0000000000000000e+00  2.1813473789452922e+00 -5.1664834232301668e+00 0.0000000000000000e+00  1.9502714162707526e+00 -4.6475333544988926e+00 0.0000000000000000e+00  1.7641470884861430e+00 -4.0949209060711951e+00 0.0000000000000000e+00  1.6189875343656412e+00 -3.5835726985684100e+00 0.0000000000000000e+00  1.5079331505071456e+00 -2.9928944649098006e+00 0.0000000000000000e+00  1.4314286352190215e+00 -2.5397509781212286e+00 0.0000000000000000e+00  1.3948724167289335e+00 -1.9038598707710590e+00 0.0000000000000000e+00  1.3913242968113402e+00 -1.6240494204179332e+00 0.0000000000000000e+00  1.4296526065894575e+00 -9.0110120763428159e-01 0.0000000000000000e+00  1.5145471647344684e+00 -7.5037133765354258e-01 0.0000000000000000e+00  1.6373815347658518e+00 -1.3086288505767878e+00 0.0000000000000000e+00  5.0251775036007396e-01 1.1573746538284249e+00 0.0000000000000000e+00  4.3077531245324768e-01 1.0552495246580009e+00 0.0000000000000000e+00  5.9966260819480166e-01 1.4305241833999942e+00 0.0000000000000000e+00  7.2066507179840511e-01 1.8571321138943970e+00 0.0000000000000000e+00  8.4706989330766769e-01 2.1909793357067064e+00 0.0000000000000000e+00  1.0143611324471089e+00 2.6419513024303498e+00 0.0000000000000000e+00  1.2816598678744160e+00 3.1751400582636031e+00 0.0000000000000000e+00  1.6098955041087151e+00 3.8056903196580514e+00 0.0000000000000000e+00  1.9883726912145556e+00 4.4690432644770661e+00 0.0000000000000000e+00  2.4094014476808332e+00 5.2093756913032383e+00 0.0000000000000000e+00  2.8116568708309519e+00 5.8173679455473986e+00 0.0000000000000000e+00  2.9792138502959045e+00 5.8462662489925972e+00 0.0000000000000000e+00  3.4652428348134436e+00 6.3316880960120132e+00 0.0000000000000000e+00  1.5746942046946864e+00 3.2600502517511591e+00 0.0000000000000000e+00  5.9922259623719176e+00 9.6570014774504287e+00 0.0000000000000000e+00  4.6523848037537086e+00 7.4105780351700208e+00 0.0000000000000000e+00  4.3591581536598394e+00 6.6635296908921191e+00 0.0000000000000000e+00  4.6615706987485410e+00 6.7584672824515195e+00 0.0000000000000000e+00  5.3883988576138400e+00 7.3208008369694291e+00 0.0000000000000000e+00  6.3620419640833479e+00 8.1322010299113376e+00 0.0000000000000000e+00  7.5246205326624844e+00 9.0790255754022535e+00 0.0000000000000000e+00  8.8278208844598609e+00 1.0102554333758951e+01 0.0000000000000000e+00  1.0225912763346475e+01 1.1043334331274908e+01 0.0000000000000000e+00  1.1677806095518694e+01 1.2037247681916911e+01 0.0000000000000000e+00  1.3133062872503217e+01 1.2593739182054730e+01 0.0000000000000000e+00  1.4522870844398017e+01 1.3027003625363681e+01 0.0000000000000000e+00  1.5772920088690082e+01 1.2501124871494318e+01 0.0000000000000000e+00  1.6827140056420987e+01 1.1289260787823917e+01 0.0000000000000000e+00  1.7594159415454943e+01 8.7573436969104375e+00 0.0000000000000000e+00  1.8073776758274764e+01 3.8123647098059599e+00 0.0000000000000000e+00  1.8159659592942713e+01 -1.2745095823601495e-03 0.0000000000000000e+00  1.8048157555352091e+01 -4.1766837986699352e+00 0.0000000000000000e+00  1.8159674397108340e+01 1.0367794295040277e-03 0.0000000000000000e+00  1.7543827189107240e+01 -1.0835946772445478e+01 0.