<?xml version="1.0"?>
<VTKFile type="UnstructuredGrid"  version="0.1"  >
<UnstructuredGrid>
<Piece  NumberOfPoints="1933" NumberOfCells="3640">
<Points>
<DataArray  type="Float64"  NumberOfComponents="3"  format="ascii">-0.4752604340225686 -0.00238190145277831 0  4.524739604195146 -0.00231503974748916 0  4.524639282109956 7.497685040353083 0  -0.4753607624740493 7.497618170262119 0  9.524739674458939 -0.002248231550092314 0  9.524639351226972 7.497751845317736 0  14.52473980532089 -0.002181451518588388 0  14.5246394516676 7.497818619777842 0  19.52474001571887 -0.00211465982622009 0  19.52463958698313 7.497885406256603 0  24.52474031570334 -0.002047810664929107 0  24.52463975738833 7.497952251144007 0  29.52474070817755 -0.00198085563425216 0  29.52463995946489 7.498019202755801 0  34.52474119039348 -0.001913744794235955 0  34.52464018593221 7.498086310765632 0  39.5247417549266 -0.001846426590484676 0  39.52464042541691 7.498153626435444 0  44.52474239013589 -0.001778847203326365 0  44.52464066212153 7.498221203304439 0  49.52474308017507 -0.001710949568856594 0  49.52464087531305 7.498289098163272 0  54.52474380460513 -0.001642672166965577 0  54.52464103856754 7.498357372244002 0  59.52474453762441 -0.001573947587681474 0  59.52464111870781 7.498426092620512 0  64.52474524689033 -0.0015047008336722 0  64.52464107435556 7.498495333858564 0  69.52474589185367 -0.00143484727313416 0  69.52464085399448 7.498565179991181 0  74.52474642146711 -0.001364290110920468 0  74.52464039339831 7.498635726931071 0  79.52474677103176 -0.001292917186253883 0  79.52463961221892 7.498707085474761 0  84.52474685781029 -0.001220596821839633 0  84.5246384094533 7.498779385103879 0  89.52474657479611 -0.001147172328192815 0  89.52463665740375 7.498852778848563 0  94.52474578165031 -0.0010724545914029 0  94.52463419362704 7.498927449535126 0  99.52474429113528 -0.0009962119231806325 0  99.52463081025009 7.499003617761182 0  104.5247418481989 -0.0009181560167240981 0  104.5246262399895 7.499081551841188 0  109.5247380967296 -0.0008379224555130618 0  109.5246201384272 7.499161579531562 0  114.5247325251509 -0.0007550439138626279 0  114.5246120630186 7.499244100103566 0  119.5247243749546 -0.000668914480079921 0  119.524601451918 7.499329592222209 0  124.5247124832791 -0.0005787459470886716 0  124.5245876121865 7.499418605842668 0  129.5246950067038 -0.0004835257766230047 0  129.5245697418673 7.499511710245661 0  134.5246689294169 -0.0003820141966947769 0  134.524547043222 7.499609336286571 0  139.5246291778197 -0.0002729026954665935 0  139.5245190542598 7.499711384244792 0  144.5245670106383 -0.0001555290861423526 0  144.5244864721476 7.499816362309177 0  149.5244670337601 -3.252539030711151e-05 0  149.5244530580891 7.499919788629984 0  159.5244717418524 1.224973874445778e-18 0  164.5244811660349 -2.872647370754244e-05 0  164.5244746664602 7.499961030482843 0  159.5244648749325 7.499976210823569 0  169.5245021754804 -3.154001078567965e-05 0  169.5244841654222 7.499963656478432 0  174.5245263237912 -1.664118410063176e-05 0  174.5244946299476 7.49998104030479 0  179.5245500242119 1.081939251231474e-05 0  179.5245057686681 7.500009713069739 0  184.5245718480014 4.735703514566683e-05 0  184.5245170405105 7.500046860296703 0  189.5245913412775 9.055070529340707e-05 0  189.5245279977521 7.500090364323954 0  194.5246084819513 0.0001386917607859662 0  194.5245383441419 7.500138663399237 0  199.5246234267219 0.000190556411718886 0  199.5245479130404 7.500190607355217 0  204.5246363938926 0.0002452544503192391 0  204.5245566307696 7.500245343630357 0  209.5246476105337 0.0003021279662977027 0  209.5245644844585 7.500302233843489 0  214.5246572901099 0.0003606830774229991 0  214.5245714982781 7.500360794372057 0  219.5246656243644 0.0004205434501207826 0  219.5245777172534 7.500420654339889 0  224.5246727817024 0.0004814182329560053 0  224.5245831967635 7.50048152583595 0  229.524678908384 0.0005430795900256699 0  229.524587996001 7.500543182630932 0  234.5246841307954 0.0006053467004232889 0  234.5245921740703 7.50060544479709 0  239.5246885580044 0.0006680741764959111 0  239.5245957878002 7.500668167456917 0  244.5246922842721 0.00073114355405749 0  244.5245988906514 7.50073123245307 0  249.5246953913864 0.0007944569612019737 0  249.5246015323173 7.500794542117549 0  254.5246979508054 0.000857932369733328 0  254.5246037587598 7.500858014581195 0  259.524700025619 0.0009215000331158486 0  259.5246056125073 7.500921580246066 0  264.5247016723845 0.0009850998552165774 0  264.5246071331131 7.500985179173139 0  269.5247029428579 0.001048679540417014 0  269.5246083577007 7.501048759236406 0  274.5247038856861 0.001112193466374414 0  274.5246093215259 7.501112274976453 0  279.5247045480538 0.001175602311216918 0  279.5246100585206 7.501175687162966 0  284.5247049772878 0.001238873572037316 0  284.5246106017416 7.501238963154779 0  289.5247052222811 0.001301983246777666 0  289.5246109836705 7.501302078232164 0  294.5247053344622 0.001364919128882326 0  294.5246112363096 7.501365018166139 0  299.5247053676182 0.001427686367873973 0  299.5246113910871 7.501427783368568 0  304.5247053751285 0.001490316025922343 0  304.5246114788385 7.501490395015328 0  309.5247054015522 0.001552876517581318 0  309.5246115307934 7.501552903678007 0  4.524538865901786 14.99768519963226 0  -0.4754611753014044 14.99761834270758 0  9.524538912624646 14.99775197462914 0  14.52453896560817 14.99781871857639 0  19.52453902162149 14.99788547850255 0  24.52453907501337 14.99795230098865 0  29.52453911782312 14.99801923314569 0  34.5245391394096 14.998086323118 0  39.52453912592891 14.9981536206452 0  44.52453905974069 14.99822117779193 0  49.52453891873453 14.99828904984776 0  54.52453867553812 14.99835729638867 0  59.52453829656223 14.9984259825059 0  64.5245377408379 14.99849518022541 0  69.52453695860113 14.99856497015612 0  74.52453588959079 14.99863544341523 0  79.52453446103921 14.99870670387998 0  84.52453258538054 14.99877887079718 0  89.5245301577887 14.99885208172679 0  94.52452705383658 14.99892649566083 0  99.52452312790243 14.9990022958665 0  104.5245182135743 14.99907969140132 0  109.5245121283797 14.99915891505897 0  114.5245046870079 14.99924021322336 0  119.5244957300886 14.9993238188678 0  124.524485179789 14.99940989134107 0  129.5244731385021 14.99949839369192 0  134.5244600499569 14.99958885823243 0  139.5244469341479 14.9996799647095 0  144.5244356635905 14.99976883276876 0  149.524429104039 14.9998499291441 0  164.524449042646 14.9999329512124 0  159.5244434845468 14.99992313912092 0  169.5244523123515 14.99994938996038 0  174.5244552278277 14.99997406943627 0  179.5244585643916 15.00000653746091 0  184.5244624674634 15.0000456372713 0  189.5244668202014 15.00009012799258 0  194.524471430878 15.00013890804441 0  199.5244761145674 15.00019106895732 0  204.5244807219555 15.00024588549834 0  209.5244851442271 15.00030278657403 0  214.5244893084969 15.00036132419297 0  219.5244931705058 15.00042114633853 0  224.5244967074278 15.00048197503314 0  229.5244999118057 15.00054358921521 0  234.5245027868196 15.00060581158142 0  239.5245053427569 15.00066849853237 0  244.5245075944653 15.00073153249244 0  249.5245095595669 15.00079481603477 0  254.5245112572366 15.00085826738374 0  259.5245127073908 15.00092181698609 0  264.5245139301638 15.00098540493284 0  269.5245149455828 15.00104897908903 0  274.5245157733682 15.00111249384688 0  279.5245164328134 15.00117590946551 0  284.524516942737 15.0012391919967 0  289.5245173215121 15.00130231381138 0  294.5245175873106 15.00136525471911 0  299.5245177587925 15.00142800357736 0  304.5245178567586 15.00149056005526 0  309.5245179076744 15.00155293575967 0  4.524438489356737 22.49768545905023 0  -0.4755615473000008 22.49761867893634 0  9.524438517602196 22.49775216143032 0  14.52443853227149 22.49781884005055 0  19.52443852678058 22.49788554251932 0  24.52443849312824 22.49795231386734 0  29.52443842180691 22.49801919861564 0  34.52443830149522 22.49808624194619 0  39.5244381186258 22.49815349052272 0  44.52443785689903 22.49822099322508 0  49.5244374967777 22.49828880190664 0  54.52443701496988 22.49835697221468 0  59.52443638390725 22.49842556448506 0  64.52443557123506 22.4984946447091 0  69.5244345393499 22.49856428555585 0  74.52443324506604 22.49863456741018 0  79.52443163954619 22.49870557934182 0  84.52442966873656 22.49877741983724 0  89.52442727469479 22.49885019697946 0  94.52442439843053 22.49892402750279 0  99.52442098521433 22.49899903370886 0  104.5244169937816 22.4990753364963 0  109.5244124114535 22.49915304156033 0  114.5244072778429 22.49923221395504 0  119.524401720201 22.49931283348189 0  124.5243960029051 22.4993947198161 0  129.5243905905325 22.49947741280976 0  134.5243862155688 22.49955999336369 0  139.5243839235515 22.49964084311681 0  144.524385035519 22.49971739102295 0  149.5243909230074 22.49978604180422 0  164.524405304815 22.49990021174711 0  159.5244032629979 22.49987242500359 0  169.5244053653264 22.49992959325898 0  174.5244045346042 22.4999627608217 0  179.5244036147697 22.50000050208768 0  184.5244030402482 22.50004276576206 0  189.5244029734218 22.50008910127094 0  194.5244034168654 22.50013892301027 0  199.5244042954502 22.50019164497001 0  204.5244055063656 22.50024673890184 0  209.5244069459975 22.50030375257544 0  214.5244085224411 22.50036230923311 0  219.5244101599222 22.50042209936821 0  224.5244117990481 22.50048287028294 0  229.52441339516 22.50054441588595 0  234.5244149160171 22.50060656768575 0  239.5244163394329 22.50066918722645 0  244.5244176511407 22.50073215990425 0  249.5244188429797 22.50079538999135 0  254.5244199114163 22.5008587966736 0  259.5244208563509 22.50092231092596 0  264.5244216801814 22.50098587307859 0  269.5244223870621 22.50104943095891 0  274.5244229823391 22.50111293851854 0  279.5244234721375 22.50117635486925 0  284.5244238631241 22.50123964364732 0  289.5244241625032 22.50130277259151 0  294.5244243783777 22.50136571313609 0  299.5244245206645 22.5
[...]
<PointData  Vectors="v"> 
<DataArray  type="Float64"  Name="v"  NumberOfComponents="3" format="ascii">-4.3396364638986711e+00 -3.1243024739294212e+00 0.0000000000000000e+00  -4.5385534265109859e+00 -2.5923333954137755e+00 0.0000000000000000e+00  -3.8409115163205976e+00 -2.2941188520199574e+00 0.0000000000000000e+00  -3.6821979837549845e+00 -2.8856638059205859e+00 0.0000000000000000e+00  -4.7229609402002719e+00 -2.4363959621078011e+00 0.0000000000000000e+00  -4.0395025704592395e+00 -2.1599702548123374e+00 0.0000000000000000e+00  -4.8014778770420046e+00 -2.3360358557674097e+00 0.0000000000000000e+00  -4.2234443578736895e+00 -2.2187151806914662e+00 0.0000000000000000e+00  -4.7793072874311413e+00 -1.8176320423469621e+00 0.0000000000000000e+00  -4.3012557702594094e+00 -1.8512729561353836e+00 0.0000000000000000e+00  -4.7943266763801500e+00 -1.5164598236496281e+00 0.0000000000000000e+00  -4.2782248758550327e+00 -1.4942475775953559e+00 0.0000000000000000e+00  -4.7318164961832005e+00 -9.7929713196556600e-01 0.0000000000000000e+00  -4.2926315980647214e+00 -1.0734355641337812e+00 0.0000000000000000e+00  -4.6086026276980059e+00 -3.9487229210849389e-01 0.0000000000000000e+00  -4.2295279074158234e+00 -5.7963955345029616e-01 0.0000000000000000e+00  -4.7789611417959259e+00 -2.0883684798131366e-01 0.0000000000000000e+00  -4.1059414746727123e+00 4.7027960727199197e-02 0.0000000000000000e+00  -4.7544528771542067e+00 2.5366779345866197e-01 0.0000000000000000e+00  -4.2765123405240137e+00 2.1741622549122319e-01 0.0000000000000000e+00  -7.2544925929718662e+00 -3.0150799813384399e+00 0.0000000000000000e+00  -4.2526617006956693e+00 7.3623113037493626e-01 0.0000000000000000e+00  -8.4314232108337919e+00 -4.2226501370908283e+00 0.0000000000000000e+00  -6.7529220647120054e+00 -2.4561659103800522e+00 0.0000000000000000e+00  -8.7664453506944042e+00 -4.0761131835706159e+00 0.0000000000000000e+00  -7.9311037745142077e+00 -3.5707952743329434e+00 0.0000000000000000e+00  -8.7587937790193848e+00 -3.3566127652121271e+00 0.0000000000000000e+00  -8.2690779206852341e+00 -3.3641437211318785e+00 0.0000000000000000e+00  -8.5505093700625299e+00 -2.3513150988049327e+00 0.0000000000000000e+00  -8.2655901589867860e+00 -2.6582038425365613e+00 0.0000000000000000e+00  -8.2655078405025186e+00 -1.2648701667995388e+00 0.0000000000000000e+00  -8.0635891381594273e+00 -1.6860718289005152e+00 0.0000000000000000e+00  -7.9018965039700104e+00 -1.1194517888543350e-01 0.0000000000000000e+00  -7.7861164139652557e+00 -6.4893857217684381e-01 0.0000000000000000e+00  -7.4482950948517974e+00 1.0302770209519876e+00 0.0000000000000000e+00  -7.4315724133667800e+00 3.5996750462260718e-01 0.0000000000000000e+00  -6.8936209738469580e+00 2.2405594093745571e+00 0.0000000000000000e+00  -6.9898895486280903e+00 1.4201038824141463e+00 0.0000000000000000e+00  -6.2261368416605949e+00 3.4919402973539189e+00 0.0000000000000000e+00  -6.4487877607852448e+00 2.5053857642049553e+00 0.0000000000000000e+00  -5.4468885756886181e+00 4.8010590005006284e+00 0.0000000000000000e+00  -5.7978534589209190e+00 3.6488491000391932e+00 0.0000000000000000e+00  -4.5884996528661040e+00 6.0886175487247920e+00 0.0000000000000000e+00  -5.0381925054110139e+00 4.8209263155699542e+00 0.0000000000000000e+00  -3.6911209795035171e+00 7.4508657295673970e+00 0.0000000000000000e+00  -4.2035719018828379e+00 6.1271751110276975e+00 0.0000000000000000e+00  -2.7987978340458022e+00 8.5086767076077443e+00 0.0000000000000000e+00  -3.3316636529427903e+00 7.1980027449939614e+00 0.0000000000000000e+00  -1.9811400616951083e+00 9.6354985134513775e+00 0.0000000000000000e+00  -2.4730114296416024e+00 8.4365609402026873e+00 0.0000000000000000e+00  -1.2700562827049264e+00 9.9914883729710127e+00 0.0000000000000000e+00  -1.6874575343663323e+00 8.9629715982483642e+00 0.0000000000000000e+00  -7.2446232814297085e-01 1.0382748068489876e+01 0.0000000000000000e+00  -1.0223010338661107e+00 9.5965816823469456e+00 0.0000000000000000e+00  -3.3371418135338754e-01 9.2029857492126439e+00 0.0000000000000000e+00  -5.1498031668047861e-01 8.6680704522725165e+00 0.0000000000000000e+00  -1.2329184578142242e-01 8.1788891567202988e+00 0.0000000000000000e+00  -1.8544958531365036e-01 7.8984065306502123e+00 0.0000000000000000e+00  -2.2038914770634677e-02 3.9856358377087542e+00 0.0000000000000000e+00  -1.8313276415229385e-02 3.9014428125520073e+00 0.0000000000000000e+00  -1.0694679461311159e-05 -7.3882594062406643e-05 0.0000000000000000e+00  -7.4071850557032369e-04 -8.3733664607170215e-04 0.0000000000000000e+00  -4.8294543628906876e-12 5.1048437289282697e-19 0.0000000000000000e+00  1.4486080193425643e+00 -7.1458807934885211e+00 0.0000000000000000e+00  -2.7289135880880281e-02 -9.3382810437842387e+00 0.0000000000000000e+00  -7.0761661484103203e-04 6.6112643709927968e-04 0.0000000000000000e+00  -1.9919172511307265e-01 -1.1843239898620865e+01 0.0000000000000000e+00  1.4503368010151059e+00 -9.4160087674953310e+00 0.0000000000000000e+00  -2.0620897743538291e-01 -1.1108388597596392e+01 0.0000000000000000e+00  -1.6198989431515823e-01 -1.1115481447505388e+01 0.0000000000000000e+00  -8.0979562359320589e-01 -1.1014843026546931e+01 0.0000000000000000e+00  -1.3800676008987919e-01 -1.0136011041225247e+01 0.0000000000000000e+00  -9.9468037591979308e-01 -8.8519337450026132e+00 0.0000000000000000e+00  -7.1575742559877453e-01 -8.5940217398734990e+00 0.0000000000000000e+00  -1.2556546293579403e+00 -7.1999772597602485e+00 0.0000000000000000e+00  -8.7780499139596169e-01 -6.8280066253777161e+00 0.0000000000000000e+00  -1.4038803752863989e+00 -5.3674838953507482e+00 0.0000000000000000e+00  -1.1172653238146799e+00 -5.1606346123645501e+00 0.0000000000000000e+00  -1.5663341885596176e+00 -4.0074837226308855e+00 0.0000000000000000e+00  -1.2473893240944967e+00 -3.7794973942537129e+00 0.0000000000000000e+00  -1.6339524513824046e+00 -2.9160494089924489e+00 0.0000000000000000e+00  -1.3934069579856081e+00 -2.8276701014047378e+00 0.0000000000000000e+00  -1.7528414674325683e+00 -2.3170491443430947e+00 0.0000000000000000e+00  -1.4459277497250340e+00 -2.1507510246434181e+00 0.0000000000000000e+00  -1.9002509477843981e+00 -1.9491572287873611e+00 0.0000000000000000e+00  -1.5515653859591449e+00 -1.7390754439638936e+00 0.0000000000000000e+00  -2.0264158524732774e+00 -1.7809777802601492e+00 0.0000000000000000e+00  -1.6869966795257241e+00 -1.6016768825063665e+00 0.0000000000000000e+00  -2.1226016400592402e+00 -1.7101288430915937e+00 0.0000000000000000e+00  -1.8020647568915809e+00 -1.5747333525900808e+00 0.0000000000000000e+00  -2.1914193625753287e+00 -1.6628213533680123e+00 0.0000000000000000e+00  -1.8883976304490342e+00 -1.5679471493533572e+00 0.0000000000000000e+00  -2.2122323973272731e+00 -1.6192973534509740e+00 0.0000000000000000e+00  -1.9482418896849611e+00 -1.5956229102706785e+00 0.0000000000000000e+00  -2.2095022938976605e+00 -1.5825235435301170e+00 0.0000000000000000e+00  -1.9607039765515879e+00 -1.5935533916429432e+00 0.0000000000000000e+00  -2.1930390337636254e+00 -1.5279740280341072e+00 0.0000000000000000e+00  -1.9503803086795322e+00 -1.5592332160456379e+00 0.0000000000000000e+00  -2.1551585570380123e+00 -1.4593272569222646e+00 0.0000000000000000e+00  -1.9268702354529632e+00 -1.5222779553732924e+00 0.0000000000000000e+00  -2.1082409515140594e+00 -1.3908772065957666e+00 0.0000000000000000e+00  -1.8822854481307911e+00 -1.4670216054297174e+00 0.0000000000000000e+00  -2.0627878939950151e+00 -1.2920942547826202e+00 0.0000000000000000e+00  -1.8290910487026839e+00 -1.3658798149781435e+00 0.0000000000000000e+00  -2.0033455737445487e+00 -1.2082073034741880e+00 0.0000000000000000e+00  -1.7776090740747115e+00 -1.3027316282378043e+00 0.0000000000000000e+00  -1.9419027460583875e+00 -1.0648477900573130e+00 0.0000000000000000e+00  -1.7123400444061496e+00 -1.1622676756039350e+00 0.0000000000000000e+00  -1.8713925006097543e+00 -9.7506025929933482e-01 0.0000000000000000e+00  -1.6451655517320272e+00 -1.0859372508536533e+00 0.0000000000000000e+00  -1.7899140547047836e+00 -7.2459814129503508e-01 0.0000000000000000e+00  -1.5691576228998392e+00 -8.5200129780905287e-01 0.0000000000000000e+00  -1.6834684023822450e+00 -6.7423668319806629e-01 0.0000000000000000e+00  -1.4819789154805834e+00 -8.3880334870598749e-01 0.0000000000000000e+00  -1.5519453011712157e+00 -1.8868424304282741e-01 0.0000000000000000e+00  -1.3702711560785235e+00 -3.9129715022876838e-01 0.0000000000000000e+00  -1.3785763395145221e+00 -2.9472762265942060e-01 0.0000000000000000e+00  -1.2328266250178590e+00 -5.5939269505012990e-01 0.0000000000000000e+00  -1.1018991586467677e+00 6.3804164118002593e-01 0.0000000000000000e+00  -1.0546382362938307e+00 2.1721085540866089e-01 0.0000000000000000e+00  -6.3486613705310657e-01 7.9401182933213155e-01 0.0000000000000000e+00  -7.7114492022311398e-01 8.9727643947999064e-02 0.0000000000000000e+00  4.6812971140549664e-01 2.8945772223381738e-01 0.0000000000000000e+00  -3.0139328264692755e-01 -1.3729272737131042e+00 0.0000000000000000e+00  -3.1263716807793767e+00 -2.0568321490234123e+00 0.0000000000000000e+00  -2.9412713086962783e+00 -2.6063426853510490e+00 0.0000000000000000e+00  -3.2836062149200411e+00 -1.8634660641331027e+00 0.0000000000000000e+00  -3.4796345202331778e+00 -1.9445193894481039e+00 0.0000000000000000e+00  -3.6603072163647106e+00 -1.7366760588245356e+00 0.0000000000000000e+00  -3.7342628129892836e+00 -1.5314608595472832e+00 0.0000000000000000e+00  -3.7067406934824931e+00 -1.0544208147383662e+00 0.0000000000000000e+00  -3.7165167909803953e+00 -6.7680134959070981e-01 0.0000000000000000e+00  -3.6490454423240450e+00 -1.4108458638581592e-01 0.0000000000000000e+00  -3.5213061933635883e+00 4.7156000387719982e-01 0.0000000000000000e+00  -3.6893296068226427e+00 7.0001775598320559e-01 0.0000000000000000e+00  -3.6634729110613589e+00 1.2904980154550922e+00 0.0000000000000000e+00  -6.1563539608516891e+00 -1.8082027827646721e+00 0.0000000000000000e+00  -7.3280331150074760e+00 -2.8578735731197442e+00 0.0000000000000000e+00  -7.6647837345550993e+00 -2.6638919441095705e+00 0.0000000000000000e+00  -7.6620151643410219e+00 -1.9864572552421853e+00 0.0000000000000000e+00  -7.4641355097272211e+00 -1.0616550113753709e+00 0.0000000000000000e+00  -7.1928878251151094e+00 -1.6779040992320698e-01 0.0000000000000000e+00  -6.8463278155818141e+00 7.6426431344223711e-01 0.0000000000000000e+00  -6.4159293583564150e+00 1.7022708074714810e+00 0.0000000000000000e+00  -5.8895406272245516e+00 2.6816660169995861e+00 0.0000000000000000e+00  -5.2562345013169463e+00 3.6955798084991964e+00 0.0000000000000000e+00  -4.5202911507385037e+00 4.8910353528941544e+00 0.0000000000000000e+00  -3.7144295362512456e+00 5.9108205658896384e+00 0.0000000000000000e+00  -2.8785590702052675e+00 7.1718997282631509e+00 0.0000000000000000e+00  -2.0629359486450389e+00 7.8182226131075545e+00 0.0000000000000000e+00  -1.3326909580635220e+00 8.6278643110161006e+00 0.0000000000000000e+00  -7.2674738304105224e-01 7.9616020590678911e+00 0.0000000000000000e+00  -3.0245914700501886e-01 7.4342715308287941e+00 0.0000000000000000e+00  -4.8362939446136052e-02 3.7389304627778905e+00 0.0000000000000000e+00  -2.4887643875617883e-03 -1.5921642204988051e-03 0.0000000000000000e+00  -5.5059574231248826e-02 -9.1809126625233741e+00 0.0000000000000000e+00  -2.4475929060462291e-03 1.2963789960246186e-03 0.0000000000000000e+00  -2.0800735482934501e-01 -1.1643235196389234e+01 0.0000000000000000e+00  1.3189828863008317e+00 -8.7378014523649803e+00 0.0000000000000000e+00  -2.3449253921593627e-01 -1.0198675148033640e+01 0.0000000000000000e+00  -1.6876060540681692e-01 -7.7511749385524036e+00 0.0000000000000000e+00  -7.0955705540856895e-01 -6.6004353886230653e+00 0.0000000000000000e+00  -8.4434165484896240e-01 -4.8194714237602154e+00 0.0000000000000000e+00  -1.0574922181875663e+00 -3.5966847381937495e+00 0.0000000000000000e+00  -1.1669254327038576e+00 -2.6198732944767249e+00 0.0000000000000000e+00  -1.2946642914749873e+00 -2.0824486364997767e+00 0.0000000000000000e+00  -1.3309174193133582e+00 -1.5894745205793375e+00 0.0000000000000000e+00  -1.4222839218269119e+00 -1.4059716708209042e+00 0.0000000000000000e+00  -1.5453604889136525e+00 -1.4094644731903574e+00 0.0000000000000000e+00  -1.6490715332487000e+00 -1.4445243384028126e+00 0.0000000000000000e+00  -1.7256283791563864e+00 -1.5110139919139249e+00 0.0000000000000000e+00  -1.7770474644155705e+00 -1.5797219902386566e+00 0.0000000000000000e+00  -1.7819427722494900e+00 -1.5788437461134035e+00 0.0000000000000000e+00  -1.7650245446084809e+00 -1.5610787695309905e+00 0.0000000000000000e+00  -1.7357386242939541e+00 -1.5372906671992419e+00 0.0000000000000000e+00  -1.6858171239163013e+00 -1.4486966643751948e+00 0.0000000000000000e+00  -1.6277500606122670e+00 -1.3826900462530347e+00 0.0000000000000000e+00  -1.5717452597790202e+00 -1.2629393155322648e+00 0.0000000000000000e+00  -1.5020415005842811e+00 -1.1892796126313312e+00 0.0000000000000000e+00  -1.4305791576131113e+00 -9.6864970233260450e-01 0.0000000000000000e+00  -1.3502571180012446e+00 -9.7208384658886249e-01 0.0000000000000000e+00  -1.2587996850315866e+00 -5.6171747512973724e-01 0.0000000000000000e+00  -1.1425815599916866e+00 -7.6782960129438060e-01 0.0000000000000000e+00  -1.0009235326525412e+00 -5.3418855400004614e-02 0.0000000000000000e+00  -8.1795125086511433e-01 -3.3721518901671643e-01 0.0000000000000000e+00  -5.3039619819997208e-01 -2.0812354029146682e+00 0.0000000000000000e+00  -2.2581986106034559e+00 -1.7809242432192187e+00 0.0000000000000000e+00  -2.0855387542239634e+00 -2.3448230273116937e+00 0.0000000000000000e+00  -2.4403402765797781e+00 -1.6308825970743792e+00 0.0000000000000000e+00  -2.5921110514759533e+00 -1.6546308526281537e+00 0.0000000000000000e+00  -2.7815237909032429e+00 -1.4711947586084715e+00 0.0000000000000000e+00  -2.9535889786451408e+00 -1.4271013050122785e+00 0.0000000000000000e+00  -3.0173573380521748e+00 -1.1028998259200955e+00 0.0000000000000000e+00  -2.9788446216139439e+00 -6.7005701267659745e-01 0.0000000000000000e+00  -2.9768423206224277e+00 -2.5001112753039173e-01 0.0000000000000000e+00  -2.8979071035058173e+00 2.7337721576215768e-01 0.0000000000000000e+00  -2.7608511321381051e+00 9.4733440468277008e-01 0.0000000000000000e+00  -2.9223417169555166e+00 1.2471110562504546e+00 0.0000000000000000e+00  -2.8858624783217302e+00 1.9183080494187599e+00 0.0000000000000000e+00  -5.3570131331707476e+00 -1.1149049350991398e+00 0.0000000000000000e+00  -6.5092563986435117e+00 -2.1642862872722519e+00 0.0000000000000000e+00  -6.8367311926575534e+00 -1.9926293458201156e+00 0.0000000000000000e+00  -6.8304303505594026e+00 -1.3572668996112229e+00 0.0000000000000000e+00  -6.6328719959318096e+00 -5.7070378411824085e-01 0.0000000000000000e+00  -6.3648008557337912e+00 2.5094765199948882e-01 0.0000000000000000e+00  -6.0252657874264406e+00 1.0656045532862111e+00 0.0000000000000000e+00  -5.6051566178156831e+00 1.9048503346199959e+00 0.0000000000000000e+00  -5.0934550962909642e+00 2.7636073244925998e+00 0.0000000000000000e+00  -4.4825080295040705e+00 3.8091380249956002e+00 0.0000000000000000e+00  -3.7757122958009157e+00 4.7346378188598699e+00 0.0000000000000000e+00  -3.0115909337964841e+00 5.9554587728309718e+00 0.0000000000000000e+00  -2.2281671781583041e+00 6.6499510837839653e+00 0.0000000000000000e+00  -1.4860802510410789e+00 7.5894514458345741e+00 0.0000000000000000e+00  -8.4096727648948055e-01 7.1466255232572369e+00 0.0000000000000000e+00  -3.5763737480527052e-01 6.8692292921349782e+00 0.0000000000000000e+00  -5.5372951887987458e-02 3.5209755341659639e+00 0.0000000000000000e+00  -5.2169964424119402e-03 -2.2756752287973001e-03 0.0000000000000000e+00  -6.4343456343667310e-02 -8.9354747218415138e+00 0.0000000000000000e+00  -5.1800990359166998e-03 1.8527852933008248e-03 0.0000000000000000e+00  -3.4697122752992360e-01 -1.1368962468390539e+01 0.0000000000000000e+00  -5.0413423457129880e-01 -1.1092048902930458e+01 0.0000000000000000e+00  1.1108964167023194e+00 -7.9429152736958031e+00 0.0000000000000000e+00  -3.4875963009930150e-01 -7.8983199016625800e+00 0.0000000000000000e+00  -2.1754863311523431e-01 -5.8341810185083220e+00 0.0000000000000000e+00  -7.0580009344853412e-01 -4.6477886550319365e+00 0.0000000000000000e+00  -7.9992789746476090e-01 -3.3057743975056266e+00 0.0000000000000000e+00  -9.7785548876467965e-01 -2.4786663644765379e+00 0.0000000000000000e+00  -1.0590271672393399e+00 -1.9109783205795077e+00 0.0000000000000000e+00  -1.1615520437006239e+00 -1.5522792622039538e+00 0.0000000000000000e+00  -1.1762343746858988e+00 -1.2845316152489403e+00 0.0000000000000000e+00  -1.2486162288486449e+00 -1.2383048906491207e+00 0.0000000000000000e+00  -1.3546912066591661e+00 -1.3010037617801371e+00 0.0000000000000000e+00  -1.4434777084088712e+00 -1.4066806186078340e+00 0.0000000000000000e+00  -1.5073650891919534e+00 -1.5114973288717959e+00 0.0000000000000000e+00  -1.5478911126064008e+00 -1.5791338203693650e+00 0.0000000000000000e+00  -1.5435895176236551e+00 -1.5931115756632852e+00 0.0000000000000000e+00  -1.5189152506216335e+00 -1.5868982634911570e+00 0.0000000000000000e+00  -1.4829091076067484e+00 -1.5286488466100796e+00 0.0000000000000000e+00  -1.4270581708329062e+00 -1.4744150947863774e+00 0.0000000000000000e+00  -1.3636709367807456e+00 -1.3512738731349674e+00 0.0000000000000000e+00  -1.3025859603712047e+00 -1.2979645888666114e+00 0.0000000000000000e+00  -1.2279785831998324e+00 -1.0800953059899052e+00 0.0000000000000000e+00  -1.1514992591764619e+00 -1.0966371239781472e+00 0.0000000000000000e+00  -1.0661916341983451e+00 -7.0347227661527845e-01 0.0000000000000000e+00  -9.6926801711511223e-01 -9.4617250955319554e-01 0.0000000000000000e+00  -8.4800290862579331e-01 -2.7113712526339495e-01 0.0000000000000000e+00  -7.0016926212470287e-01 -6.1501108131176740e-01 0.0000000000000000e+00  -5.1326437857668838e-01 -2.5182738503614219e+00 0.0000000000000000e+00  -1.6216664248811887e+00 -1.5243418716437123e+00 0.0000000000000000e+00  -1.4523381753778799e+00 -2.0873681223473342e+00 0.0000000000000000e+00  -1.7904135442671705e+00 -1.3622011697472014e+00 0.0000000000000000e+00  -1.9651191335678369e+00 -1.4334034462260592e+00 0.0000000000000000e+00  -2.1072542639772269e+00 -1.1951973030751468e+00 0.0000000000000000e+00  -2.2843178126270818e+00 -1.1788929981794833e+00 0.0000000000000000e+00  -2.4416472883316955e+00 -1.0190766860807661e+00 0.0000000000000000e+00  -2.4882076209625921e+00 -7.4077914454471494e-01 0.0000000000000000e+00  -2.4308163535548402e+00 -2.6654537291740993e-01 0.0000000000000000e+00  -2.4096845020002911e+00 1.4183404186181162e-01 0.0000000000000000e+00  -2.3132762288849675e+00 7.3150820110797399e-01 0.0000000000000000e+00  -2.1619208635523726e+00 1.4806174036096478e+00 0.0000000000000000e+00  -2.3105613591302521e+00 1.8499628169301230e+00 0.0000000000000000e+00  -2.2501935890756610e+00 2.5650403538467152e+00 0.0000000000000000e+00  -4.6806487655227613e+00 -4.6308075621719685e-01 0.0000000000000000e+00  -5.7983915837253388e+00 -1.5162632283263189e+00 0.0000000000000000e+00  -6.1059608599356956e+00 -1.3765274941443471e+00 0.0000000000000000e+00  -6.0863836796631645e+00 -8.7256028986767142e-01 0.0000000000000000e+00  -5.8809661049548074e+00 -1.5580565436766985e-01 0.0000000000000000e+00  -5.6065643023601357e+00 5.5437518192665969e-01 0.0000000000000000e+00  -5.2631191478744404e+00 1.2742360332632958e+00 0.0000000000000000e+00  -4.8423839652500256e+00 1.9989876853745867e+00 0.0000000000000000e+00  -4.3348665902606465e+00 2.8999211038929609e+00 0.0000000000000000e+00  -3.7344559331570766e+00 3.6910386561599178e+00 0.0000000000000000e+00  -3.0516673025545802e+00 4.8311468663186954e+00 0.0000000000000000e+00  -2.3230135676386614e+00 5.5181760025214110e+00 0.0000000000000000e+00  -1.6012722437532012e+00 6.5233746486078328e+00 0.0000000000000000e+00  -9.3732032055387449e-01 6.2709742754292099e+00 0.0000000000000000e+00  -4.1975746078695880e-01 6.2183302462586862e+00 0.0000000000000000e+00  -7.2963532757684510e-02 3.2544862914922557e+