<?xml version="1.0"?>
<VTKFile type="UnstructuredGrid"  version="0.1"  >
<UnstructuredGrid>
<Piece  NumberOfPoints="1933" NumberOfCells="3640">
<Points>
<DataArray  type="Float64"  NumberOfComponents="3"  format="ascii">0.2940404924442651 -0.001759422640912032 0  5.294040546676629 -0.001724088016136343 0  5.293987550155926 7.498276051537611 0  0.2939874680006076 7.498240670418968 0  10.29404063192627 -0.001688865267463922 0  10.29398769008272 7.498311285941199 0  15.29404080782651 -0.001653770449834641 0  15.29398791389182 7.498346380641566 0  20.29404113058034 -0.001618776603307152 0  20.29398824486008 7.498381370989587 0  25.29404164712446 -0.001583833097479734 0  25.29398870361269 7.498416310762421 0  30.29404239495267 -0.001548875304865099 0  30.29398930741693 7.498451265704298 0  35.29404340361997 -0.001513829312273322 0  35.29399006965894 7.498486310038226 0  40.29404469648588 -0.001478613835906238 0  40.2939909995485 7.498521525045695 0  45.29404629220379 -0.001443140439718249 0  45.29399210190132 7.498556999050542 0  50.29404820581517 -0.001407312625363879 0  50.29399337683652 7.498592828406278 0  55.29405044942787 -0.001371024065100281 0  55.29399481925781 7.49862911928328 0  60.29405303247664 -0.001334156065279728 0  60.29399641799499 7.498665990194312 0  65.29405596154928 -0.001296574217931138 0  65.2939981544709 7.498703575306875 0  70.29405923970653 -0.001258124086567192 0  70.29400000072891 7.498742028688339 0  75.29406286516011 -0.001218625655012701 0  75.29400191659201 7.498781529731471 0  80.29406682905199 -0.001177866122015074 0  80.29400384562778 7.498822290129045 0  85.29407111190272 -0.001135590423442921 0  85.29400570946831 7.498864562919612 0  90.29407567798212 -0.001091488572612312 0  90.29400739983478 7.498908654326619 0  95.29408046633444 -0.001045178477229153 0  95.29400876737917 7.498954939365032 0  100.2940853762345 -0.0009961822468513998 0  100.2940096061772 7.499003882479442 0  105.2940902431585 -0.0009438930527763268 0  105.2940096324446 7.499056064733896 0  110.2940947981919 -0.0008875282396260237 0  110.2940084560839 7.499112219072671 0  115.2940985979788 -0.0008260625750153696 0  115.2940055445555 7.499173274348551 0  120.294100901332 -0.0007581335254720524 0  120.2940001817593 7.499240405806607 0  125.294100447953 -0.0006819095741317605 0  125.2939914334085 7.499315081444748 0  130.2940950554938 -0.0005949174967928691 0  130.2939781519948 7.499399073554763 0  135.2940808765726 -0.0004938507897581119 0  135.2939591046771 7.499494359967941 0  140.2940510132906 -0.0003744843324121321 0  140.293933420606 7.499602751497036 0  145.2939928952201 -0.0002322191782137443 0  145.2939018096396 7.499724962086772 0  150.2938831496315 -6.546788462772017e-05 0  150.2938696193193 7.499859000180435 0  160.2938926261448 9.605631534688078e-19 0  165.2938272586977 -0.0001314731727099541 0  165.2938826185269 7.4998429697103 0  160.2938951658273 7.499940568579197 0  170.2938070409539 -0.0002222432891868036 0  170.2938695831927 7.499765161885025 0  175.2938080203982 -0.0002844683408917086 0  175.2938614766501 7.499708900713972 0  180.2938186780019 -0.0003256394586399886 0  180.2938584260812 7.499670757727513 0  185.2938333124224 -0.000351068868608287 0  185.2938592757749 7.499646943990121 0  190.2938490892924 -0.0003646238094988654 0  190.2938627800563 7.499634276761237 0  195.2938646207374 -0.0003691307733983446 0  195.2938679242551 7.499630268661182 0  200.2938792563071 -0.0003666656721671674 0  200.2938739644392 7.499633019972183 0  205.293892722418 -0.0003587668925594988 0  205.2938803848027 7.499641086276208 0  210.2939049369232 -0.0003465883383164815 0  210.2938868409479 7.499653364746451 0  215.2939159129905 -0.0003310075258721296 0  215.2938931103685 7.499669006132896 0  220.2939257090054 -0.0003127014597753164 0  220.2938990546407 7.499687349379567 0  225.2939344024388 -0.0002922000141150141 0  225.293904592258 7.49970787380758 0  230.2939420763172 -0.0002699237946872916 0  230.2939096797409 7.499730164242747 0  235.2939488123937 -0.0002462113108142586 0  235.293914298752 7.499753885473305 0  240.2939546879213 -0.0002213387433218444 0  240.2939184474123 7.49977876338533 0  245.2939597743907 -0.0001955345320637385 0  245.2939221345224 7.499804570887131 0  250.2939641373556 -0.0001689902873575329 0  250.2939253757706 7.49983111729583 0  255.2939678368885 -0.0001418690451253724 0  255.2939281913125 7.499858240262236 0  260.2939709284167 -0.0001143115550972602 0  260.293930604291 7.499885799596204 0  265.2939734638383 -8.644105898531406e-05 0  265.2939326400144 7.499913672562522 0  270.2939754928574 -5.836684116433514e-05 0  270.2939343255932 7.499941750375909 0  275.2939770645452 -3.018668792715347e-05 0  275.2939356898793 7.499969935755079 0  280.2939782291324 -1.988245953241791e-06 0  280.2939367635918 7.499998141519781 0  285.2939790400241 2.615090250365922e-05 0  285.293937579512 7.500026290347287 0  290.2939795559279 5.416486845469617e-05 0  290.2939381726098 7.500054315959965 0  295.2939798428123 8.200356378283507e-05 0  295.2939385800168 7.500082166201126 0  300.2939799748674 0.0001096405913645576 0  300.2939388407979 7.500109808665599 0  305.2939800326316 0.0001370869216926595 0  305.2939389959025 7.500137239757882 0  310.2939800939744 0.0001644127308229216 0  310.2939390897243 7.500164498338411 0  5.293934256270581 14.99827635178766 0  0.2939341722222119 14.99824089459449 0  10.29393437938399 14.99831158978276 0  15.29393456008453 14.99834666205951 0  20.29393480802606 14.99838162387247 0  25.29393512867209 14.99841653673317 0  30.29393552467582 14.99845146873919 0  35.29393599590181 14.99848649416698 0  40.29393653892999 14.99852169340541 0  45.2939371463462 14.99855715349248 0  50.2939378058885 14.99859296927584 0  55.29393849942069 14.9986292451778 0  60.29393920166237 14.99866609757385 0  65.2939398785884 14.99870365784016 0  70.29394048539483 14.99874207617765 0  75.29394096392851 14.99878152637421 0  80.29394123947634 14.99882221171795 0  85.29394121684734 14.99886437231407 0  90.29394077576534 14.99890829406749 0  95.29393976580798 14.99895431951736 0  100.2939380015463 14.99900286044776 0  105.2939352594094 14.9990544115318 0  110.2939312793577 14.9991095627766 0  115.2939257772668 14.99916900542089 0  120.2939184786155 14.99923351972179 0  125.293909191401 14.99930392116288 0  130.2938979461592 14.99938091974102 0  135.2938852407631 14.99946480869755 0  140.2938724254688 14.99955483528386 0  145.2938622119929 14.99964799841752 0  150.2938590758083 14.999736764583 0  165.2938918981821 14.99977223010141 0  160.2938898404123 14.99982102260674 0  170.2938871457873 14.99972511677647 0  175.2938803789477 14.99968643221103 0  180.2938742449935 14.99965815531524 0  185.2938697657283 14.9996398804843 0  190.2938671081554 14.9996303435494 0  195.2938660659416 14.99962812012971 0  200.2938663103412 14.99963189801971 0  205.2938675071173 14.99964055913056 0  210.2938693635166 14.99965318348042 0  215.2938716413902 14.99966902543995 0  220.2938741553683 14.99968748347769 0  225.2938767654762 14.99970807164037 0  230.2938793685545 14.99973039536353 0  235.2938818903411 14.99975413190465 0  240.2938842788169 14.99977901486429 0  245.2938864989011 14.99980482205843 0  250.2938885283515 14.99983136604658 0  255.2938903546529 14.99985848673715 0  260.2938919726953 14.99988604562297 0  265.2938933830422 14.99991392131659 0  270.2938945906525 14.99994200615775 0  275.2938956039177 14.99997020375122 0  280.2938964339231 14.9999984273667 0  285.2938970938914 15.00002659919038 0  290.2938975987838 15.00005465044765 0  295.2938979652266 15.00008252237996 0  300.2938982120646 15.000110167878 0  305.2938983623129 15.00013755305655 0  310.2938984478695 15.00016465678624 0  5.293880757373666 22.49827690831138 0  0.2938806778199856 22.49824143577158 0  10.29388085161169 22.4983121096135 0  15.29388096923338 22.49834712293866 0  20.29388111202549 22.49838202077486 0  25.29388127730997 22.49841687268981 0  30.29388145930745 22.49845174936476 0  35.293881649522 22.49848672466864 0  40.29388183651452 22.49852187697986 0  45.29388200533258 22.49855729038095 0  50.29388213674517 22.49859305602061 0  55.29388220634439 22.49862927378075 0  60.29388218353978 22.4986660543206 0  65.2938820304559 22.49870352154896 0  70.29388170076024 22.49874181556655 0  75.29388113848968 22.49878109610899 0  80.29388027701977 22.49882154648385 0  85.29387903845196 22.49886337791379 0  90.29387733391181 22.49890683402419 0  95.29387506559478 22.49895219488273 0  100.2938721319253 22.49899977938349 0  105.2938684379773 22.49904994367835 0  110.2938639143803 22.49910307147086 0  115.2938585492575 22.49915954884812 0  120.2938524389863 22.4992197113311 0  125.2938458638129 22.49928374341807 0  130.2938393913333 22.49935150122212 0  135.2938339999463 22.49942221961441 0  140.2938311870669 22.49949406697117 0  145.2938329703986 22.49956355516032 0  150.2938415945446 22.49962500084175 0  165.2938756562236 22.49969196783251 0  160.2938683298804 22.49970833755575 0  170.2938766754221 22.49967103953084 0  175.2938737584938 22.49965122174616 0  180.2938690273544 22.49963568051496 0  185.2938639319651 22.49962572104905 0  190.2938592900639 22.49962152555433 0  195.2938554732258 22.49962270824327 0  200.2938525816973 22.49962865226308 0  205.2938505692747 22.49963868982127 0  210.2938493219154 22.49965218803446 0  215.2938487031454 22.49966858328026 0  220.2938485781931 22.49968738945816 0  225.2938488254155 22.49970819415309 0  230.2938493405707 22.49973065000378 0  235.2938500373147 22.49975446487304 0  240.293850845881 22.49977939246016 0  245.2938517110344 22.49980522399664 0  250.293852589862 22.49983178118848 0  255.2938534496898 22.49985891035393 0  260.2938542662178 22.49988647762818 0  265.2938550219236 22.49991436509136 0  270.2938557047039 22.49994246768792 0  275.2938563067418 22.49997069082501 0  280.2938568235913 22.49999894854776 0  285.293857253488 22.50002716217673 0  290.2938575969673 22.50005525923341 0  295.2938578569561
[...]
<PointData  Vectors="v"> 
<DataArray  type="Float64"  Name="v"  NumberOfComponents="3" format="ascii">1.0981485065517937e+00 7.6633246453929509e+00 0.0000000000000000e+00  1.6556210655962855e+00 7.1795678460279042e+00 0.0000000000000000e+00  1.5252031265756552e+00 6.3436321732527254e+00 0.0000000000000000e+00  1.0951958837947771e+00 7.0185990091618358e+00 0.0000000000000000e+00  2.3499636450366821e+00 7.7607349934856504e+00 0.0000000000000000e+00  2.0822447346892345e+00 6.7201921662898902e+00 0.0000000000000000e+00  2.9716334193466438e+00 8.7819629076257950e+00 0.0000000000000000e+00  2.7753406186975220e+00 7.8509934789325007e+00 0.0000000000000000e+00  3.5156723817385265e+00 9.0953161153749313e+00 0.0000000000000000e+00  3.3950226254679299e+00 8.2815605665512280e+00 0.0000000000000000e+00  4.1974066554999103e+00 9.9693709550399703e+00 0.0000000000000000e+00  3.9362811344984010e+00 8.9497717939445014e+00 0.0000000000000000e+00  4.7368741825957876e+00 1.0324141258106181e+01 0.0000000000000000e+00  4.6143146433538433e+00 9.5185677929957002e+00 0.0000000000000000e+00  4.8158397526805450e+00 1.0060443597465490e+01 0.0000000000000000e+00  5.1492556430949792e+00 9.9464058915933471e+00 0.0000000000000000e+00  5.9000508235025295e+00 1.1156911039067689e+01 0.0000000000000000e+00  5.2229446882118475e+00 9.5356828225858870e+00 0.0000000000000000e+00  2.7953467741061364e+00 5.9942302307505848e+00 0.0000000000000000e+00  6.3009370055850571e+00 1.0657134207205845e+01 0.0000000000000000e+00  1.3914090633498402e+01 2.1874710587964856e+01 0.0000000000000000e+00  3.1892804099208099e+00 5.2025422513084889e+00 0.0000000000000000e+00  1.3594606063012940e+01 2.0101406930407340e+01 0.0000000000000000e+00  1.4300572102016391e+01 2.0587880925779078e+01 0.0000000000000000e+00  1.3671980098755890e+01 1.8782472469339545e+01 0.0000000000000000e+00  1.3972557309049584e+01 1.8674646978986875e+01 0.0000000000000000e+00  1.4203201399308512e+01 1.8115796105468657e+01 0.0000000000000000e+00  1.4040105818526333e+01 1.7328519686748287e+01 0.0000000000000000e+00  1.5143431038483845e+01 1.8083317258716402e+01 0.0000000000000000e+00  1.4560132556237678e+01 1.6683877275344241e+01 0.0000000000000000e+00  1.6393660880809904e+01 1.8474941517644574e+01 0.0000000000000000e+00  1.5487322505043833e+01 1.6611535709860132e+01 0.0000000000000000e+00  1.7860260195684656e+01 1.9083655992682456e+01 0.0000000000000000e+00  1.6723035458169786e+01 1.6897125507965637e+01 0.0000000000000000e+00  1.9452646935891448e+01 1.9970676596618400e+01 0.0000000000000000e+00  1.8173785805163579e+01 1.7596716603919933e+01 0.0000000000000000e+00  2.1080368008630366e+01 2.0709692656107663e+01 0.0000000000000000e+00  1.9748469904759773e+01 1.8283556660799125e+01 0.0000000000000000e+00  2.2666707056728715e+01 2.1334112034847468e+01 0.0000000000000000e+00  2.1357337757180535e+01 1.8971472667199414e+01 0.0000000000000000e+00  2.4148092875852303e+01 2.1682272632964015e+01 0.0000000000000000e+00  2.2923490857973206e+01 1.9477863518990738e+01 0.0000000000000000e+00  2.5469095191270863e+01 2.1717615187898598e+01 0.0000000000000000e+00  2.4383441517916729e+01 1.9754734450669716e+01 0.0000000000000000e+00  2.6593965749673856e+01 2.0988876995564443e+01 0.0000000000000000e+00  2.5681595871147429e+01 1.9320691584467390e+01 0.0000000000000000e+00  2.7509060226084515e+01 2.0270260874678769e+01 0.0000000000000000e+00  2.6783620259502449e+01 1.8918232913688893e+01 0.0000000000000000e+00  2.8208727801207502e+01 1.8123589388448721e+01 0.0000000000000000e+00  2.7673467908500871e+01 1.7093566412242577e+01 0.0000000000000000e+00  2.8714920119282937e+01 1.6453838932879307e+01 0.0000000000000000e+00  2.8349621723856497e+01 1.5716999861133559e+01 0.0000000000000000e+00  2.9046443020093434e+01 1.2775159603786545e+01 0.0000000000000000e+00  2.8828540286506559e+01 1.2296751403049052e+01 0.0000000000000000e+00  2.9247284981041922e+01 1.0116071721471473e+01 0.0000000000000000e+00  2.9137329139760183e+01 9.8393340049022324e+00 0.0000000000000000e+00  2.9342335967863413e+01 5.2318274291450590e+00 0.0000000000000000e+00  2.9308823752911120e+01 5.1060393256857139e+00 0.0000000000000000e+00  2.9381791080718717e+01 1.2764384887407467e+00 0.0000000000000000e+00  2.9383384576239376e+01 1.2443726389171890e+00 0.0000000000000000e+00  2.9389262609138356e+01 -4.6568036785826489e-09 0.0000000000000000e+00  2.9389916191552903e+01 6.8474513654386948e-04 0.0000000000000000e+00  2.9389262614652370e+01 -2.8693771115504834e-19 0.0000000000000000e+00  2.0125212113946066e+01 -7.1232724192060095e+00 0.0000000000000000e+00  2.9383851464660680e+01 6.7470772729053596e+00 0.0000000000000000e+00  2.9389904728904909e+01 -6.5390415595041477e-04 0.0000000000000000e+00  2.0750204613134350e+01 -1.3369493667410319e+01 0.0000000000000000e+00  2.0153227951528049e+01 -1.4346984761140151e+01 0.0000000000000000e+00  1.7730891255611070e+01 -2.0809045575810689e+01 0.0000000000000000e+00  2.0815790466667274e+01 -1.6310607050027414e+01 0.0000000000000000e+00  1.6954229794951480e+01 -2.2282063378770719e+01 0.0000000000000000e+00  1.7834750999046431e+01 -2.1151836975759807e+01 0.0000000000000000e+00  1.5274536264018238e+01 -2.5058904302948928e+01 0.0000000000000000e+00  1.7095656681560406e+01 -2.2572247886052679e+01 0.0000000000000000e+00  1.4063234921667839e+01 -2.5271195695080678e+01 0.0000000000000000e+00  1.5452954408425564e+01 -2.3487933590167561e+01 0.0000000000000000e+00  1.2768765998630553e+01 -2.5350199965486315e+01 0.0000000000000000e+00  1.4278933333388849e+01 -2.3440919522823492e+01 0.0000000000000000e+00  1.1653442965334833e+01 -2.4298321588195101e+01 0.0000000000000000e+00  1.3020925809014209e+01 -2.2658300486662210e+01 0.0000000000000000e+00  1.0325905879089563e+01 -2.3130956028189761e+01 0.0000000000000000e+00  1.1941688994744878e+01 -2.1171924880243790e+01 0.0000000000000000e+00  9.3704748701155616e+00 -2.1290353385465551e+01 0.0000000000000000e+00  1.0650056370927379e+01 -1.9889282302428917e+01 0.0000000000000000e+00  8.5870692514227986e+00 -1.9436297011769195e+01 0.0000000000000000e+00  9.7300686449811931e+00 -1.8293058029530382e+01 0.0000000000000000e+00  7.7351266480185394e+00 -1.7744279842228202e+01 0.0000000000000000e+00  8.9817284673752482e+00 -1.6497962664560180e+01 0.0000000000000000e+00  6.9282854211267777e+00 -1.6145938545949917e+01 0.0000000000000000e+00  8.1646492963432458e+00 -1.4966891942662185e+01 0.0000000000000000e+00  6.1704056797672271e+00 -1.4731013888125137e+01 0.0000000000000000e+00  7.3922581111734473e+00 -1.3625215264684165e+01 0.0000000000000000e+00  5.4249134668547763e+00 -1.3436387174205796e+01 0.0000000000000000e+00  6.6684598718391799e+00 -1.2348820733855106e+01 0.0000000000000000e+00  4.7466802660601601e+00 -1.2196358761687579e+01 0.0000000000000000e+00  5.9567437791934079e+00 -1.1209347049003986e+01 0.0000000000000000e+00  4.1434484536031793e+00 -1.1058629282576502e+01 0.0000000000000000e+00  5.3118986556065098e+00 -1.0183832909690613e+01 0.0000000000000000e+00  3.5777284075628089e+00 -9.9707137455790154e+00 0.0000000000000000e+00  4.7416422565329501e+00 -9.1518912786778959e+00 0.0000000000000000e+00  3.0748385985385576e+00 -8.9086111470163942e+00 0.0000000000000000e+00  4.2086165448087511e+00 -8.1836534715412039e+00 0.0000000000000000e+00  2.6437907945828929e+00 -7.9114960189348462e+00 0.0000000000000000e+00  3.7379564323586538e+00 -7.2941131908494778e+00 0.0000000000000000e+00  2.2485316191436433e+00 -6.9080215880953295e+00 0.0000000000000000e+00  3.3389107296670448e+00 -6.3438722928353934e+00 0.0000000000000000e+00  1.9074711642082218e+00 -5.9736606172540085e+00 0.0000000000000000e+00  2.9750932425634620e+00 -5.4907587324734228e+00 0.0000000000000000e+00  1.6201732954490999e+00 -5.0212848919506801e+00 0.0000000000000000e+00  2.6655254006029594e+00 -4.6183338038557062e+00 0.0000000000000000e+00  1.3673218523460291e+00 -4.2068894240515506e+00 0.0000000000000000e+00  2.4086786934991649e+00 -3.8560768062757722e+00 0.0000000000000000e+00  1.1489372548131722e+00 -3.2687218162716682e+00 0.0000000000000000e+00  2.1871955328447394e+00 -2.9680455992092294e+00 0.0000000000000000e+00  9.5776563927691594e-01 -2.7314459243886784e+00 0.0000000000000000e+00  1.9977753026456375e+00 -2.4735661491066092e+00 0.0000000000000000e+00  7.8131013739538568e-01 -1.7819597562063521e+00 0.0000000000000000e+00  1.8387265965391548e+00 -1.5422041126780728e+00 0.0000000000000000e+00  5.4331579251444462e-01 -1.7255183247882975e+00 0.0000000000000000e+00  1.6883444908259346e+00 -1.3994462948366422e+00 0.0000000000000000e+00  1.8238482815898671e-01 -1.2018577035685531e+00 0.0000000000000000e+00  1.4865267363621564e+00 -6.8027245426111549e-01 0.0000000000000000e+00  -6.6122249259674704e-01 -7.3914739691405282e-03 0.0000000000000000e+00  1.1400601624850253e+00 1.2166406514194259e+00 0.0000000000000000e+00  1.8027360307821765e+00 5.6982649872506039e+00 0.0000000000000000e+00  1.3288576691825755e+00 6.3087580264740550e+00 0.0000000000000000e+00  2.2330628605401670e+00 5.8847048051122934e+00 0.0000000000000000e+00  2.7895757927788978e+00 6.8121858346879929e+00 0.0000000000000000e+00  3.4809235261844962e+00 7.3536831377333725e+00 0.0000000000000000e+00  4.0974260408327021e+00 8.1402971040493028e+00 0.0000000000000000e+00  4.6340540550102824e+00 8.5049629485844864e+00 0.0000000000000000e+00  5.3058192200885879e+00 9.1485166941894320e+00 0.0000000000000000e+00  5.8327315144136023e+00 9.4304245020370630e+00 0.0000000000000000e+00  5.8969212887771407e+00 9.0464482773186674e+00 0.0000000000000000e+00  6.9639193598846241e+00 9.8773268556691409e+00 0.0000000000000000e+00  3.8405178314143398e+00 3.9268191590942796e+00 0.0000000000000000e+00  1.4941088230008866e+01 1.9173142187548763e+01 0.0000000000000000e+00  1.4601923204312985e+01 1.7235081466268820e+01 0.0000000000000000e+00  1.4655855541542790e+01 1.5912837333898862e+01 0.0000000000000000e+00  1.5159608575433554e+01 1.5232177075032444e+01 0.0000000000000000e+00  1.6066903169707356e+01 1.5057024118278296e+01 0.0000000000000000e+00  1.7279193245684791e+01 1.5435500474128823e+01 0.0000000000000000e+00  1.8703501299184246e+01 1.5938878622363633e+01 0.0000000000000000e+00  2.0248164903501060e+01 1.6577596857071960e+01 0.0000000000000000e+00  2.1823581229227699e+01 1.7149107307732748e+01 0.0000000000000000e+00  2.3353650745895703e+01 1.7588012989379894e+01 0.0000000000000000e+00  2.4773983540338669e+01 1.7397870336558526e+01 0.0000000000000000e+00  2.6029873752355790e+01 1.7291400444409518e+01 0.0000000000000000e+00  2.7087021763355150e+01 1.5785577256244840e+01 0.0000000000000000e+00  2.7930259117318439e+01 1.4732884414505929e+01 0.0000000000000000e+00  2.8556787283692774e+01 1.1604735757925827e+01 0.0000000000000000e+00  2.8987856367779347e+01 9.4104845789133904e+00 0.0000000000000000e+00  2.9243721485117142e+01 4.8702701774462271e+00 0.0000000000000000e+00  2.9371273401127493e+01 1.1727930281316217e+00 0.0000000000000000e+00  2.9391483874189415e+01 1.3052614208247291e-03 0.0000000000000000e+00  2.9362809349615734e+01 6.8094475807762302e+00 0.0000000000000000e+00  2.9391462836097762e+01 -1.2860068806492921e-03 0.0000000000000000e+00  2.9301242908772693e+01 -5.1380840422261842e-01 0.0000000000000000e+00  2.0104885514874574e+01 -1.7331418935124024e+01 0.0000000000000000e+00  2.0811920639826280e+01 -1.6705780056267162e+01 0.0000000000000000e+00  1.7873374415346202e+01 -2.1489986636556456e+01 0.0000000000000000e+00  1.7177277587312723e+01 -2.1046872496277494e+01 0.0000000000000000e+00  1.5574109891435729e+01 -2.1704296978955480e+01 0.0000000000000000e+00  1.4439476449827144e+01 -2.0793616591339269e+01 0.0000000000000000e+00  1.3218594343360012e+01 -1.9574608519856344e+01 0.0000000000000000e+00  1.2175188613141177e+01 -1.7973027215179265e+01 0.0000000000000000e+00  1.0918462009835045e+01 -1.6933703568257762e+01 0.0000000000000000e+00  1.0032582502934911e+01 -1.5395407890636566e+01 0.0000000000000000e+00  9.3175279815101124e+00 -1.3761220073402841e+01 0.0000000000000000e+00  8.5333882016167770e+00 -1.2486160924918138e+01 0.0000000000000000e+00  7.7933697977810397e+00 -1.1282219636867211e+01 0.0000000000000000e+00  7.1013285661925929e+00 -1.0160688182137214e+01 0.0000000000000000e+00  6.4208856540757120e+00 -9.2350794049337495e+00 0.0000000000000000e+00  5.8067008809302250e+00 -8.3146063580816989e+00 0.0000000000000000e+00  5.2664561825155962e+00 -7.4019024317703312e+00 0.0000000000000000e+00  4.7628565544128172e+00 -6.6055854787815660e+00 0.0000000000000000e+00  4.3210281317952060e+00 -5.7622448255622869e+00 0.0000000000000000e+00  3.9501116515652224e+00 -4.9618670988508295e+00 0.0000000000000000e+00  3.6139493923239483e+00 -4.1701015353209270e+00 0.0000000000000000e+00  3.3312473279093604e+00 -3.4871197229709829e+00 0.0000000000000000e+00  3.1009408243769037e+00 -2.6508295684984575e+00 0.0000000000000000e+00  2.9048988341258113e+00 -2.2058174935104393e+00 0.0000000000000000e+00  2.7412485512262195e+00 -1.3165047114747295e+00 0.0000000000000000e+00  2.6056382058071690e+00 -1.1918304244049844e+00 0.0000000000000000e+00  2.4808868786050873e+00 -3.8665440771288406e-01 0.0000000000000000e+00  2.3005402345061992e+00 1.7168656863512353e+00 0.0000000000000000e+00  2.5158665570537839e+00 4.9866349551687525e+00 0.0000000000000000e+00  2.0877412328297895e+00 5.6680554353745745e+00 0.0000000000000000e+00  2.9909597697162158e+00 5.2383475992347464e+00 0.0000000000000000e+00  3.4225568488262499e+00 5.9777298091751749e+00 0.0000000000000000e+00  3.9785420582749196e+00 6.3184231050933635e+00 0.0000000000000000e+00  4.6673517184913340e+00 7.2190270135813286e+00 0.0000000000000000e+00  5.2788853668261790e+00 7.7057044363310210e+00 0.0000000000000000e+00  5.8074467783917951e+00 8.1486072420855873e+00 0.0000000000000000e+00  6.4681345504188306e+00 8.6501175296614523e+00 0.0000000000000000e+00  6.9808501965072773e+00 8.9626186721935248e+00 0.0000000000000000e+00  7.0276672608200235e+00 8.2908389443033581e+00 0.0000000000000000e+00  8.0755049493100248e+00 8.6263838429188322e+00 0.0000000000000000e+00  4.9342438014727437e+00 2.5338582111825607e+00 0.0000000000000000e+00  1.6020417891119912e+01 1.7754908776996484e+01 0.0000000000000000e+00  1.5667217961516979e+01 1.5846064215887253e+01 0.0000000000000000e+00  1.5702860207286005e+01 1.4494877906849357e+01 0.0000000000000000e+00  1.6181898923695371e+01 1.3718965199397626e+01 0.0000000000000000e+00  1.7057735444248063e+01 1.3645058165792548e+01 0.0000000000000000e+00  1.8231666074058136e+01 1.3835356777478721e+01 0.0000000000000000e+00  1.9610263296847037e+01 1.4298208021919395e+01 0.0000000000000000e+00  2.1102343141628772e+01 1.4828463611581117e+01 0.0000000000000000e+00  2.2618541066848245e+01 1.5340520795663540e+01 0.0000000000000000e+00  2.4081914627427366e+01 1.5318732554527333e+01 0.0000000000000000e+00  2.5429473104691393e+01 1.5464721502982478e+01 0.0000000000000000e+00  2.6605549721360077e+01 1.4259184048851152e+01 0.0000000000000000e+00  2.7578263317876537e+01 1.3533601633248070e+01 0.0000000000000000e+00  2.8330326419151003e+01 1.0728140890607879e+01 0.0000000000000000e+00  2.8865872657871265e+01 8.8376647310241552e+00 0.0000000000000000e+00  2.9198553620543496e+01 4.5430043711157895e+00 0.0000000000000000e+00  2.9368628124149609e+01 1.0655352560278306e+00 0.0000000000000000e+00  2.9393932726799793e+01 1.8678263859275915e-03 0.0000000000000000e+00  2.9344486754116090e+01 6.9705779067160858e+00 0.0000000000000000e+00  2.9393913988593528e+01 -1.8402664030984623e-03 0.0000000000000000e+00  2.9151840573320428e+01 -3.9142889964042787e-01 0.0000000000000000e+00  2.9080556239922931e+01 -3.5781319722535789e+00 0.0000000000000000e+00  1.9941880630445809e+01 -1.7821542450680845e+01 0.0000000000000000e+00  2.0721413154310298e+01 -1.7132877448212191e+01 0.0000000000000000e+00  1.7851955392038189e+01 -2.0054764027468313e+01 0.0000000000000000e+00  1.7221820691596061e+01 -1.9345804093922833e+01 0.0000000000000000e+00  1.5679291351071521e+01 -1.9136628553933786e+01 0.0000000000000000e+00  1.4602029059540234e+01 -1.7785142035123332e+01 0.0000000000000000e+00  1.3434186011511601e+01 -1.6447839988701666e+01 0.0000000000000000e+00  1.2441296542267592e+01 -1.5086760450618595e+01 0.0000000000000000e+00  1.1232868087556039e+01 -1.4103852302320051e+01 0.0000000000000000e+00  1.0393763859352550e+01 -1.2724909430651635e+01 0.0000000000000000e+00  9.7245001079788853e+00 -1.1345655965220706e+01 0.0000000000000000e+00  8.9853973159768223e+00 -1.0207342392310874e+01 0.0000000000000000e+00  8.2895582395915230e+00 -9.1571052371595254e+00 0.0000000000000000e+00  7.6409014625615290e+00 -8.2481777294141470e+00 0.0000000000000000e+00  7.0028920105972183e+00 -7.4264250094126050e+00 0.0000000000000000e+00  6.4301220774774244e+00 -6.6237769179619459e+00 0.0000000000000000e+00  5.9302132803737662e+00 -5.8816995471949012e+00 0.0000000000000000e+00  5.4659110363894179e+00 -5.1301034356482109e+00 0.0000000000000000e+00  5.0621421956305532e+00 -4.4354869348590711e+00 0.0000000000000000e+00  4.7283661202264202e+00 -3.6946556574555025e+00 0.0000000000000000e+00  4.4278851405684163e+00 -3.0917051718047048e+00 0.0000000000000000e+00  4.1802574557603522e+00 -2.3320762200008276e+00 0.0000000000000000e+00  3.9829834551582919e+00 -1.9395274534422660e+00 0.0000000000000000e+00  3.8202867129609945e+00 -1.0945450576860891e+00 0.0000000000000000e+00  3.6859842220875589e+00 -1.0170687187891141e+00 0.0000000000000000e+00  3.5839819747832431e+00 -2.1742248227888128e-01 0.0000000000000000e+00  3.4801537133832170e+00 1.9572223270635203e+00 0.0000000000000000e+00  3.4357641950985927e+00 4.3431704577939181e+00 0.0000000000000000e+00  3.0457486769016291e+00 5.0850726728797362e+00 0.0000000000000000e+00  3.8658938343923008e+00 4.5236745915558743e+00 0.0000000000000000e+00  4.3442982891352582e+00 5.3282584443929579e+00 0.0000000000000000e+00  4.7787517839675866e+00 5.4834348549120264e+00 0.0000000000000000e+00  5.3360390200319934e+00 6.1866161638607426e+00 0.0000000000000000e+00  6.0234368348069447e+00 6.7914068972598720e+00 0.0000000000000000e+00  6.6301891264354085e+00 7.3616329021512952e+00 0.0000000000000000e+00  7.1499833133559942e+00 7.6680522297856655e+00 0.0000000000000000e+00  7.7974119020319845e+00 8.2055550265556896e+00 0.0000000000000000e+00  8.2925327135062030e+00 8.2354802035460644e+00 0.0000000000000000e+00  8.3186953389892295e+00 7.0702856408306900e+00 0.0000000000000000e+00  9.3458427842659386e+00 7.2586741877775554e+00 0.0000000000000000e+00  6.1895389457327816e+00 1.1322361032549730e+00 0.0000000000000000e+00  1.7268629353177111e+01 1.6380899737713062e+01 0.0000000000000000e+00  1.6909205798328028e+01 1.4450190440267747e+01 0.0000000000000000e+00  1.6932474275344667e+01 1.3015371393536043e+01 0.0000000000000000e+00  1.7390179881134621e+01 1.2353638778962424e+01 0.0000000000000000e+00  1.8233902784353297e+01 1.2103813655657026e+01 0.0000000000000000e+00  1.9365343220102329e+01 1.2267500915292349e+01 0.0000000000000000e+00  2.0690762169009552e+01 1.2634902498003683e+01 0.0000000000000000e+00  2.2118646697748748e+01 1.3118397358180857e+01 0.0000000000000000e+00  2.3559651036839217e+01 1.3183178057752626e+01 0.0000000000000000e+00  2.4937399517093315e+01 1.3511604583891078e+01 0.0000000000000000e+00  2.6187306930688248e+01 1.2568323625595012e+01 0.0000000000000000e+00  2.7257098538064657e+01 1.2158092308762836e+01 0.0000000000000000e+00  2.8111948360799129e+01 9.6828475915955075e+00 0.0000000000000000e+00  2.8743432216402169e+01 8.1311447904977836e+00 0.0000000000000000e+00  2.9147085083759698e+01 4.1218371502530564e+00 0.0000000000000000e+00  2.9361996820344554e+01 9.2115635495266190e-01 0.0000000000000000e+00  2.9397168964999292e+01 2.3695990799452319e-03 0.0000000000000000e+00  2.9330404063507249e+01 7.2197867132200413e+00 0.0000000000000000e+00  2.9397151547959982e+01 -2.3316726677795308e-03 0.0000000000000000e+00  2.9032347277998806e+01 4.7569220208484820e-03 0.0000000000000000e+00  2.8736578098333236e+01 -3.44827109602