<?xml version="1.0"?>
<VTKFile type="UnstructuredGrid"  version="0.1"  >
<UnstructuredGrid>
<Piece  NumberOfPoints="1933" NumberOfCells="3640">
<Points>
<DataArray  type="Float64"  NumberOfComponents="3"  format="ascii">0.2940379593955676 -0.001671951112104067 0  5.294038008393517 -0.001637011773145532 0  5.293985602037658 7.498363113181564 0  0.2939855286631328 7.498328133400742 0  10.29403808615585 -0.001602171995193701 0  10.29398572661388 7.498397962737391 0  15.29403824575503 -0.001567443836512974 0  15.293985925244 7.498432690417351 0  20.29403853667156 -0.001532801480761352 0  20.29398621812897 7.498467329415581 0  25.29403899983462 -0.001498198400646066 0  25.29398662296652 7.498501928997261 0  30.29403966758487 -0.001463575883836953 0  30.29398715432362 7.498536548826608 0  35.29404056506222 -0.001428867146633006 0  35.29398782317061 7.498571255934793 0  40.29404171176373 -0.001393998974009137 0  40.29398863661092 7.498606123514658 0  45.29404312284889 -0.00135889186625853 0  45.29398959767013 7.498641230950035 0  50.29404481007537 -0.001323459196486797 0  50.2939907050005 7.498676664724172 0  55.29404678235051 -0.001287605618355852 0  55.29399195238324 7.498712520027677 0  60.29404904589822 -0.001251224800397902 0  60.29399332791894 7.498748903012502 0  65.29405160402484 -0.001214196448174388 0  65.29399481278482 7.498785933735538 0  70.29405445641673 -0.001176382477318868 0  70.29399637941145 7.498823749921439 0  75.29405759784369 -0.001137622097066281 0  75.29399798887155 7.498862511763397 0  80.29406101603247 -0.001097725435076418 0  80.2939995871901 7.498902408086961 0  85.29406468831344 -0.001056465157079151 0  85.29400110016907 7.498943664336418 0  90.29406857636023 -0.001013565277959314 0  90.29400242614599 7.498986553017772 0  95.2940726178677 -0.0009686859801633534 0  95.29400342589241 7.499031407451119 0  100.2940767131516 -0.0009214026882382118 0  100.2940039086135 7.49907863993311 0  105.2940807031216 -0.0008711768133240507 0  105.2940036127849 7.499128765620355 0  110.2940843322315 -0.0008173143925852299 0  110.2940021806087 7.499182433410513 0  115.2940871847677 -0.000758907283464719 0  115.2939991256952 7.499240464303274 0  120.2940885729582 -0.000694749895094259 0  120.2939937964915 7.499303894927325 0  125.2940873368183 -0.0006232238779180024 0  125.2939853459542 7.499374016335098 0  130.2940814804779 -0.0005421480209897421 0  130.2939727374836 7.49945237982571 0  135.2940675029326 -0.0004486149987676414 0  135.2939548623674 7.499540700847091 0  140.2940391525152 -0.0003389302370817104 0  140.2939309455405 7.49964051191184 0  145.2939850750222 -0.0002091264248751699 0  145.2939016447903 7.499752304416766 0  150.2938842266702 -5.802723043982555e-05 0  150.2938717947868 7.499874029599823 0  160.2938926261451 9.244802442227565e-19 0  165.2938374451716 -0.000114252385417092 0  165.2938841739053 7.499863183954281 0  160.2938942124995 7.49994742394171 0  170.2938216294069 -0.0001918905864398753 0  170.2938736822251 7.499797018773998 0  175.2938241289208 -0.0002439157974214865 0  175.2938674669884 7.49975026261546 0  180.2938348601989 -0.0002770919782571095 0  180.2938656185136 7.499719756192887 0  185.2938488578324 -0.0002961980911925138 0  185.2938671122688 7.49970207143605 0  190.2938636712567 -0.0003047035994819427 0  190.2938708532734 7.4996943450481 0  195.2938781142832 -0.0003051396609056119 0  195.2938759543701 7.499694345669976 0  200.2938916423804 -0.0002993630545827483 0  200.2938817685887 7.499700372032156 0  205.2939040368775 -0.0002887486486827912 0  205.2938878501888 7.499711132071922 0  210.2939152430863 -0.000274327077115077 0  210.2938939039931 7.499725640094168 0  215.2939252867368 -0.0002568817342277139 0  215.2938997414663 7.499743137534475 0  220.293934230672 -0.0002370167503798698 0  220.293905247316 7.499763034248748 0  225.2939421524361 -0.0002152047685465369 0  225.2939103555775 7.499784865643529 0  230.2939491328123 -0.000191820810743783 0  230.2939150330351 7.49980826144275 0  235.2939552501501 -0.0001671665734499972 0  235.293919267953 7.499832922825669 0  240.2939605777861 -0.0001414880988966137 0  240.2939230625103 7.499858605549285 0  245.293965183139 -0.0001149888130111094 0  245.2939264277907 7.499885107359631 0  250.2939691277193 -8.783927567753574e-05 0  250.2939293805173 7.499912258502747 0  255.2939724676652 -6.018455479938636e-05 0  255.2939319409874 7.499939914508248 0  260.2939752545897 -3.214983979161101e-05 0  260.2939341318279 7.499967950675115 0  265.2939775366603 -3.844702011193343e-06 0  265.2939359773251 7.499996257875839 0  270.2939793598558 2.463374657772383e-05 0  270.2939375031513 7.500024739437005 0  275.2939807694182 5.319867655125432e-05 0  275.2939387363502 7.500053308972523 0  280.2939818114959 8.177235654985423e-05 0  280.2939397054835 7.500081889156613 0  285.2939825349776 0.00011028612698425 0  285.2939404408257 7.500110411542719 0  290.2939829934082 0.0001386819108387402 0  290.2939409744938 7.500138817672838 0  295.2939832467314 0.0001669159555731403 0  295.2939413404293 7.500167061886934 0  300.293983362101 0.000194965967001098 0  300.2939415741968 7.500195116426521 0  305.2939834120888 0.000222843401207049 0  305.2939417129389 7.500222979606631 0  310.2939834663968 0.0002506129424279982 0  310.2939417967789 7.500250688086172 0  5.293932934302686 14.99836338129926 0  0.2939328595321604 14.99832833715568 0  10.29393304295329 14.99839823191151 0  15.29393320142332 14.998432938288 0  20.2939334177768 14.99846755099657 0  25.29393369631791 14.99850212594883 0  30.29393403878134 14.99853672474619 0  35.29393444432539 14.99857141436214 0  40.29393490907106 14.99860626712038 0  45.29393542545333 14.99864136120095 0  50.29393598144361 14.99867678169227 0  55.29393655961641 14.99871262217139 0  60.29393713599652 14.99874898682044 0  65.29393767860937 14.99878599312771 0  70.29393814564348 14.99882377526759 0  75.29393848313504 14.99886248830033 0  80.29393862208417 14.998902313376 0  85.29393847494828 14.99894346416009 0  90.29393793153592 14.99898619470136 0  95.29393685452409 14.99903080888828 0  100.2939350752018 14.99907767139504 0  105.2939323908338 14.99912721940517 0  110.2939285664394 14.9991799730434 0  115.2939233463272 14.99923653962259 0  120.2939164849258 14.99929760120448 0  125.2939078130086 14.99936386426961 0  130.293897364248 14.9994359307061 0  135.2938855955864 14.9995140152313 0  140.2938737323965 14.99959737812245 0  145.2938642220176 14.99968324890919 0  150.2938610856098 14.99976480213213 0  165.293890203178 14.99980086536478 0  160.2938880987346 14.99984177797977 0  170.29388634836 14.99976185107352 0  175.2938807528331 14.99973060240858 0  180.2938757297401 14.99970877951264 0  185.293872161418 14.99969595714733 0  190.2938701821164 14.9996909705616 0  195.2938696020998 14.99969252760904 0  200.2938701275975 14.99969944517967 0  205.2938714626399 14.99971071851312 0  210.2938733495033 14.99972552260139 0  215.2938755795937 14.99974318976698 0  220.2938779913794 14.99976318196317 0  225.293880463589 14.99978506491538 0  230.2938829074652 14.99980848629192 0  235.2938852596758 14.99983315809463 0  240.2938874763892 14.99985884275304 0  245.2938895285668 14.9998853422427 0  250.2938913983393 14.99991248959491 0  255.2938930762641 14.99994014227416 0  260.2938945592865 14.99996817702091 0  265.2938958492238 14.9999964858622 0  270.2938969516499 15.00002497308662 0  275.2938978750601 15.00005355305656 0  280.2938986302299 15.00008214879715 0  285.2938992297364 15.00011069135348 0  290.2938996876185 15.00013911993348 0  295.2939000193302 15.0001673828221 0  300.2939002422623 15.00019543889003 0  305.293900377522 15.00022325906252 0  310.2939004542094 15.00025082599444 0  5.293880093398927 22.4983638759715 0  0.2938800227870846 22.49832882382843 0  10.29388017605102 22.49839869020886 0  15.29388027786689 22.49843334158582 0  20.29388039994444 22.49846789549062 0  25.29388053945527 22.49850241464095 0  30.29388069080825 22.49853696268025 0  35.29388084595927 22.49857160603254 0  40.2938809941884 22.49860641508889 0  45.29388112157918 22.49864146527799 0  50.29388121032913 22.49867683828171 0  55.29388123794657 22.49871262351543 0  60.29388117635474 22.49874891993555 0  65.29388099091486 22.49878583821761 0  70.29388063939356 22.49882350333899 0  75.2938800709383 22.49886205758951 0  80.29387922519484 22.49890166399738 0  85.29387803181785 22.49894251008333 0  90.29387641082371 22.49898481169603 0  95.29387427454429 22.49902881638159 0  100.2938715324154 22.49907480518305 0  105.2938681005341 22.49912309078379 0  110.2938639188815 22.49917400821186 0  115.2938589802772 22.49922789151183 0  120.2938533762207 22.49928502533505 0  125.2938473649357 22.49934555383285 0  130.2938414641312 22.49940932075055 0  135.2938365610711 22.49947560681226 0  140.2938340079308 22.49954273293335 0  145.2938356198761 22.49960753956353 0  150.2938434083491 22.49966492411748 0  165.2938731949743 22.49973010418666 0  160.2938668471664 22.49974211552252 0  170.293874033906 22.49971432535359 0  175.2938714593707 22.49969976425016 0  180.2938673354492 22.49968917558163 0  185.293862928573 22.49968366926422 0  190.2938589472298 22.4996833693625 0  195.293855708218 22.49968790580589 0  200.2938532914625 22.49969671125757 0  205.2938516500386 22.49970917889358 0  210.2938506791167 22.49972473694784 0  215.2938502555766 22.49974287799726 0  220.2938502589053 22.49976316544431 0  225.2938505809628 22.49978522952033 0  230.2938511295077 22.49980875921304 0  235.2938518284593 22.499833493254 0  240.2938526166033 22.49985921158316 0  245.2938534456942 22.49988572783362 0  250.2938542784436 22.49991288296343 0  255.2938550866371 22.49994053997786 0  260.2938558494583 22.49996857962008 0  265.2938565520609 22.49999689689753 0  270.2938571843542 22.50002539832375 0  275.2938577400001 22.50005399977316 0  280.2938582155979 22.50008262485688 0  285.2938586100811 22.5001112037156 0  290.2938589243892 22.50013967207322 0  295.2938591615724 22.50016797026087 0
[...]
<PointData  Vectors="v"> 
<DataArray  type="Float64"  Name="v"  NumberOfComponents="3" format="ascii">1.0982996149293567e+00 7.6633455755047795e+00 0.0000000000000000e+00  1.6557562849172889e+00 7.1791036390939489e+00 0.0000000000000000e+00  1.5253514339759560e+00 6.3431917655180658e+00 0.0000000000000000e+00  1.0953398445745319e+00 7.0186133492449745e+00 0.0000000000000000e+00  2.3500606553635541e+00 7.7600772461340854e+00 0.0000000000000000e+00  2.0823772137477978e+00 6.7195918278198841e+00 0.0000000000000000e+00  2.9716951190295378e+00 8.7813287603136718e+00 0.0000000000000000e+00  2.7754349232088584e+00 7.8504124306701746e+00 0.0000000000000000e+00  3.5157004544287234e+00 9.0945927799948034e+00 0.0000000000000000e+00  3.3950815696706949e+00 8.2808877183786667e+00 0.0000000000000000e+00  4.1973912615504974e+00 9.9686030775564536e+00 0.0000000000000000e+00  3.9363064708329958e+00 8.9490692308134001e+00 0.0000000000000000e+00  4.7368354228956289e+00 1.0323329820412729e+01 0.0000000000000000e+00  4.6142964822795793e+00 9.5177914485821624e+00 0.0000000000000000e+00  4.8158044793788495e+00 1.0059655393892877e+01 0.0000000000000000e+00  5.1492141135793927e+00 9.9456124082723214e+00 0.0000000000000000e+00  5.8999949690010238e+00 1.1156093388828541e+01 0.0000000000000000e+00  5.2229066257431214e+00 9.5348961920063839e+00 0.0000000000000000e+00  2.7952661750318963e+00 5.9933945663639703e+00 0.0000000000000000e+00  6.3008783580442644e+00 1.0656334886900705e+01 0.0000000000000000e+00  1.3914097932438782e+01 2.1874012912488748e+01 0.0000000000000000e+00  3.1891969583659776e+00 5.2017151628970337e+00 0.0000000000000000e+00  1.3594613793566417e+01 2.0100684960627177e+01 0.0000000000000000e+00  1.4300576618468643e+01 2.0587157998799277e+01 0.0000000000000000e+00  1.3671987985820012e+01 1.8781725449409866e+01 0.0000000000000000e+00  1.3972562223118402e+01 1.8673899462479064e+01 0.0000000000000000e+00  1.4203209224303068e+01 1.8115034778277831e+01 0.0000000000000000e+00  1.4040110872516284e+01 1.7327758289574433e+01 0.0000000000000000e+00  1.5143438633040804e+01 1.8082535517823928e+01 0.0000000000000000e+00  1.4560137550987305e+01 1.6683095842574645e+01 0.0000000000000000e+00  1.6393668102173017e+01 1.8474153298211498e+01 0.0000000000000000e+00  1.5487327281331876e+01 1.6610748124846843e+01 0.0000000000000000e+00  1.7860266917814656e+01 1.9082873494216532e+01 0.0000000000000000e+00  1.6723039883378586e+01 1.6896343922670297e+01 0.0000000000000000e+00  1.9452653091771129e+01 1.9969893100952810e+01 0.0000000000000000e+00  1.8173789818189817e+01 1.7595934268040320e+01 0.0000000000000000e+00  2.1080373497205787e+01 2.0708913619285546e+01 0.0000000000000000e+00  1.9748473400849427e+01 1.8282778949661303e+01 0.0000000000000000e+00  2.2666711855153107e+01 2.1333344786382934e+01 0.0000000000000000e+00  2.1357340700299016e+01 1.8970706807553437e+01 0.0000000000000000e+00  2.4148096999086540e+01 2.1681491630430731e+01 0.0000000000000000e+00  2.2923493231978686e+01 1.9477083814604427e+01 0.0000000000000000e+00  2.5469098748846672e+01 2.1716824869937970e+01 0.0000000000000000e+00  2.4383443377380495e+01 1.9753945126128887e+01 0.0000000000000000e+00  2.6593968760701070e+01 2.0988056929056643e+01 0.0000000000000000e+00  2.5681597156571652e+01 1.9319871888235731e+01 0.0000000000000000e+00  2.7509063245700130e+01 2.0269399469050811e+01 0.0000000000000000e+00  2.6783621405662362e+01 1.8917370974016293e+01 0.0000000000000000e+00  2.8208730475106162e+01 1.8122624808078864e+01 0.0000000000000000e+00  2.7673468552407158e+01 1.7092600018468509e+01 0.0000000000000000e+00  2.8714923732897962e+01 1.6452811795927165e+01 0.0000000000000000e+00  2.8349622838936320e+01 1.5715969194369737e+01 0.0000000000000000e+00  2.9046446073682613e+01 1.2773911164768810e+01 0.0000000000000000e+00  2.8828540871520882e+01 1.2295498007272819e+01 0.0000000000000000e+00  2.9247289766431329e+01 1.0114726532866610e+01 0.0000000000000000e+00  2.9137330605710964e+01 9.8379815358621485e+00 0.0000000000000000e+00  2.9342338762075634e+01 5.2301418782537512e+00 0.0000000000000000e+00  2.9308824464698258e+01 5.1043476998323092e+00 0.0000000000000000e+00  2.9381791247292455e+01 1.2743678405509633e+00 0.0000000000000000e+00  2.9383384562908095e+01 1.2422999547466249e+00 0.0000000000000000e+00  2.9389262609758859e+01 -4.1275431161992989e-09 0.0000000000000000e+00  2.9389916193034974e+01 6.8474645705072904e-04 0.0000000000000000e+00  2.9389262614646203e+01 -3.9929165808770819e-19 0.0000000000000000e+00  2.0125106253926461e+01 -7.1209042228543158e+00 0.0000000000000000e+00  2.9383850541251274e+01 6.7496257874522163e+00 0.0000000000000000e+00  2.9389904729706291e+01 -6.5390499070447144e-04 0.0000000000000000e+00  2.0750094721825612e+01 -1.3369291866181390e+01 0.0000000000000000e+00  2.0153144418542851e+01 -1.4346764684930246e+01 0.0000000000000000e+00  1.7730826279562294e+01 -2.0809365110493658e+01 0.0000000000000000e+00  2.0815696819987327e+01 -1.6310973397058149e+01 0.0000000000000000e+00  1.6954135880879495e+01 -2.2282929756946974e+01 0.0000000000000000e+00  1.7834697819515583e+01 -2.1152655762278471e+01 0.0000000000000000e+00  1.5274429486048637e+01 -2.5059964642653146e+01 0.0000000000000000e+00  1.7095574107284563e+01 -2.2573281858761231e+01 0.0000000000000000e+00  1.4063112088874586e+01 -2.5272378142326517e+01 0.0000000000000000e+00  1.5452856345493045e+01 -2.3489089816082732e+01 0.0000000000000000e+00  1.2768624352463812e+01 -2.5351458335709893e+01 0.0000000000000000e+00  1.4278818496518136e+01 -2.3442147840195936e+01 0.0000000000000000e+00  1.1653276531105830e+01 -2.4299579272700147e+01 0.0000000000000000e+00  1.3020791069461410e+01 -2.2659520601509445e+01 0.0000000000000000e+00  1.0325714262813680e+01 -2.3132180156085781e+01 0.0000000000000000e+00  1.1941528844991574e+01 -2.1173110758858826e+01 0.0000000000000000e+00  9.3702722160399610e+00 -2.1291525557635246e+01 0.0000000000000000e+00  1.0649870629270007e+01 -1.9890438187417065e+01 0.0000000000000000e+00  8.5868789842830466e+00 -1.9437374484235811e+01 0.0000000000000000e+00  9.7298717291336221e+00 -1.8294154398658389e+01 0.0000000000000000e+00  7.7349480288714245e+00 -1.7745267088378579e+01 0.0000000000000000e+00  8.9815437732761616e+00 -1.6498967512017160e+01 0.0000000000000000e+00  6.9281148193305402e+00 -1.6146847229318457e+01 0.0000000000000000e+00  8.1644761278642193e+00 -1.4967812726835280e+01 0.0000000000000000e+00  6.1702410272105270e+00 -1.4731857396841143e+01 0.0000000000000000e+00  7.3920928798175636e+00 -1.3626067704291593e+01 0.0000000000000000e+00  5.4247536901670275e+00 -1.3437165808043618e+01 0.0000000000000000e+00  6.6683004938777115e+00 -1.2349606644538152e+01 0.0000000000000000e+00  4.7465240174261139e+00 -1.2197080432883636e+01 0.0000000000000000e+00  5.9565891950505154e+00 -1.1210073979358778e+01 0.0000000000000000e+00  4.1432959863699459e+00 -1.1059303216751369e+01 0.0000000000000000e+00  5.3117475391510967e+00 -1.0184512479665058e+01 0.0000000000000000e+00  3.5775805800254670e+00 -9.9713366664607523e+00 0.0000000000000000e+00  4.7414948540131867e+00 -9.1525211226550347e+00 0.0000000000000000e+00  3.0746964263240910e+00 -8.9091867524822543e+00 0.0000000000000000e+00  4.2084737243487815e+00 -8.1842375345709133e+00 0.0000000000000000e+00  2.6436559538738384e+00 -7.9120292232957308e+00 0.0000000000000000e+00  3.7378192232719467e+00 -7.2946573719653376e+00 0.0000000000000000e+00  2.2484056818129763e+00 -6.9085079364771715e+00 0.0000000000000000e+00  3.3387808007009356e+00 -6.3443719846592082e+00 0.0000000000000000e+00  1.9073560949528015e+00 -5.9741032732255608e+00 0.0000000000000000e+00  2.9749721815772476e+00 -5.4912176786462119e+00 0.0000000000000000e+00  1.6200705091036960e+00 -5.0216841065052851e+00 0.0000000000000000e+00  2.6654151681334861e+00 -4.6187514420075928e+00 0.0000000000000000e+00  1.3672338824623005e+00 -4.2072454009784419e+00 0.0000000000000000e+00  2.4085807206461034e+00 -3.8564549934224286e+00 0.0000000000000000e+00  1.1488646891328975e+00 -3.2690308931530336e+00 0.0000000000000000e+00  2.1871123325184270e+00 -2.9683777887760754e+00 0.0000000000000000e+00  9.5771215201256465e-01 -2.7317167114345366e+00 0.0000000000000000e+00  1.9977075116356489e+00 -2.4738655090745034e+00 0.0000000000000000e+00  7.8127445464255629e-01 -1.7821754386216879e+00 0.0000000000000000e+00  1.8386778167302535e+00 -1.5424465132649723e+00 0.0000000000000000e+00  5.4330602153404728e-01 -1.7257041860265319e+00 0.0000000000000000e+00  1.6883135594062784e+00 -1.3996709044104318e+00 0.0000000000000000e+00  1.8240348168753723e-01 -1.2019488133729592e+00 0.0000000000000000e+00  1.4865216232635921e+00 -6.8040613942879036e-01 0.0000000000000000e+00  -6.6124340833820838e-01 -7.3809026726941746e-03 0.0000000000000000e+00  1.1400833393267336e+00 1.2167106185357199e+00 0.0000000000000000e+00  1.8028793296399850e+00 5.6978179644931348e+00 0.0000000000000000e+00  1.3289931287242180e+00 6.3087605228184165e+00 0.0000000000000000e+00  2.2332105728885394e+00 5.8841282505164756e+00 0.0000000000000000e+00  2.7897077177686413e+00 6.8116621907013393e+00 0.0000000000000000e+00  3.4810172252053522e+00 7.3530633804126415e+00 0.0000000000000000e+00  4.0974844045220422e+00 8.1396450268275302e+00 0.0000000000000000e+00  4.6340787800996850e+00 8.5042519197204651e+00 0.0000000000000000e+00  5.3058004486326125e+00 9.1477583053827711e+00 0.0000000000000000e+00  5.8326893551118779e+00 9.4296325709593845e+00 0.0000000000000000e+00  5.8968825890982659e+00 9.0456800058215325e+00 0.0000000000000000e+00  6.9638600449020620e+00 9.8765358995071075e+00 0.0000000000000000e+00  3.8404335933037421e+00 3.9259674499804991e+00 0.0000000000000000e+00  1.4941092156811971e+01 1.9172393617215310e+01 0.0000000000000000e+00  1.4601927497520405e+01 1.7234319493533498e+01 0.0000000000000000e+00  1.4655859960352277e+01 1.5912055779863293e+01 0.0000000000000000e+00  1.5159612928866096e+01 1.5231389771788081e+01 0.0000000000000000e+00  1.6066907309263144e+01 1.5056243155723807e+01 0.0000000000000000e+00  1.7279197106940828e+01 1.5434719056734926e+01 0.0000000000000000e+00  1.8703504782191512e+01 1.5938102063943894e+01 0.0000000000000000e+00  2.0248167969792977e+01 1.6576832299603311e+01 0.0000000000000000e+00  2.1823583848095307e+01 1.7148328934775517e+01 0.0000000000000000e+00  2.3353652937564025e+01 1.7587224866201009e+01 0.0000000000000000e+00  2.4773985203844916e+01 1.7397051496196674e+01 0.0000000000000000e+00  2.6029875181548807e+01 1.7290538728063041e+01 0.0000000000000000e+00  2.7087022636588841e+01 1.5784610354762560e+01 0.0000000000000000e+00  2.7930260074675935e+01 1.4731852052828655e+01 0.0000000000000000e+00  2.8556787701008876e+01 1.1603480099047021e+01 0.0000000000000000e+00  2.8987857068623981e+01 9.4091286762760493e+00 0.0000000000000000e+00  2.9243721769048300e+01 4.8685761518921069e+00 0.0000000000000000e+00  2.9371273401589253e+01 1.1707197374739169e+00 0.0000000000000000e+00  2.9391483880795089e+01 1.3052637076230620e-03 0.0000000000000000e+00  2.9362808586558955e+01 6.8119932668787957e+00 0.0000000000000000e+00  2.9391462841155235e+01 -1.2860088833489965e-03 0.0000000000000000e+00  2.9301247121238656e+01 -5.1342045614887655e-01 0.0000000000000000e+00  2.0104801725004297e+01 -1.7331769270249779e+01 0.0000000000000000e+00  2.0811824988960883e+01 -1.6706649563835619e+01 0.0000000000000000e+00  1.7873318474147847e+01 -2.1490974002068462e+01 0.0000000000000000e+00  1.7177190705772990e+01 -2.1048002779583136e+01 0.0000000000000000e+00  1.5574006976660588e+01 -2.1705499033820651e+01 0.0000000000000000e+00  1.4439355993209583e+01 -2.0794806394578046e+01 0.0000000000000000e+00  1.3218453508700463e+01 -1.9575756491604736e+01 0.0000000000000000e+00  1.2175022125467406e+01 -1.7974144639535126e+01 0.0000000000000000e+00  1.0918269837861269e+01 -1.6934783459967601e+01 0.0000000000000000e+00  1.0032379048938839e+01 -1.5396431482730096e+01 0.0000000000000000e+00  9.3173367033740089e+00 -1.3762158366764414e+01 0.0000000000000000e+00  8.5332084304744900e+00 -1.2487025404918871e+01 0.0000000000000000e+00  7.7931979213880425e+00 -1.1283014437658762e+01 0.0000000000000000e+00  7.1011625129899487e+00 -1.0161422364178037e+01 0.0000000000000000e+00  6.4207243806592587e+00 -9.2357642163434353e+00 0.0000000000000000e+00  5.8065430474728803e+00 -8.3152418260385961e+00 0.0000000000000000e+00  5.2663020437948855e+00 -7.4024934106746612e+00 0.0000000000000000e+00  4.7627069896712673e+00 -6.6061381115374456e+00 0.0000000000000000e+00  4.3208841571424346e+00 -5.7627554910631247e+00 0.0000000000000000e+00  3.9499749515634175e+00 -4.9623393855778986e+00 0.0000000000000000e+00  3.6138215463966961e+00 -4.1705354612899646e+00 0.0000000000000000e+00  3.3311303114057313e+00 -3.4875163294889977e+00 0.0000000000000000e+00  3.1008360421669487e+00 -2.6511839656802887e+00 0.0000000000000000e+00  2.9048088502745877e+00 -2.2061399561641326e+00 0.0000000000000000e+00  2.7411739205119243e+00 -1.3167756802570048e+00 0.0000000000000000e+00  2.6055826453327953e+00 -1.1920817357310751e+00 0.0000000000000000e+00  2.4808490829864835e+00 -3.8682682945303870e-01 0.0000000000000000e+00  2.3005281090042682e+00 1.7168930713701245e+00 0.0000000000000000e+00  2.5160019456011615e+00 4.9861760485860467e+00 0.0000000000000000e+00  2.0878662207180225e+00 5.6680421912927317e+00 0.0000000000000000e+00  2.9911030707364930e+00 5.2377643968838603e+00 0.0000000000000000e+00  3.4227046108173789e+00 5.9772299270152578e+00 0.0000000000000000e+00  3.9786739822291386e+00 6.3178607318806161e+00 0.0000000000000000e+00  4.6674454460720476e+00 7.2184280134678165e+00 0.0000000000000000e+00  5.2789437288032923e+00 7.7050438777542301e+00 0.0000000000000000e+00  5.8074715045110405e+00 8.1479141608184094e+00 0.0000000000000000e+00  6.4681157612712656e+00 8.6493606808757733e+00 0.0000000000000000e+00  6.9808080156000392e+00 8.9618450746605642e+00 0.0000000000000000e+00  7.0276284934327728e+00 8.2900790395770692e+00 0.0000000000000000e+00  8.0754455080102172e+00 8.6255680983020735e+00 0.0000000000000000e+00  4.9341593284116270e+00 2.5329812403956971e+00 0.0000000000000000e+00  1.6020421850801142e+01 1.7754145675409934e+01 0.0000000000000000e+00  1.5667222251665427e+01 1.5845282019646140e+01 0.0000000000000000e+00  1.5702864589602598e+01 1.4494090421657415e+01 0.0000000000000000e+00  1.6181903215007456e+01 1.3718184454736166e+01 0.0000000000000000e+00  1.7057739561178956e+01 1.3644277296769987e+01 0.0000000000000000e+00  1.8231669914465353e+01 1.3834581033892414e+01 0.0000000000000000e+00  1.9610266820331493e+01 1.4297444472682571e+01 0.0000000000000000e+00  2.1102346312929495e+01 1.4827686344436069e+01 0.0000000000000000e+00  2.2618543883267886e+01 1.5339733750422058e+01 0.0000000000000000e+00  2.4081916979029323e+01 1.5317914645881711e+01 0.0000000000000000e+00  2.5429475161750478e+01 1.5463860317160375e+01 0.0000000000000000e+00  2.6605551216406393e+01 1.4258217299670138e+01 0.0000000000000000e+00  2.7578264620159523e+01 1.3532568660091730e+01 0.0000000000000000e+00  2.8330327155040660e+01 1.0726884399709796e+01 0.0000000000000000e+00  2.8865873274850188e+01 8.8363073360638644e+00 0.0000000000000000e+00  2.9198553881029998e+01 4.5413094349350622e+00 0.0000000000000000e+00  2.9368628167665747e+01 1.0634617607829278e+00 0.0000000000000000e+00  2.9393932741502685e+01 1.8678294235068196e-03 0.0000000000000000e+00  2.9344486993755471e+01 6.9731239808586549e+00 0.0000000000000000e+00  2.9393914001304118e+01 -1.8402692136870573e-03 0.0000000000000000e+00  2.9151841357438766e+01 -3.9104577523329120e-01 0.0000000000000000e+00  2.9080561017976322e+01 -3.5783231888133336e+00 0.0000000000000000e+00  1.9941794600276516e+01 -1.7822395901084381e+01 0.0000000000000000e+00  2.0721315470007312e+01 -1.7133917732011898e+01 0.0000000000000000e+00  1.7851896151574014e+01 -2.0055847563415202e+01 0.0000000000000000e+00  1.7221730305171150e+01 -1.9346980374387261e+01 0.0000000000000000e+00  1.5679184346909164e+01 -1.9137791807367510e+01 0.0000000000000000e+00  1.4601904199912926e+01 -1.7786259382727945e+01 0.0000000000000000e+00  1.3434040599558553e+01 -1.6448919189833799e+01 0.0000000000000000e+00  1.2441125465859834e+01 -1.5087801705427765e+01 0.0000000000000000e+00  1.1232671244179071e+01 -1.4104859228690817e+01 0.0000000000000000e+00  1.0393555719759840e+01 -1.2725866312809703e+01 0.0000000000000000e+00  9.7243041706485940e+00 -1.1346537855985233e+01 0.0000000000000000e+00  8.9852128804857738e+00 -1.0208149160238538e+01 0.0000000000000000e+00  8.2893817022696741e+00 -9.1578482542877779e+00 0.0000000000000000e+00  7.6407307670731814e+00 -8.2488697540961269e+00 0.0000000000000000e+00  7.0027260948614956e+00 -7.4270656878232284e+00 0.0000000000000000e+00  6.4299596073357614e+00 -6.6243734947118558e+00 0.0000000000000000e+00  5.9300545208327620e+00 -5.8822590737973242e+00 0.0000000000000000e+00  5.4657568496582654e+00 -5.1306225322897694e+00 0.0000000000000000e+00  5.0619936120660958e+00 -4.4359701744264388e+00 0.0000000000000000e+00  4.7282248133142017e+00 -3.6951029024084048e+00 0.0000000000000000e+00  4.4277527033283892e+00 -3.0921180408059552e+00 0.0000000000000000e+00  4.1801358321689026e+00 -2.3324490093603503e+00 0.0000000000000000e+00  3.9828741031791091e+00 -1.9398720870388935e+00 0.0000000000000000e+00  3.8201921050983563e+00 -1.0948390932333720e+00 0.0000000000000000e+00  3.6859050347328495e+00 -1.0173485446537462e+00 0.0000000000000000e+00  3.5839217676118089e+00 -2.1762156145572756e-01 0.0000000000000000e+00  3.4801111217432474e+00 1.9572110293510350e+00 0.0000000000000000e+00  3.4358889247741420e+00 4.3426957985496824e+00 0.0000000000000000e+00  3.0458674448992284e+00 5.0850503251587975e+00 0.0000000000000000e+00  3.8660290422875407e+00 4.5230794962667060e+00 0.0000000000000000e+00  4.3444414605424857e+00 5.3277519078653883e+00 0.0000000000000000e+00  4.7788993688047263e+00 5.4828962381785438e+00 0.0000000000000000e+00  5.3361708013093478e+00 6.1860745480118178e+00 0.0000000000000000e+00  6.0235303933559834e+00 6.7907994146668855e+00 0.0000000000000000e+00  6.6302473274648168e+00 7.3609902908382789e+00 0.0000000000000000e+00  7.1500078642680345e+00 7.6673606902868112e+00 0.0000000000000000e+00  7.7973929407002505e+00 8.2048165120986969e+00 0.0000000000000000e+00  8.2924903259081351e+00 8.2347149646623699e+00 0.0000000000000000e+00  8.3186562948531346e+00 7.0695009496791084e+00 0.0000000000000000e+00  9.3457830515705798e+00 7.2578331378101080e+00 0.0000000000000000e+00  6.1894540787353236e+00 1.1313446678823069e+00 0.0000000000000000e+00  1.7268633206271165e+01 1.6380116409158653e+01 0.0000000000000000e+00  1.6909209937502279e+01 1.4449402306109766e+01 0.0000000000000000e+00  1.6932478465684511e+01 1.3014590446125032e+01 0.0000000000000000e+00  1.7390183996624760e+01 1.2352858077253279e+01 0.0000000000000000e+00  1.8233906709038077e+01 1.2103038369310829e+01 0.0000000000000000e+00  1.9365346903220281e+01 1.2266738032651437e+01 0.0000000000000000e+00  2.0690765572656005e+01 1.2634126026051767e+01 0.0000000000000000e+00  2.2118649808257523e+01 1.3117611135170907e+01 0.0000000000000000e+00  2.3559653753929613e+01 1.3182360929754617e+01 0.0000000000000000e+00  2.4937401925125549e+01 1.3510743945357621e+01 0.0000000000000000e+00  2.6187308820772422e+01 1.2567357252681587e+01 0.0000000000000000e+00  2.7257100088062781e+01 1.2157059243260269e+01 0.0000000000000000e+00  2.8111949353525986e+01 9.6815909333602423e+00 0.0000000000000000e+00  2.8743432873011145e+01 8.1297868441513366e+00 0.0000000000000000e+00  2.9147085381235645e+01 4.1201419351932866e+00 0.0000000000000000e+00  2.9361996894914082e+01 9.1908282121331231e-01 0.0000000000000000e+00  2.9397168989704191e+01 2.3696026248542167e-03 0.0000000000000000e+00  2.9330404226428303e+01 7.2223326505862815e+00 0.0000000000000000e+00  2.9397151570359316e+01 -2.3316760333327072e-03 0.0000000000000000e+00  2.9032347859113397e+01 5.1404704054488154e-03 0.0000000000000000e+00  2.8736578889984020e+01 -3.44846783886