<?xml version="1.0"?>
<VTKFile type="UnstructuredGrid"  version="0.1"  >
<UnstructuredGrid>
<Piece  NumberOfPoints="1933" NumberOfCells="3640">
<Points>
<DataArray  type="Float64"  NumberOfComponents="3"  format="ascii">0.2940409990568859 -0.001776916941332833 0  5.294041054336127 -0.001741503259290771 0  5.2939879397823 7.498258639214255 0  0.2939878558708295 7.498223177827944 0  10.29404114108322 -0.001706203916369727 0  10.2939880827792 7.498293950587498 0  15.29404132024367 -0.001671035766844493 0  15.29398831162409 7.498329118692054 0  20.29404164936496 -0.001635971622053694 0  20.293988650209 7.49836417931014 0  25.29404217658527 -0.001600960030974728 0  25.29398911974461 7.498399187121316 0  30.29404294042905 -0.001565935183089885 0  30.29398973803826 7.498434209085807 0  35.29404397133434 -0.001530821739312216 0  35.29399051895927 7.498469320864993 0  40.29404529343309 -0.001495536802090699 0  40.29399147213865 7.498504605358088 0  45.29404692607753 -0.001459990148113172 0  45.29399260275019 7.498540152676929 0  50.29404888496585 -0.00142408330474554 0  50.29399391120633 7.49857606114908 0  55.29405118284605 -0.001387707747965937 0  55.29399539263531 7.49861243914087 0  60.29405382979497 -0.001350742311692312 0  60.29399703601278 7.498649407637221 0  65.29405683305679 -0.001313049765248815 0  65.29399882281066 7.498687103627756 0  70.29406019636704 -0.001274472401726188 0  70.29400072499492 7.498725684448383 0  75.29406391862594 -0.001234826359869366 0  75.29400270213858 7.498765333331788 0  80.29406799165838 -0.001193894252645016 0  80.29400469731783 7.498806266544179 0  85.29407239662302 -0.001151415469951515 0  85.29400663133063 7.49884874264296 0  90.2940770983089 -0.001107073224793215 0  90.29400839457499 7.498893074595065 0  95.29408203603015 -0.001060476969929514 0  95.29400983567898 7.49893964575443 0  100.2940871088534 -0.001011138151921318 0  100.2940107456924 7.498988930995229 0  105.2940921511682 -0.0009584362940969098 0  105.294010836379 7.499041524562989 0  110.2940968913864 -0.000901571002566945 0  110.2940097111814 7.499098176211312 0  115.2941008806235 -0.0008394936269739304 0  115.29400682833 7.499159836363594 0  120.2941033670093 -0.0007708102453126773 0  120.2940014588153 7.499227707988184 0  125.2941030701825 -0.000693646707238003 0  125.2939926509017 7.499303294472083 0  130.2940977704995 -0.000605471385872063 0  130.2939792348992 7.499388412305615 0  135.2940835513029 -0.0005028979418614146 0  135.2939599531408 7.499485091796745 0  140.2940533854474 -0.0003815951452708128 0  140.2939339156203 7.499595199418228 0  145.2939944592605 -0.0002368377222535853 0  145.29390184261 7.49971949362417 0  150.2938829342251 -6.695600636672487e-05 0  150.2938691842259 7.499855994297774 0  160.2938926261448 1.093522635737313e-18 0  165.2938252214051 -0.000134917312047631 0  165.2938823074491 7.49983892688264 0  160.2938953564913 7.499939197518319 0  170.2938041232639 -0.0002283138026978187 0  170.293868763383 7.499758790534266 0  175.2938047986922 -0.0002925788183269801 0  175.2938602785784 7.499700628364065 0  180.2938154415592 -0.0003353489217256958 0  180.29385698759 7.499660958066464 0  185.2938302033358 -0.0003620429906922344 0  185.293857708471 7.499635918533509 0  190.2938461728941 -0.0003766078183850718 0  190.2938611654074 7.499622263136336 0  195.2938619220222 -0.0003819289634009158 0  195.2938663182266 7.499617453291434 0  200.2938767790862 -0.0003801261639522502 0  200.2938724036037 7.499619549591563 0  205.2938904595197 -0.0003727705104014086 0  205.2938788917201 7.499627077147736 0  210.2939028756844 -0.0003610405603970195 0  210.2938854283334 7.499638909706873 0  215.2939140382352 -0.0003458326547605364 0  215.2938917841437 7.499654179881878 0  220.2939240046663 -0.000327838372865903 0  220.2938978161006 7.499672212434414 0  225.2939328524338 -0.0003075990350220063 0  225.2939034395892 7.499692475468517 0  230.2939406650127 -0.0002855443637833293 0  230.2939086090774 7.49971454483038 0  235.2939475248373 -0.0002620202310460965 0  235.2939133049073 7.499738078030029 0  240.2939535099434 -0.0002373088453620505 0  240.2939175243884 7.49976279497935 0  245.2939586926363 -0.0002116436493776266 0  245.2939212758646 7.499788463619101 0  250.2939631392784 -0.0001852204635049581 0  250.2939245748172 7.499814889080614 0  255.2939669107288 -0.0001582059172771763 0  255.2939274413736 7.49984190543893 0  260.2939700631779 -0.0001307438724945528 0  260.2939298987799 7.499869369406071 0  265.2939726492698 -0.0001029603049470685 0  265.2939319725486 7.49989715552528 0  270.2939747194538 -7.496693349778557e-05 0  270.2939336900781 7.499925152588893 0  275.2939763235668 -4.68637358194727e-05 0  275.2939350805815 7.499953261136584 0  280.293977512656 -1.874034166098699e-05 0  280.29393617521 7.4999813920172 0  285.2939783410297 9.323882186251017e-06 0  285.2939370072457 7.500009466132771 0  290.2939788684281 3.72614843349862e-05 0  290.2939376122296 7.500037415641741 0  295.2939791620246 6.502110954950723e-05 0  295.2939380279309 7.500065187088083 0  300.2939792974169 9.257554011743527e-05 0  300.2939382941148 7.500092747137288 0  305.2939793567364 0.0001199356494141874 0  305.2939384524919 7.500120091811749 0  310.2939794194862 0.0001471727118638436 0  310.2939385483101 7.50014726041221 0  5.293934520666729 14.99825894589076 0  0.2939344347627987 14.99822340608758 0  10.29393464667269 14.99829426136254 0  15.29393483181933 14.99832940681945 0  20.29393508607845 14.99836443845339 0  25.29393541514547 14.99839941889589 0  30.29393582185725 14.99843441754375 0  35.29393630621961 14.99846951013402 0  40.29393686490428 14.99850477866859 0  45.29393749052727 14.99854031195705 0  50.29393817077997 14.99857620679892 0  55.29393888738401 14.99861256978553 0  60.29393961479801 14.99864951973106 0  65.29394031858668 14.99868719078925 0  70.29394095334752 14.9987257363663 0  75.29394146008963 14.99876533399567 0  80.29394176295718 14.99880619139302 0  85.29394176522956 14.99884855395153 0  90.29394134461363 14.99889271394735 0  95.29394034806718 14.99893902164973 0  100.2939385868175 14.99898789826475 0  105.2939358331269 14.99903984996342 0  110.2939318219437 14.99909548072935 0  115.2939262634569 14.99915549858642 0  120.2939188773555 14.99922070343084 0  125.2939094670814 14.99929193254682 0  130.293898062543 14.99936991755294 0  135.2938851697996 14.99945496739536 0  140.2938721640839 14.99954632672026 0  145.2938618099881 14.9996409483227 0  150.2938586738481 14.99973115707555 0  165.2938922371806 14.99976650308026 0  160.2938901887485 14.99981687156564 0  170.293887305269 14.99971776994887 0  175.2938803041662 14.99967759820386 0  180.2938739480393 14.99964803050837 0  185.2938692865854 14.99962866518423 0  190.2938664933582 14.99961821817915 0  195.293865358705 14.99961523866552 0  200.2938655468852 14.99961838861876 0  205.293866716008 14.99962652728443 0  210.2938685663146 14.99963871568595 0  215.2938708537451 14.99965419260366 0  220.2938733881619 14.99967234380913 0  225.2938760258496 14.99969267301339 0  230.2938786607684 14.9997147772054 0  235.2938812164703 14.99973832669378 0  240.2938836392987 14.9997630493133 0  245.2938858929643 14.999788718048 0  250.2938879543505 14.99981514136305 0  255.2938898103273 14.99984215565562 0  260.2938914553738 14.99986961936901 0  265.2938928898028 14.99989740843287 0  270.2938941184501 14.99992541279717 0  275.2938951496861 14.99995353391514 0  280.2938959946587 14.99998168310539 0  285.2938966667195 15.00000978078234 0  290.293897181014 15.00003775657484 0  295.2938975544029 15.00006555031566 0  300.2938978060221 15.00009311369948 0  305.2938979592681 15.00012041187898 0  310.2938980465986 15.00014742296795 0  5.293880890171035 22.49825951478475 0  0.2938808088289943 22.49822395816551 0  10.29388098672624 22.49829479349993 0  15.29388110750909 22.49832987921485 0  20.29388125444411 22.49836484583744 0  25.2938814248833 22.49839976430541 0  30.29388161300967 22.4984347067076 0  35.29388181023693 22.49846974840192 0  40.29388200498212 22.49850496936421 0  45.29388218208563 22.49854045540781 0  50.29388232203073 22.49857629957474 0  55.2938824000263 22.49861260384026 0  60.29388238497913 22.49864948120414 0  65.29388223836646 22.49868705822182 0  70.29388191303592 22.49872547801871 0  75.2938813520023 22.49876490381956 0  80.29388048738706 22.49880552298783 0  85.29387923978109 22.49884755148656 0  90.29387751853174 22.49889123849646 0  95.29387522380713 22.49893687058953 0  100.2938722518295 22.49898477423006 0  105.2938685054681 22.49903531426362 0  110.2938639134821 22.49908888412885 0  115.2938584630555 22.49914588032139 0  120.2938522515412 22.4992066485361 0  125.2938455635898 22.49927138134068 0  130.2938389767749 22.49933993732176 0  135.293833487722 22.4994115421799 0  140.2938306228946 22.4994843337835 0  145.2938324405033 22.499554758284 0  150.2938412317837 22.49961701619013 0  165.2938761484721 22.49968434060211 0  160.2938686264235 22.49970158200777 0  170.2938772037227 22.49966238240359 0  175.2938742183149 22.49964151328074 0  180.2938693657317 22.49962498153573 0  185.2938641326395 22.49961413143915 0  190.2938593586266 22.499609156825 0  195.2938554262234 22.49960966876229 0  200.2938524397404 22.499615040495 0  205.2938503531181 22.49962459203695 0  210.2938490504714 22.49963767828129 0  215.2938483926557 22.49965372436577 0  220.2938482420472 22.4996722342893 0  225.2938484743027 22.49969278710752 0  230.2938489827801 22.49971502818936 0  235.2938496790826 22.49973865922389 0  240.2938504917336 22.49976342866225 0  245.2938513640996 22.49978912325562 0  250.2938522521428 22.4998155608596 0  255.2938531222975 22.49984258445498 0  260.2938539495669 22.49987005725542 0  265.2938547158935 22.49989785875552 0  270.2938554087712 22.49992588158596 0  275.2938560200876 22.49995402906036 0  280.2938565451875 22.49998221331072 0  285.2938569821669 22.50001035389353 0  290.2938573314803 22.50003837668981 0  295.2938575960304 22.50006621276832 0  300.29
[...]
<PointData  Vectors="v"> 
<DataArray  type="Float64"  Name="v"  NumberOfComponents="3" format="ascii">1.0981183218065218e+00 7.6633207795208964e+00 0.0000000000000000e+00  1.6555941186348495e+00 7.1796602579081137e+00 0.0000000000000000e+00  1.5251735016272050e+00 6.3437197353364061e+00 0.0000000000000000e+00  1.0951670604673294e+00 7.0185963597437837e+00 0.0000000000000000e+00  2.3499442443609460e+00 7.7608662240381276e+00 0.0000000000000000e+00  2.0822183353713202e+00 6.7203120583286120e+00 0.0000000000000000e+00  2.9716210102877838e+00 8.7820899669811308e+00 0.0000000000000000e+00  2.7753217587737837e+00 7.8511100242342922e+00 0.0000000000000000e+00  3.5156667660748866e+00 9.0954605616669930e+00 0.0000000000000000e+00  3.3950107671102687e+00 8.2816948134130790e+00 0.0000000000000000e+00  4.1974096571824013e+00 9.9695245452538757e+00 0.0000000000000000e+00  3.9362760656985865e+00 8.9499124352546477e+00 0.0000000000000000e+00  4.7368818126175647e+00 1.0324303272175955e+01 0.0000000000000000e+00  4.6143181980621000e+00 9.5187228556314860e+00 0.0000000000000000e+00  4.8158468367627130e+00 1.0060601352417216e+01 0.0000000000000000e+00  5.1492638266752735e+00 9.9465644754742470e+00 0.0000000000000000e+00  5.9000620305373106e+00 1.1157074581212916e+01 0.0000000000000000e+00  5.2229523297267315e+00 9.5358401507314507e+00 0.0000000000000000e+00  2.7953625353678939e+00 5.9943968486564634e+00 0.0000000000000000e+00  6.3009487708245198e+00 1.0657294148344402e+01 0.0000000000000000e+00  1.3914089173237841e+01 2.1874850194359482e+01 0.0000000000000000e+00  3.1892967412755580e+00 5.2027072031545263e+00 0.0000000000000000e+00  1.3594604516578624e+01 2.0101551341959119e+01 0.0000000000000000e+00  1.4300571197851493e+01 2.0588025528547998e+01 0.0000000000000000e+00  1.3671978521168295e+01 1.8782621870942304e+01 0.0000000000000000e+00  1.3972556325509627e+01 1.8674796479681572e+01 0.0000000000000000e+00  1.4203199834253059e+01 1.8115948413366546e+01 0.0000000000000000e+00  1.4040104807150225e+01 1.7328672008463805e+01 0.0000000000000000e+00  1.5143429519630521e+01 1.8083473603022661e+01 0.0000000000000000e+00  1.4560131556829077e+01 1.6684033557854125e+01 0.0000000000000000e+00  1.6393659436694794e+01 1.8475099159266581e+01 0.0000000000000000e+00  1.5487321549441798e+01 1.6611693224448651e+01 0.0000000000000000e+00  1.7860258851494738e+01 1.9083812530725609e+01 0.0000000000000000e+00  1.6723034572882948e+01 1.6897281863256470e+01 0.0000000000000000e+00  1.9452645705019659e+01 1.9970833306075431e+01 0.0000000000000000e+00  1.8173785002392524e+01 1.7596873081318382e+01 0.0000000000000000e+00  2.1080366911281100e+01 2.0709848455027839e+01 0.0000000000000000e+00  1.9748469205444188e+01 1.8283712194491017e+01 0.0000000000000000e+00  2.2666706097462139e+01 2.1334265562794606e+01 0.0000000000000000e+00  2.1357337168519528e+01 1.8971625917303417e+01 0.0000000000000000e+00  2.4148092051676333e+01 2.1682428815777584e+01 0.0000000000000000e+00  2.2923490383188497e+01 1.9478019442097025e+01 0.0000000000000000e+00  2.5469094480273885e+01 2.1717773319229931e+01 0.0000000000000000e+00  2.4383441146089854e+01 1.9754892383242478e+01 0.0000000000000000e+00  2.6593965148030325e+01 2.0989040996277954e+01 0.0000000000000000e+00  2.5681595614176441e+01 1.9320855511056692e+01 0.0000000000000000e+00  2.7509059622758407e+01 2.0270433335648853e+01 0.0000000000000000e+00  2.6783620030420959e+01 1.8918405481399752e+01 0.0000000000000000e+00  2.8208727267062500e+01 1.8123782111289351e+01 0.0000000000000000e+00  2.7673467779906733e+01 1.7093759497690378e+01 0.0000000000000000e+00  2.8714919397216569e+01 1.6454044787337562e+01 0.0000000000000000e+00  2.8349621501051629e+01 1.5717206421479926e+01 0.0000000000000000e+00  2.9046442410037578e+01 1.2775408944933030e+01 0.0000000000000000e+00  2.8828540169731991e+01 1.2297001735480009e+01 0.0000000000000000e+00  2.9247284024612203e+01 1.0116340966026696e+01 0.0000000000000000e+00  2.9137328846805502e+01 9.8396047055051685e+00 0.0000000000000000e+00  2.9342335409416926e+01 5.2321657643553410e+00 0.0000000000000000e+00  2.9308823610694471e+01 5.1063788760827835e+00 0.0000000000000000e+00  2.9381791047343096e+01 1.2768479065360687e+00 0.0000000000000000e+00  2.9383384578931089e+01 1.2447824645972116e+00 0.0000000000000000e+00  2.9389262609014306e+01 -4.7626550857974862e-09 0.0000000000000000e+00  2.9389916191255033e+01 6.8474487133460661e-04 0.0000000000000000e+00  2.9389262614653671e+01 -4.7419401852377071e-19 0.0000000000000000e+00  2.0125233128677596e+01 -7.1237364343882801e+00 0.0000000000000000e+00  2.9383851649255924e+01 6.7465774291162024e+00 0.0000000000000000e+00  2.9389904728743268e+01 -6.5390398792758550e-04 0.0000000000000000e+00  2.0750226402934548e+01 -1.3369540008252294e+01 0.0000000000000000e+00  2.0153244501990283e+01 -1.4347034709160377e+01 0.0000000000000000e+00  1.7730904518645310e+01 -2.0808979724799141e+01 0.0000000000000000e+00  2.0815809008216718e+01 -1.6310532520711135e+01 0.0000000000000000e+00  1.6954248442104639e+01 -2.2281891365516614e+01 0.0000000000000000e+00  1.7834761903418137e+01 -2.1151673875351811e+01 0.0000000000000000e+00  1.5274557653280388e+01 -2.5058692045615064e+01 0.0000000000000000e+00  1.7095673061292896e+01 -2.2572041156039180e+01 0.0000000000000000e+00  1.4063259475800642e+01 -2.5270959335801138e+01 0.0000000000000000e+00  1.5452974055203882e+01 -2.3487702405965162e+01 0.0000000000000000e+00  1.2768794337098816e+01 -2.5349948414396536e+01 0.0000000000000000e+00  1.4278956288847745e+01 -2.3440674014768909e+01 0.0000000000000000e+00  1.1653476248116599e+01 -2.4298070128836304e+01 0.0000000000000000e+00  1.3020952766653526e+01 -2.2658056521280717e+01 0.0000000000000000e+00  1.0325944175571394e+01 -2.3130711244475982e+01 0.0000000000000000e+00  1.1941721021119264e+01 -2.1171687712323180e+01 0.0000000000000000e+00  9.3705153372010699e+00 -2.1290119097690880e+01 0.0000000000000000e+00  1.0650093492973987e+01 -1.9889051216659993e+01 0.0000000000000000e+00  8.5871073184350664e+00 -1.9436081517614102e+01 0.0000000000000000e+00  9.7301079649078090e+00 -1.8292838872030973e+01 0.0000000000000000e+00  7.7351623738312361e+00 -1.7744082409279795e+01 0.0000000000000000e+00  8.9817654202673864e+00 -1.6497761693959983e+01 0.0000000000000000e+00  6.9283195411902279e+00 -1.6145756813481515e+01 0.0000000000000000e+00  8.1646839325113092e+00 -1.4966707786622889e+01 0.0000000000000000e+00  6.1704386079146003e+00 -1.4730845226474232e+01 0.0000000000000000e+00  7.3922911576394501e+00 -1.3625044813758057e+01 0.0000000000000000e+00  5.4249454218955435e+00 -1.3436231459747720e+01 0.0000000000000000e+00  6.6684917455577990e+00 -1.2348663567134336e+01 0.0000000000000000e+00  4.7467115093866834e+00 -1.2196214439827017e+01 0.0000000000000000e+00  5.9567746962163115e+00 -1.1209201666160194e+01 0.0000000000000000e+00  4.1434789411675705e+00 -1.1058494537129652e+01 0.0000000000000000e+00  5.3119288729895908e+00 -1.0183697037863316e+01 0.0000000000000000e+00  3.5777579664644170e+00 -9.9705891806899736e+00 0.0000000000000000e+00  4.7416717316465071e+00 -9.1517653280876026e+00 0.0000000000000000e+00  3.0748670234927253e+00 -8.9084960435538445e+00 0.0000000000000000e+00  4.2086451027874459e+00 -8.1835366722440508e+00 0.0000000000000000e+00  2.6438177549749526e+00 -7.9113894179776709e+00 0.0000000000000000e+00  3.7379838651807442e+00 -7.2940043971513964e+00 0.0000000000000000e+00  2.2485567963227453e+00 -6.9079243354027602e+00 0.0000000000000000e+00  3.3389367082035317e+00 -6.3437723676511295e+00 0.0000000000000000e+00  1.9074941699898402e+00 -5.9735721124713059e+00 0.0000000000000000e+00  2.9751174449676658e+00 -5.4906669729786373e+00 0.0000000000000000e+00  1.6201938394379947e+00 -5.0212050725286481e+00 0.0000000000000000e+00  2.6655474395213870e+00 -4.6182502919000363e+00 0.0000000000000000e+00  1.3673394419605247e+00 -4.2068182625557888e+00 0.0000000000000000e+00  2.4086982752844666e+00 -3.8560012161146680e+00 0.0000000000000000e+00  1.1489517481462665e+00 -3.2686599985440634e+00 0.0000000000000000e+00  2.1872121690417461e+00 -2.9679791357858623e+00 0.0000000000000000e+00  9.5777633945810381e-01 -2.7313918353689481e+00 0.0000000000000000e+00  1.9977888415414169e+00 -2.4735063793000096e+00 0.0000000000000000e+00  7.8131724971778582e-01 -1.7819165686714977e+00 0.0000000000000000e+00  1.8387363557222913e+00 -1.5421555410783763e+00 0.0000000000000000e+00  5.4331770417867420e-01 -1.7254813003917071e+00 0.0000000000000000e+00  1.6883506533801720e+00 -1.3994014933147696e+00 0.0000000000000000e+00  1.8238131150263845e-01 -1.2018393583439255e+00 0.0000000000000000e+00  1.4865277169467657e+00 -6.8024597884828109e-01 0.0000000000000000e+00  -6.6121852370934675e-01 -7.3938433633628049e-03 0.0000000000000000e+00  1.1400557416555657e+00 1.2166270453373984e+00 0.0000000000000000e+00  1.8027073397264444e+00 5.6983537707864311e+00 0.0000000000000000e+00  1.3288305669569620e+00 6.3087577772609205e+00 0.0000000000000000e+00  2.2330333544793235e+00 5.8848198504189710e+00 0.0000000000000000e+00  2.7895495041501839e+00 6.8122910423973115e+00 0.0000000000000000e+00  3.4809047872502945e+00 7.3538068721810479e+00 0.0000000000000000e+00  4.0974142984566511e+00 8.1404275461883291e+00 0.0000000000000000e+00  4.6340491083466144e+00 8.5051050620769928e+00 0.0000000000000000e+00  5.3058228967548589e+00 9.1486683263896484e+00 0.0000000000000000e+00  5.8327398238363672e+00 9.4305826632616814e+00 0.0000000000000000e+00  5.8969290576168651e+00 9.0466019986280379e+00 0.0000000000000000e+00  6.9639312584950419e+00 9.8774851731142270e+00 0.0000000000000000e+00  3.8405343199635551e+00 3.9269889811547851e+00 0.0000000000000000e+00  1.4941087443657221e+01 1.9173291898785688e+01 0.0000000000000000e+00  1.4601922344827846e+01 1.7235233902872935e+01 0.0000000000000000e+00  1.4655854657086179e+01 1.5912993640482764e+01 0.0000000000000000e+00  1.5159607704171350e+01 1.5232334533095722e+01 0.0000000000000000e+00  1.6066902341334135e+01 1.5057180348871627e+01 0.0000000000000000e+00  1.7279192473071181e+01 1.5435656767712100e+01 0.0000000000000000e+00  1.8703500602299307e+01 1.5939033925411099e+01 0.0000000000000000e+00  2.0248164290025407e+01 1.6577749846649404e+01 0.0000000000000000e+00  2.1823580705297832e+01 1.7149262964473721e+01 0.0000000000000000e+00  2.3353650307455919e+01 1.7588170681602779e+01 0.0000000000000000e+00  2.4773983207580830e+01 1.7398034091899305e+01 0.0000000000000000e+00  2.6029873466501527e+01 1.7291572967387498e+01 0.0000000000000000e+00  2.7087021588730739e+01 1.5785770443168007e+01 0.0000000000000000e+00  2.7930258925892598e+01 1.4733091313768716e+01 0.0000000000000000e+00  2.8556787200299301e+01 1.1604986542920431e+01 0.0000000000000000e+00  2.8987856227692941e+01 9.4107559661915374e+00 0.0000000000000000e+00  2.9243721428377555e+01 4.8706102078459983e+00 0.0000000000000000e+00  2.9371273401069722e+01 1.1732029753212447e+00 0.0000000000000000e+00  2.9391483872864150e+01 1.3052609616311008e-03 0.0000000000000000e+00  2.9362809502133068e+01 6.8089483023785418e+00 0.0000000000000000e+00  2.9391462835082226e+01 -1.2860064782765968e-03 0.0000000000000000e+00  2.9301242066638043e+01 -5.1389169187740857e-01 0.0000000000000000e+00  2.0104902116853275e+01 -1.7331347560580173e+01 0.0000000000000000e+00  2.0811939582367994e+01 -1.6705607495904168e+01 0.0000000000000000e+00  1.7873385872130701e+01 -2.1489788622541003e+01 0.0000000000000000e+00  1.7177294828572535e+01 -2.1046646754537147e+01 0.0000000000000000e+00  1.5574130508646501e+01 -2.1704056654222747e+01 0.0000000000000000e+00  1.4439500529286379e+01 -2.0793378720745803e+01 0.0000000000000000e+00  1.3218622520066813e+01 -1.9574378913354792e+01 0.0000000000000000e+00  1.2175221907146833e+01 -1.7972803787474387e+01 0.0000000000000000e+00  1.0918500417990250e+01 -1.6933487650811060e+01 0.0000000000000000e+00  1.0032623130537075e+01 -1.5395203287096907e+01 0.0000000000000000e+00  9.3175662512563040e+00 -1.3761032398135615e+01 0.0000000000000000e+00  8.5334241583659534e+00 -1.2485988062503390e+01 0.0000000000000000e+00  7.7934041733024770e+00 -1.1282060689028231e+01 0.0000000000000000e+00  7.1013617750082121e+00 -1.0160541352063211e+01 0.0000000000000000e+00  6.4209179090033031e+00 -9.2349424756683955e+00 0.0000000000000000e+00  5.8067324417631863e+00 -8.3144792834754782e+00 0.0000000000000000e+00  5.2664870049194876e+00 -7.4017842482166918e+00 0.0000000000000000e+00  4.7628864612987796e+00 -6.6054749904340611e+00 0.0000000000000000e+00  4.3210569177807718e+00 -5.7621427082532612e+00 0.0000000000000000e+00  3.9501389843598846e+00 -4.9617726674422880e+00 0.0000000000000000e+00  3.6139749517672146e+00 -4.1700147691303897e+00 0.0000000000000000e+00  3.3312707236861638e+00 -3.4870404411219837e+00 0.0000000000000000e+00  3.1009617680840775e+00 -2.6507586769314040e+00 0.0000000000000000e+00  2.9049168270810739e+00 -2.2057530800086034e+00 0.0000000000000000e+00  2.7412634581122988e+00 -1.3164504600340332e+00 0.0000000000000000e+00  2.6056493211783431e+00 -1.1917802421027979e+00 0.0000000000000000e+00  2.4808944140522606e+00 -3.8662015752817658e-01 0.0000000000000000e+00  2.3005426176173134e+00 1.7168602118035230e+00 0.0000000000000000e+00  2.5158394690147787e+00 4.9867261469260393e+00 0.0000000000000000e+00  2.0877162044357505e+00 5.6680583035206737e+00 0.0000000000000000e+00  2.9909310782060969e+00 5.2384638725398043e+00 0.0000000000000000e+00  3.4225273328133681e+00 5.9778301745621940e+00 0.0000000000000000e+00  3.9785157698454974e+00 6.3185355059818775e+00 0.0000000000000000e+00  4.6673329738248928e+00 7.2191469460547921e+00 0.0000000000000000e+00  5.2788736247804593e+00 7.7058363537766903e+00 0.0000000000000000e+00  5.8074418315047467e+00 8.1487459267443452e+00 0.0000000000000000e+00  6.4681382306097293e+00 8.6502687416500113e+00 0.0000000000000000e+00  6.9808585102350431e+00 8.9627732316900239e+00 0.0000000000000000e+00  7.0276750431849990e+00 8.2909910413936512e+00 0.0000000000000000e+00  8.0755168731679561e+00 8.6265470641284825e+00 0.0000000000000000e+00  4.9342603369956901e+00 2.5340330653753100e+00 0.0000000000000000e+00  1.6020417098176360e+01 1.7755061439148221e+01 0.0000000000000000e+00  1.5667217102628147e+01 1.5846220650689583e+01 0.0000000000000000e+00  1.5702859330111382e+01 1.4495035401123742e+01 0.0000000000000000e+00  1.6181898064839714e+01 1.3719121386242131e+01 0.0000000000000000e+00  1.7057734620382025e+01 1.3645214349553530e+01 0.0000000000000000e+00  1.8231665305595559e+01 1.3835511917442819e+01 0.0000000000000000e+00  1.9610262591845366e+01 1.4298360809751125e+01 0.0000000000000000e+00  2.1102342507129979e+01 1.4828619047069857e+01 0.0000000000000000e+00  2.2618540503382732e+01 1.5340678272221076e+01 0.0000000000000000e+00  2.4081914156975369e+01 1.5318896123449381e+01 0.0000000000000000e+00  2.5429472693190540e+01 1.5464893919784570e+01 0.0000000000000000e+00  2.6605549422304499e+01 1.4259377205251969e+01 0.0000000000000000e+00  2.7578263057398306e+01 1.3533808654750043e+01 0.0000000000000000e+00  2.8330326271979342e+01 1.0728391841958791e+01 0.0000000000000000e+00  2.8865872534496329e+01 8.8379364167284500e+00 0.0000000000000000e+00  2.9198553568455655e+01 4.5433445836563022e+00 0.0000000000000000e+00  2.9368628115486551e+01 1.0659452442133150e+00 0.0000000000000000e+00  2.9393932723851471e+01 1.8678257762055682e-03 0.0000000000000000e+00  2.9344486706141005e+01 6.9700785506637795e+00 0.0000000000000000e+00  2.9393913986043820e+01 -1.8402658388039239e-03 0.0000000000000000e+00  2.9151840416627486e+01 -3.9151122291415774e-01 0.0000000000000000e+00  2.9080555284666296e+01 -3.5780921868160820e+00 0.0000000000000000e+00  1.9941897680527408e+01 -1.7821373054189383e+01 0.0000000000000000e+00  2.0721432503525076e+01 -1.7132669534817747e+01 0.0000000000000000e+00  1.7851967508664213e+01 -2.0054547029769520e+01 0.0000000000000000e+00  1.7221838633814574e+01 -1.9345569178016760e+01 0.0000000000000000e+00  1.5679312786131289e+01 -1.9136395924120894e+01 0.0000000000000000e+00  1.4602054019569565e+01 -1.7784918585915062e+01 0.0000000000000000e+00  1.3434215103646757e+01 -1.6447624185685999e+01 0.0000000000000000e+00  1.2441330753988140e+01 -1.5086552226488802e+01 0.0000000000000000e+00  1.1232907429960612e+01 -1.4103650976493039e+01 0.0000000000000000e+00  1.0393805424043723e+01 -1.2724718153611617e+01 0.0000000000000000e+00  9.7245393095355528e+00 -1.1345479603262437e+01 0.0000000000000000e+00  8.9854342055673051e+00 -1.0207181047634418e+01 0.0000000000000000e+00  8.2895935472713447e+00 -9.1569566369713762e+00 0.0000000000000000e+00  7.6409355998084418e+00 -8.2480393606014815e+00 0.0000000000000000e+00  7.0029251939626658e+00 -7.4262968835651080e+00 0.0000000000000000e+00  6.4301545656222299e+00 -6.6236576156194866e+00 0.0000000000000000e+00  5.9302450269177420e+00 -5.8815876789966888e+00 0.0000000000000000e+00  5.4659418676488238e+00 -5.1299996277897808e+00 0.0000000000000000e+00  5.0621719033749066e+00 -4.4353903154931738e+00 0.0000000000000000e+00  4.7283943743795591e+00 -3.6945662236656180e+00 0.0000000000000000e+00  4.4279116182514962e+00 -3.0916226407879384e+00 0.0000000000000000e+00  4.1802817729308765e+00 -2.3320016421847578e+00 0.0000000000000000e+00  3.9830053127981251e+00 -1.9394586191317646e+00 0.0000000000000000e+00  3.8203056306936807e+00 -1.0944861697343913e+00 0.0000000000000000e+00  3.6860000402821491e+00 -1.0170128673777934e+00 0.0000000000000000e+00  3.5839940194723532e+00 -2.1738286017757122e-01 0.0000000000000000e+00  3.4801622080058912e+00 1.9572246165188316e+00 0.0000000000000000e+00  3.4357392183682984e+00 4.3432647693572175e+00 0.0000000000000000e+00  3.0457248879528289e+00 5.0850773549271109e+00 0.0000000000000000e+00  3.8658667824954422e+00 4.5237932749048353e+00 0.0000000000000000e+00  4.3442696235578371e+00 5.3283600391010966e+00 0.0000000000000000e+00  4.7787223034111195e+00 5.4835424145481371e+00 0.0000000000000000e+00  5.3360127601508056e+00 6.1867247627438653e+00 0.0000000000000000e+00  6.0234181239675104e+00 6.7915283052643494e+00 0.0000000000000000e+00  6.6301774165949974e+00 7.3617613908297388e+00 0.0000000000000000e+00  7.1499784015301326e+00 7.6681904938831460e+00 0.0000000000000000e+00  7.7974156166771413e+00 8.2057026366592272e+00 0.0000000000000000e+00  8.2925410685894363e+00 8.2356331404481598e+00 0.0000000000000000e+00  8.3187031767219377e+00 7.0704426412794374e+00 0.0000000000000000e+00  9.3458547664205440e+00 7.2588424498541189e+00 0.0000000000000000e+00  6.1895555600603771e+00 1.1324138950286804e+00 0.0000000000000000e+00  1.7268628581570596e+01 1.6381056398756272e+01 0.0000000000000000e+00  1.6909204969652500e+01 1.4450348064114365e+01 0.0000000000000000e+00  1.6932473436582345e+01 1.3015527620753788e+01 0.0000000000000000e+00  1.7390179057459754e+01 1.2353794929092313e+01 0.0000000000000000e+00  1.8233901998951410e+01 1.2103968704026943e+01 0.0000000000000000e+00  1.9365342483109554e+01 1.2267653569690594e+01 0.0000000000000000e+00  2.0690761487987057e+01 1.2635057774356714e+01 0.0000000000000000e+00  2.2118646075415612e+01 1.3118554670204873e+01 0.0000000000000000e+00  2.3559650493246227e+01 1.3183341470470211e+01 0.0000000000000000e+00  2.4937399035355366e+01 1.3511776891164567e+01 0.0000000000000000e+00  2.6187306552585184e+01 1.2568516706678194e+01 0.0000000000000000e+00  2.7257098228007941e+01 1.2158299348680895e+01 0.0000000000000000e+00  2.8111948162229552e+01 9.6830985763732489e+00 0.0000000000000000e+00  2.8743432085071102e+01 8.1314165864452583e+00 0.0000000000000000e+00  2.9147085024255123e+01 4.1221774185649318e+00 0.0000000000000000e+00  2.9361996805474917e+01 9.2156635086785010e-01 0.0000000000000000e+00  2.9397168960046816e+01 2.3695983687970850e-03 0.0000000000000000e+00  2.9330404030846058e+01 7.2192873844476200e+00 0.0000000000000000e+00  2.9397151543468699e+01 -2.3316719925578567e-03 0.0000000000000000e+00  2.9032347161884442e+01 4.6745139418404597e-03 0.0000000000000000e+00  2.8736577940067789e+01 -3.44823020572