<?xml version="1.0"?>
<VTKFile type="UnstructuredGrid"  version="0.1"  >
<UnstructuredGrid>
<Piece  NumberOfPoints="1933" NumberOfCells="3640">
<Points>
<DataArray  type="Float64"  NumberOfComponents="3"  format="ascii">0.4752866229547801 0.001566713479711182 0  5.475286636244932 0.001501616841954729 0  5.475384340156486 7.501501685271215 0  0.4753842957706638 7.501566726304985 0  10.47528664112291 0.001436443757756545 0  10.47538442934192 7.501436535289936 0  15.47528667829087 0.001371126474061641 0  15.4753845909699 7.501371227367471 0  20.47528679979591 0.001305637165589402 0  20.47538485395981 7.501305741674277 0  25.47528705895277 0.001239973422859496 0  25.4753852489304 7.501240079539865 0  30.47528750705045 0.001174149487922727 0  30.47538580763167 7.501174257034664 0  35.47528819301392 0.001108190933049826 0  35.47538656253806 7.501108300655265 0  40.47528916432726 0.001042131601449368 0  40.47538754679181 7.501042244742493 0  45.47529046846036 0.0009760121032070325 0  45.4753887944378 7.500976130216514 0  50.47529215447544 0.0009098794343834743 0  50.47539034084731 7.500910004320618 0  55.47529427469141 0.0008437874701948898 0  55.4753922232395 7.500843921183107 0  60.47529688637979 0.0007777982140941925 0  60.47539448122912 7.500777943107745 0  65.47530005351038 0.0007119837863893236 0  65.47539715733457 7.500712142590809 0  70.47530384857808 0.0006464292259561657 0  70.47540029738217 7.50064660514472 0  75.47530835455203 0.0005812362715640366 0  75.47540395072144 7.500581433094689 0  80.47531366697207 0.0005165284011855513 0  80.47540817012859 7.500516750619585 0  85.47531989620293 0.0004524575582958773 0  85.47541301121599 7.500452710444686 0  90.47532716979127 0.0003892132122764381 0  90.47541853106283 7.500389502783962 0  95.47533563477288 0.0003270347301735527 0  95.47542478563591 7.500327367399121 0  100.475345459533 0.0002662285513057908 0  100.4754318253573 7.500266610027876 0  105.4753568343672 0.0002071924725113544 0  105.475439687886 7.50020762497756 0  110.4753699689225 0.0001504506644039951 0  110.475448386844 7.50015092641429 0  115.4753850827692 9.670516398198494e-05 0  115.4754578949645 7.500097191789241 0  120.4754023814041 4.691302726077165e-05 0  120.4754681203587 7.5000473217417 0  125.4754220019685 2.403813392459151e-06 0  125.4754788764199 7.500002521066572 0  130.475443896582 -3.493956848395178e-05 0  130.4754898520776 7.499964403227522 0  135.4754675874713 -6.240287561994739e-05 0  135.4755006066484 7.499935112745058 0  140.4754916570049 -7.602884837273454e-05 0  140.4755106597114 7.499917440755461 0  145.4755126769492 -7.011006247931377e-05 0  145.4755198678357 7.499914892864423 0  150.4755228743702 -3.719299379084611e-05 0  150.4755296216644 7.499931837834802 0  160.4755282581476 1.406771115081403e-18 0  165.4754127371762 -0.0001476587144424314 0  165.4755074876057 7.499831655794388 0  160.4755431822682 7.499950345649419 0  170.4753448861301 -0.0002795629361338871 0  170.4754712146935 7.499709961353204 0  175.4753034514891 -0.0003999886313523708 0  175.4754405808773 7.499594150337447 0  180.4752774401225 -0.0005111100876376218 0  180.4754163519709 7.499485433811619 0  185.4752608020091 -0.0006147010318692446 0  185.4753977614729 7.499383187119412 0  190.4752500684401 -0.0007122478989888008 0  190.4753837322606 7.49928642217619 0  195.4752431787769 -0.0008049462778385217 0  195.4753732629643 7.499194192894247 0  200.4752388647207 -0.0008937326245052188 0  200.4753655281287 7.499105696464331 0  205.4752363169877 -0.0009793336312191353 0  205.4753598798521 7.499020280192837 0  210.4752350004889 -0.001062314431132766 0  210.4753558199816 7.498937420815173 0  215.4752345493894 -0.001143118428135091 0  215.4753529680863 7.49885669908723 0  220.4752347059459 -0.001222097852627143 0  220.4753510334878 7.498777777016868 0  225.4752352838125 -0.001299536429387999 0  225.4753497931111 7.498700379469307 0  230.4752361453372 -0.001375665988036924 0  230.4753490747045 7.498624279932111 0  235.4752371870585 -0.00145067863458387 0  235.4753487443686 7.498549289682303 0  240.4752383301444 -0.001524735738133278 0  240.475348697355 7.498475249566569 0  245.4752395139111 -0.001597974649448128 0  245.4753488512761 7.498402023731222 0  250.4752406913133 -0.001670513803682549 0  250.4753491410771 7.498329494788564 0  255.4752418257571 -0.001742456666345963 0  255.4753495153051 7.498257560038389 0  260.4752428888208 -0.001813894844220893 0  260.4753499333248 7.498186128466847 0  265.4752438586535 -0.001884910585232418 0  265.4753503632501 7.49811511832451 0  270.4752447188842 -0.00195557881898292 0  270.4753507804225 7.498044455147259 0  275.4752454579855 -0.002025968830262706 0  275.4753511663041 7.497974070135946 0  280.4752460690506 -0.002096145598248963 0  280.4753515077045 7.497903898862075 0  285.4752465500175 -0.002166170756937107 0  285.4753517962582 7.497833880327875 0  290.4752469043638 -0.002236103008286361 0  290.4753520280773 7.4977639564928 0  295.4752471423502 -0.002305997592706349 0  295.4753522035152 7.497694072501538 0  300.4752472827597 -0.002375903974587696 0  300.4753523269667 7.497624178027301 0  305.4752473548288 -0.002445859971221406 0  305.4753524067939 7.49755423037178 0  310.4752473992111 -0.002515878515400203 0  310.4753524559486 7.497484200147036 0  5.475481758184051 15.00150185951228 0  0.4754817051119128 15.00156676326164 0  10.47548186066052 15.00143676643289 0  15.47548203921426 15.00137147703099 0  20.47548231397428 15.0013059937118 0  25.47548270289311 15.00124032913959 0  30.47548322363148 15.00117450501522 0  35.47548389422927 15.00110855055705 0  40.47548473326059 15.0010425013886 0  45.47548575979301 15.00097639903815 0  50.4754869932729 15.00091029107449 0  55.47548845335991 15.00084423186105 0  60.47549015968399 15.00077828392681 0  65.47549213147387 15.00071251999144 0  70.475494386981 15.00064702573326 0  75.47549694260954 15.00058190345024 0  80.47549981163269 15.00051727683761 0  85.47550300235646 15.000453297194 0  90.4755065155689 15.0003901514758 0  95.47551034111547 15.0003280727384 0  100.4755144534949 15.0002673536182 0  105.4755188065626 15.00020836356069 0  110.4755233278676 15.0001515703511 0  115.4755279141235 15.00009756584283 0  120.4755324312024 15.00004709392957 0  125.4755367255394 15.00000107434803 0  130.4755406597426 14.99996060586622 0  135.4755441940122 14.99992691050001 0  140.4755475445852 14.99990113200449 0  145.4755514478825 14.99988378553084 0  150.4755574881852 14.99987331255064 0  165.4755672036722 14.99977556247594 0  160.4755738177872 14.99986670396309 0  170.475554533747 14.99967519509077 0  175.4755394249365 14.99957276576954 0  180.4755244807122 14.99947210699806 0  185.4755109927824 14.99937470628118 0  190.4754994295683 14.9992808921482 0  195.4754898272039 14.99919049390779 0  200.4754820230265 14.99910315977579 0  205.4754757811745 14.99901849997398 0  210.4754708551706 14.99893614588535 0  215.4754670161942 14.99885577046667 0  220.4754640636039 14.99877709163959 0  225.4754618268001 14.9986998688575 0  230.4754601632224 14.99862389748188 0  235.4754589549238 14.99854900295644 0  240.4754581048828 14.99847503553819 0  245.4754575335718 14.99840186579589 0  250.4754571759752 14.99832938085937 0  255.4754569790845 14.99825748132105 0  260.4754568998408 14.99818607867675 0  265.4754569034592 14.99811509320255 0  270.4754569620735 14.99804445218625 0  275.4754570536379 14.99797408845621 0  280.4754571610141 14.99790393917512 0  285.4754572712175 14.99783394489073 0  290.4754573747512 14.99776404885073 0  295.4754574650647 14.99769419657287 0  300.4754575381858 14.9976243355516 0  305.4754575927903 14.99755441459999 0  310.4754576311957 14.99748438119178 0  5.47557879897249 22.50150224756295 0  0.4755787448015771 22.50156699587724 0  10.47557888990992 22.50143722399421 0  15.47557903973343 22.50137195773861 0  20.47557926257173 22.50130647620138 0  25.47557956824842 22.50124080688882 0  30.4755799644947 22.50117497988576 0  35.47558045806522 22.50110902892618 0  40.47558105515082 22.50104299193034 0  45.47558176136683 22.50097691149315 0  50.47558258148587 22.50091083557733 0  55.47558351899207 22.50084481854622 0  60.47558457548443 22.50077892262242 0  65.47558574992057 22.50071321984948 0  70.47558703767221 22.50064779464403 0  75.47558842936272 22.5005827470484 0  80.47558990945382 22.50051819681843 0  85.47559145458212 22.50045428850079 0  90.47559303169611 22.50039119765516 0  95.47559459615623 22.50032913833147 0  100.4755960901557 22.5002683717683 0  105.4755974421594 22.50020921594163 0  110.4755985686006 22.50015205488038 0  115.475599379906 22.50009734526731 0  120.4755997940394 22.50004561521671 0  125.47559976204 22.49999744539404 0  130.475599310776 22.49995341450849 0  135.4755986064391 22.49991397808228 0  140.4755980334917 22.49987923064814 0  145.4755982576364 22.49984848385013 0  150.4756001791647 22.49981962300366 0  165.4756215477676 22.49971363827445 0  160.4756142182076 22.49978854007615 0  170.4756230367465 22.4996292780022 0  175.475620247202 22.49953996567278 0  180.4756149009279 22.4994490126957 0  185.4756083899849 22.49935846337589 0  190.4756016509543 22.49926939391559 0  195.475595237686 22.49918226759861 0  200.4755894353386 22.49909719967675 0  205.4755843581767 22.49901412450623 0  210.4755800196571 22.49893289242882 0  215.4755763783923 22.49885332274903 0  220.4755733666148 22.49877523109977 0  225.4755709069821 22.49869844250436 0  230.4755689220011 22.49862279673719 0  235.4755673389494 22.49854814970055 0  240.4755660921393 22.49847437285476 0  245.4755651236691 22.49840135178895 0  250.4755643833475 22.49832898449294 0  255.4755638282075 22.49825717960735 0  260.475563421825 22.49818585477833 0  265.4755631335905 22.49811493516581 0  270.4755629379766 22.49804435211743 0  275.4755628138461 22.49797404200252 0  280.4755627437956 22.49790394519105 0  285.4755627135448 22.49783400514848 0  290.4755627113745 22.49776416758534 0  295.4755627276526 22.49769437952187 0  300.4755627544825 2
[...]
<PointData  Vectors="v"> 
<DataArray  type="Float64"  Name="v"  NumberOfComponents="3" format="ascii">4.3373150451888645e+00 3.1247520262959667e+00 0.0000000000000000e+00  4.5363722204720407e+00 2.5975234752985061e+00 0.0000000000000000e+00  3.8386019107693410e+00 2.2990977635027621e+00 0.0000000000000000e+00  3.6799559881819381e+00 2.8862129123192957e+00 0.0000000000000000e+00  4.7212185335446399e+00 2.4433494139027210e+00 0.0000000000000000e+00  4.0373365768812155e+00 2.1662692450191132e+00 0.0000000000000000e+00  4.8001380703986918e+00 2.3425753628546242e+00 0.0000000000000000e+00  4.2217190721824762e+00 2.2246542642083162e+00 0.0000000000000000e+00  4.7782524653321490e+00 1.8252946558113627e+00 0.0000000000000000e+00  4.2999310064494765e+00 1.8585054255144291e+00 0.0000000000000000e+00  4.7937299006233465e+00 1.5244130325166687e+00 0.0000000000000000e+00  4.2771866923987458e+00 1.5015140995033744e+00 0.0000000000000000e+00  4.7315122343736444e+00 9.8794405711326261e-01 0.0000000000000000e+00  4.2920506928827074e+00 1.0816403815867786e+00 0.0000000000000000e+00  4.6081112004018747e+00 4.0299002481167301e-01 0.0000000000000000e+00  4.2292401759623335e+00 5.8803357183989313e-01 0.0000000000000000e+00  4.7788006938853433e+00 2.1753440410970404e-01 0.0000000000000000e+00  4.1054665783864888e+00 -3.8823767496075683e-02 0.0000000000000000e+00  4.7543499564411622e+00 -2.4506053880331802e-01 0.0000000000000000e+00  4.2763689212858012e+00 -2.0889744802379095e-01 0.0000000000000000e+00  7.2540318661903411e+00 3.0230068134549493e+00 0.0000000000000000e+00  4.2525757496443601e+00 -7.2770019710678757e-01 0.0000000000000000e+00  8.4308003194815555e+00 4.2305639193661895e+00 0.0000000000000000e+00  6.7524784322087434e+00 2.4643525267400603e+00 0.0000000000000000e+00  8.7657731562792343e+00 4.0842038226259367e+00 0.0000000000000000e+00  7.9304978111219713e+00 3.5789649121314340e+00 0.0000000000000000e+00  8.7581248265682348e+00 3.3648371812483044e+00 0.0000000000000000e+00  8.2684225850825808e+00 3.3723580175447374e+00 0.0000000000000000e+00  8.5498724428608721e+00 2.3598397739732002e+00 0.0000000000000000e+00  8.2649385970271769e+00 2.6666698401096589e+00 0.0000000000000000e+00  8.2649088960255117e+00 1.2735480915267623e+00 0.0000000000000000e+00  8.0629701053866025e+00 1.6946802463581676e+00 0.0000000000000000e+00  7.9013356248222557e+00 1.2063513857882169e-01 0.0000000000000000e+00  7.7855360320603646e+00 6.5755738926745355e-01 0.0000000000000000e+00  7.4477701880245686e+00 -1.0214752734259238e+00 0.0000000000000000e+00  7.4310316126909006e+00 -3.5123453226009743e-01 0.0000000000000000e+00  6.8931269363223926e+00 -2.2317097013777665e+00 0.0000000000000000e+00  6.9893855448381075e+00 -1.4113173109067723e+00 0.0000000000000000e+00  6.2256694979556526e+00 -3.4831924971320034e+00 0.0000000000000000e+00  6.4483158601374964e+00 -2.4966964396625317e+00 0.0000000000000000e+00  5.4464461156818311e+00 -4.7920523208106625e+00 0.0000000000000000e+00  5.7974094010087036e+00 -3.6399001118693604e+00 0.0000000000000000e+00  4.5880806195279016e+00 -6.0795229254154295e+00 0.0000000000000000e+00  5.0377745454487162e+00 -4.8118879824973160e+00 0.0000000000000000e+00  3.6907247371251413e+00 -7.4413658470888073e+00 0.0000000000000000e+00  4.2031773720062082e+00 -6.1177318966199152e+00 0.0000000000000000e+00  2.7984295446948462e+00 -8.4988585703923949e+00 0.0000000000000000e+00  3.3312945271046801e+00 -7.1882454412479087e+00 0.0000000000000000e+00  1.9808019614087040e+00 -9.6244056271090361e+00 0.0000000000000000e+00  2.4726690058882803e+00 -8.4255324783998429e+00 0.0000000000000000e+00  1.2697586051293290e+00 -9.9801392638726476e+00 0.0000000000000000e+00  1.6871501670204048e+00 -8.9516925366682312e+00 0.0000000000000000e+00  7.2420989144939252e-01 -1.0368906644868700e+01 0.0000000000000000e+00  1.0220325809774493e+00 -9.5828163220760736e+00 0.0000000000000000e+00  3.3352307453332292e-01 -9.1884205476271585e+00 0.0000000000000000e+00  5.1476640902958282e-01 -8.6535897749345274e+00 0.0000000000000000e+00  1.2316358097682144e-01 -8.1622867578691700e+00 0.0000000000000000e+00  1.8529516403100771e-01 -7.8818923069959572e+00 0.0000000000000000e+00  2.1991085411432035e-02 -3.9620671979484148e+00 0.0000000000000000e+00  1.8236680760078058e-02 -3.8779751469087027e+00 0.0000000000000000e+00  -3.1498945035586224e-09 6.9017689340174009e-11 0.0000000000000000e+00  7.4421781222005405e-04 7.1247089531976666e-04 0.0000000000000000e+00  1.9447136407618750e-11 -6.0908084555617539e-19 0.0000000000000000e+00  -1.4478082380510797e+00 7.1182932204357634e+00 0.0000000000000000e+00  2.7393329597013238e-02 9.3095495924869844e+00 0.0000000000000000e+00  7.4194801906772557e-04 -7.5353106046082102e-04 0.0000000000000000e+00  2.0043556001893525e-01 1.1844304368271981e+01 0.0000000000000000e+00  -1.4494744228907923e+00 9.4164559096273770e+00 0.0000000000000000e+00  2.0661842700160443e-01 1.1108438403965383e+01 0.0000000000000000e+00  1.6328145375076500e-01 1.1116774227828479e+01 0.0000000000000000e+00  8.1091498607209422e-01 1.1022625989283924e+01 0.0000000000000000e+00  1.3846254468753535e-01 1.0142731152475553e+01 0.0000000000000000e+00  9.9572926070217060e-01 8.8602295855830633e+00 0.0000000000000000e+00  7.1691204751972215e-01 8.6023967375024473e+00 0.0000000000000000e+00  1.2569449772913781e+00 7.2099265748773700e+00 0.0000000000000000e+00  8.7889310438189527e-01 6.8375741962420822e+00 0.0000000000000000e+00  1.4052900264049648e+00 5.3780518584915473e+00 0.0000000000000000e+00  1.1185953436698650e+00 5.1710009877085872e+00 0.0000000000000000e+00  1.5679894596089998e+00 4.0181410605967045e+00 0.0000000000000000e+00  1.2488432155629670e+00 3.7897701369641106e+00 0.0000000000000000e+00  1.6358054761978305e+00 2.9263783794905427e+00 0.0000000000000000e+00  1.3951107034996162e+00 2.8376892411395769e+00 0.0000000000000000e+00  1.7548139697380059e+00 2.3270323858815440e+00 0.0000000000000000e+00  1.4478335945578433e+00 2.1605489534611801e+00 0.0000000000000000e+00  1.9020550352061523e+00 1.9582209032504720e+00 0.0000000000000000e+00  1.5535931006242676e+00 1.7483890554470556e+00 0.0000000000000000e+00  2.0281064100017741e+00 1.7892634635284097e+00 0.0000000000000000e+00  1.6888588017205164e+00 1.6101327282219924e+00 0.0000000000000000e+00  2.1241951820126634e+00 1.7177078533031411e+00 0.0000000000000000e+00  1.8038154289384516e+00 1.5824588722923556e+00 0.0000000000000000e+00  2.1929446865408004e+00 1.6698518140861212e+00 0.0000000000000000e+00  1.8900527317562885e+00 1.5750810593440923e+00 0.0000000000000000e+00  2.2136912826666943e+00 1.6257457612431043e+00 0.0000000000000000e+00  1.9498303428772901e+00 1.6021717788175247e+00 0.0000000000000000e+00  2.2109159595621928e+00 1.5884912967670235e+00 0.0000000000000000e+00  1.9622273021813865e+00 1.5995897113696023e+00 0.0000000000000000e+00  2.1944051106094946e+00 1.5335586883740666e+00 0.0000000000000000e+00  1.9518594216820804e+00 1.5648896864448181e+00 0.0000000000000000e+00  2.1564686603261256e+00 1.4644751298888279e+00 0.0000000000000000e+00  1.9283029215026379e+00 1.5275098769509798e+00 0.0000000000000000e+00  2.1094890780718027e+00 1.3956413540487791e+00 0.0000000000000000e+00  1.8836633158000982e+00 1.4718787730923968e+00 0.0000000000000000e+00  2.0639599519809280e+00 1.2965283067288851e+00 0.0000000000000000e+00  1.8304077181727654e+00 1.3704276772156732e+00 0.0000000000000000e+00  2.0044300018624699e+00 1.2122529498773418e+00 0.0000000000000000e+00  1.7788510683025960e+00 1.3069085396501889e+00 0.0000000000000000e+00  1.9428792204735859e+00 1.0685478648758218e+00 0.0000000000000000e+00  1.7134950148144319e+00 1.1661287459224392e+00 0.0000000000000000e+00  1.8722598617227773e+00 9.7842078356549333e-01 0.0000000000000000e+00  1.6462142723584181e+00 1.0894611820476305e+00 0.0000000000000000e+00  1.7906360439091773e+00 7.2760925929250453e-01 0.0000000000000000e+00  1.5700971002262241e+00 8.5522805917900668e-01 0.0000000000000000e+00  1.6840644895160404e+00 6.7687125688410277e-01 0.0000000000000000e+00  1.4827762229746297e+00 8.4162681914256454e-01 0.0000000000000000e+00  1.5523540626411343e+00 1.9103510990745926e-01 0.0000000000000000e+00  1.3709402508648501e+00 3.9392320714121215e-01 0.0000000000000000e+00  1.3788430078185046e+00 2.9657400109998383e-01 0.0000000000000000e+00  1.2333152148669495e+00 5.6145384458016800e-01 0.0000000000000000e+00  1.1019622595745646e+00 -6.3630631174946584e-01 0.0000000000000000e+00  1.0549781935803069e+00 -2.1518293281526221e-01 0.0000000000000000e+00  6.3451054799269480e-01 -7.9330670163141448e-01 0.0000000000000000e+00  7.7129177164050144e-01 -8.8398426196463514e-02 0.0000000000000000e+00  -4.6782318516307475e-01 -2.8936113330794194e-01 0.0000000000000000e+00  3.0113582618256396e-01 1.3720289686904872e+00 0.0000000000000000e+00  3.1242107563188850e+00 2.0619109821121868e+00 0.0000000000000000e+00  2.9391569796532035e+00 2.6069611675177260e+00 0.0000000000000000e+00  3.2813811657647531e+00 1.8695541384014434e+00 0.0000000000000000e+00  3.4775552183030856e+00 1.9498041785719844e+00 0.0000000000000000e+00  3.6586668516977396e+00 1.7433082352269929e+00 0.0000000000000000e+00  3.7330248833211455e+00 1.5382971935328407e+00 0.0000000000000000e+00  3.7057890177689337e+00 1.0619389536883519e+00 0.0000000000000000e+00  3.7160235077698704e+00 6.8475329823462661e-01 0.0000000000000000e+00  3.6488457489713082e+00 1.4956493005382221e-01 0.0000000000000000e+00  3.5209203160331821e+00 -4.6353460414571235e-01 0.0000000000000000e+00  3.6892755220950035e+00 -6.9157516762237947e-01 0.0000000000000000e+00  3.6634766265214309e+00 -1.2817086852265505e+00 0.0000000000000000e+00  6.1560012100669104e+00 1.8166442250433619e+00 0.0000000000000000e+00  7.3275194836242337e+00 2.8661667527020946e+00 0.0000000000000000e+00  7.6642221981021663e+00 2.6723476910971735e+00 0.0000000000000000e+00  7.6614589395087771e+00 1.9950075479343832e+00 0.0000000000000000e+00  7.4636132340747379e+00 1.0702050595671893e+00 0.0000000000000000e+00  7.1924063507144229e+00 1.7645263736882499e-01 0.0000000000000000e+00  6.8458876817624832e+00 -7.5554551830768302e-01 0.0000000000000000e+00  6.4155280539249313e+00 -1.6936434476780897e+00 0.0000000000000000e+00  5.8891733026308302e+00 -2.6727746519762388e+00 0.0000000000000000e+00  5.2558973227677104e+00 -3.6865975603406249e+00 0.0000000000000000e+00  4.5199810769903204e+00 -4.8816464330456473e+00 0.0000000000000000e+00  3.7141462827403915e+00 -5.9011184625586255e+00 0.0000000000000000e+00  2.8783013445257990e+00 -7.1609296425438771e+00 0.0000000000000000e+00  2.0627105161907933e+00 -7.8070064036725340e+00 0.0000000000000000e+00  1.3325002542857611e+00 -8.6141676419365059e+00 0.0000000000000000e+00  7.2660502993711407e-01 -7.9471993147629219e+00 0.0000000000000000e+00  3.0237083876169202e-01 -7.4178435569351366e+00 0.0000000000000000e+00  4.8348147815751773e-02 -3.7155611034957516e+00 0.0000000000000000e+00  2.5523763730068037e-03 1.3595101090671659e-03 0.0000000000000000e+00  5.5285015036106916e-02 9.1521349547870923e+00 0.0000000000000000e+00  2.5481010875787464e-03 -1.5506751560940741e-03 0.0000000000000000e+00  2.0826912968874400e-01 1.1642536917594978e+01 0.0000000000000000e+00  -1.3179827289966430e+00 8.7384761101031305e+00 0.0000000000000000e+00  2.3592112312114366e-01 1.0206638954694599e+01 0.0000000000000000e+00  1.6934141222497071e-01 7.7584891370628997e+00 0.0000000000000000e+00  7.1083842675678433e-01 6.6100842751670337e+00 0.0000000000000000e+00  8.4555482734799314e-01 4.8294577224827577e+00 0.0000000000000000e+00  1.0589495328841747e+00 3.6067569083323767e+00 0.0000000000000000e+00  1.1685086949287797e+00 2.6295082823535409e+00 0.0000000000000000e+00  1.2964997942501697e+00 2.0919367421901418e+00 0.0000000000000000e+00  1.3329556324448188e+00 1.5986024322527046e+00 0.0000000000000000e+00  1.4244452192442465e+00 1.4146768033752661e+00 0.0000000000000000e+00  1.5473568407397480e+00 1.4173593313244301e+00 0.0000000000000000e+00  1.6509565595126492e+00 1.4518037818658487e+00 0.0000000000000000e+00  1.7274181996034317e+00 1.5176652536129049e+00 0.0000000000000000e+00  1.7787708359166212e+00 1.5858576380357423e+00 0.0000000000000000e+00  1.7836009787026714e+00 1.5845675416519758e+00 0.0000000000000000e+00  1.7666387475520657e+00 1.5663811891020070e+00 0.0000000000000000e+00  1.7373066776053772e+00 1.5422304922244583e+00 0.0000000000000000e+00  1.6873303308797456e+00 1.4533360614409361e+00 0.0000000000000000e+00  1.6292027300093583e+00 1.3869792065241053e+00 0.0000000000000000e+00  1.5731232100624015e+00 1.2669300222445163e+00 0.0000000000000000e+00  1.5033335288191403e+00 1.1929628237441738e+00 0.0000000000000000e+00  1.4317643022257212e+00 9.7203810549155645e-01 0.0000000000000000e+00  1.3513357347210793e+00 9.7512111838276128e-01 0.0000000000000000e+00  1.2597334646143377e+00 5.6453055096754345e-01 0.0000000000000000e+00  1.1433935340982406e+00 7.7016400530518669e-01 0.0000000000000000e+00  1.0015482687527044e+00 5.5659580678426392e-02 0.0000000000000000e+00  8.1843735002741536e-01 3.3883495166367883e-01 0.0000000000000000e+00  5.3070380837310693e-01 2.0809595582960685e+00 0.0000000000000000e+00  2.2561656317865713e+00 1.7860731967622063e+00 0.0000000000000000e+00  2.0836013795865429e+00 2.3455852647865463e+00 0.0000000000000000e+00  2.4382643517487645e+00 1.6370711539455705e+00 0.0000000000000000e+00  2.5899734458413222e+00 1.6597050106146307e+00 0.0000000000000000e+00  2.7795305306912979e+00 1.4771726194722170e+00 0.0000000000000000e+00  2.9520371219166850e+00 1.4333371411858613e+00 0.0000000000000000e+00  3.0162082356519675e+00 1.1099874879310943e+00 0.0000000000000000e+00  2.9779835420600418e+00 6.7732180054953417e-01 0.0000000000000000e+00  2.9764408362793855e+00 2.5804894166507986e-01 0.0000000000000000e+00  2.8978009296289682e+00 -2.6507598475811972e-01 0.0000000000000000e+00  2.7605597106950945e+00 -9.3938544007456792e-01 0.0000000000000000e+00  2.9223828709790620e+00 -1.2384107751285292e+00 0.0000000000000000e+00  2.8859631599317441e+00 -1.9092675236012815e+00 0.0000000000000000e+00  5.3567610712335076e+00 1.1234664177893370e+00 0.0000000000000000e+00  6.5088477077023601e+00 2.1728193809906071e+00 0.0000000000000000e+00  6.8362778736533238e+00 2.0011686685749321e+00 0.0000000000000000e+00  6.8299851543217871e+00 1.3657585407409063e+00 0.0000000000000000e+00  6.6324641199823962e+00 5.7929723778736553e-01 0.0000000000000000e+00  6.3644366549025566e+00 -2.4229944515668650e-01 0.0000000000000000e+00  6.0249460287792189e+00 -1.0570449542386340e+00 0.0000000000000000e+00  5.6048788355580994e+00 -1.8960206581452601e+00 0.0000000000000000e+00  5.0932147845974134e+00 -2.7546823054349181e+00 0.0000000000000000e+00  4.4823001440828643e+00 -3.7998047396539931e+00 0.0000000000000000e+00  3.7755361823375870e+00 -4.7249893710543382e+00 0.0000000000000000e+00  3.0114431088838129e+00 -5.9445429747667093e+00 0.0000000000000000e+00  2.2280514701302336e+00 -6.6387930393971502e+00 0.0000000000000000e+00  1.4859978230064634e+00 -7.5758172120411036e+00 0.0000000000000000e+00  8.4092967276404818e-01 -7.1322927912105483e+00 0.0000000000000000e+00  3.5764856428187691e-01 -6.8528806962544015e+00 0.0000000000000000e+00  5.5453483912767582e-02 -3.4976955688676310e+00 0.0000000000000000e+00  5.3722052793833894e-03 1.9436687420366894e-03 0.0000000000000000e+00  6.4655380755834671e-02 8.9065802644510139e+00 0.0000000000000000e+00  5.3678229780634744e-03 -2.2569522222005067e-03 0.0000000000000000e+00  3.4736172545460409e-01 1.1368233219416352e+01 0.0000000000000000e+00  5.0454135338849426e-01 1.1091577835423365e+01 0.0000000000000000e+00  -1.1097576437382162e+00 7.9502642362192555e+00 0.0000000000000000e+00  3.5031449921268587e-01 7.9068817522117127e+00 0.0000000000000000e+00  2.1825424225252349e-01 5.8427733159092377e+00 0.0000000000000000e+00  7.0720219043081956e-01 4.6578608339340590e+00 0.0000000000000000e+00  8.0126127963825700e-01 3.3154706066904489e+00 0.0000000000000000e+00  9.7943265133940816e-01 2.4881045336921046e+00 0.0000000000000000e+00  1.0607303775786199e+00 1.9200854530740721e+00 0.0000000000000000e+00  1.1635061562063389e+00 1.5611001767233152e+00 0.0000000000000000e+00  1.1783906052763804e+00 1.2930533870534207e+00 0.0000000000000000e+00  1.2508946167924897e+00 1.2464509251898979e+00 0.0000000000000000e+00  1.3568034519803194e+00 1.3084541094235216e+00 0.0000000000000000e+00  1.4454778450512040e+00 1.4134787123287966e+00 0.0000000000000000e+00  1.5092692127174641e+00 1.5177364203427037e+00 0.0000000000000000e+00  1.5497278735941087e+00 1.5849577890933233e+00 0.0000000000000000e+00  1.5453605504451220e+00 1.5984819467114844e+00 0.0000000000000000e+00  1.5206418916512596e+00 1.5919089936439581e+00 0.0000000000000000e+00  1.4845890146790139e+00 1.5333711029722636e+00 0.0000000000000000e+00  1.4286834316137449e+00 1.4787957877246700e+00 0.0000000000000000e+00  1.3652352598666473e+00 1.3553766187905030e+00 0.0000000000000000e+00  1.3040764030633212e+00 1.3017770533033988e+00 0.0000000000000000e+00  1.2293823010003837e+00 1.0836424096355732e+00 0.0000000000000000e+00  1.1527987210811215e+00 1.0998353330674508e+00 0.0000000000000000e+00  1.0673818989320842e+00 7.0649824150111251e-01 0.0000000000000000e+00  9.7031990868158424e-01 9.4869302441483994e-01 0.0000000000000000e+00  8.4892638007990384e-01 2.7364987222973119e-01 0.0000000000000000e+00  7.0091569870671666e-01 6.1684277043889713e-01 0.0000000000000000e+00  5.1388675292578256e-01 2.5182869955740732e+00 0.0000000000000000e+00  1.6198104742982777e+00 1.5296322494610548e+00 0.0000000000000000e+00  1.4505287835137390e+00 2.0881988055178291e+00 0.0000000000000000e+00  1.7884657870400509e+00 1.3684572194006894e+00 0.0000000000000000e+00  1.9631311106478015e+00 1.4385749559133429e+00 0.0000000000000000e+00  2.1052034883781552e+00 1.2009610714083652e+00 0.0000000000000000e+00  2.2824142550422390e+00 1.1844706593801213e+00 0.0000000000000000e+00  2.4401859150340388e+00 1.0255596496565267e+00 0.0000000000000000e+00  2.4871513699615608e+00 7.4760916019388057e-01 0.0000000000000000e+00  2.4300499384849612e+00 2.7389166239507784e-01 0.0000000000000000e+00  2.4093799282926893e+00 -1.3397966991201388e-01 0.0000000000000000e+00  2.3132683959785885e+00 -7.2328717906461570e-01 0.0000000000000000e+00  2.1617289360427265e+00 -1.4724144611612688e+00 0.0000000000000000e+00  2.3107033881123114e+00 -1.8410173355506572e+00 0.0000000000000000e+00  2.2503988758583797e+00 -2.5558902031195427e+00 0.0000000000000000e+00  4.6805081287804526e+00 4.7187253162428738e-01 0.0000000000000000e+00  5.7981006787283507e+00 1.5248730017408831e+00 0.0000000000000000e+00  6.1056300917065851e+00 1.3850028030511197e+00 0.0000000000000000e+00  6.0860658523740332e+00 8.8109081279185164e-01 0.0000000000000000e+00  5.8806893333343533e+00 1.6438043944147163e-01 0.0000000000000000e+00  5.6063353507994558e+00 -5.4589041117760728e-01 0.0000000000000000e+00  5.2629388034416760e+00 -1.2654783608363112e+00 0.0000000000000000e+00  4.8422499251892832e+00 -1.9901289133303379e+00 0.0000000000000000e+00  4.3347734388219745e+00 -2.8906490909871914e+00 0.0000000000000000e+00  3.7344009965530160e+00 -3.6814497079279271e+00 0.0000000000000000e+00  3.0516465052680362e+00 -4.8202887106555039e+00 0.0000000000000000e+00  2.3230285844326120e+00 -5.5070757655454470e+00 0.0000000000000000e+00  1.6013212279392157e+00 -6.5098018881155300e+00 0.0000000000000000e+00  9.3741324959914241e-01 -6.2567075215860832e+00 0.0000000000000000e+00  4.1989587592202371e-01 -6.2020546617782513e+00 0.0000000000000000e+00  7.3167276804494932e-02 -3.2312870725025062e+00 0.0000000000000000e+00  9.0927965110990088e-03 2.4625788857636157e-03 0.0000000000000000e+00  7.9499182154251877e-02 8.6245189025066047e+00 0.0000000000000000e+00  9.0882864589368999e-03 -2.8796103502744474e-03 0.0000000000000000e+00  3.9966556460593783e-01 1.0838970587048307e+01 0.0000000000000000e+00  7.6987832572295400e-01 1.0839849898847946e+01 0.0000000000000000e