<?xml version="1.0"?>
<VTKFile type="UnstructuredGrid"  version="0.1"  >
<UnstructuredGrid>
<Piece  NumberOfPoints="1933" NumberOfCells="3640">
<Points>
<DataArray  type="Float64"  NumberOfComponents="3"  format="ascii">-0.293556973461557 -0.002762688087276209 0  4.706443055937482 -0.002677355788477004 0  4.706315009155307 7.497322692137099 0  -0.2936850150619073 7.497237371869195 0  9.706443118005149 -0.002592045815896005 0  9.706315040130566 7.49740799088901 0  14.70644322469265 -0.002506710572457113 0  14.70631507430849 7.497493317625079 0  19.70644337500197 -0.002421303236451275 0  19.70631510466845 7.49757871881404 0  24.70644355922992 -0.002335780464973017 0  24.70631512047454 7.49766423700571 0  29.70644376173525 -0.00225010241726697 0  29.70631510719414 7.49774991131093 0  34.70644396242832 -0.002164231846425496 0  34.70631504642252 7.497835778399806 0  39.70644413732953 -0.002078132956071795 0  39.70631491568134 7.497921873618661 0  44.70644425847162 -0.001991770281245681 0  44.7063146880207 7.498008232059074 0  49.70644429332095 -0.00190510766974396 0  49.70631433138733 7.498094889527611 0  54.70644420380704 -0.00181810736471673 0  54.70631380773233 7.498181883418194 0  59.70644394498363 -0.001730729159146361 0  59.70631307182664 7.498269253511938 0  64.70644346329038 -0.001642929580467391 0  64.70631206973478 7.498357042738275 0  69.70644269432984 -0.001554661056469356 0  69.70631073687599 7.498445297934603 0  74.70644156001694 -0.00146587100551348 0  74.70630899556912 7.49853407064291 0  79.7064399648735 -0.001376500781364473 0  79.70630675191981 7.49862341798141 0  84.70643779112065 -0.001286484382995941 0  84.70630389185931 7.498713403624876 0  89.70643489202763 -0.001195746811066104 0  89.70630027608695 7.498804098909595 0  94.70643108266277 -0.001104201916495836 0  94.70629573361667 7.498895584028862 0  99.70642612665561 -0.00101174955241422 0  99.70629005359838 7.498987949157549 0  104.7064197166683 -0.0009182718422798054 0  104.706282975159 7.4990812950438 0  109.7064114446746 -0.0008236285107887395 0  109.7062741753365 7.499175731925 0  114.7064007553235 -0.0007276517473470606 0  114.7062632561342 7.499271374130008 0  119.7063868706426 -0.0006301426440330621 0  119.70624973405 7.499368324511329 0  124.7063686653918 -0.0005308755407862128 0  124.7062330407419 7.499466636049512 0  129.7063444565245 -0.0004296278597350328 0  129.7062125549371 7.499566223857896 0  134.7063116424375 -0.0003262822109826415 0  134.7061877093684 7.499666672217388 0  139.7062660801402 -0.0002211244538724208 0  139.706158263471 7.499766825642029 0  144.7062010094129 -0.0001156724599230043 0  144.7061249211033 7.499863954175082 0  149.7061052034384 -1.499405059156029e-05 0  149.7060906291734 7.499952152361677 0  159.7061073738538 7.667200276097746e-19 0  164.7061582235239 2.800150449600948e-05 0  164.7061171297971 7.500026106952948 0  159.7060950831616 7.499995592858971 0  169.7062021847402 7.41002842550857e-05 0  169.7061390186041 7.50007355696857 0  174.706239306097 0.0001321401079933608 0  174.7061597136087 7.50013218634624 0  179.7062703614486 0.0001981867745731181 0  179.7061786826691 7.500198453084213 0  184.7062962788988 0.0002697194581044226 0  184.7061957154527 7.50027004428924 0  189.7063179223202 0.0003450873277682272 0  189.7062107990943 7.500345405535699 0  194.7063360284667 0.0004231806984288664 0  194.7062240306762 7.500423469374215 0  199.7063512042129 0.000503234227959627 0  199.7062355605593 7.500503488109859 0  204.706363943265 0.0005847074890229873 0  204.7062455583912 7.500584928161034 0  209.7063746464686 0.0006672108711866509 0  209.7062541940897 7.500667402161117 0  214.7063836402411 0.0007504584305878172 0  214.7062616280388 7.500750624541761 0  219.7063911917561 0.0008342370858149598 0  219.7062680066862 7.500834381909677 0  224.7063975209824 0.0009183859596904207 0  224.7062734611619 7.500918512882157 0  229.7064028101055 0.001002782175362913 0  229.7062781075142 7.50100289407771 0  234.7064072109023 0.001087330864600325 0  234.7062820477485 7.50108743019165 0  239.7064108505559 0.001171957997739808 0  239.7062853712201 7.501172046842063 0  244.7064138362967 0.001256605155017064 0  244.7062881561302 7.501256685338212 0  249.7064162591605 0.001341225672076786 0  249.7062904710019 7.501341298817697 0  254.7064181970901 0.001425781790358089 0  254.706292376078 7.501425849387696 0  259.7064197175419 0.001510242573327137 0  259.7062939246051 7.501510306032007 0  264.7064208797335 0.001594582440657632 0  264.7062951640056 7.501594643133831 0  269.7064217366121 0.001678780242277584 0  269.7062961369255 7.501678839530872 0  274.7064223366241 0.00176281885489848 0  274.7062968821486 7.501762878074852 0  279.7064227252993 0.001846685344471377 0  279.7062974353721 7.501846745718264 0  284.7064229466321 0.001930371806206442 0  284.7062978298017 7.501930434201429 0  289.7064230441339 0.002013877073057815 0  289.7062980965504 7.502013941461547 0  294.7064230612698 0.00209720956484344 0  294.7062982648059 7.502097273923686 0  299.7064230406668 0.002180391577243825 0  299.7062983618112 7.502180449842073 0  304.7064230208759 0.002263465048494508 0  304.7062984128683 7.502263503822617 0  309.7064230282991 0.002346497340924913 0  309.7062984420148 7.50234649272296 0  4.706186977045046 14.99732277570236 0  -0.2938130409545411 14.99723751647702 0  9.706186982584056 14.99740802643167 0  14.70618696687229 14.99749331824563 0  19.7061869197637 14.99757869386568 0  24.70618682963211 14.99766419198478 0  29.70618668279952 14.99774984859535 0  34.70618646295156 14.99783569798197 0  39.70618615059782 14.99792177362168 0  44.70618572253641 14.99800810901862 0  49.70618515127261 14.99809473846577 0  54.70618440434784 14.99818169773057 0  59.70618344354791 14.99826902466819 0  64.7061822239688 14.998356759768 0  69.70618069292632 14.99844494663301 0  74.70617878871329 14.99853363237889 0  79.70617643922839 14.99862286791174 0  84.7061735605549 14.99871270799424 0  89.70617005565217 14.99880321091753 0  94.70616581348973 14.99889443742662 0  99.7061607092436 14.99898644823246 0  104.7061546066724 14.99907929886981 0  109.7061473646232 14.99917302961724 0  114.7061388509376 14.9992676463404 0  119.7061289689805 14.99936308490368 0  124.7061177045479 14.99945914647097 0  129.7061052032537 14.99955538290555 0  134.7060918878822 14.99965090124847 0  139.7060786139717 14.99974405032129 0  144.7060668217207 14.99983197658332 0  149.7060585347631 14.99991017350891 0  164.7060714250841 15.00002133717896 0  159.7060640938497 14.9999786946461 0  169.7060789732241 15.00007342011732 0  174.7060871084714 15.00013373421678 0  179.7060955750988 15.00020047337507 0  184.7061040313114 15.00027204904461 0  189.7061121986976 15.0003472176377 0  194.7061198890377 15.00042504340091 0  199.7061269931048 15.00050483144081 0  204.7061334608579 15.00058606656388 0  209.706139282953 15.00066836529928 0  214.7061444762375 15.00075144033549 0  219.7061490732681 15.00083507473823 0  224.706153115105 15.00091910337187 0  229.706156646549 15.00100339947922 0  234.7061597131064 15.00108786492123 0  239.7061623591385 15.00117242301741 0  244.7061646268075 15.00125701325029 0  249.7061665555474 15.00134158732495 0  254.7061681818703 15.00142610623443 0  259.7061695393811 15.0015105380932 0  264.706170658912 15.00159485658074 0  269.706171568722 15.00167903989653 0  274.7061722947117 15.00176307017247 0  279.7061728606468 15.00184693332256 0  284.7061732883852 15.00193061933396 0  289.7061735981436 15.00201412301139 0  294.706173808917 15.00209744517235 0  299.7061739392404 15.0021805942409 0  304.7061740086804 15.0022635881119 0  309.7061740407118 15.00234645614176 0  4.706059115888193 22.49732287589645 0  -0.2939408975295894 22.49723774303518 0  9.706059108499305 22.49740803459964 0  14.70605906770458 22.4974932575057 0  19.70605898242867 22.49757857897973 0  24.70605884180893 22.49766403100407 0  29.70605863432651 22.49774964419468 0  34.70605834712727 22.49783544848841 0  39.7060579654785 22.49792147369566 0  44.70605747232794 22.49800774998811 0  49.70605684793799 22.49809430833178 0  54.70605606957416 22.49818118085256 0  59.70605511124612 22.49826840111254 0  64.70605394351928 22.49835600426561 0  69.70605253344189 22.49844402704288 0  74.70605084467257 22.49853250748927 0  79.70604883794732 22.49862148432098 0  84.70604647210457 22.49871099568995 0  89.70604370600925 22.49880107700467 0  94.70604050188386 22.49889175723673 0  99.70603683079126 22.49898305279052 0  104.7060326813183 22.49907495746409 0  109.7060280728518 22.49916742619789 0  114.7060230751117 22.49926034912096 0  119.7060178355381 22.499353510888 0  124.7060126151107 22.49944652882822 0  129.7060078300613 22.49953876333812 0  134.706004089805 22.49962919897158 0  139.7060022078986 22.49971631391149 0  144.7060031424537 22.49979800893728 0  149.7060078054786 22.49987179286316 0  164.7060113405477 22.50001453806977 0  159.7060123967302 22.49996169453873 0  169.7060106992266 22.50007238973025 0  174.7060108640945 22.5001355438879 0  179.7060119136405 22.50020348182884 0  184.7060137225641 22.50027540092711 0  189.7060160898085 22.50035049519939 0  194.7060188114692 22.50042806199979 0  199.7060217125929 22.50050752624152 0  204.7060246563245 22.50058843163743 0  209.7060275423992 22.50067042164714 0  214.7060303015301 22.50075321952525 0  219.7060328889124 22.50083661082649 0  224.7060352782484 22.5009204291558 0  229.7060374567688 22.50100454496481 0  234.7060394213115 22.5010888568939 0  239.706041175335 22.50117328513409 0  244.7060427266985 22.50125776635301 0  249.7060440860368 22.50134224982261 0  254.7060452655923 22.50142669447143 0  259.7060462783765 22.50151106665651 0  264.7060471375833 22.50159533850417 0  269.7060478561805 22.50167948671188 0  274.7060484466469 22.50176349173146 0  279.7060489208336 22.50184733727083 0  284.7060492899708 22.50193101005175 0  289.7060495648675 22.50201449974144 0  294.7060497564153 22.50209779892614 0  299.7060498765563 22.50218090290062 0  
[...]
<PointData  Vectors="v"> 
<DataArray  type="Float64"  Name="v"  NumberOfComponents="3" format="ascii">-3.6599548280066436e+00 1.6124240603413604e+00 0.0000000000000000e+00  -3.5144248094329766e+00 1.8413899839045087e+00 0.0000000000000000e+00  -2.8973168394730462e+00 1.6231014016996896e+00 0.0000000000000000e+00  -3.0044264120011137e+00 1.4525012027306905e+00 0.0000000000000000e+00  -3.2700181392689101e+00 2.3550320330899357e+00 0.0000000000000000e+00  -2.7517228566148897e+00 1.9888419404931827e+00 0.0000000000000000e+00  -2.9646101987862079e+00 3.0869194244895959e+00 0.0000000000000000e+00  -2.5076185461685419e+00 2.6293074619065462e+00 0.0000000000000000e+00  -2.6064301350802013e+00 3.7981256773550078e+00 0.0000000000000000e+00  -2.2027367216983920e+00 3.2618920459566429e+00 0.0000000000000000e+00  -2.2004681316511552e+00 4.6392553347431802e+00 0.0000000000000000e+00  -1.8454131426478944e+00 4.0318535348922619e+00 0.0000000000000000e+00  -1.8047579573225498e+00 5.3951906367824680e+00 0.0000000000000000e+00  -1.4411272723066950e+00 4.8034920961339838e+00 0.0000000000000000e+00  -1.6326524642078231e+00 5.8169731007687275e+00 0.0000000000000000e+00  -1.0476209346570564e+00 5.5615893415242663e+00 0.0000000000000000e+00  -1.1331065284235797e+00 6.6803434901160221e+00 0.0000000000000000e+00  -8.7840479632103063e-01 5.9345027872706861e+00 0.0000000000000000e+00  -3.0277294993311195e+00 3.9518233705928973e+00 0.0000000000000000e+00  -3.8291473370472845e-01 6.7978682496157026e+00 0.0000000000000000e+00  1.3450416669726803e+00 1.0499272274663291e+01 0.0000000000000000e+00  -2.2824935550284682e+00 3.9451532995652858e+00 0.0000000000000000e+00  -2.9272386697122513e-02 8.1955748205313412e+00 0.0000000000000000e+00  2.0854501805710961e+00 1.0262640300710100e+01 0.0000000000000000e+00  -3.1648768824582274e-01 7.5267020312837634e+00 0.0000000000000000e+00  7.0461159865876122e-01 7.9654023432437935e+00 0.0000000000000000e+00  1.9455644222221083e-02 7.8340155937662956e+00 0.0000000000000000e+00  4.0837078412859906e-01 7.3399465139029036e+00 0.0000000000000000e+00  8.0881378080713995e-01 8.8190116928527811e+00 0.0000000000000000e+00  7.3323137732719745e-01 7.6472417000413992e+00 0.0000000000000000e+00  1.8664888566450493e+00 1.0147409005300970e+01 0.0000000000000000e+00  1.5082470241272863e+00 8.5745653674158380e+00 0.0000000000000000e+00  3.1365018437579191e+00 1.1676574518697768e+01 0.0000000000000000e+00  2.5494212613894209e+00 9.7882297248787555e+00 0.0000000000000000e+00  4.5742487134054191e+00 1.3366973341829755e+01 0.0000000000000000e+00  3.8005727963522156e+00 1.1229470705300050e+01 0.0000000000000000e+00  6.1349063178241288e+00 1.5034005952664545e+01 0.0000000000000000e+00  5.2154604663140587e+00 1.2714108617547522e+01 0.0000000000000000e+00  7.7827976023077134e+00 1.6671409152691481e+01 0.0000000000000000e+00  6.7508946738493130e+00 1.4224655461945508e+01 0.0000000000000000e+00  9.4775856687965323e+00 1.8195540082392807e+01 0.0000000000000000e+00  8.3697611825298424e+00 1.5680924282332576e+01 0.0000000000000000e+00  1.1152390749801782e+01 1.9504876535347879e+01 0.0000000000000000e+00  1.0031715469808093e+01 1.7024052444731993e+01 0.0000000000000000e+00  1.2744966213918444e+01 2.0416434594751674e+01 0.0000000000000000e+00  1.1668630309599127e+01 1.8061742986442816e+01 0.0000000000000000e+00  1.4202839403272341e+01 2.1029821388733605e+01 0.0000000000000000e+00  1.3221619374916608e+01 1.8883542743683513e+01 0.0000000000000000e+00  1.5452900396598382e+01 2.0828920034310716e+01 0.0000000000000000e+00  1.4630213580844584e+01 1.8993387194580507e+01 0.0000000000000000e+00  1.6476821756287560e+01 2.0152606367895388e+01 0.0000000000000000e+00  1.5833646333211570e+01 1.8668689156823934e+01 0.0000000000000000e+00  1.7227289404946166e+01 1.8268277053422786e+01 0.0000000000000000e+00  1.6794774849690555e+01 1.7186431227059028e+01 0.0000000000000000e+00  1.7742161342737948e+01 1.5444387702500405e+01 0.0000000000000000e+00  1.7492932914879990e+01 1.4738427400009162e+01 0.0000000000000000e+00  1.8011301651834007e+01 1.1399495474086935e+01 0.0000000000000000e+00  1.7928435870478506e+01 1.1041273181853487e+01 0.0000000000000000e+00  1.8136912224959794e+01 4.7567286811691423e+00 0.0000000000000000e+00  1.8141641578235269e+01 4.6527420963131396e+00 0.0000000000000000e+00  1.8163558466420984e+01 -3.2714699604175317e-05 0.0000000000000000e+00  1.8163235000985047e+01 -3.7069371014538305e-04 0.0000000000000000e+00  1.8163563200134895e+01 2.1277760620686326e-19 0.0000000000000000e+00  1.3886090660964379e+01 -1.1526132983052245e+01 0.0000000000000000e+00  1.8132912193885396e+01 -5.1451462761696583e+00 0.0000000000000000e+00  1.8163249642955442e+01 2.9279524480911492e-04 0.0000000000000000e+00  1.2624394599616057e+01 -2.0106317919905006e+01 0.0000000000000000e+00  1.3905144723331675e+01 -1.8282846777868144e+01 0.0000000000000000e+00  1.0751913155686735e+01 -2.3970163015736784e+01 0.0000000000000000e+00  1.2702095986795710e+01 -2.1197862544986421e+01 0.0000000000000000e+00  9.6678735185916409e+00 -2.4792909801406783e+01 0.0000000000000000e+00  1.0884249716908853e+01 -2.3214865082275718e+01 0.0000000000000000e+00  8.4448613688508285e+00 -2.4347008155141591e+01 0.0000000000000000e+00  9.8492468190211930e+00 -2.2552235323883288e+01 0.0000000000000000e+00  7.4350715703132941e+00 -2.2827516486596600e+01 0.0000000000000000e+00  8.6719284966730008e+00 -2.1353158877393611e+01 0.0000000000000000e+00  6.4866719477962889e+00 -2.1044434606068819e+01 0.0000000000000000e+00  7.7066901585016669e+00 -1.9657382428115952e+01 0.0000000000000000e+00  5.6346887347935652e+00 -1.9034382157118205e+01 0.0000000000000000e+00  6.7989275875910566e+00 -1.7792490179807341e+01 0.0000000000000000e+00  4.7463983298498684e+00 -1.7221203570215319e+01 0.0000000000000000e+00  5.9856850815733944e+00 -1.5921774757634063e+01 0.0000000000000000e+00  4.0369124337630549e+00 -1.5484304239900275e+01 0.0000000000000000e+00  5.1346849714743676e+00 -1.4451940244448950e+01 0.0000000000000000e+00  3.4054601466489314e+00 -1.3969753011836477e+01 0.0000000000000000e+00  4.4603567407406812e+00 -1.3053305320093687e+01 0.0000000000000000e+00  2.7528523238724949e+00 -1.2755160509780060e+01 0.0000000000000000e+00  3.8625558517417335e+00 -1.1805721626560667e+01 0.0000000000000000e+00  2.1580773296593629e+00 -1.1695863479716762e+01 0.0000000000000000e+00  3.2425924082679014e+00 -1.0831873470756877e+01 0.0000000000000000e+00  1.6209104589949004e+00 -1.0773593503051494e+01 0.0000000000000000e+00  2.6789617232350871e+00 -9.9953646122337716e+00 0.0000000000000000e+00  1.1393977773291371e+00 -9.9294306058562771e+00 0.0000000000000000e+00  2.1718320828840376e+00 -9.2336602969575541e+00 0.0000000000000000e+00  7.2298187001019065e-01 -9.1258344735070072e+00 0.0000000000000000e+00  1.7195450988024208e+00 -8.5268927455125514e+00 0.0000000000000000e+00  3.6665784509139249e-01 -8.3677673683261737e+00 0.0000000000000000e+00  1.3313573439510962e+00 -7.8584162575259064e+00 0.0000000000000000e+00  5.4940423791277088e-02 -7.6263458819906305e+00 0.0000000000000000e+00  1.0024598829831242e+00 -7.1832892180191630e+00 0.0000000000000000e+00  -2.0890129857767059e-01 -6.9011103565970009e+00 0.0000000000000000e+00  7.1765278829213652e-01 -6.5292701264902000e+00 0.0000000000000000e+00  -4.2979149728782412e-01 -6.1857530161443348e+00 0.0000000000000000e+00  4.8000628796595401e-01 -5.8780621851962254e+00 0.0000000000000000e+00  -6.1456349191839021e-01 -5.4813120908882977e+00 0.0000000000000000e+00  2.8492347299345527e-01 -5.2272755787064726e+00 0.0000000000000000e+00  -7.6382085962456514e-01 -4.7601486052322697e+00 0.0000000000000000e+00  1.2540942090099658e-01 -4.5592483650796831e+00 0.0000000000000000e+00  -8.7077604268017428e-01 -4.0814240343046020e+00 0.0000000000000000e+00  1.3476038969702960e-03 -3.9434039985921352e+00 0.0000000000000000e+00  -9.4544904581945610e-01 -3.3273069592914335e+00 0.0000000000000000e+00  -8.1291641168319273e-02 -3.2380761669775255e+00 0.0000000000000000e+00  -9.7385867875546528e-01 -2.6967546081180993e+00 0.0000000000000000e+00  -1.3087571288141039e-01 -2.6756624133203522e+00 0.0000000000000000e+00  -9.6033382162719638e-01 -1.8788826607372131e+00 0.0000000000000000e+00  -1.3612628505215640e-01 -1.9223505036886086e+00 0.0000000000000000e+00  -8.9588990298411064e-01 -1.3976454279990400e+00 0.0000000000000000e+00  -9.6821014108494016e-02 -1.5143259710097501e+00 0.0000000000000000e+00  -7.6613625690561293e-01 -4.2987078682006391e-01 0.0000000000000000e+00  -1.1451991488043186e-02 -6.4943817058891185e-01 0.0000000000000000e+00  -5.2187304625379261e-01 5.0569310645675859e-02 0.0000000000000000e+00  1.4748585876575848e-01 -3.3180765953162367e-01 0.0000000000000000e+00  5.9225309048447264e-02 2.8484760461085268e-01 0.0000000000000000e+00  4.0342242886688889e-01 -6.2026452040613178e-01 0.0000000000000000e+00  -2.0113339289604846e+00 1.4614302743844572e+00 0.0000000000000000e+00  -2.1191656197564988e+00 1.2930256907590620e+00 0.0000000000000000e+00  -1.9025434278662732e+00 1.7691203736831322e+00 0.0000000000000000e+00  -1.7547110414788085e+00 2.2619602561523551e+00 0.0000000000000000e+00  -1.5084212403685040e+00 2.8034677494340556e+00 0.0000000000000000e+00  -1.2016470410346953e+00 3.4946939231397280e+00 0.0000000000000000e+00  -8.4269577303550047e-01 4.1965982248521563e+00 0.0000000000000000e+00  -4.3765325051505971e-01 4.9716174179062094e+00 0.0000000000000000e+00  -4.4742244901416033e-02 5.6812006583566266e+00 0.0000000000000000e+00  1.2275546175700387e-01 6.0568230817683535e+00 0.0000000000000000e+00  6.1399688756708282e-01 6.7985790915684507e+00 0.0000000000000000e+00  -1.2908365737239849e+00 3.7107416220801008e+00 0.0000000000000000e+00  3.0778593192390580e+00 1.0036006400505192e+01 0.0000000000000000e+00  1.6966304704970001e+00 7.7884918300830543e+00 0.0000000000000000e+00  1.3931974899209087e+00 7.1650517290709033e+00 0.0000000000000000e+00  1.7072807142626303e+00 7.4217113481382002e+00 0.0000000000000000e+00  2.4658786670098136e+00 8.2382762623479806e+00 0.0000000000000000e+00  3.4863525255222974e+00 9.3660090311309823e+00 0.0000000000000000e+00  4.7131774712901251e+00 1.0609175615636484e+01 0.0000000000000000e+00  6.0982274302373716e+00 1.1942039223454184e+01 0.0000000000000000e+00  7.5982745646304934e+00 1.3274486014366492e+01 0.0000000000000000e+00  9.1772123991587637e+00 1.4559595116159073e+01 0.0000000000000000e+00  1.0790962231609869e+01 1.5637231608131179e+01 0.0000000000000000e+00  1.2373000148917342e+01 1.6590920349335885e+01 0.0000000000000000e+00  1.3862211351202168e+01 1.6920343040722539e+01 0.0000000000000000e+00  1.5198975616231150e+01 1.6915720906771387e+01 0.0000000000000000e+00  1.6316421137736388e+01 1.5790025076220291e+01 0.0000000000000000e+00  1.7188774195100187e+01 1.3766916133677753e+01 0.0000000000000000e+00  1.7771181719735765e+01 1.0431435934907256e+01 0.0000000000000000e+00  1.8104104873069303e+01 4.4460178724163377e+00 0.0000000000000000e+00  1.8162460743503573e+01 -7.0458806354018464e-04 0.0000000000000000e+00  1.8092157378102907e+01 -4.9491597594522299e+00 0.0000000000000000e+00  1.8162478948327536e+01 5.7391917349340648e-04 0.0000000000000000e+00  1.7901136078171202e+01 -1.1959721797898341e+01 0.0000000000000000e+00  1.3743867539648717e+01 -1.9450730685202657e+01 0.0000000000000000e+00  1.2627150281332302e+01 -2.0530525174691718e+01 0.0000000000000000e+00  1.0877299733312670e+01 -2.1039821677638660e+01 0.0000000000000000e+00  9.9058241379609857e+00 -1.9616905885840698e+01 0.0000000000000000e+00  8.7802007883519266e+00 -1.8242655500656728e+01 0.0000000000000000e+00  7.8656172566822962e+00 -1.6457035170775875e+01 0.0000000000000000e+00  7.0014928794680822e+00 -1.4726464145316850e+01 0.0000000000000000e+00  6.2286774015271185e+00 -1.3199025174323017e+01 0.0000000000000000e+00  5.4155195937181766e+00 -1.2063420878200427e+01 0.0000000000000000e+00  4.7765445398343340e+00 -1.0928795138320661e+01 0.0000000000000000e+00  4.2116713636676435e+00 -9.9215874581658845e+00 0.0000000000000000e+00  3.6234232024347137e+00 -9.1680646012544678e+00 0.0000000000000000e+00  3.0895766960524966e+00 -8.4899229081818337e+00 0.0000000000000000e+00  2.6104995341803776e+00 -7.8650125152610091e+00 0.0000000000000000e+00  2.1851072403255500e+00 -7.2917008905613931e+00 0.0000000000000000e+00  1.8224633571262954e+00 -6.7046639007851576e+00 0.0000000000000000e+00  1.5178901395652584e+00 -6.1164440352574676e+00 0.0000000000000000e+00  1.2566057710920315e+00 -5.5354101349950238e+00 0.0000000000000000e+00  1.0416512459232365e+00 -4.9478564112930741e+00 0.0000000000000000e+00  8.6847553240867126e-01 -4.3331503556552997e+00 0.0000000000000000e+00  7.3048868540187173e-01 -3.7698539727239018e+00 0.0000000000000000e+00  6.2731728552536514e-01 -3.1268377039266357e+00 0.0000000000000000e+00  5.6539707273343465e-01 -2.6130735003433272e+00 0.0000000000000000e+00  5.3581138115520799e-01 -1.9274629676811250e+00 0.0000000000000000e+00  5.5100392332194237e-01 -1.5835070368263049e+00 0.0000000000000000e+00  6.0899992126178815e-01 -7.9194741393910140e-01 0.0000000000000000e+00  7.1500332636490527e-01 -5.7754534897722720e-01 0.0000000000000000e+00  8.9128797227050705e-01 -1.0198674475550715e+00 0.0000000000000000e+00  -7.0247683198855471e-01 1.2974364940169389e+00 0.0000000000000000e+00  -7.9451213795199638e-01 1.1584185622943750e+00 0.0000000000000000e+00  -5.9093121736972909e-01 1.6021348534865092e+00 0.0000000000000000e+00  -4.7588950376977890e-01 2.0362612946338330e+00 0.0000000000000000e+00  -3.2177086573702268e-01 2.4295996671914675e+00 0.0000000000000000e+00  -6.8440626114767686e-02 3.0301171029131346e+00 0.0000000000000000e+00  2.4544807535685331e-01 3.6544882752676662e+00 0.0000000000000000e+00  6.1040448865973707e-01 4.3609190698616196e+00 0.0000000000000000e+00  1.0203780298031628e+00 5.0903322970837079e+00 0.0000000000000000e+00  1.4159783071862349e+00 5.8066963407165391e+00 0.0000000000000000e+00  1.5820542324913192e+00 6.0656638668525034e+00 0.0000000000000000e+00  2.0679850775432453e+00 6.5723101322081181e+00 0.0000000000000000e+00  1.6273436609402167e-01 3.4774178860463905e+00 0.0000000000000000e+00  4.5442620250133876e+00 9.8526586005879491e+00 0.0000000000000000e+00  3.1737935196740619e+00 7.6234146448547762e+00 0.0000000000000000e+00  2.8683318867584666e+00 6.9598929256266988e+00 0.0000000000000000e+00  3.1706726186698888e+00 7.1157234313142617e+00 0.0000000000000000e+00  3.9095076418726258e+00 7.8565529579302336e+00 0.0000000000000000e+00  4.9030967711926419e+00 8.7958157849894967e+00 0.0000000000000000e+00  6.0946457728766292e+00 9.8966343228646636e+00 0.0000000000000000e+00  7.4369072622287131e+00 1.1063432838441171e+01 0.0000000000000000e+00  8.8856676861149850e+00 1.2238595280619725e+01 0.0000000000000000e+00  1.0401023551895555e+01 1.3270357469067200e+01 0.0000000000000000e+00  1.1940649989107637e+01 1.4285789168167423e+01 0.0000000000000000e+00  1.3431614573957059e+01 1.4760542138947370e+01 0.0000000000000000e+00  1.4816199444159567e+01 1.5006255384355526e+01 0.0000000000000000e+00  1.6023071030981598e+01 1.4209853079002071e+01 0.0000000000000000e+00  1.6999162020713769e+01 1.2597925118789025e+01 0.0000000000000000e+00  1.7688086445177884e+01 9.6641476207066912e+00 0.0000000000000000e+00  1.8095461536751579e+01 4.1617990491428936e+00 0.0000000000000000e+00  1.8161252986927916e+01 -1.0065001374109166e-03 0.0000000000000000e+00  1.8071573989153197e+01 -4.6040757769116061e+00 0.0000000000000000e+00  1.8161269272036886e+01 8.1979635491123237e-04 0.0000000000000000e+00  1.7669858775816817e+01 -1.1609756677225720e+01 0.0000000000000000e+00  1.7468601646655365e+01 -1.3304043391289433e+01 0.0000000000000000e+00  1.3435010524488614e+01 -1.8963998774658418e+01 0.0000000000000000e+00  1.2456909751099104e+01 -1.8494944912717315e+01 0.0000000000000000e+00  1.0815237154663357e+01 -1.8236801988547910e+01 0.0000000000000000e+00  9.9370734229846409e+00 -1.6613321335142871e+01 0.0000000000000000e+00  8.8895862199469295e+00 -1.5141776741228780e+01 0.0000000000000000e+00  8.0456861997962346e+00 -1.3479100626391340e+01 0.0000000000000000e+00  7.2426069509544968e+00 -1.2084618327866595e+01 0.0000000000000000e+00  6.5262281274358509e+00 -1.0884449679928309e+01 0.0000000000000000e+00  5.7644931750458728e+00 -1.0008973182064686e+01 0.0000000000000000e+00  5.1734130064356698e+00 -9.1101474332793391e+00 0.0000000000000000e+00  4.6538425215695547e+00 -8.3198021475183488e+00 0.0000000000000000e+00  4.1083541926665017e+00 -7.7213759067244085e+00 0.0000000000000000e+00  3.6144820977494723e+00 -7.1766066943443398e+00 0.0000000000000000e+00  3.1731113156265742e+00 -6.6821101261845692e+00 0.0000000000000000e+00  2.7831416261807895e+00 -6.1878063731024584e+00 0.0000000000000000e+00  2.4538498920755720e+00 -5.6851878924056471e+00 0.0000000000000000e+00  2.1809257247276124e+00 -5.1680295921367652e+00 0.0000000000000000e+00  1.9498584070007849e+00 -4.6489610059708779e+00 0.0000000000000000e+00  1.7637457631049740e+00 -4.0962517632933819e+00 0.0000000000000000e+00  1.6186049725913270e+00 -3.5848002747093139e+00 0.0000000000000000e+00  1.5075726958639866e+00 -2.9940336734962028e+00 0.0000000000000000e+00  1.4310976740108765e+00 -2.5407670924265240e+00 0.0000000000000000e+00  1.3945744819010732e+00 -1.9048218114621511e+00 0.0000000000000000e+00  1.3910695273843667e+00 -1.6248406846701824e+00 0.0000000000000000e+00  1.4294385679870132e+00 -9.0189034970972726e-01 0.0000000000000000e+00  1.5143908732364959e+00 -7.5094267658371439e-01 0.0000000000000000e+00  1.6372732317617866e+00 -1.3086173338377454e+00 0.0000000000000000e+00  5.0249169265064286e-01 1.1561832081935430e+00 0.0000000000000000e+00  4.3072019295776626e-01 1.0554806053588746e+00 0.0000000000000000e+00  5.9968286178881813e-01 1.4290320503471337e+00 0.0000000000000000e+00  7.2071344016534700e-01 1.8559932627222795e+00 0.0000000000000000e+00  8.4715305353080794e-01 2.1896789846805449e+00 0.0000000000000000e+00  1.0144272277093644e+00 2.6407353953016344e+00 0.0000000000000000e+00  1.2816189435220811e+00 3.1736830265526756e+00 0.0000000000000000e+00  1.6097606875073325e+00 3.8041569341340313e+00 0.0000000000000000e+00  1.9881761056367531e+00 4.4673828050574373e+00 0.0000000000000000e+00  2.4090840447723529e+00 5.2075758713419438e+00 0.0000000000000000e+00  2.8112815809974410e+00 5.8154887663963901e+00 0.0000000000000000e+00  2.9788900015474340e+00 5.8443651380633579e+00 0.0000000000000000e+00  3.4648828063487049e+00 6.3296336672712714e+00 0.0000000000000000e+00  1.5742221558352705e+00 3.2577713128946013e+00 0.0000000000000000e+00  5.9920662322632738e+00 9.6550940481567942e+00 0.0000000000000000e+00  4.6522503470053609e+00 7.4086652586453843e+00 0.0000000000000000e+00  4.3590467403739419e+00 6.6616471321935595e+00 0.0000000000000000e+00  4.6614801848241783e+00 6.7565802912427797e+00 0.0000000000000000e+00  5.3883269970702932e+00 7.3189221212857518e+00 0.0000000000000000e+00  6.3619864266300246e+00 8.1303645400382276e+00 0.0000000000000000e+00  7.5245789966515657e+00 9.0771254504915326e+00 0.0000000000000000e+00  8.8277910941878854e+00 1.0100628495333519e+01 0.0000000000000000e+00  1.0225892462250211e+01 1.1041296262293738e+01 0.0000000000000000e+00  1.1677793295703161e+01 1.2035100094470952e+01 0.0000000000000000e+00  1.3133055520403992e+01 1.2591225617730935e+01 0.0000000000000000e+00  1.4522867338836589e+01 1.3024374431745121e+01 0.0000000000000000e+00  1.5772918763471996e+01 1.2497758848468541e+01 0.0000000000000000e+00  1.6827139794180273e+01 1.1285631849078390e+01 0.0000000000000000e+00  1.7594159395962617e+01 8.7529692834063635e+00 0.0000000000000000e+00  1.8073776651191281e+01 3.8061018488733303e+00 0.0000000000000000e+00  1.8159659563030523e+01 -1.2745132205809078e-03 0.0000000000000000e+00  1.8048157139241866e+01 -4.1680462091888391e+00 0.0000000000000000e+00  1.8159674370289984e+01 1.0367786262157979e-03 0.0000000000000000e+00  1.7543825990468381e+01 -1.0835667342253737e+01 0.