<?xml version="1.0"?>
<VTKFile type="UnstructuredGrid"  version="0.1"  >
<UnstructuredGrid>
<Piece  NumberOfPoints="1933" NumberOfCells="3640">
<Points>
<DataArray  type="Float64"  NumberOfComponents="3"  format="ascii">-0.4752688402190514 -0.002032339793693457 0  4.524731176137005 -0.00196655120419373 0  4.524632451747675 7.498033467677824 0  -0.4753675559862859 7.497967696302579 0  9.524731215257871 -0.001900764343550455 0  9.524632456357008 7.498099243315647 0  14.52473127811061 -0.001834936698745223 0  14.52463245086794 7.498165063807972 0  19.52473135528009 -0.001769032952321172 0  19.52463242581493 7.498230962894424 0  24.52473143142082 -0.001703024308323204 0  24.52463236899717 7.498296968223523 0  29.52473148760327 -0.001636887042751498 0  29.52463226551367 7.498363102734642 0  34.52473150232997 -0.001570601029816708 0  34.52463209777556 7.49842938602053 0  39.52473145173194 -0.001504148499289675 0  39.52463184537853 7.498495835472188 0  44.52473130925215 -0.00143751307546743 0  44.52463148479886 7.498562467166928 0  49.52473104498429 -0.001370679075830228 0  49.52463098890622 7.498629296516778 0  54.5247306247452 -0.001303631029707396 0  54.52463032629196 7.4986963387089 0  59.5247300089006 -0.001236353380349132 0  59.52462946040454 7.498763608966852 0  64.52472915092089 -0.001168830343808488 0  64.52462834847293 7.498831122651787 0  69.52472799560672 -0.00110104590978762 0  69.52462694018404 7.498898895209938 0  74.5247264768862 -0.001032983981728553 0  74.52462517606487 7.498966941957304 0  79.52472451503257 -0.0009646286665067483 0  79.52462298550171 7.49903527767249 0  84.52472201308099 -0.0008959647402137239 0  84.5246202843108 7.49910391593945 0  89.52471885210782 -0.0008269783401374666 0  89.5246169717569 7.499172868134208 0  94.52471488485729 -0.0007576579734626001 0  94.52461292691176 7.499242141865484 0  99.52470992690399 -0.0006879960103374858 0  99.52460800426739 7.499311738523454 0  104.5247037440467 -0.0006179909867922424 0  104.5246020286231 7.499381649293686 0  109.5246960337902 -0.0005476513800287981 0  109.5245947895412 7.499451848416052 0  114.524686397343 -0.0004770022582468651 0  114.524586036328 7.499522281335242 0  119.5246742961057 -0.0004060978615656883 0  119.5245754759525 7.499592843153558 0  124.5246589824451 -0.0003350469265702512 0  124.5245627793733 7.499663338380737 0  129.5246393875548 -0.0002640662002339418 0  129.5245476079152 7.499733404276028 0  134.5246139379572 -0.0001935976054978286 0  134.5245296831893 7.499802362997392 0  139.5245802557673 -0.0001245708431130472 0  139.5245089452854 7.499868934088697 0  144.5245346801065 -5.899679302955746e-05 0  144.524485876638 7.499930669564495 0  149.5244715569301 -1.277217152112806e-06 0  149.5244620967817 7.499982807940903 0  159.5244717418524 5.110460521394274e-19 0  164.5245244403401 4.423116136163649e-05 0  164.5244812174791 7.50004667332585 0  159.5244607046731 7.500005603983427 0  169.5245642860867 9.709194115937566e-05 0  169.5245016108125 7.500098629793632 0  174.5245950915587 0.0001553655309905543 0  174.5245202036689 7.500156454227661 0  179.5246193198913 0.0002169667645654091 0  179.5245365471432 7.50021775953542 0  184.5246386447541 0.0002806441161323959 0  184.5245506550829 7.500281229439851 0  189.5246542329207 0.0003456401479848033 0  189.524562716663 7.50034607909467 0  194.524666916327 0.0004114815049781 0  194.5245729744962 7.500411816715943 0  199.5246773020402 0.0004778613542263444 0  199.5245816719292 7.500478122236545 0  204.5246858433284 0.0005445740602320909 0  204.5245890318649 7.500544780798259 0  209.5246928859755 0.0006114780226481654 0  209.5245952501085 7.500611644547615 0  214.5246986988672 0.0006784737540792921 0  214.5246004951574 7.500678609812025 0  219.524703494564 0.0007454904022713942 0  219.5246049105821 7.500745602941076 0  224.5247074434499 0.0008124771107864253 0  224.5246086182115 7.500812571194316 0  229.5247106837015 0.0008793972621465311 0  229.524611721337 7.500879476670717 0  234.5247133284916 0.0009462245111535373 0  234.5246143076256 7.500946292138608 0  239.5247154713243 0.001012939978191216 0  239.5246164516548 7.501012998098294 0  244.5247171900843 0.001079530226831632 0  244.5246182170733 7.501079580675676 0  249.5247185501822 0.001145985795469714 0  249.5246196584283 7.501146030099399 0  254.5247196070562 0.001212300139767974 0  254.5246208227086 7.501212339607063 0  259.524720408205 0.001278468898221564 0  259.5246217506485 7.501278504685082 0  264.5247209948789 0.001344489431857158 0  264.5246224778307 7.501344522587104 0  269.5247214035107 0.001410360619501715 0  269.5246230356152 7.501410392106227 0  274.5247216669438 0.001476082917543388 0  274.5246234519118 7.501476113601517 0  279.5247218154751 0.001541658721180301 0  279.524623751803 7.501541689302471 0  284.5247218776938 0.001607093094385229 0  284.5246239580114 7.501607123936366 0  289.5247218810308 0.001672394965555014 0  289.524624091206 7.501672425740087 0  294.5247218518173 0.001737578899702568 0  294.5246241701442 7.501737607921648 0  299.5247218144661 0.001802667500018536 0  299.5246242116825 7.501802690611388 0  304.5247217890372 0.001867694166110534 0  304.5246242307829 7.501867703279738 0  309.5247217858341 0.001932704623478959 0  309.5246242408361 7.501932687608933 0  4.524533785072482 14.99803349204595 0  -0.4754662171433152 14.99796778363057 0  9.524533770860325 14.99809922670524 0  14.52453373001162 14.99816502117534 0  19.52453365252368 14.998230903008 0  24.52453352777904 14.99829689542949 0  29.52453334385276 14.99836301839868 0  34.52453308701695 14.99842928949447 0  39.52453274136256 14.9984957246719 0  44.52453228845865 14.99856233886912 0  49.5245317069956 14.998629146455 0  54.52453097238126 14.99869616151678 0  59.52453005627468 14.9987633979884 0  64.52452892605298 14.99883086961356 0  69.52452754421732 14.99889858972542 0  74.52452586775644 14.99896657080369 0  79.5245238475072 14.99903482373916 0  84.52452142758696 14.9991033566868 0  89.52451854503485 14.99917217330901 0  94.52451512990241 14.99924127007899 0  99.52451110620908 14.99931063209093 0  104.5245063944616 14.99938022644635 0  109.5245009168795 14.99944999164701 0  114.5244946071273 14.99951982036324 0  119.5244874272315 14.9995895312398 0  124.5244793952972 14.99965882283717 0  129.5244706279662 14.99972719950422 0  134.5244613993714 14.99979385654813 0  139.524452209023 14.99985751746421 0  144.524443825046 14.99991625461429 0  149.5244372123853 14.99996748848403 0  164.5244416691853 15.00005392476811 0  159.5244358404132 15.00001050404705 0  169.5244487614127 15.00010487088248 0  174.5244566587318 15.00016130839981 0  179.5244647283964 15.00022143996617 0  184.524472524472 15.00028401684819 0  189.5244797892293 15.00034820882421 0  194.5244863990252 15.0004134649675 0  199.5244923152159 15.00047941576584 0  204.5244975491713 15.00054580973984 0  209.5245021394766 15.00061247316446 0  214.5245061378118 15.0006792844118 0  219.52450960054 15.00074615740461 0  224.5245125839029 15.0008130307524 0  229.5245151414276 15.00087986046936 0  234.5245173226653 15.00094661498807 0  239.5245191727111 15.00101327167747 0  244.5245207321709 15.0010798143723 0  249.5245220373718 15.00114623160358 0  254.5245231206942 15.0012125153331 0  259.5245240109523 15.0012786600665 0  264.5245247337796 15.00134466226741 0  269.5245253119949 15.00141052002766 0  274.524525765935 15.00147623297244 0  279.5245261137535 15.00154180239582 0  284.5245263716975 15.00160723163278 0  289.5245265543917 15.00167252667617 0  294.5245266751983 15.00173769703946 0  299.5245267467715 15.00180275685209 0  304.5245267820068 15.00186772618894 0  309.5245267957309 15.00193263281402 0  4.524435293477262 22.49803349134903 0  -0.4755647055781733 22.49796789157179 0  9.524435272831102 22.49809915411754 0  14.52443522058892 22.49816489946632 0  19.52443512718751 22.49823074529585 0  24.52443498391859 22.4982967079658 0  29.52443478199096 22.49836280252461 0  34.52443451190223 22.49842904296138 0  39.52443416301865 22.49849544245842 0  44.52443372329431 22.4985620136073 0  49.52443317908366 22.49862876855104 0  54.52443251502132 22.49869571902018 0  59.5244317139636 22.49876287623233 0  64.52443075700511 22.49883025061983 0  69.52442962360449 22.49889785133657 0  74.52442829187973 22.49896568547158 0  79.52442673916634 22.49903375685981 0  84.52442494297961 22.49910206432288 0  89.52442288258656 22.49917059908539 0  94.52442054148086 22.49923934098036 0  99.52441791116685 22.49930825286031 0  104.5244149967853 22.49937727234489 0  109.5244118252286 22.49944629964126 0  114.5244084564034 22.49951517968559 0  119.5244049980328 22.49958367639171 0  124.5244016234822 22.49965143676648 0  129.5243985899312 22.49971794418071 0  134.5243962499445 22.49978246589559 0  139.5243950425031 22.49984401612928 0  144.5243954416165 22.4999013944414 0  149.5243978424569 22.49995343621525 0  164.5243942493882 22.50006113931858 0  159.5243963403663 22.50001456751103 0  169.5243935488708 22.50011265392198 0  174.5243941611802 22.50016842709996 0  179.5243958047884 22.50022751904437 0  184.5243981412999 22.50028905411542 0  189.5244008718693 22.50035233275369 0  194.524403766983 22.50041683128949 0  199.5244066646605 22.50048216854293 0  204.524409458039 22.50054807001784 0  209.5244120815514 22.50061433850355 0  214.5244144990106 22.5006808320872 0  219.5244166943581 22.50074744833526 0  224.5244186648708 22.50081411308162 0  229.5244204163397 22.500880772501 0  234.5244219597278 22.50094738748241 0  239.524423308895 22.50101392960659 0  244.5244244790761 22.50108037824835 0  249.5244254858801 22.5011467184776 0  254.5244263446471 22.50121293953778 0  259.5244270700471 22.50127903375247 0  264.5244276758434 22.50134499575859 0  269.5244281747674 22.50141082199774 0  274.5244285784763 22.50147651041831 0  279.5244288975846 22.50154206035219 0  284.5244291417769 22.50160747253265 0  289.5244293200372 22.50167274921187 0  294.5244294410589 22.50173789431741 0  299.5244295139331 22.5018029135
[...]
<PointData  Vectors="v"> 
<DataArray  type="Float64"  Name="v"  NumberOfComponents="3" format="ascii">-4.5847081858358898e+00 -3.0421945093107809e+00 0.0000000000000000e+00  -4.7826595716428644e+00 -2.5304241859100611e+00 0.0000000000000000e+00  -4.0778834665708086e+00 -2.2336544489349861e+00 0.0000000000000000e+00  -3.9190183524140894e+00 -2.8033180063733738e+00 0.0000000000000000e+00  -4.9654522016066185e+00 -2.3729894443023221e+00 0.0000000000000000e+00  -4.2755142172669789e+00 -2.0989697219683050e+00 0.0000000000000000e+00  -5.0384874910827406e+00 -2.2519677390237929e+00 0.0000000000000000e+00  -4.4578599486370516e+00 -2.1428439096142049e+00 0.0000000000000000e+00  -5.0083214298991265e+00 -1.7189540514133053e+00 0.0000000000000000e+00  -4.5302215649355757e+00 -1.7645488428512777e+00 0.0000000000000000e+00  -5.0190560634145776e+00 -1.4007296656708974e+00 0.0000000000000000e+00  -4.4992413870470305e+00 -1.3848926175031968e+00 0.0000000000000000e+00  -4.9540622595082091e+00 -8.5350507635466299e-01 0.0000000000000000e+00  -4.5094265725878495e+00 -9.5130590374038770e-01 0.0000000000000000e+00  -4.8288532944458575e+00 -2.5693905808386597e-01 0.0000000000000000e+00  -4.4439174627789431e+00 -4.4462185822007777e-01 0.0000000000000000e+00  -5.0091905729308310e+00 -7.9934463970191660e-02 0.0000000000000000e+00  -4.3184280471443408e+00 1.9098953901724322e-01 0.0000000000000000e+00  -4.9758876099033369e+00 4.0094036775547925e-01 0.0000000000000000e+00  -4.4990880600482512e+00 3.5159883162788924e-01 0.0000000000000000e+00  -7.5507618147083093e+00 -2.9764360639938143e+00 0.0000000000000000e+00  -4.4665686331534911e+00 8.8724596174574499e-01 0.0000000000000000e+00  -8.7458864741693052e+00 -4.2073341004508116e+00 0.0000000000000000e+00  -7.0418016998086994e+00 -2.4134244510405165e+00 0.0000000000000000e+00  -9.0909593546148670e+00 -4.0725731245084464e+00 0.0000000000000000e+00  -8.2383383234445215e+00 -3.5520244493532989e+00 0.0000000000000000e+00  -9.0824747526382410e+00 -3.3486426283086752e+00 0.0000000000000000e+00  -8.5865490631841332e+00 -3.3572419512900771e+00 0.0000000000000000e+00  -8.8614919005186881e+00 -2.3217641177403707e+00 0.0000000000000000e+00  -8.5824410348381690e+00 -2.6474907808617565e+00 0.0000000000000000e+00  -8.5532297153725665e+00 -1.1970390401444082e+00 0.0000000000000000e+00  -8.3679927229375597e+00 -1.6528985842128601e+00 0.0000000000000000e+00  -8.1582202353891500e+00 7.5566898922344852e-03 0.0000000000000000e+00  -8.0675435288657873e+00 -5.7626933088797916e-01 0.0000000000000000e+00  -7.6682067184020744e+00 1.2076781026903505e+00 0.0000000000000000e+00  -7.6819165147978969e+00 4.8304226701735409e-01 0.0000000000000000e+00  -7.0753881897500897e+00 2.4791396279362727e+00 0.0000000000000000e+00  -7.2041770417438284e+00 1.6017769811681757e+00 0.0000000000000000e+00  -6.3707948932947858e+00 3.7874669959341714e+00 0.0000000000000000e+00  -6.6253111021710813e+00 2.7455857893334530e+00 0.0000000000000000e+00  -5.5575191613272441e+00 5.1454377691068629e+00 0.0000000000000000e+00  -5.9376739934863965e+00 3.9425373346538222e+00 0.0000000000000000e+00  -4.6695905731238110e+00 6.4680633262369573e+00 0.0000000000000000e+00  -5.1444134313471643e+00 5.1564286727621509e+00 0.0000000000000000e+00  -3.7478139246156466e+00 7.8536764169253912e+00 0.0000000000000000e+00  -4.2807040143156057e+00 6.4937599358036762e+00 0.0000000000000000e+00  -2.8362418285143414e+00 8.9107487059438153e+00 0.0000000000000000e+00  -3.3848418412877170e+00 7.5715967536813391e+00 0.0000000000000000e+00  -2.0042666897166463e+00 1.0029381248180172e+01 0.0000000000000000e+00  -2.5074243647181857e+00 8.8093351479695254e+00 0.0000000000000000e+00  -1.2830762806785545e+00 1.0346060606979457e+01 0.0000000000000000e+00  -1.7079963437531116e+00 9.3028026368254189e+00 0.0000000000000000e+00  -7.3099092753642858e-01 1.0700449985864303e+01 0.0000000000000000e+00  -1.0332409315792750e+00 9.9048903802378661e+00 0.0000000000000000e+00  -3.3638687711333570e-01 9.4508540263907523e+00 0.0000000000000000e+00  -5.1984924461745352e-01 8.9105943259316742e+00 0.0000000000000000e+00  -1.2415587838463220e-01 8.3720932418977014e+00 0.0000000000000000e+00  -1.8699839589460876e-01 8.0891869509048639e+00 0.0000000000000000e+00  -2.2175555226227731e-02 4.1073270712599346e+00 0.0000000000000000e+00  -1.8437419526621035e-02 4.0225095038986671e+00 0.0000000000000000e+00  -1.0640192236983364e-05 -7.3484210633450748e-05 0.0000000000000000e+00  -7.3677896471981369e-04 -8.3280278933087583e-04 0.0000000000000000e+00  -1.6007470212494437e-14 4.3264613629684458e-19 0.0000000000000000e+00  1.5187895267280134e+00 -7.3396111533389412e+00 0.0000000000000000e+00  -2.7324738086387922e-02 -9.6379638705255601e+00 0.0000000000000000e+00  -7.0383652832195585e-04 6.5753225216313570e-04 0.0000000000000000e+00  -1.9049581719075065e-01 -1.2194371995109721e+01 0.0000000000000000e+00  1.5213929830282986e+00 -9.6758905087073508e+00 0.0000000000000000e+00  -1.9288364938458596e-01 -1.1486027333363598e+01 0.0000000000000000e+00  -1.5143742697655649e-01 -1.1500928111262528e+01 0.0000000000000000e+00  -8.1887684542614203e-01 -1.1462663020347721e+01 0.0000000000000000e+00  -1.2180361086761422e-01 -1.0551152524231021e+01 0.0000000000000000e+00  -1.0093761207937009e+00 -9.2935749923939905e+00 0.0000000000000000e+00  -7.2095263534785214e-01 -9.0281592767200962e+00 0.0000000000000000e+00  -1.2782872745472569e+00 -7.6298067639463234e+00 0.0000000000000000e+00  -8.8760536566713311e-01 -7.2468637562918277e+00 0.0000000000000000e+00  -1.4307284318487279e+00 -5.7568528320542596e+00 0.0000000000000000e+00  -1.1339843556076741e+00 -5.5445911442577573e+00 0.0000000000000000e+00  -1.5995817676054553e+00 -4.3534035169082559e+00 0.0000000000000000e+00  -1.2673147143106609e+00 -4.1167384451375808e+00 0.0000000000000000e+00  -1.6709592703968961e+00 -3.2096939073856041e+00 0.0000000000000000e+00  -1.4187284331793639e+00 -3.1165853395259822e+00 0.0000000000000000e+00  -1.7958122412983482e+00 -2.5648490072251553e+00 0.0000000000000000e+00  -1.4740054930223037e+00 -2.3905101141953367e+00 0.0000000000000000e+00  -1.9505465248514089e+00 -2.1557252993117788e+00 0.0000000000000000e+00  -1.5846106658655914e+00 -1.9355590908716520e+00 0.0000000000000000e+00  -2.0848248072451598e+00 -1.9559650542000049e+00 0.0000000000000000e+00  -1.7263754639352473e+00 -1.7653940573342379e+00 0.0000000000000000e+00  -2.1901696730821021e+00 -1.8637240873496821e+00 0.0000000000000000e+00  -1.8485666350707639e+00 -1.7154844986411935e+00 0.0000000000000000e+00  -2.2690793226695996e+00 -1.8041274578631765e+00 0.0000000000000000e+00  -1.9430732040206913e+00 -1.6950084822305933e+00 0.0000000000000000e+00  -2.2991392004328528e+00 -1.7551616587267471e+00 0.0000000000000000e+00  -2.0120283646887951e+00 -1.7185055325578753e+00 0.0000000000000000e+00  -2.3051735037963010e+00 -1.7181529717208170e+00 0.0000000000000000e+00  -2.0327595620033776e+00 -1.7169197260719824e+00 0.0000000000000000e+00  -2.2967461353602663e+00 -1.6659076772317387e+00 0.0000000000000000e+00  -2.0302277711113166e+00 -1.6859918339727322e+00 0.0000000000000000e+00  -2.2652008338417517e+00 -1.5993317580750319e+00 0.0000000000000000e+00  -2.0137880736030924e+00 -1.6536537024323139e+00 0.0000000000000000e+00  -2.2231219107291191e+00 -1.5318036330839717e+00 0.0000000000000000e+00  -1.9745771656817950e+00 -1.6015558991462355e+00 0.0000000000000000e+00  -2.1813879857146650e+00 -1.4297314799001253e+00 0.0000000000000000e+00  -1.9252700931553901e+00 -1.4988010073920848e+00 0.0000000000000000e+00  -2.1235988397207941e+00 -1.3402739827520826e+00 0.0000000000000000e+00  -1.8765595705262712e+00 -1.4331700303176234e+00 0.0000000000000000e+00  -2.0624610615098593e+00 -1.1838570521915079e+00 0.0000000000000000e+00  -1.8120107391156499e+00 -1.2816712280480527e+00 0.0000000000000000e+00  -1.9904354485292617e+00 -1.0823904347218594e+00 0.0000000000000000e+00  -1.7442047384970167e+00 -1.1963727563296658e+00 0.0000000000000000e+00  -1.9058064842217752e+00 -8.0728034846142849e-01 0.0000000000000000e+00  -1.6657749669333990e+00 -9.4025699388972028e-01 0.0000000000000000e+00  -1.7937401784176592e+00 -7.4636757234908835e-01 0.0000000000000000e+00  -1.5745105599074336e+00 -9.2016667824632647e-01 0.0000000000000000e+00  -1.6543829382583712e+00 -2.2089686443998749e-01 0.0000000000000000e+00  -1.4563188622204093e+00 -4.3612293932188123e-01 0.0000000000000000e+00  -1.4702715715802428e+00 -3.3012062597608738e-01 0.0000000000000000e+00  -1.3100807769569747e+00 -6.1164274791787177e-01 0.0000000000000000e+00  -1.1759594456950737e+00 6.7172717692119999e-01 0.0000000000000000e+00  -1.1203727204936591e+00 2.2351910429322422e-01 0.0000000000000000e+00  -6.7808360773434917e-01 8.4353140611549438e-01 0.0000000000000000e+00  -8.1816280330968261e-01 9.2390879603728798e-02 0.0000000000000000e+00  4.9760903635314307e-01 3.0971161541899672e-01 0.0000000000000000e+00  -3.1713446481191093e-01 -1.4629546369551774e+00 0.0000000000000000e+00  -3.3489362829994063e+00 -1.9961555524695285e+00 0.0000000000000000e+00  -3.1621035328514724e+00 -2.5213649596753140e+00 0.0000000000000000e+00  -3.5063000028309497e+00 -1.8039183252921558e+00 0.0000000000000000e+00  -3.7013527972546760e+00 -1.8710410527700392e+00 0.0000000000000000e+00  -3.8804370327812916e+00 -1.6581097052930258e+00 0.0000000000000000e+00  -3.9489798502681888e+00 -1.4339957928873313e+00 0.0000000000000000e+00  -3.9135774877359779e+00 -9.3856736622723735e-01 0.0000000000000000e+00  -3.9192358723849323e+00 -5.4531403979349469e-01 0.0000000000000000e+00  -3.8494981615236648e+00 1.1423928999348048e-04 0.0000000000000000e+00  -3.7200230518737811e+00 6.2098888615008685e-01 0.0000000000000000e+00  -3.8983326683043442e+00 8.3815952318378595e-01 0.0000000000000000e+00  -3.8640258218719521e+00 1.4458215299424502e+00 0.0000000000000000e+00  -6.4320911693228107e+00 -1.7617699851218969e+00 0.0000000000000000e+00  -7.6223512408750311e+00 -2.8354617150076686e+00 0.0000000000000000e+00  -7.9696056298984095e+00 -2.6539367739586508e+00 0.0000000000000000e+00  -7.9665293032474462e+00 -1.9717338547619758e+00 0.0000000000000000e+00  -7.7565897660385019e+00 -1.0231819179959232e+00 0.0000000000000000e+00  -7.4628375569319250e+00 -9.1029953732688115e-02 0.0000000000000000e+00  -7.0857495610645858e+00 8.9222570702713555e-01 0.0000000000000000e+00  -6.6199457204318586e+00 1.8862529300188251e+00 0.0000000000000000e+00  -6.0565344010605324e+00 2.9207598996058906e+00 0.0000000000000000e+00  -5.3873344607584954e+00 3.9812013731225862e+00 0.0000000000000000e+00  -4.6186751994869013e+00 5.2145283332445045e+00 0.0000000000000000e+00  -3.7846551476865224e+00 6.2490533969278896e+00 0.0000000000000000e+00  -2.9257967287816782e+00 7.5170939336510632e+00 0.0000000000000000e+00  -2.0923846568670301e+00 8.1378598108485516e+00 0.0000000000000000e+00  -1.3492724891809753e+00 8.9222968125647402e+00 0.0000000000000000e+00  -7.3467236470546815e-01 8.1956806675517573e+00 0.0000000000000000e+00  -3.0532964738762847e-01 7.6204653001016887e+00 0.0000000000000000e+00  -4.8741630431328876e-02 3.8586163004167457e+00 0.0000000000000000e+00  -2.4753725755688434e-03 -1.5834966396584039e-03 0.0000000000000000e+00  -5.5485365540321338e-02 -9.4797693943241494e+00 0.0000000000000000e+00  -2.4344021328249568e-03 1.2892898339272089e-03 0.0000000000000000e+00  -2.0913555392472286e-01 -1.2010177289987240e+01 0.0000000000000000e+00  1.3897974769543546e+00 -9.0330815301926304e+00 0.0000000000000000e+00  -2.2315947053762000e-01 -1.0622900796381160e+01 0.0000000000000000e+00  -1.5077045106880185e-01 -8.1538607444068862e+00 0.0000000000000000e+00  -7.1191536654165943e-01 -7.0129735899373875e+00 0.0000000000000000e+00  -8.5030831113838767e-01 -5.1936717780120594e+00 0.0000000000000000e+00  -1.0693728496993418e+00 -3.9297030221332765e+00 0.0000000000000000e+00  -1.1810461784847019e+00 -2.9012616296740696e+00 0.0000000000000000e+00  -1.3132419373886379e+00 -2.3186322425724670e+00 0.0000000000000000e+00  -1.3513326346272623e+00 -1.7790543919409239e+00 0.0000000000000000e+00  -1.4467632244563546e+00 -1.5607217079220219e+00 0.0000000000000000e+00  -1.5752845473098132e+00 -1.5400663486198214e+00 0.0000000000000000e+00  -1.6852313134471772e+00 -1.5598579837423894e+00 0.0000000000000000e+00  -1.7690759914060605e+00 -1.6207600184428812e+00 0.0000000000000000e+00  -1.8287215493504456e+00 -1.6912176244306185e+00 0.0000000000000000e+00  -1.8409998284604152e+00 -1.6944460828952490e+00 0.0000000000000000e+00  -1.8309890884403655e+00 -1.6823771124628195e+00 0.0000000000000000e+00  -1.8078942171739865e+00 -1.6642891218755322e+00 0.0000000000000000e+00  -1.7624742562347153e+00 -1.5763079433546938e+00 0.0000000000000000e+00  -1.7074315826626723e+00 -1.5094803347297436e+00 0.0000000000000000e+00  -1.6533512891448949e+00 -1.3817699985473368e+00 0.0000000000000000e+00  -1.5835327727525490e+00 -1.3011490137329536e+00 0.0000000000000000e+00  -1.5106275509772276e+00 -1.0610305051965858e+00 0.0000000000000000e+00  -1.4270827903265615e+00 -1.0600273760890389e+00 0.0000000000000000e+00  -1.3307745576763841e+00 -6.1676168742787718e-01 0.0000000000000000e+00  -1.2072981626300177e+00 -8.3365555120504486e-01 0.0000000000000000e+00  -1.0561452641929667e+00 -6.4928923267258284e-02 0.0000000000000000e+00  -8.6088496852502250e-01 -3.6289915560093960e-01 0.0000000000000000e+00  -5.5396945457199998e-01 -2.2187577298129293e+00 0.0000000000000000e+00  -2.4540062404067418e+00 -1.7176816263379400e+00 0.0000000000000000e+00  -2.2800738437706221e+00 -2.2578851532004984e+00 0.0000000000000000e+00  -2.6378248777755231e+00 -1.5711948401721070e+00 0.0000000000000000e+00  -2.7896383933388065e+00 -1.5826548612529923e+00 0.0000000000000000e+00  -2.9780177766891280e+00 -1.3950215137563355e+00 0.0000000000000000e+00  -3.1484787051404344e+00 -1.3377265922733241e+00 0.0000000000000000e+00  -3.2068770662809585e+00 -9.9878630544875990e-01 0.0000000000000000e+00  -3.1606010812311891e+00 -5.4461849586309641e-01 0.0000000000000000e+00  -3.1546665500806865e+00 -1.1203597789307519e-01 0.0000000000000000e+00  -3.0737142582766381e+00 4.2042353988039233e-01 0.0000000000000000e+00  -2.9352324569507826e+00 1.1011586619881018e+00 0.0000000000000000e+00  -3.1073586143620471e+00 1.3900286188298672e+00 0.0000000000000000e+00  -3.0627749752144000e+00 2.0777641917515930e+00 0.0000000000000000e+00  -5.6094173873850730e+00 -1.0643859554026880e+00 0.0000000000000000e+00  -6.7805458122277953e+00 -2.1382931977964934e+00 0.0000000000000000e+00  -7.1188873089674951e+00 -1.9780174251851055e+00 0.0000000000000000e+00  -7.1127505008412841e+00 -1.3364386987126051e+00 0.0000000000000000e+00  -6.9037513179711398e+00 -5.2712786129432154e-01 0.0000000000000000e+00  -6.6139779535413190e+00 3.3383020104102495e-01 0.0000000000000000e+00  -6.2449314798428004e+00 1.1973333462098930e+00 0.0000000000000000e+00  -5.7906448630496348e+00 2.0894069404543409e+00 0.0000000000000000e+00  -5.2433465406594051e+00 2.9965188056718310e+00 0.0000000000000000e+00  -4.5981240719704903e+00 4.0847770474504577e+00 0.0000000000000000e+00  -3.8603674018521170e+00 5.0319607712857248e+00 0.0000000000000000e+00  -3.0699656359989222e+00 6.2675157097750596e+00 0.0000000000000000e+00  -2.2654787047528795e+00 6.9443304120893119e+00 0.0000000000000000e+00  -1.5075922511391513e+00 7.8659050223660874e+00 0.0000000000000000e+00  -8.5151613899767697e-01 7.3691996272796079e+00 0.0000000000000000e+00  -3.6150489463071528e-01 7.0489277177636476e+00 0.0000000000000000e+00  -5.5851873959179989e-02 3.6385448329987002e+00 0.0000000000000000e+00  -5.1887385257386731e-03 -2.2632293675919897e-03 0.0000000000000000e+00  -6.5202220199870264e-02 -9.2316613963580441e+00 0.0000000000000000e+00  -5.1520217577368825e-03 1.8426046061390947e-03 0.0000000000000000e+00  -3.5103544480218501e-01 -1.1734543226316280e+01 0.0000000000000000e+00  -5.0882635088278405e-01 -1.1496229580532191e+01 0.0000000000000000e+00  1.1794327012921786e+00 -8.2791016082166369e+00 0.0000000000000000e+00  -3.3817019676734439e-01 -8.3121522266441179e+00 0.0000000000000000e+00  -1.9875394544172714e-01 -6.2174190198046579e+00 0.0000000000000000e+00  -7.0581229147121893e-01 -5.0177167171090407e+00 0.0000000000000000e+00  -8.0208072500987482e-01 -3.6310420374444976e+00 0.0000000000000000e+00  -9.8450897410772498e-01 -2.7577543807790179e+00 0.0000000000000000e+00  -1.0665980008795839e+00 -2.1414901600893721e+00 0.0000000000000000e+00  -1.1723205665109464e+00 -1.7400736193801134e+00 0.0000000000000000e+00  -1.1876355410904744e+00 -1.4341346510981900e+00 0.0000000000000000e+00  -1.2629109518868482e+00 -1.3616713976062076e+00 0.0000000000000000e+00  -1.3732739416629134e+00 -1.4079137333436569e+00 0.0000000000000000e+00  -1.4671370392074272e+00 -1.5064301876567299e+00 0.0000000000000000e+00  -1.5371440762325874e+00 -1.6115954858064168e+00 0.0000000000000000e+00  -1.5847134271867076e+00 -1.6846100589204858e+00 0.0000000000000000e+00  -1.5865999576433143e+00 -1.7050024886456625e+00 0.0000000000000000e+00  -1.5676319959808775e+00 -1.7055606998747466e+00 0.0000000000000000e+00  -1.5366181579521796e+00 -1.6504533029245161e+00 0.0000000000000000e+00  -1.4840788677671901e+00 -1.5975978797411436e+00 0.0000000000000000e+00  -1.4225494242661172e+00 -1.4681348357808133e+00 0.0000000000000000e+00  -1.3622439232226049e+00 -1.4108883594925385e+00 0.0000000000000000e+00  -1.2864212532821933e+00 -1.1755159057439020e+00 0.0000000000000000e+00  -1.2074211660599650e+00 -1.1902277453276382e+00 0.0000000000000000e+00  -1.1178823260316126e+00 -7.6663358857958230e-01 0.0000000000000000e+00  -1.0150963215867999e+00 -1.0235939814372597e+00 0.0000000000000000e+00  -8.8568883182381686e-01 -2.9775059893868872e-01 0.0000000000000000e+00  -7.2735025944641540e-01 -6.5966240677424648e-01 0.0000000000000000e+00  -5.2752871224963838e-01 -2.6857360612552728e+00 0.0000000000000000e+00  -1.7863568987368925e+00 -1.4592385853428482e+00 0.0000000000000000e+00  -1.6161131696253441e+00 -1.9989877698644545e+00 0.0000000000000000e+00  -1.9562927567168287e+00 -1.3000956188693034e+00 0.0000000000000000e+00  -2.1325108668453963e+00 -1.3614874286438015e+00 0.0000000000000000e+00  -2.2745061945436049e+00 -1.1206843395970432e+00 0.0000000000000000e+00  -2.4503788457930318e+00 -1.0919910470574510e+00 0.0000000000000000e+00  -2.6060157572332354e+00 -9.2302463765073162e-01 0.0000000000000000e+00  -2.6472101281949274e+00 -6.2691633386783874e-01 0.0000000000000000e+00  -2.5821647228425726e+00 -1.3432509952466448e-01 0.0000000000000000e+00  -2.5573138979868042e+00 2.8606127370526535e-01 0.0000000000000000e+00  -2.4591890757629242e+00 8.8345359946484980e-01 0.0000000000000000e+00  -2.3067667602616106e+00 1.6397700245895599e+00 0.0000000000000000e+00  -2.4664158822950126e+00 1.9975107956342524e+00 0.0000000000000000e+00  -2.3982443992957130e+00 2.7289639357777489e+00 0.0000000000000000e+00  -4.9043715737957045e+00 -4.0863277184816799e-01 0.0000000000000000e+00  -6.0411502559624699e+00 -1.4851826016126073e+00 0.0000000000000000e+00  -6.3598089660715624e+00 -1.3551864945800283e+00 0.0000000000000000e+00  -6.3407731043632660e+00 -8.4571512565804796e-01 0.0000000000000000e+00  -6.1245463606310144e+00 -1.0484536041502392e-01 0.0000000000000000e+00  -5.8293817078384924e+00 6.4271534282701170e-01 0.0000000000000000e+00  -5.4577167737222538e+00 1.4086531044452328e+00 0.0000000000000000e+00  -5.0044615947827156e+00 2.1798723661735440e+00 0.0000000000000000e+00  -4.4633479024426341e+00 3.1257243003292401e+00 0.0000000000000000e+00  -3.8309490303191693e+00 3.9436929202110873e+00 0.0000000000000000e+00  -3.1197441619546842e+00 5.1056376354773407e+00 0.0000000000000000e+00  -2.3674836968549924e+00 5.7829575893993317e+00 0.0000000000000000e+00  -1.6274818583111652e+00 6.7780194863205727e+00 0.0000000000000000e+00  -9.5044859385185132e-01 6.4791691170754140e+00 0.0000000000000000e+00  -4.2471551835933447e-01 6.3895911913347874e+00 0.0000000000000000e+00  -7.3622199566184945e-02 3.3691704909334601e+00