<?xml version="1.0"?>
<VTKFile type="UnstructuredGrid"  version="0.1"  >
<UnstructuredGrid>
<Piece  NumberOfPoints="1933" NumberOfCells="3640">
<Points>
<DataArray  type="Float64"  NumberOfComponents="3"  format="ascii">0.0002982022331571854 -0.002786790817895315 0  5.000298253102574 -0.002712098129459739 0  5.00018618693908 7.497288015097074 0  0.0001861227589738945 7.497213302386299 0  10.00029834287823 -0.002637485813302383 0  10.00018628963023 7.497362627282758 0  15.00029851443028 -0.002562933514630336 0  15.00018644408714 7.497437174178608 0  20.00029880046911 -0.002488395865954916 0  20.00018665971376 7.4975117059084 0  25.00029922275632 -0.002413815658467891 0  25.00018694201862 7.497586281049598 0  30.00029979374505 -0.002339129590493574 0  30.00018729214899 7.497660963108076 0  35.00030051841425 -0.002264270485445417 0  35.00018770653627 7.497735819082467 0  40.00030139565999 -0.002189167701817077 0  40.00018817659805 7.497810919331152 0  45.00030241912425 -0.002113746550156258 0  45.00018868836142 7.497886338243896 0  50.00030357748751 -0.002037927101601518 0  50.00018922188985 7.497962155448437 0  55.00030485426944 -0.00196162254870308 0  55.0001897504168 7.498038457433328 0  60.00030622715128 -0.001884737150958967 0  60.00019023909395 7.498115339567233 0  65.00030766679092 -0.001807163712123978 0  65.00019064324202 7.49819290856609 0  70.00030913503414 -0.001728780465219715 0  70.00019090596084 7.49827128552038 0  75.0003105823523 -0.00164944716566194 0  75.00019095489704 7.498350609656056 0  80.0003119442096 -0.001569000097103532 0  80.00019069788493 7.498431043075869 0  85.00031313588494 -0.001487245561101069 0  85.00019001706991 7.498512776817265 0  90.00031404496255 -0.001403951228241179 0  90.00018876097063 7.498596038672831 0  95.0003145201968 -0.001318834445237562 0  95.00018673375511 7.498681103340483 0  100.0003143545487 -0.001231546182369284 0  100.0001836808268 7.498768305566692 0  105.0003132586074 -0.001141648732121979 0  105.0001792696974 7.498858056914917 0  110.0003108177089 -0.00104858453049699 0  110.0001730653522 7.49895086637004 0  115.0003064208121 -0.0009516327026988625 0  115.0001645004331 7.499047363568999 0  120.0002991394533 -0.0008498497039013242 0  120.0001528439305 7.499148319643484 0  125.000287517099 -0.0007419925624529688 0  125.0001371806614 7.499254651471067 0  130.0002691957375 -0.0006264331868370622 0  130.0001164339157 7.499367374283678 0  135.0002402443431 -0.0005011062898280053 0  135.0000895085981 7.499487422967786 0  140.0001939374003 -0.0003636439837386074 0  140.0000557294937 7.499615175326636 0  145.0001185062116 -0.0002122256482760856 0  145.0000159583711 7.499749379473026 0  149.9999928930261 -4.909831039323794e-05 0  149.9999752434018 7.499885217436239 0  159.9999999999991 9.346116678423992e-19 0  164.9999929129078 -6.103250316747034e-05 0  165.0000003300813 7.499922560186856 0  159.9999940211815 7.499962189564409 0  170.0000084976868 -8.645078643064672e-05 0  170.0000063110488 7.4999056718893 0  175.0000324749582 -8.726441141022138e-05 0  175.0000144982401 7.499908789358035 0  180.0000584302797 -7.041349629887842e-05 0  180.000024624389 7.499927592947847 0  185.0000835285111 -4.066822310389905e-05 0  185.0000358640413 7.499958344486001 0  190.0001066136674 -1.38938464798009e-06 0  190.0000474630458 7.499998152055732 0  195.0001273180094 4.502688654655146e-05 0  195.0000588749205 7.500044849185302 0  200.0001456347048 9.685209780161509e-05 0  200.0000697489841 7.500096824215836 0  205.0001617117974 0.0001528224459643837 0  205.0000798834508 7.500152874092175 0  210.0001757536119 0.0002120002209097586 0  210.0000891794575 7.500212093205901 0  215.0001879746362 0.0002736791287276524 0  215.0000976051915 7.500273792484424 0  220.0001985790162 0.0003373192646525316 0  220.0001051704309 7.50033744140868 0  225.0002077524656 0.0004025019995318072 0  225.0001119093791 7.500402626554166 0  230.0002156600996 0.0004688982653477954 0  230.0001178694796 7.500469021796045 0  235.000222447001 0.0005362459245662227 0  235.000123104345 7.500536366700474 0  240.0002282399629 0.0006043333707856579 0  240.0001276694276 7.500604450678314 0  245.0002331496696 0.0006729874686242532 0  245.0001316195015 7.50067310123088 0  250.0002372729711 0.0007420645703647713 0  250.0001350073217 7.500742175140318 0  255.0002406951199 0.0008114437629809072 0  255.0001378830577 7.500811551819044 0  260.0002434919207 0.0008810217799544869 0  260.000140294219 7.500881128283829 0  265.0002457318209 0.0009507092094284078 0  265.0001422859021 7.500950815401239 0  270.000247477952 0.001020427778924213 0  270.0001439012362 7.501020535187798 0  275.0002487901817 0.001090108622893743 0  275.0001451819242 7.5010902190623 0  280.0002497271823 0.001159691564634122 0  280.0001461688072 7.50115980705368 0  285.0002503485083 0.001229125590324677 0  285.0001469023593 7.501229248078761 0  290.0002507165235 0.001298370884756547 0  290.0001474230145 7.501298501527122 0  295.0002508978501 0.001367403060083099 0  295.0001477712608 7.50136754052514 0  300.0002509634441 0.001436220540473879 0  300.0001479874924 7.501436357380969 0  305.0002509854466 0.001504856316862256 0  305.000148111991 7.50150497181154 0  310.0002510267454 0.001573394560068545 0  310.0001481862787 7.501573442765112 0  5.000073953598053 14.99728824601092 0  7.389220124182083e-05 14.99721352651461 0  10.000074030332 14.99736283018678 0  15.00007412785989 14.99743734189583 0  20.00007424553143 14.99751184071467 0  25.0000743792882 14.99758638738514 0  30.00007452212455 14.99766104484964 0  35.00007466373412 14.99773587864026 0  40.00007478987683 14.99781095741275 0  45.00007488162166 14.99788635379881 0  50.00007491447367 14.99796214558443 0  55.00007485734199 14.99803841720181 0  60.0000746712853 14.99811526154357 0  65.00007430797028 14.9981927821368 0  70.00007370777205 14.99827109574262 0  75.00007279745677 14.99835033547066 0  80.00007148739932 14.99843065451234 0  85.00006966834376 14.99851223058941 0  90.00006720781823 14.99859527116375 0  95.00006394655186 14.99868001930233 0  100.0000596956689 14.99876675974013 0  105.0000542362768 14.99885582392487 0  110.0000473245117 14.99894759128441 0  115.0000387076291 14.99904248092968 0  120.000028160771 14.99914092226761 0  125.0000155600259 14.99924328252358 0  130.0000010148837 14.99934971096398 0  134.9999850887403 14.9994598301882 0  139.9999691279436 14.99957216270059 0  144.9999556640613 14.99968313053361 0  149.9999486584864 14.99978539455294 0  164.9999772615191 14.99987707070974 0  159.9999713802567 14.99987954490865 0  169.9999791668801 14.99988154790432 0  174.9999802347295 14.99989627958774 0  179.9999818914305 14.99992130438862 0  184.9999845327615 14.99995537193556 0  189.9999880827343 14.99999693752625 0  194.9999922988757 15.00004455583685 0  199.9999969153362 15.00009700133715 0  205.0000017003836 15.00015327860418 0  210.0000064728593 15.00021259434227 0  215.0000111008738 15.0002743206362 0  220.0000154940864 15.00033796049213 0  225.0000195947255 15.00040311897421 0  230.0000233694301 15.00046948020137 0  235.000026802585 15.00053678943357 0  240.0000298911608 15.00060483925684 0  245.0000326408675 15.00067345895917 0  250.0000350633625 15.000742506358 0  255.0000371742628 15.00081186151039 0  260.0000389917644 15.00088142188726 0  265.0000405356901 15.00095109871259 0  270.0000418268483 15.00102081426844 0  275.0000428865981 15.00109050004541 0  280.0000437365422 15.00116009568456 0  285.0000443983443 15.00122954870571 0  290.0000448936569 15.00129881504112 0  295.0000452443422 15.00136786036183 0  300.0000454732838 15.00143666204626 0  305.0000456064837 15.0015052112856 0  310.0000456776803 15.00157351405637 0  4.999961706029694 22.49728863934891 0  -3.834981636013923e-05 22.49721399012653 0  9.999961757487164 22.49736314400976 0  14.99996180177775 22.49743757758059 0  19.99996183298369 22.49751200460785 0  24.99996184267638 22.49758648639281 0  29.99996182017883 22.4976610840302 0  34.99996175236591 22.49773586007749 0  39.99996162318708 22.49781087969401 0  44.99996141304903 22.49788621166468 0  49.99996109812856 22.49796192949066 0  54.99996064964063 22.49803811262045 0  59.99996003307393 22.49811484785189 0  64.99995920741229 22.49819223091622 0  69.99995812438618 22.49827036823918 0  74.99995672784722 22.49834937884904 0  79.99995495344018 22.4984293963475 0  84.9999527288731 22.49851057075761 0  89.99994997529441 22.49859306987458 0  94.99994661059719 22.49867707940842 0  99.9999425559357 22.49876280061898 0  104.999937747401 22.49885044314626 0  109.9999321556633 22.49894020908428 0  114.9999258173594 22.49903226171822 0  119.9999188827104 22.49912666838956 0  124.9999116833792 22.49922330157062 0  129.9999048208302 22.49932167632887 0  134.9998992644649 22.49942069989309 0  139.9998964239739 22.49951832186341 0  144.9998981135965 22.49961113327793 0  149.999906257325 22.4996941537567 0  164.9999297271311 22.49982454875725 0  159.999925927748 22.49980105230751 0  169.9999299741054 22.49984842482938 0  174.9999283510713 22.49987628802506 0  179.9999261887652 22.49990971878433 0  184.9999242814373 22.4999489959617 0  189.9999229943998 22.49999372114234 0  194.9999224228458 22.50004322018361 0  199.9999225171883 22.50009676085233 0  204.9999231638793 22.50015365537205 0  209.999924231669 22.50021329988899 0  214.9999255953322 22.50027518247648 0  219.9999271460625 22.50033887703811 0  224.9999287945665 22.50040403200228 0  229.9999304704902 22.50047035806431 0  234.9999321202468 22.50053761681828 0  239.9999337043426 22.50060561093078 0  244.99993519475 22.50067417595395 0  249.9999365725601 22.50074317364635 0  254.9999378259967 22.50081248659548 0  259.9999389487705 22.50088201393556 0  264.9999399387531 22.50095166797832 0  269.9999407969055 22.50102137160945 0  274.9999415264369 22.50109105633262 0  279.9999421321668 22.50116066085957 0  284.9999426201182 22.50123013013872 0  289.9999429974143 22.50129941466558 0  294.9999432726501 22.50136846979981 0  299.99994
[...]
<PointData  Vectors="v"> 
<DataArray  type="Float64"  Name="v"  NumberOfComponents="3" format="ascii">-1.5829301530852604e+00 5.7324106898069562e+00 0.0000000000000000e+00  -1.1484670057555768e+00 5.5749715768836658e+00 0.0000000000000000e+00  -8.4767580744871207e-01 4.9234512462664570e+00 0.0000000000000000e+00  -1.1796229599645993e+00 5.2351269905884426e+00 0.0000000000000000e+00  -5.6830135459677245e-01 6.2515822216579133e+00 0.0000000000000000e+00  -4.1344108587850303e-01 5.3821911201645252e+00 0.0000000000000000e+00  4.6481134286782957e-03 7.3350180419652418e+00 0.0000000000000000e+00  1.6576603972162593e-01 6.4768475243379511e+00 0.0000000000000000e+00  5.6222851743684021e-01 7.9682253260681550e+00 0.0000000000000000e+00  7.3716289581982331e-01 7.1339160100504548e+00 0.0000000000000000e+00  1.2344478219763688e+00 9.0282359557411311e+00 0.0000000000000000e+00  1.2924948025175256e+00 8.0227104061225347e+00 0.0000000000000000e+00  1.8123998517929323e+00 9.7146748980926141e+00 0.0000000000000000e+00  1.9613915462912546e+00 8.8511397767988562e+00 0.0000000000000000e+00  1.9675646265724398e+00 9.8123625013643316e+00 0.0000000000000000e+00  2.5351837722540269e+00 9.5840569941475060e+00 0.0000000000000000e+00  2.9463374236235933e+00 1.1023557692713077e+01 0.0000000000000000e+00  2.6853019809374699e+00 9.5606868833215746e+00 0.0000000000000000e+00  -1.4328476961159464e-01 6.1466899272682261e+00 0.0000000000000000e+00  3.6577245534183591e+00 1.0787312092528570e+01 0.0000000000000000e+00  9.4307591761104081e+00 2.0007643436441697e+01 0.0000000000000000e+00  5.6074327291013981e-01 5.6532805774596895e+00 0.0000000000000000e+00  8.3840106320240135e+00 1.7488023435802738e+01 0.0000000000000000e+00  1.0127198945579025e+01 1.9066102655266896e+01 0.0000000000000000e+00  8.2543339114368610e+00 1.6259506628446985e+01 0.0000000000000000e+00  9.0711461358504213e+00 1.6463988868670114e+01 0.0000000000000000e+00  8.7902612085613576e+00 1.6037392448591532e+01 0.0000000000000000e+00  8.9298186437701794e+00 1.5245493279762838e+01 0.0000000000000000e+00  9.8591844239553712e+00 1.6626054867010865e+01 0.0000000000000000e+00  9.4519776090119496e+00 1.5036985787443387e+01 0.0000000000000000e+00  1.1285527392414695e+01 1.7689063879504751e+01 0.0000000000000000e+00  1.0503977772993522e+01 1.5565367176994499e+01 0.0000000000000000e+00  1.2976827553360209e+01 1.9010328871389405e+01 0.0000000000000000e+00  1.1911150981738622e+01 1.6491934968772494e+01 0.0000000000000000e+00  1.4849535649421727e+01 2.0603249784822193e+01 0.0000000000000000e+00  1.3580998759779952e+01 1.7815025129058252e+01 0.0000000000000000e+00  1.6820047904874677e+01 2.2090263966496707e+01 0.0000000000000000e+00  1.5428638846081133e+01 1.9157061283223605e+01 0.0000000000000000e+00  1.8818900758927185e+01 2.3488142725022357e+01 0.0000000000000000e+00  1.7371910402361749e+01 2.0515777116116404e+01 0.0000000000000000e+00  2.0781874689314435e+01 2.4645281660146559e+01 0.0000000000000000e+00  1.9340349558033104e+01 2.1728764189136371e+01 0.0000000000000000e+00  2.2633378340856567e+01 2.5476334504800398e+01 0.0000000000000000e+00  2.1269783567211785e+01 2.2729971955382922e+01 0.0000000000000000e+00  2.4312847666116610e+01 2.5589319124645286e+01 0.0000000000000000e+00  2.3083749658394165e+01 2.3103041701938000e+01 0.0000000000000000e+00  2.5779417245013573e+01 2.5524269498658132e+01 0.0000000000000000e+00  2.4724632721468396e+01 2.3362196661747372e+01 0.0000000000000000e+00  2.6984412543970414e+01 2.4073378462012030e+01 0.0000000000000000e+00  2.6145144726201814e+01 2.2302370906605315e+01 0.0000000000000000e+00  2.7930068839483269e+01 2.2623400506807979e+01 0.0000000000000000e+00  2.7306789096850771e+01 2.1250908311540663e+01 0.0000000000000000e+00  2.8598768999648478e+01 1.9185256308272820e+01 0.0000000000000000e+00  2.8196784460931195e+01 1.8220987843562384e+01 0.0000000000000000e+00  2.9041094303843792e+01 1.5796583460972872e+01 0.0000000000000000e+00  2.8819107410738344e+01 1.5189277372668492e+01 0.0000000000000000e+00  2.9266160275001688e+01 1.0278037803628457e+01 0.0000000000000000e+00  2.9194245782400177e+01 9.9789538127609934e+00 0.0000000000000000e+00  2.9368170927241554e+01 3.7282347034945933e+00 0.0000000000000000e+00  2.9372091398005740e+01 3.6441940500909031e+00 0.0000000000000000e+00  2.9389264412899596e+01 1.2411173085452057e-05 0.0000000000000000e+00  2.9389462128288912e+01 2.2004827200635438e-04 0.0000000000000000e+00  2.9389262614606672e+01 -1.1729761487857466e-19 0.0000000000000000e+00  2.1020071510104341e+01 -1.1526277310194004e+01 0.0000000000000000e+00  2.9366937945383224e+01 9.8981822095261818e-01 0.0000000000000000e+00  2.9389455238665285e+01 -1.8667998240375956e-04 0.0000000000000000e+00  2.0626558106509918e+01 -2.0688841296956678e+01 0.0000000000000000e+00  2.1049168626775877e+01 -2.0165992172396248e+01 0.0000000000000000e+00  1.7603264192000363e+01 -2.7674976603291391e+01 0.0000000000000000e+00  2.0715121643793520e+01 -2.3181391191628581e+01 0.0000000000000000e+00  1.6453292047107542e+01 -2.9093702737848830e+01 0.0000000000000000e+00  1.7749246388985700e+01 -2.7419901648034852e+01 0.0000000000000000e+00  1.4659322327088622e+01 -3.0534369690078162e+01 0.0000000000000000e+00  1.6652801077643272e+01 -2.7888287981323440e+01 0.0000000000000000e+00  1.3286613646996567e+01 -2.9726464910386067e+01 0.0000000000000000e+00  1.4909929398489712e+01 -2.7713143368196789e+01 0.0000000000000000e+00  1.1900448939934300e+01 -2.8673278736810964e+01 0.0000000000000000e+00  1.3587795078802156e+01 -2.6636036692571466e+01 0.0000000000000000e+00  1.0684586200897693e+01 -2.6780904206729570e+01 0.0000000000000000e+00  1.2249277628800993e+01 -2.4999785186224891e+01 0.0000000000000000e+00  9.3151359018428916e+00 -2.4938823548678851e+01 0.0000000000000000e+00  1.1079659351082455e+01 -2.2924996112857773e+01 0.0000000000000000e+00  8.2861633142296096e+00 -2.2727798784114547e+01 0.0000000000000000e+00  9.7554456559436868e+00 -2.1223862128482985e+01 0.0000000000000000e+00  7.4117314005523323e+00 -2.0645888996117801e+01 0.0000000000000000e+00  8.7701073700390300e+00 -1.9372935070428568e+01 0.0000000000000000e+00  6.4818751891943940e+00 -1.8849503535755208e+01 0.0000000000000000e+00  7.9381448194463706e+00 -1.7492465717099527e+01 0.0000000000000000e+00  5.6156355025983773e+00 -1.7206996293752294e+01 0.0000000000000000e+00  7.0500109057745366e+00 -1.5944343129462425e+01 0.0000000000000000e+00  4.8152581277989706e+00 -1.5762534517881047e+01 0.0000000000000000e+00  6.2243110652058258e+00 -1.4598151487525477e+01 0.0000000000000000e+00  4.0569335847695500e+00 -1.4440700202635027e+01 0.0000000000000000e+00  5.4635612013177726e+00 -1.3338547970086708e+01 0.0000000000000000e+00  3.3804091853107341e+00 -1.3177682817406863e+01 0.0000000000000000e+00  4.7441738445159150e+00 -1.2197519639253123e+01 0.0000000000000000e+00  2.7873751726322853e+00 -1.2006027364482152e+01 0.0000000000000000e+00  4.1057303780304464e+00 -1.1150584044713380e+01 0.0000000000000000e+00  2.2450938383545251e+00 -1.0875449643207435e+01 0.0000000000000000e+00  3.5500265434499751e+00 -1.0095573253031253e+01 0.0000000000000000e+00  1.7712320929421994e+00 -9.7708290683309755e+00 0.0000000000000000e+00  3.0445826419067505e+00 -9.0929777844900368e+00 0.0000000000000000e+00  1.3683150006941021e+00 -8.7124757353107825e+00 0.0000000000000000e+00  2.6068292672830182e+00 -8.1407532904340574e+00 0.0000000000000000e+00  1.0098391936800259e+00 -7.6569418561211418e+00 0.0000000000000000e+00  2.2396399465274124e+00 -7.1512803685507240e+00 0.0000000000000000e+00  7.0680831220632512e-01 -6.6337848469878775e+00 0.0000000000000000e+00  1.9162061002005903e+00 -6.2111755163170397e+00 0.0000000000000000e+00  4.6314756085995346e-01 -5.6257244691357311e+00 0.0000000000000000e+00  1.6482100807102782e+00 -5.2913877973039121e+00 0.0000000000000000e+00  2.6072673443370781e-01 -4.6563411961863537e+00 0.0000000000000000e+00  1.4383968530019773e+00 -4.3843802591047565e+00 0.0000000000000000e+00  1.0819963645260071e-01 -3.6868374215441944e+00 0.0000000000000000e+00  1.2708681040228527e+00 -3.4879740113398907e+00 0.0000000000000000e+00  -1.5934933856005459e-03 -2.8493137399110804e+00 0.0000000000000000e+00  1.1505548818012026e+00 -2.7167976078199989e+00 0.0000000000000000e+00  -7.0821327799023906e-02 -1.9650998153832442e+00 0.0000000000000000e+00  1.0765474868225715e+00 -1.8890337903040955e+00 0.0000000000000000e+00  -1.3771559512065767e-01 -1.3320929893869684e+00 0.0000000000000000e+00  1.0363662457764464e+00 -1.2662717865122683e+00 0.0000000000000000e+00  -2.0982547244223049e-01 -7.1153442562755820e-01 0.0000000000000000e+00  1.0098666553299311e+00 -6.2548992332052333e-01 0.0000000000000000e+00  -3.7204218357229335e-01 1.7148807427603882e-01 0.0000000000000000e+00  9.5390984282970470e-01 3.6855827725471069e-01 0.0000000000000000e+00  -1.2860637142724121e-01 4.4246915959583610e+00 0.0000000000000000e+00  -4.8811804919927376e-01 4.6978704501213642e+00 0.0000000000000000e+00  2.0457552979562951e-01 4.7300633145723028e+00 0.0000000000000000e+00  6.3986569840388463e-01 5.6078148102991960e+00 0.0000000000000000e+00  1.2193440753322780e+00 6.2771555374462240e+00 0.0000000000000000e+00  1.7899446248695661e+00 7.1904757417409479e+00 0.0000000000000000e+00  2.3434210972516096e+00 7.8496340458064857e+00 0.0000000000000000e+00  3.0089110801831649e+00 8.7263393341886584e+00 0.0000000000000000e+00  3.5773734591676658e+00 9.3390951518559948e+00 0.0000000000000000e+00  3.7205584346498561e+00 9.3339218618022066e+00 0.0000000000000000e+00  4.6835609127706617e+00 1.0305808092498111e+01 0.0000000000000000e+00  1.5760744967352225e+00 4.7199786020498582e+00 0.0000000000000000e+00  1.1136368298961377e+01 1.8051686303398334e+01 0.0000000000000000e+00  1.0073182386559266e+01 1.5464953258022900e+01 0.0000000000000000e+00  9.9189942469692021e+00 1.4262464516761556e+01 0.0000000000000000e+00  1.0424434495362473e+01 1.4000401110704686e+01 0.0000000000000000e+00  1.1453992029819961e+01 1.4396789507277250e+01 0.0000000000000000e+00  1.2833895269071101e+01 1.5327656703291701e+01 0.0000000000000000e+00  1.4472366413045240e+01 1.6407064627649792e+01 0.0000000000000000e+00  1.6283012020100912e+01 1.7625555044520883e+01 0.0000000000000000e+00  1.8183739018162893e+01 1.8802257924569957e+01 0.0000000000000000e+00  2.0105199801398253e+01 1.9867748384381869e+01 0.0000000000000000e+00  2.1980357106670120e+01 2.0416242531060821e+01 0.0000000000000000e+00  2.3734285828573348e+01 2.0939840210646317e+01 0.0000000000000000e+00  2.5308018397425052e+01 2.0212779028476302e+01 0.0000000000000000e+00  2.6655329345587024e+01 1.9559302775893507e+01 0.0000000000000000e+00  2.7733163279371997e+01 1.6930283348806842e+01 0.0000000000000000e+00  2.8538720664416381e+01 1.4323825081687769e+01 0.0000000000000000e+00  2.9056800181804409e+01 9.4563667450359876e+00 0.0000000000000000e+00  2.9341388629449728e+01 3.4722182756268105e+00 0.0000000000000000e+00  2.9389936832567134e+01 4.1939374706719326e-04 0.0000000000000000e+00  2.9328732060153673e+01 1.1495147550405684e+00 0.0000000000000000e+00  2.9389927437099363e+01 -3.6698223853092300e-04 0.0000000000000000e+00  2.9172617206357618e+01 -7.7086145460133837e+00 0.0000000000000000e+00  2.0919597094390308e+01 -2.2732491433190901e+01 0.0000000000000000e+00  2.0666388453396451e+01 -2.3013053615735451e+01 0.0000000000000000e+00  1.7768801152100341e+01 -2.6284696030907849e+01 0.0000000000000000e+00  1.6738188524191777e+01 -2.5131410687855947e+01 0.0000000000000000e+00  1.5051699929677037e+01 -2.4688395217685830e+01 0.0000000000000000e+00  1.3785213375566560e+01 -2.3021994809780445e+01 0.0000000000000000e+00  1.2496610000681512e+01 -2.1199059062101060e+01 0.0000000000000000e+00  1.1374122026439583e+01 -1.9265218718920984e+01 0.0000000000000000e+00  1.0094870162529388e+01 -1.7921034245483099e+01 0.0000000000000000e+00  9.1524617450567138e+00 -1.6269081127176634e+01 0.0000000000000000e+00  8.3614218036106855e+00 -1.4636622980628923e+01 0.0000000000000000e+00  7.5132472911923136e+00 -1.3382890272142147e+01 0.0000000000000000e+00  6.7259628188017961e+00 -1.2219707001378000e+01 0.0000000000000000e+00  6.0021774725902599e+00 -1.1140358590109415e+01 0.0000000000000000e+00  5.3187401308248781e+00 -1.0213982496547279e+01 0.0000000000000000e+00  4.7150327568225610e+00 -9.2823026586906412e+00 0.0000000000000000e+00  4.1929103712044018e+00 -8.3546961176287518e+00 0.0000000000000000e+00  3.7201906650602754e+00 -7.5034560541930579e+00 0.0000000000000000e+00  3.3142804407128468e+00 -6.6191286194170313e+00 0.0000000000000000e+00  2.9780151484116786e+00 -5.7445712321771287e+00 0.0000000000000000e+00  2.6849775705235923e+00 -4.9071086670158062e+00 0.0000000000000000e+00  2.4464962817968376e+00 -4.0876048029382366e+00 0.0000000000000000e+00  2.2658906478969141e+00 -3.2532423588540311e+00 0.0000000000000000e+00  2.1264450609240533e+00 -2.5544797791018339e+00 0.0000000000000000e+00  2.0346927588503982e+00 -1.7922977782626133e+00 0.0000000000000000e+00  1.9867225959378561e+00 -1.2260321273475718e+00 0.0000000000000000e+00  1.9751345101485294e+00 -5.9590045030403538e-01 0.0000000000000000e+00  1.9726245339443094e+00 4.3075504344924437e-01 0.0000000000000000e+00  1.1210310604267535e+00 3.8835388315640778e+00 0.0000000000000000e+00  7.9956298803261316e-01 4.2187213817754836e+00 0.0000000000000000e+00  1.4835871975445802e+00 4.2274092814866080e+00 0.0000000000000000e+00  1.8214163139700208e+00 4.9526322186445064e+00 0.0000000000000000e+00  2.2602663304508464e+00 5.4062874076464720e+00 0.0000000000000000e+00  2.8425263620283965e+00 6.3339986065694056e+00 0.0000000000000000e+00  3.4144532256267626e+00 7.0206561452784966e+00 0.0000000000000000e+00  3.9666551472611324e+00 7.7309489400300579e+00 0.0000000000000000e+00  4.6283463457739957e+00 8.4916923132835134e+00 0.0000000000000000e+00  5.1896962574626704e+00 9.1275386894354060e+00 0.0000000000000000e+00  5.3212659637014257e+00 8.8723999824741853e+00 0.0000000000000000e+00  6.2691456512619119e+00 9.3928557576713043e+00 0.0000000000000000e+00  3.1503631393515081e+00 3.7148915306591292e+00 0.0000000000000000e+00  1.2709688442667586e+01 1.7061859805069094e+01 0.0000000000000000e+00  1.1644477362788946e+01 1.4504474966023723e+01 0.0000000000000000e+00  1.1477730912425399e+01 1.3259325980562252e+01 0.0000000000000000e+00  1.1960639377756495e+01 1.2876078243926212e+01 0.0000000000000000e+00  1.2958540011328603e+01 1.3288234195691970e+01 0.0000000000000000e+00  1.4298120109886927e+01 1.3986321268368274e+01 0.0000000000000000e+00  1.5886538320993328e+01 1.4952703484235881e+01 0.0000000000000000e+00  1.7638240283581268e+01 1.6001528157820069e+01 0.0000000000000000e+00  1.9470670784223628e+01 1.7044274166759543e+01 0.0000000000000000e+00  2.1311615475804146e+01 1.7668463027417491e+01 0.0000000000000000e+00  2.3095983640424869e+01 1.8386246176880146e+01 0.0000000000000000e+00  2.4744299517546995e+01 1.7934590650402669e+01 0.0000000000000000e+00  2.6201184537392361e+01 1.7637997250726212e+01 0.0000000000000000e+00  2.7411870963574760e+01 1.5411927249468313e+01 0.0000000000000000e+00  2.8346112460156082e+01 1.3247339655329405e+01 0.0000000000000000e+00  2.8977500071089946e+01 8.7799131139384912e+00 0.0000000000000000e+00  2.9334384780818397e+01 3.2302916008100300e+00 0.0000000000000000e+00  2.9390679424978476e+01 6.0082311629888166e-04 0.0000000000000000e+00  2.9304669833229170e+01 1.4624033922798350e+00 0.0000000000000000e+00  2.9390670957962556e+01 -5.2567428622624990e-04 0.0000000000000000e+00  2.8937328916987980e+01 -7.4166608373656118e+00 0.0000000000000000e+00  2.8768875045470491e+01 -1.0433527600325540e+01 0.0000000000000000e+00  2.0627939604135438e+01 -2.2734455479773143e+01 0.0000000000000000e+00  2.0505207074541538e+01 -2.2019016624797995e+01 0.0000000000000000e+00  1.7717174257731298e+01 -2.3665310269480486e+01 0.0000000000000000e+00  1.6784998907883089e+01 -2.2223774105774154e+01 0.0000000000000000e+00  1.5184276934463194e+01 -2.1185046294168515e+01 0.0000000000000000e+00  1.3996932495422188e+01 -1.9322199785856206e+01 0.0000000000000000e+00  1.2778837711962970e+01 -1.7633861288582231e+01 0.0000000000000000e+00  1.1722451504085267e+01 -1.6050927672386884e+01 0.0000000000000000e+00  1.0504831318744445e+01 -1.4902382868040172e+01 0.0000000000000000e+00  9.6209330393198673e+00 -1.3494651727846749e+01 0.0000000000000000e+00  8.8861927627061377e+00 -1.2153777398219798e+01 0.0000000000000000e+00  8.0922800965651938e+00 -1.1080419920221413e+01 0.0000000000000000e+00  7.3570058679621599e+00 -1.0094660840472592e+01 0.0000000000000000e+00  6.6833378379810746e+00 -9.2273051633274559e+00 0.0000000000000000e+00  6.0480182793404751e+00 -8.4139495278527221e+00 0.0000000000000000e+00  5.4905195256594954e+00 -7.6072626581766603e+00 0.0000000000000000e+00  5.0128863877235856e+00 -6.8290226644502932e+00 0.0000000000000000e+00  4.5831287848181308e+00 -6.0437218503408818e+00 0.0000000000000000e+00  4.2185658415744038e+00 -5.2728419893605460e+00 0.0000000000000000e+00  3.9225809631936110e+00 -4.4989010370684204e+00 0.0000000000000000e+00  3.6682542303310557e+00 -3.7611497277490740e+00 0.0000000000000000e+00  3.4679490863253535e+00 -3.0115543243711405e+00 0.0000000000000000e+00  3.3234548060088684e+00 -2.3759095598078397e+00 0.0000000000000000e+00  3.2207360515679269e+00 -1.6806634501840516e+00 0.0000000000000000e+00  3.1614455114337483e+00 -1.1859677850609742e+00 0.0000000000000000e+00  3.1509057044981317e+00 -5.9847172363631895e-01 0.0000000000000000e+00  3.1626794245184175e+00 4.0084601851851881e-01 0.0000000000000000e+00  2.4342574611599788e+00 3.3985753525800462e+00 0.0000000000000000e+00  2.1488638684304249e+00 3.7948144067875389e+00 0.0000000000000000e+00  2.7601490406869491e+00 3.6787463326652370e+00 0.0000000000000000e+00  3.1306123270295507e+00 4.4398447811288921e+00 0.0000000000000000e+00  3.4772519066326288e+00 4.7419867531525597e+00 0.0000000000000000e+00  3.9250361658792885e+00 5.4553039427908603e+00 0.0000000000000000e+00  4.5149906672460576e+00 6.1584592279363832e+00 0.0000000000000000e+00  5.0927707324451257e+00 6.9005082518887964e+00 0.0000000000000000e+00  5.6478720939880711e+00 7.4997593902915467e+00 0.0000000000000000e+00  6.3081258825769773e+00 8.2894017681122492e+00 0.0000000000000000e+00  6.8626791552986237e+00 8.6835834266958614e+00 0.0000000000000000e+00  6.9824318628283262e+00 7.9813017158484048e+00 0.0000000000000000e+00  7.9175626065907547e+00 8.3975955560422673e+00 0.0000000000000000e+00  4.7984992421945227e+00 2.7129014564789022e+00 0.0000000000000000e+00  1.4375889074348127e+01 1.6090581362895513e+01 0.0000000000000000e+00  1.3325774153856988e+01 1.3509060498888365e+01 0.0000000000000000e+00  1.3158955477992841e+01 1.2160620606251520e+01 0.0000000000000000e+00  1.3628735807231962e+01 1.1810304739117298e+01 0.0000000000000000e+00  1.4599379955127775e+01 1.2003427317564633e+01 0.0000000000000000e+00  1.5900381873564015e+01 1.2606067775055950e+01 0.0000000000000000e+00  1.7438037471911144e+01 1.3418248185047579e+01 0.0000000000000000e+00  1.9125929951096442e+01 1.4349606601345238e+01 0.0000000000000000e+00  2.0880579004602115e+01 1.4970995059692623e+01 0.0000000000000000e+00  2.2629385357014630e+01 1.5788162349952660e+01 0.0000000000000000e+00  2.4301262720083550e+01 1.5548879866900474e+01 0.0000000000000000e+00  2.5821372800644717e+01 1.5563025334746985e+01 0.0000000000000000e+00  2.7122269742615167e+01 1.3707779034297712e+01 0.0000000000000000e+00  2.8164089243047407e+01 1.1999656725516301e+01 0.0000000000000000e+00  2.8887605458504801e+01 7.9564933856028270e+00 0.0000000000000000e+00  2.9316850099710095e+01 2.9212440191886690e+00 0.0000000000000000e+00  2.9391662356910320e+01 7.6339486445972464e-04 0.0000000000000000e+00  2.9281464296716827e+01 1.8859252528177337e+00 0.0000000000000000e+00  2.9391654558355089e+01 -6.6699968828622417e-04 0.0000000000000000e+00  2.8785566424288962e+01 -6.6933625625587547e+00 0.0000000000000000e+00  2.8260992596767338e+01 -1