<?xml version="1.0"?>
<VTKFile type="UnstructuredGrid"  version="0.1"  >
<UnstructuredGrid>
<Piece  NumberOfPoints="1933" NumberOfCells="3640">
<Points>
<DataArray  type="Float64"  NumberOfComponents="3"  format="ascii">0.4754552623822378 0.0003811671803016859 0  5.475455274028995 0.0003607588606609083 0  5.475485910127429 7.500360802677969 0  0.4754858828062342 7.500381183395745 0  10.47545528639232 0.0003403064339249961 0  10.47548596228813 7.500340360733468 0  15.47545532297267 0.0003197814985883062 0  15.4754860533942 7.500319839408744 0  20.47545541123241 0.0002991767418187106 0  20.47548619767047 7.50029923557518 0  25.47545557790786 0.000278497813713907 0  25.4754864096377 7.500278556740199 0  30.4754558476867 0.0002577586692451951 0  30.47548670379081 7.500257817712446 0  35.47545624325165 0.0002369788806361084 0  35.47548709436393 7.500237038461843 0  40.47545678584572 0.000216182184339079 0  40.4754875952612 7.500216242915413 0  45.47545749600044 0.0001953958467077076 0  45.47548822011123 7.500195458441667 0  50.47545839428157 0.00017465060654005 0  50.47548898238414 7.500174715851388 0  55.47545950200121 0.0001539810611511847 0  55.47548989551959 7.500154049812792 0  60.47546084188524 0.0001334264362660121 0  60.47549097302172 7.500133499635828 0  65.47546243869967 0.0001130317352923071 0  65.47549222847965 7.50011311042759 0  70.4754643198382 9.284931142387919e-05 0  70.4754936754684 7.500092934663782 0  75.47546651586936 7.294095527394368e-05 0  75.47549532726957 7.500073034266121 0  80.47546906102002 5.338065012501004e-05 0  80.47549719632737 7.500053483328983 0  85.47547199354362 3.425822702711261e-05 0  85.47549929331591 7.500034371707805 0  90.47547535586085 1.568426772062743e-05 0  90.47550162563263 7.500015809775611 0  95.47547919425654 -2.203222692118861e-06 0  95.47550419505168 7.499997934783267 0  100.4754835577095 -1.922958412242724e-05 0  100.4755069941566 7.499980919434813 0  105.4754884950516 -3.517050634885993e-05 0  105.4755100010376 7.499964983517478 0  110.4754940489055 -4.973341870654355e-05 0  110.4755131716204 7.499950409690061 0  115.4755002434169 -6.25304138169392e-05 0  115.4755164290203 7.499937564756579 0  120.4755070599768 -7.303835171149021e-05 0  120.4755196498031 7.499926927690203 0  125.4755143896169 -8.053966816570502e-05 0  125.4755226488228 7.49991912469853 0  130.4755219398764 -8.403489133446045e-05 0  130.4755251693157 7.499914968248732 0  135.4755290523207 -8.211678511692465e-05 0  135.4755268976967 7.499915488073906 0  140.475534343236 -7.280551898687346e-05 0  140.4755275535877 7.499921922795189 0  145.4755349874942 -5.34089242742309e-05 0  145.4755271813624 7.499935612712804 0  150.4755252440085 -2.082282169369026e-05 0  150.4755269656167 7.499957777996087 0  160.4755282581476 1.076684071494366e-18 0  165.4754761211732 -7.196040143131433e-05 0  165.4755184908578 7.499916964603841 0  160.4755336654115 7.499972963658435 0  170.4754475779312 -0.0001328639296774944 0  170.4755029251163 7.499861644497922 0  175.475431631532 -0.0001860484484265074 0  175.4754900948239 7.499810943984147 0  180.4754227358317 -0.0002332591829937449 0  180.4754803245415 7.499765005135936 0  185.4754179183616 -0.0002757868594687133 0  185.4754731873385 7.499723176544509 0  190.4754155237236 -0.0003146376546330416 0  190.4754681248988 7.499684725933821 0  195.4754146002745 -0.0003505872163972104 0  195.4754646344754 7.499649012674602 0  200.4754145837126 -0.0003842276729073312 0  200.4754623119341 7.499615515908994 0  205.4754151286874 -0.0004160108887017206 0  205.4754608474461 7.499583822720818 0  210.4754160170871 -0.000446284087110848 0  210.4754600083327 7.499553607663593 0  215.475417106962 -0.0004753171301535399 0  215.4754596211461 7.499524613302196 0  220.4754183033895 -0.0005033226332109373 0  220.475459556648 7.499496634266783 0  225.4754195414059 -0.0005304705569008224 0  225.4754597182266 7.499469504922549 0  230.4754207757211 -0.0005568987600748306 0  230.4754600333075 7.499443090061439 0  235.4754219743358 -0.0005827206713073241 0  235.4754604470942 7.499417277925599 0  240.4754231144655 -0.0006080309234238469 0  240.4754609180386 7.499391974967719 0  245.4754241798737 -0.0006329095479380572 0  245.475461414562 7.499367101885772 0  250.4754251590898 -0.0006574251452002023 0  250.4754619126808 7.499342590589459 0  255.4754260442116 -0.0006816373183362603 0  255.475462394285 7.499318381850719 0  260.4754268301045 -0.0007055985698160055 0  260.4754628458875 7.499294423462166 0  265.475427513899 -0.0007293557961835263 0  265.4754632577272 7.499270668780779 0  270.4754280947104 -0.0007529514692083072 0  270.4754636231344 7.499247075575633 0  275.4754285735708 -0.0007764245522193143 0  275.4754639380908 7.49922360513355 0  280.475428953545 -0.0007998111605126764 0  280.4754642009446 7.499200221610661 0  285.4754292400532 -0.0008231449243361248 0  285.4754644122217 7.499176891656945 0  290.4754294413914 -0.0008464569361530923 0  290.4754645745084 7.499153584392034 0  295.4754295694466 -0.0008697750326508286 0  295.4754646923473 7.499130271880576 0  300.4754296404863 -0.0008931219231378595 0  300.4754647721296 7.499106930350429 0  305.475429675683 -0.0009165112268091438 0  305.4754648220521 7.49908354251087 0  310.4754297003992 -0.0009399396352777892 0  310.4754648525441 7.499060101433812 0  5.475516396872994 15.00036090829082 0  0.4755163659270366 15.00038122581092 0  10.4755164520758 15.00034048892103 0  15.47551654431247 15.00031997183334 0  20.47551668266613 15.00029936510083 0  25.47551687481877 15.00027868163472 0  30.47551712795779 15.00025793873733 0  35.47551744903718 15.00023715744302 0  40.47551784477294 15.00021636205898 0  45.47551832153572 15.00019558001799 0  50.47551888519806 15.00017484205424 0  55.47551954094148 15.00015418269102 0  60.47552029300549 15.0001336410385 0  65.47552114434825 15.00011326192004 0  70.47552209617804 15.00009309737093 0  75.4755231473107 15.00007320858339 0  80.47552429329373 15.00005366840426 0  85.47552552524169 15.00003456452956 0  90.4755268283228 15.00001600357986 0  95.47552817987071 14.99999811627436 0  100.4755295471649 14.99998106392912 0  105.4755308851029 14.99996504643981 0  110.4755321343433 14.99995031166503 0  115.4755332212034 14.99993716549248 0  120.4755340618701 14.99992598040994 0  125.4755345756575 14.99991719727316 0  130.4755347154111 14.99991130853917 0  135.4755345274901 14.9999087984023 0  140.4755342567032 14.99990998965927 0  145.4755345034512 14.9999146922153 0  150.4755363862531 14.99992140032549 0  165.4755420026978 14.99988749883725 0  160.4755445053493 14.99992787515681 0  170.4755364760452 14.99984377760914 0  175.4755297969473 14.99980019061394 0  180.4755232643791 14.99975845512376 0  185.4755174925463 14.99971910994682 0  190.4755126807075 14.999682144834 0  195.4755088186087 14.99964733643054 0  200.4755058052693 14.99961440286839 0  205.4755035107944 14.99958306864114 0  210.4755018058813 14.9995530880889 0  215.4755005742355 14.99952425074796 0  220.4754997164459 14.99949637937468 0  225.4754991498863 14.99946932551055 0  230.4754988069851 14.99944296466909 0  235.4754986330196 14.99941719194661 0  240.475498583944 14.99939191829243 0  245.4754986244675 14.99936706743975 0  250.4754987264386 14.99934257341534 0  255.4754988675253 14.99931837852736 0  260.4754990301526 14.99929443173965 0  265.4754992006566 14.99927068735704 0  270.4754993686134 14.99924710396644 0  275.4754995262988 14.9992236435973 0  280.4754996682486 14.99920027108266 0  285.4754997909 14.99917695361845 0  290.4754998922826 14.99915366052742 0  295.4754999717989 14.99913036322333 0  300.4755000301461 14.99910703530545 0  305.4755000695754 14.99908365250099 0  310.4755000948487 14.99906019157364 0  5.475546710466226 22.50036113001604 0  0.475546679652567 22.50038138500187 0  10.47554675755122 22.50034073292039 0  15.47554683069443 22.50032021705659 0  20.4755469356786 22.50029960244304 0  25.47554707602957 22.5002789088083 0  30.4755472540535 22.50025815705423 0  35.47554747132337 22.5002373699216 0  40.47554772881489 22.50021657235057 0  45.47554802683445 22.50019579180341 0  50.4755483648245 22.50017505868495 0  55.47554874108492 22.50015440692857 0  60.47554915242455 22.50013387478912 0  65.4755495937422 22.50011350587687 0  70.47555005753027 22.5000933504686 0  75.47555053329793 22.50007346713933 0  80.47555100692095 22.50005392476202 0  85.47555145995116 22.5000348049197 0  90.47555186896771 22.50001620475285 0  95.4755522051303 22.49999824020698 0  100.4755524342386 22.49998104951598 0  105.4755525178152 22.49996479649704 0  110.4755524160666 22.49994967273812 0  115.475552094036 22.4999358968574 0  120.4755515328208 22.4999237074358 0  125.4755507482113 22.49991334358599 0  130.475549818977 22.49990500297801 0  135.4755489250031 22.49989876130372 0  140.4755483888154 22.49989443083079 0  145.4755486975008 22.49989133567819 0  150.4755504480021 22.49988801790398 0  165.4755606787947 22.49985478157448 0  160.4755572784825 22.4998854245819 0  170.4755611929554 22.49982006444511 0  175.4755596623299 22.4997836056316 0  180.4755569706303 22.49974702057773 0  185.4755538088573 22.49971124023618 0  190.4755506255295 22.49967669948951 0  195.4755476731232 22.49964353357018 0  200.4755450707884 22.49961171740503 0  205.4755428557499 22.49958115018909 0  210.4755410190095 22.49955170239399 0  215.4755395280935 22.49952324009056 0  220.4755383406911 22.4994956364731 0  225.4755374123947 22.49946877651006 0  230.4755367007952 22.49944255808217 0  235.4755361674272 22.49941689144332 0  240.4755357784854 22.4993916979737 0  245.475535504879 22.49936690871619 0  250.4755353219489 22.49934246293193 0  255.4755352090414 22.49931830677691 0  260.4755351490308 22.49929439213546 0  265.4755351278545 22.49927067561398 0  270.4755351340721 22.49924711768606 0  275.4755351584673 22.49922368197521 0  280.4755351936856 22.49920033465812 0  285.4755352339184 22.49917704396496 0  290.4755352746392 22.49915377973263 0  295.4755353124339 22.499130512
[...]
<PointData  Vectors="v"> 
<DataArray  type="Float64"  Name="v"  NumberOfComponents="3" format="ascii">3.3602244687114160e+00 6.6675422190901239e+00 0.0000000000000000e+00  3.8277034285688734e+00 6.0398231002722955e+00 0.0000000000000000e+00  3.3159476101481467e+00 5.3388698945518467e+00 0.0000000000000000e+00  2.9521052531963732e+00 6.1215987235293570e+00 0.0000000000000000e+00  4.3708367591004027e+00 6.3026333832374926e+00 0.0000000000000000e+00  3.7829628803635700e+00 5.4886535645974597e+00 0.0000000000000000e+00  4.8036098005845913e+00 6.8717416371825415e+00 0.0000000000000000e+00  4.3250405860971304e+00 6.2238203373535583e+00 0.0000000000000000e+00  5.1261437076597431e+00 6.7451095563363435e+00 0.0000000000000000e+00  4.7561464767802688e+00 6.2629732401497682e+00 0.0000000000000000e+00  5.5567877022515662e+00 7.0991606610228848e+00 0.0000000000000000e+00  5.0764321759069064e+00 6.4552539495589114e+00 0.0000000000000000e+00  5.8516029473810276e+00 6.9865529926951604e+00 0.0000000000000000e+00  5.5044091192879749e+00 6.5468064839501690e+00 0.0000000000000000e+00  5.8241884201722316e+00 6.4622773511791465e+00 0.0000000000000000e+00  5.7960606615263446e+00 6.5060884969419268e+00 0.0000000000000000e+00  6.5996500714459625e+00 7.0251318496946489e+00 0.0000000000000000e+00  5.7651544667456518e+00 5.8648934017690904e+00 0.0000000000000000e+00  4.6653932523074158e+00 3.5482095840194319e+00 0.0000000000000000e+00  6.5369044964778427e+00 6.4528336001207274e+00 0.0000000000000000e+00  1.3082833480787068e+01 1.5383782913990013e+01 0.0000000000000000e+00  4.5987559592375042e+00 2.7606976438494044e+00 0.0000000000000000e+00  1.3612555307316965e+01 1.5033862114673612e+01 0.0000000000000000e+00  1.3011725871547878e+01 1.4243062398837022e+01 0.0000000000000000e+00  1.3867366134996450e+01 1.4128087121687601e+01 0.0000000000000000e+00  1.3536948905382465e+01 1.3749225910628963e+01 0.0000000000000000e+00  1.4190941859540379e+01 1.3271394500537564e+01 0.0000000000000000e+00  1.3787512106760612e+01 1.2789493068780891e+01 0.0000000000000000e+00  1.4643330589995569e+01 1.2630087735279464e+01 0.0000000000000000e+00  1.4106743314440550e+01 1.1954825312237279e+01 0.0000000000000000e+00  1.5239900433272783e+01 1.2200735565307959e+01 0.0000000000000000e+00  1.4554956714452757e+01 1.1309374914314555e+01 0.0000000000000000e+00  1.5921610458836415e+01 1.1864452952307291e+01 0.0000000000000000e+00  1.5147207761454142e+01 1.0844957093157902e+01 0.0000000000000000e+00  1.6625443324355977e+01 1.1706799823184150e+01 0.0000000000000000e+00  1.5824727809474092e+01 1.0653865366718007e+01 0.0000000000000000e+00  1.7288642788237656e+01 1.1415600579092384e+01 0.0000000000000000e+00  1.6524985536605492e+01 1.0423221647329367e+01 0.0000000000000000e+00  1.7856543030355947e+01 1.1028149235585918e+01 0.0000000000000000e+00  1.7184921906756415e+01 1.0177672705912112e+01 0.0000000000000000e+00  1.8290503310908882e+01 1.0434318432513500e+01 0.0000000000000000e+00  1.7750575353410351e+01 9.7840136143784218e+00 0.0000000000000000e+00  1.8576427784011319e+01 9.6604416482829318e+00 0.0000000000000000e+00  1.8183394220178954e+01 9.2307798886435819e+00 0.0000000000000000e+00  1.8717036412466328e+01 8.3682150579733925e+00 0.0000000000000000e+00  1.8469885675974556e+01 8.1552900275207456e+00 0.0000000000000000e+00  1.8731126316596757e+01 7.2703480935596412e+00 0.0000000000000000e+00  1.8612119646174403e+01 7.2447644272777065e+00 0.0000000000000000e+00  1.8658215929108049e+01 5.2473515820613876e+00 0.0000000000000000e+00  1.8631409028499267e+01 5.3517099783179827e+00 0.0000000000000000e+00  1.8531609820899909e+01 3.9953183177960305e+00 0.0000000000000000e+00  1.8563814338092094e+01 4.1755330090924812e+00 0.0000000000000000e+00  1.8399321809710475e+01 1.4801033802123278e+00 0.0000000000000000e+00  1.8448723538766593e+01 1.6702416519231793e+00 0.0000000000000000e+00  1.8281989422618128e+01 5.6578003930361553e-01 0.0000000000000000e+00  1.8326049904567117e+01 7.2525579646615257e-01 0.0000000000000000e+00  1.8210704906057003e+01 -1.8203376826404576e+00 0.0000000000000000e+00  1.8228396944305270e+01 -1.7248174690910538e+00 0.0000000000000000e+00  1.8172537962759932e+01 -1.6724888120936836e+00 0.0000000000000000e+00  1.8171210165863883e+01 -1.6403461416282645e+00 0.0000000000000000e+00  1.8163563198079974e+01 4.4651136564704758e-11 0.0000000000000000e+00  1.8164429347621692e+01 8.6011464194749683e-04 0.0000000000000000e+00  1.8163563200132678e+01 -6.1043654690401133e-19 0.0000000000000000e+00  1.1542632164072669e+01 1.2308150907340226e-02 0.0000000000000000e+00  1.8177146718028879e+01 9.9399065107868836e+00 0.0000000000000000e+00  1.8164421975989722e+01 -8.7385521534176448e-04 0.0000000000000000e+00  1.2947449232536163e+01 -9.4298962726343449e-01 0.0000000000000000e+00  1.1558980733120972e+01 -3.0474616704601183e+00 0.0000000000000000e+00  1.1085579655058130e+01 -5.9968439486772960e+00 0.0000000000000000e+00  1.2965093465475311e+01 -3.2119912250409555e+00 0.0000000000000000e+00  1.0978769183273407e+01 -6.9642681122536594e+00 0.0000000000000000e+00  1.1107710481751687e+01 -6.8091297526957062e+00 0.0000000000000000e+00  1.0054860057877436e+01 -1.0017581872098132e+01 0.0000000000000000e+00  1.1008152124007541e+01 -8.6400351198585685e+00 0.0000000000000000e+00  9.4675683694889834e+00 -1.1169543946614109e+01 0.0000000000000000e+00  1.0092988278309736e+01 -1.0297376878386199e+01 0.0000000000000000e+00  8.7591362611681909e+00 -1.2350926442642841e+01 0.0000000000000000e+00  9.5154394234638922e+00 -1.1298739306988301e+01 0.0000000000000000e+00  8.1702468372392101e+00 -1.2541286560813225e+01 0.0000000000000000e+00  8.8183537006973562e+00 -1.1668619228556990e+01 0.0000000000000000e+00  7.3915598694040154e+00 -1.2494338768491781e+01 0.0000000000000000e+00  8.2416081124778877e+00 -1.1338185656535362e+01 0.0000000000000000e+00  6.8745613086246733e+00 -1.1726915810298516e+01 0.0000000000000000e+00  7.4757793007825191e+00 -1.0963796092852292e+01 0.0000000000000000e+00  6.4814876295351294e+00 -1.0808397192786575e+01 0.0000000000000000e+00  6.9724946160876673e+00 -1.0231657632813739e+01 0.0000000000000000e+00  6.0329300614301742e+00 -9.8665735732212845e+00 0.0000000000000000e+00  6.5936890072983259e+00 -9.2071124295328470e+00 0.0000000000000000e+00  5.5937120834968033e+00 -8.9225016974614881e+00 0.0000000000000000e+00  6.1598192217845895e+00 -8.2774720389252820e+00 0.0000000000000000e+00  5.1678432758922321e+00 -8.0772288772724359e+00 0.0000000000000000e+00  5.7358021697825521e+00 -7.4524321441827492e+00 0.0000000000000000e+00  4.7199582769352428e+00 -7.3039739468069538e+00 0.0000000000000000e+00  5.3254505999835908e+00 -6.6464369450487686e+00 0.0000000000000000e+00  4.2990942707645612e+00 -6.5602802743877380e+00 0.0000000000000000e+00  4.8932788880291485e+00 -5.9434460210616411e+00 0.0000000000000000e+00  3.9160974036270613e+00 -5.8907947096588318e+00 0.0000000000000000e+00  4.4883563085835831e+00 -5.3308134064206616e+00 0.0000000000000000e+00  3.5430466775473071e+00 -5.2608138888951110e+00 0.0000000000000000e+00  4.1213842580303242e+00 -4.7158390096937266e+00 0.0000000000000000e+00  3.2032433354199998e+00 -4.6466579941108614e+00 0.0000000000000000e+00  3.7643963065307893e+00 -4.1515428148504947e+00 0.0000000000000000e+00  2.9087476185151626e+00 -4.0914133913755508e+00 0.0000000000000000e+00  3.4406326705183496e+00 -3.6642437698397052e+00 0.0000000000000000e+00  2.6277252736146952e+00 -3.5230353132042795e+00 0.0000000000000000e+00  3.1621897180133773e+00 -3.1159494965510222e+00 0.0000000000000000e+00  2.3789632609937459e+00 -3.0341256487129948e+00 0.0000000000000000e+00  2.8969984362154411e+00 -2.6754643306587313e+00 0.0000000000000000e+00  2.1578293421757930e+00 -2.5009698427672253e+00 0.0000000000000000e+00  2.6641579774510213e+00 -2.1834112260577054e+00 0.0000000000000000e+00  1.9512022266110018e+00 -2.1524014268956289e+00 0.0000000000000000e+00  2.4584462798228284e+00 -1.8568477562964139e+00 0.0000000000000000e+00  1.7504550131619145e+00 -1.6036578367921297e+00 0.0000000000000000e+00  2.2676837374175136e+00 -1.3161345555673369e+00 0.0000000000000000e+00  1.5510207935857896e+00 -1.5716514743331933e+00 0.0000000000000000e+00  2.0815846433282381e+00 -1.2870556405421532e+00 0.0000000000000000e+00  1.3348304359271996e+00 -9.1926240521303559e-01 0.0000000000000000e+00  1.8983456589987329e+00 -6.0753232015819036e-01 0.0000000000000000e+00  1.0167650802214780e+00 -1.4607953109712293e+00 0.0000000000000000e+00  1.6952892612318717e+00 -9.9921661011612106e-01 0.0000000000000000e+00  5.0501986097394036e-01 -1.2335714845406067e+00 0.0000000000000000e+00  1.3953723010669838e+00 -4.7589197996432270e-01 0.0000000000000000e+00  -6.9795535732743752e-01 -1.8339786266135297e-01 0.0000000000000000e+00  8.9089085523946621e-01 1.6003672103033895e+00 0.0000000000000000e+00  3.0459338266988505e+00 4.7933637853922964e+00 0.0000000000000000e+00  2.6386538562274460e+00 5.5102440547104337e+00 0.0000000000000000e+00  3.4090637998843758e+00 4.7890327269883439e+00 0.0000000000000000e+00  3.8741713900159138e+00 5.4122892582406514e+00 0.0000000000000000e+00  4.4131459072215913e+00 5.6186443629980785e+00 0.0000000000000000e+00  4.8399059113093719e+00 5.9779690637172536e+00 0.0000000000000000e+00  5.1545532578473292e+00 5.9085785058581912e+00 0.0000000000000000e+00  5.5757953244298797e+00 6.0729575102695810e+00 0.0000000000000000e+00  5.8597855062748208e+00 5.9161955440875831e+00 0.0000000000000000e+00  5.8204428056108322e+00 5.3001721117980294e+00 0.0000000000000000e+00  6.5838228915169479e+00 5.6726380843039683e+00 0.0000000000000000e+00  4.6371737232275025e+00 1.6297117136402242e+00 0.0000000000000000e+00  1.3038959293891567e+01 1.2968257590385079e+01 0.0000000000000000e+00  1.3553274175095572e+01 1.2418932407193960e+01 0.0000000000000000e+00  1.3794667326966923e+01 1.1481816568104769e+01 0.0000000000000000e+00  1.4104286462239429e+01 1.0642501588825299e+01 0.0000000000000000e+00  1.4542751615792728e+01 9.9627525794219860e+00 0.0000000000000000e+00  1.5124375564693024e+01 9.6443036226211412e+00 0.0000000000000000e+00  1.5790488231490938e+01 9.3794386956280764e+00 0.0000000000000000e+00  1.6479167755071863e+01 9.1945116506690763e+00 0.0000000000000000e+00  1.7127524140130443e+01 8.9425021852510422e+00 0.0000000000000000e+00  1.7681773133992991e+01 8.5871616996828521e+00 0.0000000000000000e+00  1.8104764202325907e+01 7.7308836377519405e+00 0.0000000000000000e+00  1.8382912834795512e+01 7.0348301933382560e+00 0.0000000000000000e+00  1.8519679275947020e+01 5.3249057106889763e+00 0.0000000000000000e+00  1.8536761711943896e+01 4.2747734216404680e+00 0.0000000000000000e+00  1.8472669756107940e+01 1.8412077580869775e+00 0.0000000000000000e+00  1.8364610267535209e+01 8.9677498991260329e-01 0.0000000000000000e+00  1.8260534221307257e+01 -1.5837409260662909e+00 0.0000000000000000e+00  1.8182348858499044e+01 -1.5842096231236908e+00 0.0000000000000000e+00  1.8166525163350194e+01 1.6410153904122813e-03 0.0000000000000000e+00  1.8181391309417457e+01 9.8811346444991397e+00 0.0000000000000000e+00  1.8166511493990221e+01 -1.7683880815254412e-03 0.0000000000000000e+00  1.8237898293550657e+01 6.8786269570994536e+00 0.0000000000000000e+00  1.1610385252111765e+01 -5.3126176346916862e+00 0.0000000000000000e+00  1.3007613362478006e+01 -4.0223182683116967e+00 0.0000000000000000e+00  1.1150686902990165e+01 -8.4923035944561089e+00 0.0000000000000000e+00  1.1054862922519126e+01 -8.9292589094092385e+00 0.0000000000000000e+00  1.0147280421479934e+01 -1.0436356488156795e+01 0.0000000000000000e+00  9.5778127929000902e+00 -1.0629137682831015e+01 0.0000000000000000e+00  8.8908823886025274e+00 -1.0479432073757872e+01 0.0000000000000000e+00  8.3249825084885209e+00 -9.8216707220110067e+00 0.0000000000000000e+00  7.5706700041500037e+00 -9.4839998741743585e+00 0.0000000000000000e+00  7.0796435085972664e+00 -8.6466311401581830e+00 0.0000000000000000e+00  6.7137721735162863e+00 -7.6344582511341077e+00 0.0000000000000000e+00  6.2932391511389589e+00 -6.8247191487075369e+00 0.0000000000000000e+00  5.8831864007029804e+00 -6.0395209964925041e+00 0.0000000000000000e+00  5.4872535407783793e+00 -5.3038716302841014e+00 0.0000000000000000e+00  5.0697319494225184e+00 -4.7323207056291121e+00 0.0000000000000000e+00  4.6796821772553985e+00 -4.1743799553397460e+00 0.0000000000000000e+00  4.3276880880329527e+00 -3.6249562621024021e+00 0.0000000000000000e+00  3.9855874968257679e+00 -3.1875197262627322e+00 0.0000000000000000e+00  3.6766312323463040e+00 -2.7070628890937662e+00 0.0000000000000000e+00  3.4127774655458247e+00 -2.2863697446728453e+00 0.0000000000000000e+00  3.1619371791514723e+00 -1.8425167095612995e+00 0.0000000000000000e+00  2.9430503809504054e+00 -1.5567317614528580e+00 0.0000000000000000e+00  2.7510756331777872e+00 -1.0377124561448841e+00 0.0000000000000000e+00  2.5733912549856237e+00 -1.0162650682748693e+00 0.0000000000000000e+00  2.4004327892324038e+00 -3.3922577073970717e-01 0.0000000000000000e+00  2.2290735803217316e+00 -7.0366376487473192e-01 0.0000000000000000e+00  2.0389035170032335e+00 -3.0593638036992131e-02 0.0000000000000000e+00  1.7497508425926287e+00 2.3473323981884096e+00 0.0000000000000000e+00  2.9501599158413931e+00 4.1830098884099431e+00 0.0000000000000000e+00  2.5788514742075623e+00 4.9526267090278164e+00 0.0000000000000000e+00  3.3563664685615038e+00 4.2458183596754173e+00 0.0000000000000000e+00  3.7169079139199406e+00 4.7173911304503209e+00 0.0000000000000000e+00  4.1775986263385807e+00 4.8146879461433931e+00 0.0000000000000000e+00  4.7096874416158414e+00 5.3440468160739751e+00 0.0000000000000000e+00  5.1270801807399486e+00 5.4445660320560521e+00 0.0000000000000000e+00  5.4299511385846602e+00 5.4507728822875796e+00 0.0000000000000000e+00  5.8370682721715967e+00 5.5011974887094777e+00 0.0000000000000000e+00  6.1052010261478280e+00 5.3709372323140325e+00 0.0000000000000000e+00  6.0493631441023545e+00 4.5391469604182948e+00 0.0000000000000000e+00  6.7968625012930088e+00 4.5613957983722866e+00 0.0000000000000000e+00  4.8326115223355552e+00 3.8081445533406322e-01 0.0000000000000000e+00  1.3212074911628081e+01 1.1663268747857215e+01 0.0000000000000000e+00  1.3705707910414834e+01 1.1131848835397026e+01 0.0000000000000000e+00  1.3930066946873598e+01 1.0190639304286947e+01 0.0000000000000000e+00  1.4222230464116670e+01 9.3184480216990391e+00 0.0000000000000000e+00  1.4641454766390849e+01 8.7867256776225187e+00 0.0000000000000000e+00  1.5201335934746565e+01 8.3966027399184942e+00 0.0000000000000000e+00  1.5843541685895705e+01 8.1792232486630407e+00 0.0000000000000000e+00  1.6506084043418483e+01 7.9883404487080822e+00 0.0000000000000000e+00  1.7126921414380718e+01 7.7741058440121114e+00 0.0000000000000000e+00  1.7653769214008346e+01 7.1145350885719187e+00 0.0000000000000000e+00  1.8049802471931795e+01 6.6327807116302573e+00 0.0000000000000000e+00  1.8304417648138102e+01 5.1333210867907182e+00 0.0000000000000000e+00  1.8421421476073537e+01 4.2555764652085486e+00 0.0000000000000000e+00  1.8427596680253682e+01 1.9411813089275127e+00 0.0000000000000000e+00  1.8359897116249257e+01 1.0463916000776887e+00 0.0000000000000000e+00  1.8266803074535137e+01 -1.4368367073896668e+00 0.0000000000000000e+00  1.8185124200722040e+01 -1.5158501748875006e+00 0.0000000000000000e+00  1.8169797064860798e+01 2.3476974354012092e-03 0.0000000000000000e+00  1.8175875997245797e+01 9.8289426600079679e+00 0.0000000000000000e+00  1.8169784488280069e+01 -2.5586357782131112e-03 0.0000000000000000e+00  1.8231519971648556e+01 6.7846870166458881e+00 0.0000000000000000e+00  1.8284631775120484e+01 4.6425591918465186e+00 0.0000000000000000e+00  1.1638345589704551e+01 -6.1062712933953156e+00 0.0000000000000000e+00  1.3022396412366877e+01 -5.7082582131916411e+00 0.0000000000000000e+00  1.1167697993876756e+01 -8.7899040208143688e+00 0.0000000000000000e+00  1.1080163089228520e+01 -9.0847250388095553e+00 0.0000000000000000e+00  1.0184927115400926e+01 -9.7849099026229727e+00 0.0000000000000000e+00  9.6291448823540069e+00 -9.4607201327335488e+00 0.0000000000000000e+00  8.9575242748705755e+00 -8.9850412276682796e+00 0.0000000000000000e+00  8.4072582136894010e+00 -8.3654840117327822e+00 0.0000000000000000e+00  7.6694610596425328e+00 -7.9234689905618705e+00 0.0000000000000000e+00  7.1956073190205778e+00 -7.0997465580517227e+00 0.0000000000000000e+00  6.8475260181713660e+00 -6.2085385316176733e+00 0.0000000000000000e+00  6.4456015338340240e+00 -5.4396730588294311e+00 0.0000000000000000e+00  6.0550211587148279e+00 -4.7257766977876630e+00 0.0000000000000000e+00  5.6791672975087089e+00 -4.1221867755353427e+00 0.0000000000000000e+00  5.2821858552583034e+00 -3.6056457576281327e+00 0.0000000000000000e+00  4.9129373142999917e+00 -3.1133812763460900e+00 0.0000000000000000e+00  4.5817178140856676e+00 -2.6907120236738695e+00 0.0000000000000000e+00  4.2602393307967130e+00 -2.2596829141896397e+00 0.0000000000000000e+00  3.9715165424675276e+00 -1.9064523141391527e+00 0.0000000000000000e+00  3.7274768721202509e+00 -1.4815022978716188e+00 0.0000000000000000e+00  3.4956578657939619e+00 -1.2434739133563542e+00 0.0000000000000000e+00  3.2953479998617046e+00 -7.6374034645338107e-01 0.0000000000000000e+00  3.1207062761327458e+00 -7.6408150435003119e-01 0.0000000000000000e+00  2.9602536701138495e+00 -9.1839932631430268e-02 0.0000000000000000e+00  2.8023121710371570e+00 -4.6110451748889092e-01 0.0000000000000000e+00  2.6479096507704902e+00 2.4566350014017799e-01 0.0000000000000000e+00  2.4682448349354806e+00 2.7659501879709563e+00 0.0000000000000000e+00  3.1253388953900956e+00 3.6267359535884944e+00 0.0000000000000000e+00  2.7796419329504194e+00 4.4331921429670391e+00 0.0000000000000000e+00  3.4954723407192159e+00 3.6380487303514530e+00 0.0000000000000000e+00  3.8991329853890591e+00 4.1792688356072292e+00 0.0000000000000000e+00  4.2554828200732517e+00 4.1280440471203494e+00 0.0000000000000000e+00  4.7093489560035433e+00 4.5525241858883456e+00 0.0000000000000000e+00  5.2314580842058707e+00 4.8276424462030931e+00 0.0000000000000000e+00  5.6352627324015723e+00 5.0080964464270989e+00 0.0000000000000000e+00  5.9210488794635090e+00 4.9044249153934842e+00 0.0000000000000000e+00  6.3081507654662365e+00 4.9842789098052140e+00 0.0000000000000000e+00  6.5546106699766336e+00 4.6384095802250904e+00 0.0000000000000000e+00  6.4771689695254411e+00 3.4552193073145601e+00 0.0000000000000000e+00  7.2039400275089447e+00 3.3435253225313843e+00 0.0000000000000000e+00  5.2156314489651256e+00 -8.8513932137074691e-01 0.0000000000000000e+00  1.3565573566488618e+01 1.0411263607091357e+01 0.0000000000000000e+00  1.4034043439586259e+01 9.8686782210787918e+00 0.0000000000000000e+00  1.4238456080558413e+01 8.8955008184953996e+00 0.0000000000000000e+00  1.4509233555484039e+01 8.1751002227628646e+00 0.0000000000000000e+00  1.4903755204203067e+01 7.5777937225259491e+00 0.0000000000000000e+00  1.5433466484787894e+01 7.2400929841030166e+00 0.0000000000000000e+00  1.6040392726575870e+01 7.0223491786703862e+00 0.0000000000000000e+00  1.6662876722381093e+01 6.8732874295386255e+00 0.0000000000000000e+00  1.7239829582318642e+01 6.3565890786637844e+00 0.0000000000000000e+00  1.7720275953722016e+01 6.0706396337178159e+00 0.0000000000000000e+00  1.8070793455923145e+01 4.7831469511028670e+00 0.0000000000000000e+00  1.8281648690422021e+01 4.1049099653932464e+00 0.0000000000000000e+00  1.8363926580506796e+01 1.9539920389082530e+00 0.0000000000000000e+00  1.8343877767563178e+01 1.1508813139702729e+00 0.0000000000000000e+00  1.8273488896858819e+01 -1.2948982941209313e+00 0.0000000000000000e+00  1.8191997208522306e+01 -1.4404313173329895e+00 0.0000000000000000e+00  1.8174118434366594e+01 2.9769776209886819e-03 0.0000000000000000e+00  1.8176365045657171e+01 9.8086250115546338e+00 0.0000000000000000e+00  1.8174106433511010e+01 -3.2573858602734838e-03 0.0000000000000000e+00  1.8190006301750472e+01 6.7024215938276086e+00 0.0000000000000000e+00  1.8236017189683139e+01 4.5671947