<?xml version="1.0"?>
<VTKFile type="UnstructuredGrid"  version="0.1"  >
<UnstructuredGrid>
<Piece  NumberOfPoints="1933" NumberOfCells="3640">
<Points>
<DataArray  type="Float64"  NumberOfComponents="3"  format="ascii">0.475472483875381 -0.0002136507559283921 0  5.47547253114561 -0.0002313707879068243 0  5.475499153607241 7.49976877234695 0  0.475499066546748 7.499786423623658 0  10.47547259445135 -0.0002492186700625441 0  10.47549931018057 7.499750947710273 0  15.47547274190673 -0.000267249981599978 0  15.4754995725313 7.499732922466608 0  20.47547304668724 -0.0002854642591259432 0  20.47549997580042 7.499714708153116 0  25.47547357638059 -0.0003038279515708308 0  25.47550055441597 7.499696342958805 0  30.47547439071642 -0.0003222868809775411 0  30.47550134123529 7.499677883036438 0  35.47547554240049 -0.000340772994610996 0  35.47550236692016 7.499659397260595 0  40.47547707894082 -0.0003592076883220784 0  40.47550365969879 7.499640964561279 0  45.47547904462803 -0.0003775029285510371 0  45.47550524537287 7.499622673099259 0  50.47548148235851 -0.0003955608504936899 0  50.47550714738783 7.499604620803401 0  55.47548443520821 -0.0004132721831093123 0  55.47550938681677 7.49958691700465 0  60.47548794773702 -0.0004305136376334729 0  60.47551198212333 7.499569685066953 0  65.47549206702564 -0.0004471442383894485 0  65.47551494856677 7.499553066049984 0  70.47549684341462 -0.0004630004374825581 0  70.47551829709064 7.499537223560494 0  75.4755023308776 -0.0004778897112008291 0  75.47552203247858 7.499522350078032 0  80.47550858686566 -0.0004915821593122734 0  80.47552615046622 7.499508675194845 0  85.4755156713257 -0.000503799387350052 0  85.4755306333728 7.499496476408335 0  90.47552364433383 -0.0005141996025405608 0  90.47553544360589 7.499486093371204 0  95.47553256135112 -0.0005223573312087877 0  95.47554051412939 7.499477946860628 0  100.4755424642795 -0.0005277353710807197 0  100.4755457346488 7.499472564187959 0  105.4755533650036 -0.000529645380911146 0  105.4755509318907 7.499470613312331 0  110.4755652152435 -0.0005271916809316179 0  110.4755558421488 7.499472948410807 0  115.4755778511802 -0.0005191901535093039 0  115.4755600747269 7.499480669689278 0  120.4755908909868 -0.0005040504499029045 0  120.4755630672797 7.499495198712396 0  125.4756035435711 -0.00047960546888545 0  125.4755640414213 7.499518364915405 0  130.4756142484427 -0.0004428700468188287 0  130.4755619862211 7.499552483511632 0  135.4756199918327 -0.000389722526950119 0  135.4755557440326 7.499600368433894 0  140.4756149956883 -0.0003145753380443281 0  140.4755443831287 7.499665150736431 0  145.4755881645204 -0.0002104411560803319 0  145.4755283018973 7.499749684054904 0  150.4755179199403 -7.142035185040412e-05 0  150.4755121722839 7.499855577673861 0  160.4755282581469 1.0696788634518e-18 0  165.475406852496 -0.0001890631479700459 0  165.4755079143253 7.499779505725401 0  160.4755401481626 7.49992634588983 0  170.4753483756081 -0.0003392641818377186 0  170.4754750514088 7.499645015290853 0  175.4753220926779 -0.0004618076522061488 0  175.4754493598782 7.49952968068766 0  180.4753126959531 -0.0005633837638319887 0  180.4754314150338 7.499431813422353 0  185.4753122085832 -0.0006489095475505531 0  185.4754198979415 7.499348308108543 0  190.4753163653044 -0.0007220961119109335 0  190.4754132255572 7.499276260191605 0  195.4753228430112 -0.000785727410262024 0  195.4754100280375 7.499213288065051 0  200.4753303571628 -0.0008418856910258133 0  200.4754092418976 7.499157521401932 0  205.4753381890055 -0.0008921347545672242 0  205.4754100808597 7.499107511258614 0  210.4753459337146 -0.000937660063836966 0  210.4754119775384 7.499062135687577 0  215.4753533639189 -0.0009793715131341035 0  215.4754145274834 7.499020520589459 0  220.4753603543898 -0.001017977262922984 0  220.4754174441592 7.498981978393259 0  225.4753668396636 -0.001054036445168903 0  225.4754205252684 7.498945962083782 0  230.4753727897063 -0.001087996887784309 0  230.475423628441 7.498912031146834 0  235.4753781956646 -0.001120222345831843 0  235.4754266539889 7.498879826366817 0  240.4753830613843 -0.001151012393668236 0  240.4754295327691 7.49884905107537 0  245.475387398319 -0.001180617156594386 0  245.4754322176754 7.498819457075165 0  250.4753912224911 -0.00120924837703501 0  250.4754346776877 7.498790833960399 0  255.4753945527513 -0.001237087839826252 0  255.475436893733 7.498763000928204 0  260.4753974099003 -0.001264293856829429 0  260.4754388558311 7.498735800445998 0  265.4753998164393 -0.001291006282322988 0  265.4754405611695 7.498709093339285 0  270.4754017968114 -0.001317350359854959 0  270.4754420128593 7.498682755017157 0  275.4754033780886 -0.001343439558932106 0  275.4754432191737 7.498656672679859 0  280.4754045910926 -0.001369377418571008 0  280.475444193134 7.498630743473594 0  285.4754054719583 -0.001395258242786972 0  285.4754449523106 7.498604873690891 0  290.4754060640854 -0.001421166245225121 0  290.4754455186903 7.498578979278308 0  295.4754064203253 -0.00144717234442679 0  295.4754459185052 7.498552988123546 0  300.4754066047962 -0.001473327149808169 0  300.4754461819506 7.498526844857086 0  305.4754066928417 -0.001499647583007097 0  305.4754463431069 7.498500519196598 0  310.4754067653645 -0.001526092992055033 0  310.4754464414441 7.498474019184011 0  5.475525382015389 14.9997690965069 0  0.4755252879493623 14.99978660494612 0  10.47552553559409 14.99975131168341 0  15.47552577902545 14.99973328305982 0  20.4755261322038 14.99971505057899 0  25.47552661069506 14.99969666523184 0  30.47552722793276 14.99967818849479 0  35.47552799567393 14.99965969106259 0  40.47552892375595 14.99964125208594 0  45.47553001957584 14.99962295923197 0  50.47553128741982 14.99960490959811 0  55.47553272763728 14.99958721145579 0  60.47553433559327 14.99956998683063 0  65.47553610030253 14.99955337498416 0  70.47553800262551 14.99953753693266 0  75.47554001289171 14.99952266121733 0  80.4755420878006 14.99950897122429 0  85.47554416645913 14.99949673444072 0  90.47554616546127 14.99948627411004 0  95.4755479730687 14.99947798377704 0  100.4755494428808 14.99947234510596 0  105.4755503881208 14.99946994892186 0  110.4755505790499 14.99947151828353 0  115.4755497486493 14.99947792977287 0  120.4755476162556 14.99949022360279 0  125.4755439463133 14.99950958184324 0  130.4755386703429 14.99953723208092 0  135.4755321130246 14.99957419246093 0  140.4755253683497 14.9996206971945 0  145.4755208344213 14.99967498803146 0  150.4755227189821 14.9997307444936 0  165.4755535283232 14.9996927757778 0  160.4755563482186 14.99978673482783 0  170.475541897969 14.99959398139763 0  175.475527253623 14.9994998305421 0  180.4755131668464 14.99941420817421 0  185.475501200268 14.99933778661332 0  190.4754917758935 14.99926987955186 0  195.4754847706062 14.99920936442199 0  200.4754798455915 14.99915508149089 0  205.4754766107305 14.9991059846088 0  210.4754746985128 14.99906118228779 0  215.4754737916684 14.99901993398873 0  220.4754736286795 14.99898163077049 0  225.4754739997352 14.99894577275953 0  230.475474739329 14.99891194828701 0  235.475475718409 14.99887981618873 0  240.4754768372556 14.99884909137824 0  245.4754780194885 14.99881953330462 0  250.4754792072206 14.99879093678785 0  255.4754803572236 14.99876312475555 0  260.4754814379472 14.99873594248899 0  265.4754824272018 14.99870925307515 0  270.4754833103779 14.99868293384964 0  275.4754840790453 14.998656873691 0  280.4754847298469 14.99863097109576 0  285.4754852636087 14.99860513302022 0  290.4754856846326 14.99857927450615 0  295.4754860002893 14.998553319072 0  300.4754862211684 14.9985271996534 0  305.4754863624877 14.99850085926664 0  310.4754864480399 14.99847424894257 0  5.475551220742921 22.4997697388719 0  0.475551129093568 22.49978713481681 0  10.47555134664088 22.49975197415935 0  15.47555152729044 22.49973391988577 0  20.47555177315897 22.49971564434811 0  25.47555208879517 22.49969721385499 0  30.47555247522566 22.49967869716624 0  35.47555293095163 22.49966016764768 0  40.47555345205874 22.4996417045542 0  45.47555403180993 22.49962339419441 0  50.47555465993337 22.49960533134792 0  55.47555532170006 22.49958762112112 0  60.47555599682648 22.49957038134843 0  65.47555665820292 22.49955374562711 0  70.47555727044916 22.49953786707309 0  75.47555778832319 22.49952292289369 0  80.47555815506497 22.49950911986197 0  85.47555830086741 22.49949670073471 0  90.47555814185411 22.49948595153454 0  95.4755575802602 22.49947720935403 0  100.4755565070123 22.49947086981368 0  105.4755548086788 22.49946739231574 0  110.4755523818808 22.4994672994394 0  115.4755491597321 22.49947116368843 0  120.4755451565035 22.4994795695519 0  125.4755405377379 22.49949303049387 0  130.4755357214347 22.49951182827622 0  135.4755315071803 22.49953572678224 0  140.4755292051056 22.49956350101107 0  145.4755306795068 22.49959224073792 0  150.4755381127674 22.49961653892382 0  165.4755774140826 22.499595450213 0  160.4755673597337 22.4996557293804 0  170.4755791539272 22.49952571732786 0  175.475575294796 22.49945351357662 0  180.4755684737316 22.49938325153999 0  185.4755606297754 22.49931719022419 0  190.4755529543762 22.4992561598882 0  195.4755460725047 22.49920018889022 0  200.4755402414975 22.49914891544463 0  205.4755355034824 22.49910182415555 0  210.4755317868115 22.49905836989253 0  215.4755289682003 22.49901803656867 0  220.4755269083733 22.4989803607568 0  225.4755254711033 22.49894493742876 0  230.4755245323714 22.49891141729238 0  235.4755239839203 22.49887950069481 0  240.4755237337901 22.49884893058027 0  245.4755237053554 22.49881948566187 0  250.4755238357097 22.49879097428772 0  255.4755240738735 22.49876322914295 0  260.4755243790309 22.49873610277878 0  265.4755247189245 22.49870946389648 0  270.4755250684196 22.49868319430092 0  275.4755254082515 22.49865718643867 0  280.4755257239538 22.49863134143876 0  285.4755260049714 22.49860556755502 0  290.4755262440277 22.49857977884834 0  295.4755264368725 22.4985538937
[...]
<PointData  Vectors="v"> 
<DataArray  type="Float64"  Name="v"  NumberOfComponents="3" format="ascii">3.3592119325140719e+00 6.6673283922665787e+00 0.0000000000000000e+00  3.8267890081477174e+00 6.0430057282154790e+00 0.0000000000000000e+00  3.3149581538017081e+00 5.3419055348742122e+00 0.0000000000000000e+00  2.9511554028944467e+00 6.1214446841113377e+00 0.0000000000000000e+00  4.3701941271133222e+00 6.3071206649143026e+00 0.0000000000000000e+00  3.7820711543769083e+00 5.4927326256825522e+00 0.0000000000000000e+00  4.8032169233261053e+00 6.8759950625410626e+00 0.0000000000000000e+00  4.3244204370646360e+00 6.2276984462430711e+00 0.0000000000000000e+00  5.1259668822598181e+00 6.7500326286008976e+00 0.0000000000000000e+00  4.7557763794566963e+00 6.2675721507957673e+00 0.0000000000000000e+00  5.5569168416800192e+00 7.1043484223692346e+00 0.0000000000000000e+00  5.0762779960846496e+00 6.4599822888442668e+00 0.0000000000000000e+00  5.8518976398703693e+00 6.9920835640631367e+00 0.0000000000000000e+00  5.5045610651902717e+00 6.5520886770036970e+00 0.0000000000000000e+00  5.8244398449470633e+00 6.4675957249218019e+00 0.0000000000000000e+00  5.7963781469933835e+00 6.5114721611741642e+00 0.0000000000000000e+00  6.6000374218984010e+00 7.0306627024486845e+00 0.0000000000000000e+00  5.7654287668681095e+00 5.8702196876098354e+00 0.0000000000000000e+00  4.6660067888195353e+00 3.5539430373025311e+00 0.0000000000000000e+00  6.5373147119982464e+00 6.4582311412575661e+00 0.0000000000000000e+00  1.3082795661121080e+01 1.5388489387428399e+01 0.0000000000000000e+00  4.5993926092007449e+00 2.7663686247803527e+00 0.0000000000000000e+00  1.3612514806560871e+01 1.5038743641065340e+01 0.0000000000000000e+00  1.3011710752170472e+01 1.4247948227568676e+01 0.0000000000000000e+00  1.3867323708427890e+01 1.4133142819025993e+01 0.0000000000000000e+00  1.3536931172592556e+01 1.3754285513027886e+01 0.0000000000000000e+00  1.4190898586783245e+01 1.3276540986285795e+01 0.0000000000000000e+00  1.3787492477972689e+01 1.2794641912432358e+01 0.0000000000000000e+00  1.4643287474142019e+01 1.2635378575749840e+01 0.0000000000000000e+00  1.4106722779046747e+01 1.1960116818105465e+01 0.0000000000000000e+00  1.5239858385326972e+01 1.2206068554960293e+01 0.0000000000000000e+00  1.4554936247686072e+01 1.1314706938359732e+01 0.0000000000000000e+00  1.5921570237083943e+01 1.1869739120470646e+01 0.0000000000000000e+00  1.5147188234164306e+01 1.0850241032567100e+01 0.0000000000000000e+00  1.6625405269385329e+01 1.1712093360454565e+01 0.0000000000000000e+00  1.5824709648943452e+01 1.0659155759798200e+01 0.0000000000000000e+00  1.7288607251751944e+01 1.1420863262829336e+01 0.0000000000000000e+00  1.6524969325498464e+01 1.0428481006543537e+01 0.0000000000000000e+00  1.7856509816884081e+01 1.1033315002223691e+01 0.0000000000000000e+00  1.7184907727365616e+01 1.0182835811151396e+01 0.0000000000000000e+00  1.8290471958276253e+01 1.0439588808572580e+01 0.0000000000000000e+00  1.7750563082164287e+01 9.7892829969002495e+00 0.0000000000000000e+00  1.8576397356723959e+01 9.6657598621744256e+00 0.0000000000000000e+00  1.8183383295981329e+01 9.2360997670823917e+00 0.0000000000000000e+00  1.8717006748891734e+01 8.3737505497952327e+00 0.0000000000000000e+00  1.8469876308783920e+01 8.1608310907520192e+00 0.0000000000000000e+00  1.8731094714903218e+01 7.2761407980181794e+00 0.0000000000000000e+00  1.8612109412102644e+01 7.2505669477119561e+00 0.0000000000000000e+00  1.8658185496556950e+01 5.2539147121686440e+00 0.0000000000000000e+00  1.8631400461109262e+01 5.3582873004498737e+00 0.0000000000000000e+00  1.8531575101096649e+01 4.0022391360385772e+00 0.0000000000000000e+00  1.8563802617724988e+01 4.1824720583038451e+00 0.0000000000000000e+00  1.8399294369494882e+01 1.4886577399585568e+00 0.0000000000000000e+00  1.8448715927268424e+01 1.6788129987555971e+00 0.0000000000000000e+00  1.8281957388993842e+01 5.7497125492199119e-01 0.0000000000000000e+00  1.8326038499643722e+01 7.3446541125754772e-01 0.0000000000000000e+00  1.8210696253535307e+01 -1.8089967638178941e+00 0.0000000000000000e+00  1.8228394131397959e+01 -1.7134811338347977e+00 0.0000000000000000e+00  1.8172539558782500e+01 -1.6577451862190109e+00 0.0000000000000000e+00  1.8171209988956683e+01 -1.6256195433451204e+00 0.0000000000000000e+00  1.8163563193184952e+01 1.5314854966858581e-10 0.0000000000000000e+00  1.8164429333788490e+01 8.6010216618307193e-04 0.0000000000000000e+00  1.8163563200225514e+01 -4.5518678895876730e-19 0.0000000000000000e+00  1.1543380288006704e+01 -5.1556715265376413e-03 0.0000000000000000e+00  1.8177155518445655e+01 9.9212749437889762e+00 0.0000000000000000e+00  1.8164421968277900e+01 -8.7384691317066426e-04 0.0000000000000000e+00  1.2948286121994167e+01 -9.4350019982747280e-01 0.0000000000000000e+00  1.1559601885171686e+01 -3.0481045216724270e+00 0.0000000000000000e+00  1.1086061731974548e+01 -5.9950023552192304e+00 0.0000000000000000e+00  1.2965811840584568e+01 -3.2097101269055544e+00 0.0000000000000000e+00  1.0979526357115786e+01 -6.9581186324553839e+00 0.0000000000000000e+00  1.1108091871294167e+01 -6.8034069840677258e+00 0.0000000000000000e+00  1.0055678174205127e+01 -1.0010360460094688e+01 0.0000000000000000e+00  1.1008802777668507e+01 -8.6329477002337658e+00 0.0000000000000000e+00  9.4685074466929322e+00 -1.1161411039547987e+01 0.0000000000000000e+00  1.0093712854151459e+01 -1.0289442024436829e+01 0.0000000000000000e+00  8.7601968380242976e+00 -1.2342292145826569e+01 0.0000000000000000e+00  9.5162881126457606e+00 -1.1290302722255900e+01 0.0000000000000000e+00  8.1714760096968320e+00 -1.2532663107611516e+01 0.0000000000000000e+00  8.8193302199785002e+00 -1.1660254975668714e+01 0.0000000000000000e+00  7.3929591108749273e+00 -1.2485958251911862e+01 0.0000000000000000e+00  8.2427572898983481e+00 -1.1330065687123454e+01 0.0000000000000000e+00  6.8760387286684947e+00 -1.1718877734698628e+01 0.0000000000000000e+00  7.4771016790172231e+00 -1.0955875606892215e+01 0.0000000000000000e+00  6.4828666211209516e+00 -1.0801030062918754e+01 0.0000000000000000e+00  6.9738965727323583e+00 -1.0224142211200311e+01 0.0000000000000000e+00  6.0342299365512044e+00 -9.8598209203978122e+00 0.0000000000000000e+00  6.5949940674199219e+00 -9.2002408504978455e+00 0.0000000000000000e+00  5.5949545917345240e+00 -8.9162905408141384e+00 0.0000000000000000e+00  6.1610463710900785e+00 -8.2711747229588095e+00 0.0000000000000000e+00  5.1690430772647380e+00 -8.0714591101101334e+00 0.0000000000000000e+00  5.7369728828609743e+00 -7.4465985395091385e+00 0.0000000000000000e+00  4.7211217786098851e+00 -7.2986527817830575e+00 0.0000000000000000e+00  5.3265796130476080e+00 -6.6410618303906537e+00 0.0000000000000000e+00  4.3002319419310462e+00 -6.5553489432587133e+00 0.0000000000000000e+00  4.8943725253908728e+00 -5.9384764618305841e+00 0.0000000000000000e+00  3.9172062703933150e+00 -5.8861863366454781e+00 0.0000000000000000e+00  4.4894249143761824e+00 -5.3261623968552794e+00 0.0000000000000000e+00  3.5441211976743459e+00 -5.2565577039854050e+00 0.0000000000000000e+00  4.1224248920976612e+00 -4.7115319076333337e+00 0.0000000000000000e+00  3.2042768808987772e+00 -4.6427254889133769e+00 0.0000000000000000e+00  3.7654033786721106e+00 -4.1475494043469272e+00 0.0000000000000000e+00  2.9097279619641636e+00 -4.0877676246873804e+00 0.0000000000000000e+00  3.4415994619319252e+00 -3.6605187491106310e+00 0.0000000000000000e+00  2.6286425246533116e+00 -3.5197125676527619e+00 0.0000000000000000e+00  3.1631040575002030e+00 -3.1125326117405536e+00 0.0000000000000000e+00  2.3798030949811744e+00 -3.0310995142980577e+00 0.0000000000000000e+00  2.8978503165106138e+00 -2.6723225999227056e+00 0.0000000000000000e+00  2.1585833979836528e+00 -2.4982397248301043e+00 0.0000000000000000e+00  2.6649331379265506e+00 -2.1805528795638702e+00 0.0000000000000000e+00  1.9518506136312306e+00 -2.1499643718617016e+00 0.0000000000000000e+00  2.4591361932773106e+00 -1.8542527856356248e+00 0.0000000000000000e+00  1.7509974071506222e+00 -1.6015442473613963e+00 0.0000000000000000e+00  2.2682687499891214e+00 -1.3138623470382775e+00 0.0000000000000000e+00  1.5514255339967724e+00 -1.5697896957321018e+00 0.0000000000000000e+00  2.0820639590002603e+00 -1.2849882303845876e+00 0.0000000000000000e+00  1.3351111086778815e+00 -9.1779316658652244e-01 0.0000000000000000e+00  1.8986883409893538e+00 -6.0587722067802363e-01 0.0000000000000000e+00  1.0168673724436790e+00 -1.4595062340136762e+00 0.0000000000000000e+00  1.6955077817314783e+00 -9.9766144254869493e-01 0.0000000000000000e+00  5.0487833574315100e-01 -1.2329773838407903e+00 0.0000000000000000e+00  1.3954137821067261e+00 -4.7493285498524751e-01 0.0000000000000000e+00  -6.9778411732684198e-01 -1.8343923928392541e-01 0.0000000000000000e+00  8.9068990492587341e-01 1.5998558623251431e+00 0.0000000000000000e+00  3.0449931511218384e+00 4.7964593104119002e+00 0.0000000000000000e+00  2.6377636098775801e+00 5.5101660577666607e+00 0.0000000000000000e+00  3.4080831006434078e+00 4.7929648471683048e+00 0.0000000000000000e+00  3.8732881790488811e+00 5.4157591447295532e+00 0.0000000000000000e+00  4.4125345903722364e+00 5.6228679969823423e+00 0.0000000000000000e+00  4.8395444844483455e+00 5.9823732573474695e+00 0.0000000000000000e+00  5.1544079178080677e+00 5.9134012957491908e+00 0.0000000000000000e+00  5.5759560828151278e+00 6.0780928329185775e+00 0.0000000000000000e+00  5.8601118905850358e+00 5.9215872687753937e+00 0.0000000000000000e+00  5.8207260197024207e+00 5.3053649718482259e+00 0.0000000000000000e+00  6.5842421479805386e+00 5.6779741110970310e+00 0.0000000000000000e+00  4.6378199248590812e+00 1.6355588251229936e+00 0.0000000000000000e+00  1.3038952692279350e+01 1.2973321668893915e+01 0.0000000000000000e+00  1.3553264954712674e+01 1.2424085503739349e+01 0.0000000000000000e+00  1.3794656170143988e+01 1.1487110761186337e+01 0.0000000000000000e+00  1.4104274357060126e+01 1.0647834569269827e+01 0.0000000000000000e+00  1.4542739509661400e+01 9.9680358012277068e+00 0.0000000000000000e+00  1.5124363967081075e+01 9.6495919339373852e+00 0.0000000000000000e+00  1.5790477818651556e+01 9.3846950989973603e+00 0.0000000000000000e+00  1.6479158811784316e+01 9.1996716440590944e+00 0.0000000000000000e+00  1.7127516794215921e+01 8.9477691627614870e+00 0.0000000000000000e+00  1.7681767155219912e+01 8.5924808447127745e+00 0.0000000000000000e+00  1.8104760046427412e+01 7.7364265227012323e+00 0.0000000000000000e+00  1.8382908743173374e+01 7.0406380551565180e+00 0.0000000000000000e+00  1.8519677108334697e+01 5.3314911813180181e+00 0.0000000000000000e+00  1.8536757966664386e+01 4.2817243928775222e+00 0.0000000000000000e+00  1.8472668470154279e+01 1.8497892495793802e+00 0.0000000000000000e+00  1.8364606639024277e+01 9.0599615743497308e-01 0.0000000000000000e+00  1.8260533536175380e+01 -1.5724051136876571e+00 0.0000000000000000e+00  1.8182348656777716e+01 -1.5694877338406414e+00 0.0000000000000000e+00  1.8166525101433770e+01 1.6409935739464731e-03 0.0000000000000000e+00  1.8181398929014229e+01 9.8625327481541056e+00 0.0000000000000000e+00  1.8166511446048158e+01 -1.7683681551406861e-03 0.0000000000000000e+00  1.8237878372071400e+01 6.8768634817708412e+00 0.0000000000000000e+00  1.1610994703517411e+01 -5.3104663123673763e+00 0.0000000000000000e+00  1.3008325544605398e+01 -4.0161375424892194e+00 0.0000000000000000e+00  1.1151061146420087e+01 -8.4856351832922634e+00 0.0000000000000000e+00  1.1055514144090578e+01 -8.9214533320823719e+00 0.0000000000000000e+00  1.0148008217780417e+01 -1.0428116379670646e+01 0.0000000000000000e+00  9.5786694553081038e+00 -1.0620971512042610e+01 0.0000000000000000e+00  8.8918702768309288e+00 -1.0471572810570592e+01 0.0000000000000000e+00  8.3261453919691242e+00 -9.8140121647764591e+00 0.0000000000000000e+00  7.5720073569042956e+00 -9.4766035285476917e+00 0.0000000000000000e+00  7.0810617702920391e+00 -8.6396127013880673e+00 0.0000000000000000e+00  6.7150944326642001e+00 -7.6280432081464058e+00 0.0000000000000000e+00  6.2944841709929324e+00 -6.8188004166140459e+00 0.0000000000000000e+00  5.8843757560920871e+00 -6.0340829657870252e+00 0.0000000000000000e+00  5.4884018745876642e+00 -5.2988489554192180e+00 0.0000000000000000e+00  5.0708454828805616e+00 -4.7276322412581173e+00 0.0000000000000000e+00  4.6807713117993286e+00 -4.1700309415954253e+00 0.0000000000000000e+00  4.3287498319219315e+00 -3.6209126245238590e+00 0.0000000000000000e+00  3.9866161754374367e+00 -3.1837344658730413e+00 0.0000000000000000e+00  3.6776202067861052e+00 -2.7035673839336489e+00 0.0000000000000000e+00  3.4137144373371200e+00 -2.2831344991643721e+00 0.0000000000000000e+00  3.1628122255254687e+00 -1.8395433690757672e+00 0.0000000000000000e+00  2.9438490707577185e+00 -1.5540091687716577e+00 0.0000000000000000e+00  2.7517897047053901e+00 -1.0352829063036240e+00 0.0000000000000000e+00  2.5740005608342282e+00 -1.0140396594155425e+00 0.0000000000000000e+00  2.4009373043195450e+00 -3.3736558451026277e-01 0.0000000000000000e+00  2.2294412362386549e+00 -7.0192337614090750e-01 0.0000000000000000e+00  2.0391481818582013e+00 -2.9369001292615583e-02 0.0000000000000000e+00  1.7498200590222297e+00 2.3471857861342422e+00 0.0000000000000000e+00  2.9492727124699019e+00 4.1861815834401437e+00 0.0000000000000000e+00  2.5780394465985212e+00 4.9526620773974779e+00 0.0000000000000000e+00  3.3554283924463872e+00 4.2498104611004814e+00 0.0000000000000000e+00  3.7159295445455567e+00 4.7207141250516420e+00 0.0000000000000000e+00  4.1767180649385773e+00 4.8185034135414861e+00 0.0000000000000000e+00  4.7090785899589793e+00 5.3480757688166491e+00 0.0000000000000000e+00  5.1267213883216849e+00 5.4490647437655921e+00 0.0000000000000000e+00  5.4298083919379767e+00 5.4554488355770046e+00 0.0000000000000000e+00  5.8372317012738391e+00 5.5063409385255797e+00 0.0000000000000000e+00  6.1055300733018729e+00 5.3761956616599971e+00 0.0000000000000000e+00  6.0496492256350223e+00 4.5442782746647747e+00 0.0000000000000000e+00  6.7972848672584600e+00 4.5669086831534598e+00 0.0000000000000000e+00  4.8332612929183236e+00 3.8683784454534292e-01 0.0000000000000000e+00  1.3212070442248303e+01 1.1668426474465958e+01 0.0000000000000000e+00  1.3705700742278340e+01 1.1137147507239227e+01 0.0000000000000000e+00  1.3930057845654488e+01 1.0195975196969133e+01 0.0000000000000000e+00  1.4222220415318217e+01 9.3237324153850309e+00 0.0000000000000000e+00  1.4641444392670753e+01 8.7920134694591976e+00 0.0000000000000000e+00  1.5201325973992141e+01 8.4018572973929242e+00 0.0000000000000000e+00  1.5843532530652439e+01 8.1843805614827527e+00 0.0000000000000000e+00  1.6506076009762211e+01 7.9936046120091904e+00 0.0000000000000000e+00  1.7126914529152661e+01 7.7794228370161127e+00 0.0000000000000000e+00  1.7653764060071566e+01 7.1200770754841596e+00 0.0000000000000000e+00  1.8049797991052163e+01 6.6385899858839030e+00 0.0000000000000000e+00  1.8304415226575937e+01 5.1399094692448086e+00 0.0000000000000000e+00  1.8421418860786595e+01 4.2625331361717338e+00 0.0000000000000000e+00  1.8427596000422607e+01 1.9497671502552609e+00 0.0000000000000000e+00  1.8359895561404535e+01 1.0556183675347230e+00 0.0000000000000000e+00  1.8266802614036020e+01 -1.4255012875264801e+00 0.0000000000000000e+00  1.8185123849473474e+01 -1.5011300665379013e+00 0.0000000000000000e+00  1.8169796926628116e+01 2.3476681643453362e-03 0.0000000000000000e+00  1.8175874056570493e+01 9.8103386566992761e+00 0.0000000000000000e+00  1.8169784368061009e+01 -2.5586074269136638e-03 0.0000000000000000e+00  1.8231518667945256e+01 6.7829568392176531e+00 0.0000000000000000e+00  1.8284605149892723e+01 4.6436308224635185e+00 0.0000000000000000e+00  1.1638961811070571e+01 -6.1002248961889469e+00 0.0000000000000000e+00  1.3023111113580644e+01 -5.7011190649053418e+00 0.0000000000000000e+00  1.1168081380631593e+01 -8.7825171323699820e+00 0.0000000000000000e+00  1.1080824489070471e+01 -9.0766120246520927e+00 0.0000000000000000e+00  1.0185668885979608e+01 -9.7769410924961679e+00 0.0000000000000000e+00  9.6300180771478789e+00 -9.4530604630013393e+00 0.0000000000000000e+00  8.9585307012838786e+00 -8.9776454106998536e+00 0.0000000000000000e+00  8.4084405725470805e+00 -8.3583511426934685e+00 0.0000000000000000e+00  7.6708191952421405e+00 -7.9165714138587830e+00 0.0000000000000000e+00  7.1970472230500189e+00 -7.0931863582687074e+00 0.0000000000000000e+00  6.8488704898591504e+00 -6.2025035180564805e+00 0.0000000000000000e+00  6.4468694662898045e+00 -5.4341512186817251e+00 0.0000000000000000e+00  6.0562340460993314e+00 -4.7206923153646612e+00 0.0000000000000000e+00  5.6803396751992068e+00 -4.1174462968644869e+00 0.0000000000000000e+00  5.2833240260075955e+00 -3.6012603333155764e+00 0.0000000000000000e+00  4.9140516400565302e+00 -3.1092967235654112e+00 0.0000000000000000e+00  4.5828052182611279e+00 -2.6868774915861375e+00 0.0000000000000000e+00  4.2612942393272331e+00 -2.2561280952482137e+00 0.0000000000000000e+00  3.9725321932102955e+00 -1.9031393582514384e+00 0.0000000000000000e+00  3.7284410675642641e+00 -1.4784363289737938e+00 0.0000000000000000e+00  3.4965605109935063e+00 -1.2406372250368802e+00 0.0000000000000000e+00  3.2961749693008935e+00 -7.6118403763771492e-01 0.0000000000000000e+00  3.1214487836319558e+00 -7.6169968364371698e-01 0.0000000000000000e+00  2.9608924195390571e+00 -8.9822578601097228e-02 0.0000000000000000e+00  2.8028459258256593e+00 -4.5916005427247547e-01 0.0000000000000000e+00  2.6483078845294483e+00 2.4707261120692545e-01 0.0000000000000000e+00  2.4685217009624734e+00 2.7660681202445438e+00 0.0000000000000000e+00  3.1245288759077181e+00 3.6300211344440245e+00 0.0000000000000000e+00  2.7788742833044786e+00 4.4332918393811704e+00 0.0000000000000000e+00  3.4945866834517387e+00 3.6421171060410256e+00 0.0000000000000000e+00  3.8981961680017840e+00 4.1826519030333236e+00 0.0000000000000000e+00  4.2545060145379772e+00 4.1317127139137284e+00 0.0000000000000000e+00  4.7084697490016918e+00 4.5561450401853927e+00 0.0000000000000000e+00  5.2308507347004802e+00 4.8317660021936959e+00 0.0000000000000000e+00  5.6349053737509607e+00 5.0124484165807273e+00 0.0000000000000000e+00  5.9209076231914306e+00 4.9091090891946445e+00 0.0000000000000000e+00  6.3083156384787884e+00 4.9892891633411782e+00 0.0000000000000000e+00  6.5549413133212893e+00 4.6436066031393564e+00 0.0000000000000000e+00  6.4774569642610702e+00 3.4605275667489708e+00 0.0000000000000000e+00  7.2043643580351429e+00 3.3492148031939317e+00 0.0000000000000000e+00  5.2162835848559608e+00 -8.7902245934514189e-01 0.0000000000000000e+00  1.3565569883899224e+01 1.0416567082922192e+01 0.0000000000000000e+00  1.4034037005659618e+01 9.8740187492865257e+00 0.0000000000000000e+00  1.4238447743916142e+01 8.9007883059958477e+00 0.0000000000000000e+00  1.4509224034653775e+01 8.1803894444618024e+00 0.0000000000000000e+00  1.4903745330699074e+01 7.5830481235560638e+00 0.0000000000000000e+00  1.5433456750942138e+01 7.2452489718393069e+00 0.0000000000000000e+00  1.6040383539851870e+01 7.0276113162848830e+00 0.0000000000000000e+00  1.6662868304506649e+01 6.8786023426731422e+00 0.0000000000000000e+00  1.7239822558599407e+01 6.3621292986548124e+00 0.0000000000000000e+00  1.7720269816793841e+01 6.0764484023479222e+00 0.0000000000000000e+00  1.8070789264202006e+01 4.7897353442517820e+00 0.0000000000000000e+00  1.8281645228953263e+01 4.1118684617664023e+00 0.0000000000000000e+00  1.8363924882846629e+01 1.9625787122116523e+00 0.0000000000000000e+00  1.8343876347716069e+01 1.1601099487843332e+00 0.0000000000000000e+00  1.8273488119552265e+01 -1.2835638612513771e+00 0.0000000000000000e+00  1.8191996688404156e+01 -1.4257122480254776e+00 0.0000000000000000e+00  1.8174118201185873e+01 2.9769430454542590e-03 0.0000000000000000e+00  1.8176363852986103e+01 9.7900243949677943e+00 0.0000000000000000e+00  1.8174106221189501e+01 -3.2573513405177506e-03 0.0000000000000000e+00  1.8190003471466397e+01 6.7006877883879801e+00 0.0000000000000000e+00  1.8236016344964217e+01 4.568301