<?xml version="1.0"?>
<VTKFile type="UnstructuredGrid"  version="0.1"  >
<UnstructuredGrid>
<Piece  NumberOfPoints="1933" NumberOfCells="3640">
<Points>
<DataArray  type="Float64"  NumberOfComponents="3"  format="ascii">0.000297695560689315 -0.002769296699189919 0  5.000297745383842 -0.002694683060996803 0  5.000185797242942 7.497305427246652 0  0.0001857348183678664 7.49723079479653 0  10.00029783366264 -0.00262014733206314 0  10.00018589686458 7.497379962469693 0  15.00029800195505 -0.002545668358267781 0  15.00018604628626 7.497454435968361 0  20.00029828162697 -0.002471201000850537 0  20.00018625429676 7.497528897435082 0  25.00029869323849 -0.002396688871633491 0  25.00018652581914 7.497603404544921 0  30.00029924821215 -0.00232206985198032 0  30.00018686146057 7.497678019587747 0  35.00029995064384 -0.002247278191209616 0  35.00018725716937 7.497752808123818 0  40.00030079865723 -0.00217224486157595 0  40.0001877039418 7.497827838893783 0  45.00030178519547 -0.002096896960901073 0  45.00018818744697 7.497903184499404 0  50.00030289828231 -0.002021156534619334 0  50.00018868745499 7.497978922594361 0  55.00030412079734 -0.00194493897156705 0  55.00018917697484 7.498055137471251 0  60.0003054297796 -0.00186815100368327 0  60.00018962101235 7.498131922026576 0  65.00030679523078 -0.001790688257434273 0  65.00018997483917 7.49820938015415 0  70.00030817832175 -0.00171243223626999 0  70.00019018163258 7.498287629675909 0  75.00030952883554 -0.00163324654069232 0  75.00019016928917 7.498366805977894 0  80.00031078155327 -0.001552972040140072 0  80.00018984613477 7.498447066589416 0  85.00031185111595 -0.001471420582144752 0  85.00018909514881 7.498528597029066 0  90.00031262458853 -0.001388366637608025 0  90.00018776617321 7.498611618345954 0  95.00031295045548 -0.001303536008191905 0  95.00018566540001 7.498696396899028 0  100.0003126218862 -0.001216590327170647 0  100.0001825412585 7.498783257005178 0  105.0003113505563 -0.00112710553499137 0  105.0001780657126 7.498872597046387 0  110.0003087244759 -0.001034541806149758 0  110.0001718102076 7.498964909198216 0  115.0003041381321 -0.0009382016837891182 0  115.0001632166153 7.499060801526992 0  120.0002966737446 -0.0008371730115533092 0  120.0001515668358 7.499161017441115 0  125.0002848948427 -0.0007302554511571452 0  125.0001359631348 7.499266438429035 0  130.0002664807104 -0.0006158793135538887 0  130.0001153509841 7.499378035524071 0  135.0002375695975 -0.0004920591468003225 0  135.0000886601138 7.499496691135883 0  140.0001915652344 -0.0003565331717714784 0  140.0000552344657 7.499622727407386 0  145.0001169421681 -0.0002076070933613195 0  145.0000159253933 7.499754847940943 0  149.9999931084366 -4.761015331333207e-05 0  149.9999756784928 7.499888223321178 0  159.9999999999992 9.57172618748963e-19 0  164.9999949501969 -5.75882785207009e-05 0  165.0000006411444 7.499926603105746 0  159.9999938305095 7.499963560673426 0  170.0000114153575 -8.038014330641494e-05 0  170.0000071308288 7.499912043358581 0  175.0000356966292 -7.915378086511597e-05 0  175.000015696268 7.499917061844933 0  180.0000616666747 -6.070386737861935e-05 0  180.000026062825 7.499937392758554 0  185.0000866375404 -2.969392797409565e-05 0  185.0000374312812 7.499969370101192 0  190.0001095300012 1.05948017655047e-05 0  190.000049077624 7.500010165845811 0  195.0001300166549 5.782525730765099e-05 0  195.0000604808733 7.500057664725472 0  200.0001481118523 0.0001103127731139436 0  200.00007130974 7.500110294771391 0  205.0001639746195 0.0001668262500552855 0  205.0000813764511 7.500166883399759 0  210.0001778147729 0.0002264526321267954 0  210.0000905919875 7.500226548428669 0  215.0001898493123 0.0002885044499068717 0  215.0000989313302 7.500288618922765 0  220.0002002832753 0.0003524563734942234 0  220.0001064088838 7.500352578545412 0  225.0002093023899 0.000417901219961253 0  225.0001130619598 7.500418025089227 0  230.0002170713229 0.0004845190380357908 0  230.0001189400544 7.500484641409011 0  235.0002237344761 0.0005520550527351599 0  235.0001240981005 7.500552174349128 0  240.0002294178592 0.0006203036853568917 0  240.000128592362 7.500620419294619 0  245.0002342313422 0.0006890968032832077 0  245.0001324780694 7.500689208714337 0  250.0002382709665 0.0007582949688629671 0  250.0001358081849 7.500758403576201 0  255.0002416211975 0.0008277808626531295 0  255.0001386329062 7.500827886868373 0  260.0002443570774 0.0008974543301788886 0  260.0001409996395 7.500897558705436 0  265.000246546307 0.0009672286936350851 0  265.000142953277 7.500967332675486 0  270.0002482512729 0.001037028115007285 0  270.0001445366602 7.501037133217405 0  275.0002495310771 0.001106785920104265 0  275.0001457911304 7.501106893929013 0  280.0002504435755 0.001176443915270271 0  280.000146757097 7.501176556810123 0  285.0002510474188 0.001245952871201666 0  285.0001474745331 7.501246072552784 0  290.0002514039388 0.001315274535069297 0  290.0001479833018 7.501315402110488 0  295.0002515785525 0.001384385786128489 0  295.0001483232531 7.501384519908934 0  300.0002516408088 0.001453285869125861 0  300.0001485340814 7.501453419185608 0  305.0002516612553 0.001522007872107866 0  305.0001486553069 7.501522120039541 0  310.0002517011463 0.001590634867534653 0  310.0001487275974 7.501590680978701 0  5.000073689121655 14.997305651735 0  7.362957976964069e-05 14.9972310148417 0  10.00007376296365 14.9973801584412 0  15.000073856046 14.9974545969771 0  20.00007396740047 14.99752902598196 0  25.00007409273676 14.99760350507764 0  30.00007422486555 14.99767809590729 0  35.00007435333924 14.99775286254241 0  40.00007446382597 14.99782787202572 0  45.00007453736454 14.99790319521733 0  50.00007454950671 14.99797890795137 0  55.0000744693038 14.998055092491 0  60.00007425807547 14.99813183929015 0  65.00007386789862 14.99820924909837 0  70.00007323974687 14.99828743547143 0  75.00007230122421 14.99836652777348 0  80.00007096384829 14.9984466747683 0  85.0000691198928 14.99852804888972 0  90.00006663890296 14.99861085122838 0  95.00006336422776 14.99869531712114 0  100.0000591103351 14.99878172188096 0  105.0000536624998 14.99887038545766 0  110.0000467818696 14.9989616733026 0  115.0000382213869 14.9990559877415 0  120.0000277619835 14.99915373854212 0  125.0000152843034 14.99925527112916 0  130.0000008984636 14.99936071314707 0  134.9999851596738 14.99946967149023 0  139.9999693893049 14.99958067126781 0  144.9999560660483 14.99969018063417 0  149.9999490604341 14.99979100206539 0  164.9999769224968 14.99988279786197 0  159.999971031913 14.99988369608774 0  169.999979007361 14.9998888948667 0  174.9999803094617 14.99990511373564 0  179.9999821883249 14.99993142934248 0  184.9999850118363 14.99996658738857 0  189.9999886974568 15.00000906305497 0  194.9999930060322 15.00005743746467 0  199.9999976787081 15.00011051090662 0  205.0000024914054 15.00016731062358 0  210.0000072699713 15.00022706231473 0  215.0000118884269 15.00028915365523 0  220.0000162611994 15.00035310034824 0  225.0000203342575 15.00041851779367 0  230.0000240771205 15.00048509855702 0  235.0000274763593 15.00055259484711 0  240.0000305305819 15.00062080501576 0  245.0000332467068 15.0006895631829 0  250.0000356372655 15.0007587312603 0  255.0000377184901 15.00082819281623 0  260.0000395089872 15.00089784837113 0  265.0000410288306 15.00096761183188 0  270.0000422989515 15.00103740787027 0  275.0000433407299 15.00110717012845 0  280.0000441757065 15.00117684019853 0  285.0000448254157 15.00124636737211 0  290.0000453113257 15.00131570917794 0  295.0000456550644 15.00138483269576 0  300.0000458792239 15.0014537165 0  305.0000460094254 15.00152235274391 0  310.0000460788474 15.00159074816088 0  4.999961573141659 22.49730603270372 0  -3.848091668184894e-05 22.49723146755377 0  9.999961622282543 22.49738045995851 0  14.99996166341253 22.49745482114661 0  19.99996169047608 22.4975291793945 0  24.99996169501457 22.49760359463346 0  29.99996166638861 22.49767812655064 0  34.99996159156348 22.49775283621453 0  39.9999614546325 22.497827787187 0  44.99996123620953 22.49790304652218 0  49.99996091275714 22.49797868582788 0  54.99996045587349 22.4980547824593 0  59.99995983155009 22.49813142087372 0  64.99995899941813 22.49820869415571 0  69.99995791202781 22.49828670570634 0  74.99995651425304 22.49836557106474 0  79.99995474299266 22.49844541977672 0  84.99995252746528 22.49852639712497 0  89.99994979059761 22.49860866534933 0  94.99994645231007 22.49869240365548 0  99.99994243595923 22.49877780573307 0  104.9999376798409 22.49886507252837 0  109.9999321564955 22.49895439640024 0  114.9999259034992 22.49904593022531 0  119.9999190700976 22.49913973117104 0  124.9999119835492 22.49923566364023 0  129.9999052353407 22.49933324022668 0  134.9998997766464 22.49943137732955 0  139.9998969881088 22.4995280550566 0  144.999898643459 22.49961993016202 0  149.999906620057 22.49970213841643 0  164.9999292348483 22.49983217615491 0  159.9999256311808 22.49980780804258 0  169.9999294457598 22.49985708211307 0  174.9999278911951 22.49988599664247 0  179.9999258503238 22.49992041791503 0  184.999924080691 22.49996058572485 0  189.9999229257586 22.50000609002804 0  194.9999224697644 22.50005625982487 0  199.9999226590569 22.50011037278502 0  204.9999233799439 22.50016775332561 0  209.999924503018 22.50022780981623 0  214.9999259057246 22.50029004157001 0  219.9999274821091 22.50035403239112 0  224.9999291455784 22.50041943923721 0  229.9999308281787 22.50048598007342 0  234.9999324783757 22.50055342266755 0  239.999934058386 22.50062157493431 0  244.9999355415802 22.50069027690618 0  249.9999369101739 22.50075939419211 0  254.9999381532831 22.500828812717 0  259.999939265315 22.50089843453665 0  264.9999402446764 22.50096817454824 0  269.9999410927311 22.5010379579513 0  274.9999418129835 22.50110771834292 0  279.9999424104627 22.50117739634803 0  284.9999428913308 22.50124693867907 0  289.9999432627922 22.50131629747204 0  294.9999435334661 22.50138542963029 0  299.9999437144705 22
[...]
<PointData  Vectors="v"> 
<DataArray  type="Float64"  Name="v"  NumberOfComponents="3" format="ascii">-1.5829008258662220e+00 5.7324158237374769e+00 0.0000000000000000e+00  -1.1484406459870120e+00 5.5748774198820525e+00 0.0000000000000000e+00  -8.4764670455300883e-01 4.9233615348537905e+00 0.0000000000000000e+00  -1.1795949584295882e+00 5.2351304609755447e+00 0.0000000000000000e+00  -5.6828292961932980e-01 6.2514497406770904e+00 0.0000000000000000e+00  -4.1341494220768304e-01 5.3820705564224234e+00 0.0000000000000000e+00  4.6592410899735353e-03 7.3348920447795658e+00 0.0000000000000000e+00  1.6578425347733691e-01 6.4767324960347263e+00 0.0000000000000000e+00  5.6223316899868780e-01 7.9680800169952732e+00 0.0000000000000000e+00  7.3717380498423235e-01 7.1337804278661396e+00 0.0000000000000000e+00  1.2344435545669170e+00 9.0280826124934865e+00 0.0000000000000000e+00  1.2924992376916644e+00 8.0225704644060052e+00 0.0000000000000000e+00  1.8123907898680001e+00 9.7145118731780062e+00 0.0000000000000000e+00  1.9613870572598937e+00 8.8509839567762345e+00 0.0000000000000000e+00  1.9675567792692246e+00 9.8122054455122552e+00 0.0000000000000000e+00  2.5351744873309392e+00 9.5838981115767048e+00 0.0000000000000000e+00  2.9463255736112171e+00 1.1023394509331766e+01 0.0000000000000000e+00  2.6852939067386048e+00 9.5605297319871383e+00 0.0000000000000000e+00  -1.4330284265771839e-01 6.1465214202505294e+00 0.0000000000000000e+00  3.6577124748450887e+00 1.0787152769191325e+01 0.0000000000000000e+00  9.4307599481347406e+00 2.0007504617064985e+01 0.0000000000000000e+00  5.6072495927024668e-01 5.6531139097498206e+00 0.0000000000000000e+00  8.3840115331208942e+00 1.7487879673184757e+01 0.0000000000000000e+00  1.0127199487405074e+01 1.9065958607151217e+01 0.0000000000000000e+00  8.2543348703899539e+00 1.6259357826457276e+01 0.0000000000000000e+00  9.0711467976136770e+00 1.6463839925168362e+01 0.0000000000000000e+00  8.7902621806924817e+00 1.6037240946259374e+01 0.0000000000000000e+00  8.9298193587626962e+00 1.5245341737006152e+01 0.0000000000000000e+00  9.8591853783809107e+00 1.6625899122143611e+01 0.0000000000000000e+00  9.4519783361966567e+00 1.5036830083602084e+01 0.0000000000000000e+00  1.1285528303370674e+01 1.7688906818149629e+01 0.0000000000000000e+00  1.0503978483608124e+01 1.5565210223823971e+01 0.0000000000000000e+00  1.2976828396134232e+01 1.9010173037244371e+01 0.0000000000000000e+00  1.1911151652116020e+01 1.6491779305208876e+01 0.0000000000000000e+00  1.4849536406352776e+01 2.0603093592186077e+01 0.0000000000000000e+00  1.3580999376495313e+01 1.7814869168885899e+01 0.0000000000000000e+00  1.6820048547981447e+01 2.2090108500139557e+01 0.0000000000000000e+00  1.5428639386368719e+01 1.9156906106146344e+01 0.0000000000000000e+00  1.8818901269912772e+01 2.3487989784140694e+01 0.0000000000000000e+00  1.7371910851346605e+01 2.0515624512169374e+01 0.0000000000000000e+00  2.0781875054881777e+01 2.4645125491374767e+01 0.0000000000000000e+00  1.9340349901731415e+01 2.1728608383857992e+01 0.0000000000000000e+00  2.2633378564896006e+01 2.5476176615065487e+01 0.0000000000000000e+00  2.1269783802194617e+01 2.2729814414738186e+01 0.0000000000000000e+00  2.4312847746631107e+01 2.5589154854598679e+01 0.0000000000000000e+00  2.3083749767576904e+01 2.3102877699402136e+01 0.0000000000000000e+00  2.5779417279304450e+01 2.5524097544352166e+01 0.0000000000000000e+00  2.4724632770784748e+01 2.3362024811418873e+01 0.0000000000000000e+00  2.6984412506471699e+01 2.4073184692663627e+01 0.0000000000000000e+00  2.6145144669902667e+01 2.2302176959453050e+01 0.0000000000000000e+00  2.7930068983707756e+01 2.2623196446896632e+01 0.0000000000000000e+00  2.7306789105728988e+01 2.1250703639979413e+01 0.0000000000000000e+00  2.8598769179156690e+01 1.9185006139929122e+01 0.0000000000000000e+00  2.8196784422809650e+01 1.8220736567337820e+01 0.0000000000000000e+00  2.9041094909905926e+01 1.5796315807258175e+01 0.0000000000000000e+00  2.8819107548285093e+01 1.5189007902274186e+01 0.0000000000000000e+00  2.9266160924219371e+01 1.0277707162900859e+01 0.0000000000000000e+00  2.9194245929418344e+01 9.9786210711655983e+00 0.0000000000000000e+00  2.9368171028098189e+01 3.7278069797226880e+00 0.0000000000000000e+00  2.9372091388575619e+01 3.6437651666857622e+00 0.0000000000000000e+00  2.9389264412938971e+01 1.2411206340372867e-05 0.0000000000000000e+00  2.9389462128384029e+01 2.2004835772938274e-04 0.0000000000000000e+00  2.9389262614607954e+01 -1.5583289381695814e-19 0.0000000000000000e+00  2.1020052102375640e+01 -1.1525769221308353e+01 0.0000000000000000e+00  2.9366937904898368e+01 9.9036104792862412e-01 0.0000000000000000e+00  2.9389455238712660e+01 -1.8667999251526424e-04 0.0000000000000000e+00  2.0626538147856465e+01 -2.0688819469958258e+01 0.0000000000000000e+00  2.1049152709766933e+01 -2.0165965535443842e+01 0.0000000000000000e+00  1.7603255098090180e+01 -2.7675030168334491e+01 0.0000000000000000e+00  2.0715103455928240e+01 -2.3181457126218753e+01 0.0000000000000000e+00  1.6453275771205135e+01 -2.9093877778352891e+01 0.0000000000000000e+00  1.7749238150222986e+01 -2.7420064974628023e+01 0.0000000000000000e+00  1.4659304051177047e+01 -3.0534578070313199e+01 0.0000000000000000e+00  1.6652785337140955e+01 -2.7888492325256884e+01 0.0000000000000000e+00  1.3286591821258314e+01 -2.9726699489928020e+01 0.0000000000000000e+00  1.4909911190038367e+01 -2.7713372419071018e+01 0.0000000000000000e+00  1.1900423291887011e+01 -2.8673528721529621e+01 0.0000000000000000e+00  1.3587773180236605e+01 -2.6636280805243260e+01 0.0000000000000000e+00  1.0684555403840523e+01 -2.6781154346857775e+01 0.0000000000000000e+00  1.2249251741303842e+01 -2.5000027662693956e+01 0.0000000000000000e+00  9.3150998987225098e+00 -2.4939067129420163e+01 0.0000000000000000e+00  1.1079628232457324e+01 -2.2925231890282447e+01 0.0000000000000000e+00  8.2861248683678479e+00 -2.2728032632793706e+01 0.0000000000000000e+00  9.7554092904751304e+00 -2.1224092409513020e+01 0.0000000000000000e+00  7.4116956108315515e+00 -2.0646103615975846e+01 0.0000000000000000e+00  8.7700685585971350e+00 -1.9373153757569884e+01 0.0000000000000000e+00  6.4818415996618715e+00 -1.8849700352437605e+01 0.0000000000000000e+00  7.9381086554957454e+00 -1.7492665868311104e+01 0.0000000000000000e+00  5.6156034351373831e+00 -1.7207177469238502e+01 0.0000000000000000e+00  7.0499769376210368e+00 -1.5944526608852186e+01 0.0000000000000000e+00  4.8152271637351660e+00 -1.5762702866034678e+01 0.0000000000000000e+00  6.2242786202910807e+00 -1.4598321499401164e+01 0.0000000000000000e+00  4.0569035261296449e+00 -1.4440855546731573e+01 0.0000000000000000e+00  5.4635298581525529e+00 -1.3338704674868222e+01 0.0000000000000000e+00  3.3803797303179954e+00 -1.3177826822878449e+01 0.0000000000000000e+00  4.7441434071613484e+00 -1.2197664554572331e+01 0.0000000000000000e+00  2.7873463983883915e+00 -1.2006161953072969e+01 0.0000000000000000e+00  4.1057005480533197e+00 -1.1150719659249841e+01 0.0000000000000000e+00  2.2450659113701419e+00 -1.0875573993430917e+01 0.0000000000000000e+00  3.5499973966441911e+00 -1.0095698879888491e+01 0.0000000000000000e+00  1.7712052094815187e+00 -9.7709439760396570e+00 0.0000000000000000e+00  3.0445543465593650e+00 -9.0930942654408184e+00 0.0000000000000000e+00  1.3682895167137914e+00 -8.7125822558315829e+00 0.0000000000000000e+00  2.6068020214207515e+00 -8.1408619194957996e+00 0.0000000000000000e+00  1.0098154089709510e+00 -7.6570389444975619e+00 0.0000000000000000e+00  2.2396141053483962e+00 -7.1513800165736177e+00 0.0000000000000000e+00  7.0678664391909496e-01 -6.6338732325839773e+00 0.0000000000000000e+00  1.9161819652412690e+00 -6.2112670880691372e+00 0.0000000000000000e+00  4.6312826661085205e-01 -5.6258041363648426e+00 0.0000000000000000e+00  1.6481880696510740e+00 -5.2914710380616752e+00 0.0000000000000000e+00  2.6071037728584795e-01 -4.6564122446055727e+00 0.0000000000000000e+00  1.4383772238504298e+00 -4.3844557255850027e+00 0.0000000000000000e+00  1.0818624502599898e-01 -3.6868989081528301e+00 0.0000000000000000e+00  1.2708514201070016e+00 -3.4880399593173297e+00 0.0000000000000000e+00  -1.6030642285326854e-03 -2.8493678107909011e+00 0.0000000000000000e+00  1.1505411737752205e+00 -2.7168574198756357e+00 0.0000000000000000e+00  -7.0827506440494112e-02 -1.9651423856985011e+00 0.0000000000000000e+00  1.0765376073717359e+00 -1.8890814595385850e+00 0.0000000000000000e+00  -1.3771686152894960e-01 -1.3321304380597283e+00 0.0000000000000000e+00  1.0363597698019176e+00 -1.2663166082180990e+00 0.0000000000000000e+00  -2.0982041010676727e-01 -7.1155209644502337e-01 0.0000000000000000e+00  1.0098651005221215e+00 -6.2551708795169114e-01 0.0000000000000000e+00  -3.7204709982193640e-01 1.7148897873754249e-01 0.0000000000000000e+00  9.5391461385192633e-01 3.6857413932049887e-01 0.0000000000000000e+00  -1.2857830665446582e-01 4.4246002157943556e+00 0.0000000000000000e+00  -4.8809148033326094e-01 4.6978716610047249e+00 0.0000000000000000e+00  2.0460470518086088e-01 4.7299471928695302e+00 0.0000000000000000e+00  6.3989192061835465e-01 5.6077116977561436e+00 0.0000000000000000e+00  1.2193623603310166e+00 6.2770309227524992e+00 0.0000000000000000e+00  1.7899556084109431e+00 7.1903455270730543e+00 0.0000000000000000e+00  2.3434256017518935e+00 7.8494916283908998e+00 0.0000000000000000e+00  3.0089066597580185e+00 8.7261876581461468e+00 0.0000000000000000e+00  3.5773642389528888e+00 9.3389361716249493e+00 0.0000000000000000e+00  3.7205504229800415e+00 9.3337685767795513e+00 0.0000000000000000e+00  4.6835488904532019e+00 1.0305650568308190e+01 0.0000000000000000e+00  1.5760562155891531e+00 4.7198068151131354e+00 0.0000000000000000e+00  1.1136368906336289e+01 1.8051537048481933e+01 0.0000000000000000e+00  1.0073183103326267e+01 1.5464801558692335e+01 0.0000000000000000e+00  9.9189950108464426e+00 1.4262308765853305e+01 0.0000000000000000e+00  1.0424435267903521e+01 1.4000244198873586e+01 0.0000000000000000e+00  1.1453992784902182e+01 1.4396633955708801e+01 0.0000000000000000e+00  1.2833895994466728e+01 1.5327500920032522e+01 0.0000000000000000e+00  1.4472367090073750e+01 1.6406909686587966e+01 0.0000000000000000e+00  1.6283012638671895e+01 1.7625402728808595e+01 0.0000000000000000e+00  1.8183739566486242e+01 1.8802102445485541e+01 0.0000000000000000e+00  2.0105200274091960e+01 1.9867591183862302e+01 0.0000000000000000e+00  2.1980357479912904e+01 2.0416078838027040e+01 0.0000000000000000e+00  2.3734286141680222e+01 2.0939668573797853e+01 0.0000000000000000e+00  2.5308018597624482e+01 2.0212585145064597e+01 0.0000000000000000e+00  2.6655329534078891e+01 1.9559097898429727e+01 0.0000000000000000e+00  2.7733163370645752e+01 1.6930031633272435e+01 0.0000000000000000e+00  2.8538720781835444e+01 1.4323554836833106e+01 0.0000000000000000e+00  2.9056800252562734e+01 9.4560332101513076e+00 0.0000000000000000e+00  2.9341388623789300e+01 3.4717890570956902e+00 0.0000000000000000e+00  2.9389936832982247e+01 4.1939389701400664e-04 0.0000000000000000e+00  2.9328732036274094e+01 1.1500575415278231e+00 0.0000000000000000e+00  2.9389927437423157e+01 -3.6698224239964893e-04 0.0000000000000000e+00  2.9172617980281519e+01 -7.7085558116549926e+00 0.0000000000000000e+00  2.0919580746114281e+01 -2.2732553216729631e+01 0.0000000000000000e+00  2.0666369430577557e+01 -2.3013230033707455e+01 0.0000000000000000e+00  1.7768791804674184e+01 -2.6284888752560477e+01 0.0000000000000000e+00  1.6738171401414672e+01 -2.5131635700680704e+01 0.0000000000000000e+00  1.5051680240361687e+01 -2.4688633741621221e+01 0.0000000000000000e+00  1.3785189887095010e+01 -2.3022231340956864e+01 0.0000000000000000e+00  1.2496582468996451e+01 -2.1199287110678362e+01 0.0000000000000000e+00  1.1374089253505277e+01 -1.9265441168531307e+01 0.0000000000000000e+00  1.0094832149874573e+01 -1.7921249346782041e+01 0.0000000000000000e+00  9.1524212903994275e+00 -1.6269285338271978e+01 0.0000000000000000e+00  8.3613840076332426e+00 -1.4636809799693966e+01 0.0000000000000000e+00  7.5132117044955278e+00 -1.3383062598408648e+01 0.0000000000000000e+00  6.7259287640886640e+00 -1.2219865383490268e+01 0.0000000000000000e+00  6.0021445295813196e+00 -1.1140504882209544e+01 0.0000000000000000e+00  5.3187081057904724e+00 -1.0214119037649345e+01 0.0000000000000000e+00  4.7150013485803477e+00 -9.2824293287088704e+00 0.0000000000000000e+00  4.1928796568031474e+00 -8.3548138928957822e+00 0.0000000000000000e+00  3.7201608139071456e+00 -7.5035662738817939e+00 0.0000000000000000e+00  3.3142516489081912e+00 -6.6192303933538703e+00 0.0000000000000000e+00  2.9779877725401067e+00 -5.7446653807412895e+00 0.0000000000000000e+00  2.6849519118734375e+00 -4.9071951106081437e+00 0.0000000000000000e+00  2.4464727578358776e+00 -4.0876838591582407e+00 0.0000000000000000e+00  2.2658695159436948e+00 -3.2533127406812210e+00 0.0000000000000000e+00  2.1264268863720588e+00 -2.5545440672807707e+00 0.0000000000000000e+00  2.0346775684504723e+00 -1.7923512029151181e+00 0.0000000000000000e+00  1.9867112464399121e+00 -1.2260820612207184e+00 0.0000000000000000e+00  1.9751265713264581e+00 -5.9593500093269891e-01 0.0000000000000000e+00  1.9726215149383788e+00 4.3076140121521322e-01 0.0000000000000000e+00  1.1210577113843239e+00 3.8834451827245648e+00 0.0000000000000000e+00  7.9958747837186561e-01 4.2187193243360417e+00 0.0000000000000000e+00  1.4836153549115734e+00 4.2272914833704611e+00 0.0000000000000000e+00  1.8214455892479307e+00 4.9525335426125636e+00 0.0000000000000000e+00  2.2602926454948280e+00 5.4061747040540640e+00 0.0000000000000000e+00  2.8425447437127782e+00 6.3338793562763600e+00 0.0000000000000000e+00  3.4144643008228872e+00 7.0205234521815898e+00 0.0000000000000000e+00  3.9666597427447901e+00 7.7308106653902762e+00 0.0000000000000000e+00  4.6283420122117951e+00 8.4915405380290068e+00 0.0000000000000000e+00  5.1896871221946652e+00 9.1273835715861082e+00 0.0000000000000000e+00  5.3212580276288719e+00 8.8722484970668098e+00 0.0000000000000000e+00  6.2691336922137069e+00 9.3926930819370451e+00 0.0000000000000000e+00  3.1503448993182657e+00 3.7147146030504374e+00 0.0000000000000000e+00  1.2709689135019394e+01 1.7061707775244393e+01 0.0000000000000000e+00  1.1644478149953924e+01 1.4504319044337379e+01 0.0000000000000000e+00  1.1477731735334881e+01 1.3259169009392929e+01 0.0000000000000000e+00  1.1960640200390040e+01 1.2875922720133042e+01 0.0000000000000000e+00  1.2958540819075786e+01 1.3288078506973534e+01 0.0000000000000000e+00  1.4298120885016386e+01 1.3986166478412576e+01 0.0000000000000000e+00  1.5886539055729221e+01 1.4952551366677227e+01 0.0000000000000000e+00  1.7638240969815651e+01 1.6001372912978663e+01 0.0000000000000000e+00  1.9470671416231937e+01 1.7044117218645855e+01 0.0000000000000000e+00  2.1311616030029018e+01 1.7668299583190048e+01 0.0000000000000000e+00  2.3095984136259101e+01 1.8386074733006247e+01 0.0000000000000000e+00  2.4744299905236371e+01 1.7934396886787589e+01 0.0000000000000000e+00  2.6201184866664939e+01 1.7637792332197328e+01 0.0000000000000000e+00  2.7411871173376067e+01 1.5411675385275622e+01 0.0000000000000000e+00  2.8346112610246504e+01 1.3247069087746603e+01 0.0000000000000000e+00  2.8977500140535081e+01 8.7795792704793971e+00 0.0000000000000000e+00  2.9334384784814098e+01 3.2298622629967277e+00 0.0000000000000000e+00  2.9390679425900586e+01 6.0082331731455951e-04 0.0000000000000000e+00  2.9304669852286715e+01 1.4629462469424583e+00 0.0000000000000000e+00  2.9390670958764876e+01 -5.2567429965026408e-04 0.0000000000000000e+00  2.8937329125819367e+01 -7.4166026781442254e+00 0.0000000000000000e+00  2.8768875796675413e+01 -1.0433558914510453e+01 0.0000000000000000e+00  2.0627922720685294e+01 -2.2734627865078757e+01 0.0000000000000000e+00  2.0505187457660561e+01 -2.2019222772228186e+01 0.0000000000000000e+00  1.7717164100831834e+01 -2.3665523604497643e+01 0.0000000000000000e+00  1.6784980938919347e+01 -2.2224008581154866e+01 0.0000000000000000e+00  1.5184256320874020e+01 -2.1185277168967449e+01 0.0000000000000000e+00  1.3996908055903969e+01 -1.9322421831794713e+01 0.0000000000000000e+00  1.2778809231343168e+01 -1.7634075966173256e+01 0.0000000000000000e+00  1.1722417805621202e+01 -1.6051134930169791e+01 0.0000000000000000e+00  1.0504792391840045e+01 -1.4902583484338125e+01 0.0000000000000000e+00  9.6208916907035249e+00 -1.3494842605923564e+01 0.0000000000000000e+00  8.8861540977154618e+00 -1.2153953074329955e+01 0.0000000000000000e+00  8.0922436594220635e+00 -1.1080580631305002e+01 0.0000000000000000e+00  7.3569709817959152e+00 -1.0094808827181769e+01 0.0000000000000000e+00  6.6833040842929874e+00 -9.2274431007302589e+00 0.0000000000000000e+00  6.0479854607608186e+00 -8.4140771446943479e+00 0.0000000000000000e+00  5.4904873416956157e+00 -7.6073814970372009e+00 0.0000000000000000e+00  5.0128549162491476e+00 -6.8291341990183341e+00 0.0000000000000000e+00  4.5830981926867214e+00 -6.0438252351040278e+00 0.0000000000000000e+00  4.2185363258873529e+00 -5.2729382834661456e+00 0.0000000000000000e+00  3.9225528799200329e+00 -4.4989900761795969e+00 0.0000000000000000e+00  3.6682278801090109e+00 -3.7612320046467378e+00 0.0000000000000000e+00  3.4679248854514593e+00 -3.0116283121566783e+00 0.0000000000000000e+00  3.3234330135910186e+00 -2.3759782969332157e+00 0.0000000000000000e+00  3.2207172283679824e+00 -1.6807213634357556e+00 0.0000000000000000e+00  3.1614296879995902e+00 -1.1860234863830628e+00 0.0000000000000000e+00  3.1508937319268671e+00 -5.9851139377293128e-01 0.0000000000000000e+00  3.1626708618631656e+00 4.0084497965038512e-01 0.0000000000000000e+00  2.4342819502324096e+00 3.3984784350782022e+00 0.0000000000000000e+00  2.1488871422741176e+00 3.7948104971284042e+00 0.0000000000000000e+00  2.7601757017464870e+00 3.6786262661255473e+00 0.0000000000000000e+00  3.1306405023856536e+00 4.4397444294844144e+00 0.0000000000000000e+00  3.4772811933589005e+00 4.7418784873722375e+00 0.0000000000000000e+00  3.9250624969767522e+00 5.4551966060952850e+00 0.0000000000000000e+00  4.5150090604689019e+00 6.1583375018809088e+00 0.0000000000000000e+00  5.0927818192949754e+00 6.9003797048688931e+00 0.0000000000000000e+00  5.6478766976782957e+00 7.4996210204476554e+00 0.0000000000000000e+00  6.3081215562298505e+00 8.2892538591790803e+00 0.0000000000000000e+00  6.8626700199083599e+00 8.6834301107852365e+00 0.0000000000000000e+00  6.9824239125815781e+00 7.9811450830394826e+00 0.0000000000000000e+00  7.9175506293736220e+00 8.3974277358235572e+00 0.0000000000000000e+00  4.7984809617862556e+00 2.7127217714137770e+00 0.0000000000000000e+00  1.4375889772036999e+01 1.6090425115853908e+01 0.0000000000000000e+00  1.3325774929495646e+01 1.3508903360575822e+01 0.0000000000000000e+00  1.3158956275991669e+01 1.2160465022982661e+01 0.0000000000000000e+00  1.3628736602194468e+01 1.1810149070689071e+01 0.0000000000000000e+00  1.4599380728005917e+01 1.2003272604640902e+01 0.0000000000000000e+00  1.5900382616010697e+01 1.2605915777274202e+01 0.0000000000000000e+00  1.7438038177416043e+01 1.3418093090005046e+01 0.0000000000000000e+00  1.9125930615730876e+01 1.4349449818616382e+01 0.0000000000000000e+00  2.0880579608703876e+01 1.4970831784291672e+01 0.0000000000000000e+00  2.2629385907816292e+01 1.5787991043323711e+01 0.0000000000000000e+00  2.4301263176608042e+01 1.5548686206354018e+01 0.0000000000000000e+00  2.5821373180658185e+01 1.5562820426168486e+01 0.0000000000000000e+00  2.7122270002905339e+01 1.3707527130777558e+01 0.0000000000000000e+00  2.8164089408609836e+01 1.1999386028339067e+01 0.0000000000000000e+00  2.8887605530186587e+01 7.9561594194690493e+00 0.0000000000000000e+00  2.9316850108914437e+01 2.9208146372838679e+00 0.0000000000000000e+00  2.9391662358461431e+01 7.6339510139658096e-04 0.0000000000000000e+00  2.9281464312545449e+01 1.8864681694107668e+00 0.0000000000000000e+00  2.9391654559768185e+01 -6.6699971082016015e-04 0.0000000000000000e+00  2.8785566519786041e+01 -6.6933043603157056e+00 0.0000000000000000e+00  2.8260992808270267e+01 -1