<?xml version="1.0"?>
<VTKFile type="UnstructuredGrid"  version="0.1"  >
<UnstructuredGrid>
<Piece  NumberOfPoints="1933" NumberOfCells="3640">
<Points>
<DataArray  type="Float64"  NumberOfComponents="3"  format="ascii">0.0002971888892690511 -0.002751802579012751 0  5.000297237666157 -0.002677267991018991 0  5.000185407547788 7.497322839397741 0  0.0001853468787458845 7.497248287208228 0  10.00029732444809 -0.00260280884926501 0  10.0001855040999 7.497397297658181 0  15.00029748948086 -0.002528403200301371 0  15.00018564848635 7.497471697759713 0  20.00029776278587 -0.002454006134096684 0  20.00018584888074 7.497546088963411 0  25.00029816372171 -0.002379562083103413 0  25.00018610962062 7.497620528041937 0  30.00029870268028 -0.002305010111724997 0  30.00018643077312 7.497695076069156 0  35.00029938287447 -0.002230285895185578 0  35.00018680780342 7.497769797166953 0  40.00030020165548 -0.002155322019501204 0  40.0001872312865 7.497844758458243 0  45.0003011512677 -0.002080047369767937 0  45.00018768653347 7.497920030756787 0  50.00030221907811 -0.002004385965716433 0  50.00018815302107 7.497995689742201 0  55.00030338732621 -0.001928255392469662 0  55.0001886035338 7.498071817511133 0  60.00030463240891 -0.00185156485440829 0  60.00018900293168 7.498148504487912 0  65.00030592367162 -0.00177421280071075 0  65.00018930643725 7.498225851744237 0  70.00030722161029 -0.001696084005255982 0  70.00018945730524 7.498303973833493 0  75.00030847531971 -0.001617045913632669 0  75.00018938368218 7.498383002301812 0  80.00030961889786 -0.001536943981066213 0  80.0001889943855 7.49846309010506 0  85.00031056634786 -0.001455595601063803 0  85.00018817322859 7.498544417242977 0  90.00031120421538 -0.001372782044843172 0  90.00018677137669 7.498627198021187 0  95.00031138071506 -0.001288237569014698 0  95.00018459704579 7.498711690459674 0  100.0003108892245 -0.001201634469848172 0  100.0001814016911 7.498798208445744 0  105.0003094425062 -0.001112562335752138 0  105.0001768617287 7.498887137179905 0  110.0003066312438 -0.001020499079715871 0  110.0001705550638 7.498978952028394 0  115.0003018554531 -0.0009247706628191924 0  115.0001619327983 7.499074239486923 0  120.0002942080369 -0.0008244963171722102 0  120.000150289742 7.499173715240609 0  125.0002822725874 -0.0007185183378498318 0  125.0001347456091 7.499278225388769 0  130.0002637656842 -0.0006053254382669065 0  130.0001142680533 7.499388696766122 0  135.0002348948526 -0.0004830120017546637 0  135.0000878116301 7.499505959305512 0  140.0001891930692 -0.0003494223577408997 0  140.0000547394381 7.499630279489514 0  145.0001153781249 -0.0002029885362379766 0  145.0000158924157 7.49976031640999 0  149.9999933238475 -4.612199320137612e-05 0  149.9999761135839 7.499891229206526 0  159.9999999999992 1.037774691643833e-18 0  164.9999969874868 -5.414404802084564e-05 0  165.0000009522067 7.499930646031483 0  159.9999936398369 7.499964931786312 0  170.0000143330283 -7.430949154469944e-05 0  170.0000079506076 7.499918414836481 0  175.0000389182997 -7.104314043038716e-05 0  175.0000168942945 7.499925334341414 0  180.0000649030686 -5.099422809998691e-05 0  180.0000275012594 7.499947192579287 0  185.0000897465681 -1.871962241382851e-05 0  185.0000389985195 7.49998039572653 0  190.0001124463333 2.25789984883314e-05 0  190.0000506922005 7.500022179645979 0  195.0001327152985 7.062363817164447e-05 0  195.0000620868244 7.50007048027558 0  200.0001505889979 0.0001237734582941772 0  200.0000728704943 7.500123765336692 0  205.0001662374398 0.0001808300637793143 0  205.0000828694498 7.500180892716887 0  210.0001798759319 0.0002409050527569488 0  210.0000920045159 7.500241003660789 0  215.0001917239867 0.0003033297803001469 0  215.0001002574674 7.500303445370274 0  220.0002019875326 0.0003675934913736949 0  220.0001076473352 7.500367715691146 0  225.0002108523127 0.0004333004492745148 0  225.0001142145391 7.500433423633147 0  230.0002184825447 0.0005001398194745643 0  230.0001200106279 7.500500261030709 0  235.0002250219497 0.0005678641895404223 0  235.0001250918547 7.500567982006402 0  240.0002305957541 0.0006362740084663959 0  240.0001295152951 7.500636387919451 0  245.0002353130136 0.0007052061463964585 0  245.0001333366361 7.50070531620624 0  250.0002392689607 0.0007745253757425487 0  250.000136609047 7.500774632020459 0  255.000242547274 0.0008441179706427924 0  255.0001393827536 7.500844221926013 0  260.0002452222328 0.0009138868886638378 0  260.0001417050589 7.5009139891353 0  265.0002473607919 0.0009837481860507026 0  265.0001436206509 7.500983849957938 0  270.0002490245927 0.001053628459251025 0  270.0001451720831 7.50105373125517 0  275.0002502719715 0.001123463225428352 0  275.0001464003356 7.501123568803834 0  280.0002511599675 0.001193196273973057 0  280.0001473453859 7.501193306574628 0  285.0002517463283 0.001262780160096763 0  285.0001480467059 7.501262897034823 0  290.0002520913531 0.001332178193349078 0  290.0001485435882 7.50133230270182 0  295.000252259254 0.001401368520086578 0  295.0001488752445 7.501401499300639 0  300.0002523181725 0.001470351205632464 0  300.0001490806696 7.501470480998098 0  305.0002523370629 0.001539159435146618 0  305.0001491986217 7.501539268275334 0  310.0002523755462 0.001607875182730338 0  310.0001492689152 7.501607919200016 0  5.000073424646175 14.99732305746058 0  7.336695921777991e-05 14.99724850317026 0  10.0000734955962 14.99739748669717 0  15.00007358423302 14.99747185205997 0  20.00007368927042 14.99754621125089 0  25.00007380618624 14.99762062277182 0  30.00007392760746 14.99769514696667 0  35.00007404294527 14.99776984644634 0  40.000074137776 14.99784478664052 0  45.00007419310831 14.99792003663771 0  50.00007418454064 14.99799567032022 0  55.00007408126648 14.99807176778213 0  60.00007384486654 14.99814841703872 0  65.00007342782786 14.99822571606195 0  70.00007277172254 14.9983037752023 0  75.00007180499252 14.99838272007837 0  80.00007044029812 14.99846269502634 0  85.00006857144272 14.99854386719212 0  90.00006606998856 14.99862643129511 0  95.00006278190452 14.99871061494202 0  100.0000585250023 14.99879668402385 0  105.0000530887236 14.99888494699248 0  110.0000462392283 14.99897575532276 0  115.0000377351455 14.99906949455522 0  120.0000273631968 14.99916655481846 0  125.0000150085817 14.99926725973647 0  130.0000007820441 14.99937171533179 0  134.9999852306078 14.99947951279377 0  139.9999696506663 14.99958917983639 0  144.9999564680353 14.9996972307359 0  149.9999494623817 14.99979660957864 0  164.9999765834737 14.99988852502445 0  159.9999706835696 14.99988784727798 0  169.9999788478408 14.99989624183922 0  174.9999803841924 14.99991394789372 0  179.9999824852179 14.99994155430652 0  184.9999854909096 14.9999778028517 0  189.9999893121777 15.00002118859367 0  194.9999937131872 15.00007031910232 0  199.9999984420785 15.00012402048573 0  205.0000032824258 15.00018134265244 0  210.000008067082 15.00024153029647 0  215.0000126759788 15.00030398668337 0  220.0000170283112 15.00036824021332 0  225.0000210737882 15.00043391662196 0  230.0000247848098 15.00050071692137 0  235.0000281501326 15.00056840026924 0  240.000031170002 15.0006367707832 0  245.0000338525449 15.00070566741506 0  250.0000362111677 15.00077495617096 0  255.0000382627165 15.00084452413038 0  260.0000400262092 15.00091427486326 0  265.0000415219702 15.00098412495937 0  270.0000427710539 15.00105400148026 0  275.0000437948607 15.0011238402196 0  280.0000446148698 15.00119358472056 0  285.0000452524862 15.00126318604651 0  290.0000457289936 15.00133260332273 0  295.0000460657856 15.00140180503761 0  300.0000462851633 15.00147077096159 0  305.0000464123664 15.00153949421001 0  310.0000464800137 15.00160798227311 0  4.999961440254478 22.49732342606001 0  -3.861201614652199e-05 22.49724894498248 0  9.999961487078776 22.49739777590881 0  14.99996152504816 22.49747206471422 0  19.99996154796933 22.49754635418279 0  24.99996154735359 22.49762070287579 0  29.99996151259923 22.49769516907281 0  34.99996143076189 22.49776981235335 0  39.99996128607877 22.4978446946818 0  44.99996105937088 22.49791988138155 0  49.99996072738654 22.49799544216702 0  54.99996026210719 22.49807145230011 0  59.99995963002707 22.49814799389753 0  64.99995879142477 22.49822515739721 0  69.99995769967026 22.49830304317555 0  74.99995630065969 22.4983817632825 0  79.99995453254591 22.49846144320803 0  84.99995232605825 22.49854222349441 0  89.99994960590161 22.49862426082617 0  94.99994629402373 22.49870772790463 0  99.99994231598352 22.49879281084923 0  104.9999376122814 22.49887970191251 0  109.9999321573285 22.49896858371819 0  114.9999259896398 22.49905959873434 0  119.9999192574856 22.4991527939544 0  124.9999122837198 22.49924802571167 0  129.9999056498515 22.49934480412623 0  134.9999002888282 22.49944205476768 0  139.9998975522437 22.49953778825137 0  144.9998991733216 22.49962872704756 0  149.9999069827891 22.49971012307734 0  164.9999287425651 22.49983980356567 0  159.9999253346138 22.49981456379277 0  169.9999289174135 22.49986573940856 0  174.9999274313179 22.49989570527093 0  179.9999255118815 22.4999311170563 0  184.9999238799437 22.49997217549825 0  189.9999228571163 22.50001845892374 0  194.9999225166818 22.50006929947589 0  199.9999228009244 22.50012398472728 0  204.9999235960074 22.50018185128856 0  209.9999247743659 22.50024231975268 0  214.999926216116 22.5003049006726 0  219.9999278181547 22.50036918775303 0  224.9999294965894 22.50043484648093 0  229.9999311858662 22.50050160209121 0  234.9999328365037 22.50056922852539 0  239.9999344124286 22.50063753894634 0  244.9999358884095 22.50070637786684 0  249.999937247787 22.50077561474622 0  254.9999384805687 22.50084513884681 0  259.9999395818587 22.50091485514598 0  264.9999405505989 22.50098468112636 0  269.9999413885558 22.50105454430131 0  274.9999420995294 22.50112438036133 0  279.9999426887577 22.50119413184456 0  284.9999431625426 22.50126374722745 0  289.9999435281691 22.50133318028647 0  294.9999437942814 22.5014023894686
[...]
<PointData  Vectors="v"> 
<DataArray  type="Float64"  Name="v"  NumberOfComponents="3" format="ascii">-1.5828714888004871e+00 5.7324210722109719e+00 0.0000000000000000e+00  -1.1484142525792171e+00 5.5747831150813623e+00 0.0000000000000000e+00  -8.4761759193923680e-01 4.9232716399549963e+00 0.0000000000000000e+00  -1.1795669721536945e+00 5.2351340084418414e+00 0.0000000000000000e+00  -5.6826450615607682e-01 6.2513171487992345e+00 0.0000000000000000e+00  -4.1338876503093153e-01 5.3819499345111010e+00 0.0000000000000000e+00  4.6703380553762015e-03 7.3347661385823955e+00 0.0000000000000000e+00  1.6580246558418058e-01 6.4766176024880560e+00 0.0000000000000000e+00  5.6223782017933022e-01 7.9679346199259351e+00 0.0000000000000000e+00  7.3718468332537745e-01 7.1336447122165572e+00 0.0000000000000000e+00  1.2344392576734833e+00 9.0279292881423547e+00 0.0000000000000000e+00  1.2925036723510395e+00 8.0224305852374265e+00 0.0000000000000000e+00  1.8123816803034487e+00 9.7143487415177603e+00 0.0000000000000000e+00  1.9613825386149730e+00 8.8508280572445841e+00 0.0000000000000000e+00  1.9675489388981175e+00 9.8120484356359192e+00 0.0000000000000000e+00  2.5351651546358105e+00 9.5837391931195093e+00 0.0000000000000000e+00  2.9463137434435009e+00 1.1023231342666120e+01 0.0000000000000000e+00  2.6852858393412822e+00 9.5603725779998641e+00 0.0000000000000000e+00  -1.4332105446341917e-01 6.1463527188196068e+00 0.0000000000000000e+00  3.6577004159844524e+00 1.0786993489355220e+01 0.0000000000000000e+00  9.4307607192616754e+00 2.0007365826515805e+01 0.0000000000000000e+00  5.6070650673872036e-01 5.6529470640681394e+00 0.0000000000000000e+00  8.3840124335299251e+00 1.7487735920532465e+01 0.0000000000000000e+00  1.0127200028201925e+01 1.9065814568687230e+01 0.0000000000000000e+00  8.2543358288414765e+00 1.6259209026979335e+01 0.0000000000000000e+00  9.0711474585567036e+00 1.6463690983898886e+01 0.0000000000000000e+00  8.7902631524704287e+00 1.6037089464052318e+01 0.0000000000000000e+00  8.9298200731206752e+00 1.5245190214151503e+01 0.0000000000000000e+00  9.8591863325828406e+00 1.6625743379452643e+01 0.0000000000000000e+00  9.4519790628955036e+00 1.5036674381743051e+01 0.0000000000000000e+00  1.1285529214210076e+01 1.7688749759810008e+01 0.0000000000000000e+00  1.0503979193865892e+01 1.5565053273508468e+01 0.0000000000000000e+00  1.2976829238875141e+01 1.9010017220668992e+01 0.0000000000000000e+00  1.1911152322243179e+01 1.6491623659089807e+01 0.0000000000000000e+00  1.4849537163318454e+01 2.0602937407193412e+01 0.0000000000000000e+00  1.3580999993044001e+01 1.7814713216256013e+01 0.0000000000000000e+00  1.6820049191163641e+01 2.2089953032363979e+01 0.0000000000000000e+00  1.5428639926557160e+01 1.9156750927590213e+01 0.0000000000000000e+00  1.8818901781001355e+01 2.3487836876769808e+01 0.0000000000000000e+00  1.7371911300272131e+01 2.0515471941691750e+01 0.0000000000000000e+00  2.0781875420579386e+01 2.4644969315447103e+01 0.0000000000000000e+00  1.9340350245398355e+01 2.1728452571383794e+01 0.0000000000000000e+00  2.2633378789088031e+01 2.5476018756472168e+01 0.0000000000000000e+00  2.1269784037171611e+01 2.2729656905200333e+01 0.0000000000000000e+00  2.4312847827319189e+01 2.5588990574972144e+01 0.0000000000000000e+00  2.3083749876776480e+01 2.3102713687254450e+01 0.0000000000000000e+00  2.5779417313786695e+01 2.5523925667147825e+01 0.0000000000000000e+00  2.4724632820135664e+01 2.3361853038159872e+01 0.0000000000000000e+00  2.6984412469181418e+01 2.4072990839579216e+01 0.0000000000000000e+00  2.6145144613656871e+01 2.2301982928534482e+01 0.0000000000000000e+00  2.7930069128150802e+01 2.2622992556409461e+01 0.0000000000000000e+00  2.7306789114671872e+01 2.1250499137813424e+01 0.0000000000000000e+00  2.8598769358888006e+01 1.9184755847070488e+01 0.0000000000000000e+00  2.8196784384761095e+01 1.8220485166571642e+01 0.0000000000000000e+00  2.9041095516191355e+01 1.5796048186922873e+01 0.0000000000000000e+00  2.8819107685911248e+01 1.5188738465241697e+01 0.0000000000000000e+00  2.9266161573582448e+01 1.0277377062790610e+01 0.0000000000000000e+00  2.9194246076486230e+01 9.9782888702435457e+00 0.0000000000000000e+00  2.9368171128933351e+01 3.7273775333248658e+00 0.0000000000000000e+00  2.9372091379154991e+01 3.6433345608955139e+00 0.0000000000000000e+00  2.9389264412978342e+01 1.2411239541970617e-05 0.0000000000000000e+00  2.9389462128478392e+01 2.2004844251639883e-04 0.0000000000000000e+00  2.9389262614609244e+01 -1.0388265456856853e-19 0.0000000000000000e+00  2.1020032646879358e+01 -1.1525257511323867e+01 0.0000000000000000e+00  2.9366937864379274e+01 9.9090756731678653e-01 0.0000000000000000e+00  2.9389455238759279e+01 -1.8668000180631507e-04 0.0000000000000000e+00  2.0626518112892725e+01 -2.0688800092140944e+01 0.0000000000000000e+00  2.1049136745439291e+01 -2.0165941304421214e+01 0.0000000000000000e+00  1.7603246119063378e+01 -2.7675082780449216e+01 0.0000000000000000e+00  2.0715085191955939e+01 -2.3181522394636808e+01 0.0000000000000000e+00  1.6453259433107860e+01 -2.9094053395901931e+01 0.0000000000000000e+00  1.7749230026577980e+01 -2.7420228612538725e+01 0.0000000000000000e+00  1.4659285798541880e+01 -3.0534786311887505e+01 0.0000000000000000e+00  1.6652769534624476e+01 -2.7888696658722886e+01 0.0000000000000000e+00  1.3286569988700473e+01 -2.9726934136834700e+01 0.0000000000000000e+00  1.4909893005045262e+01 -2.7713601492145994e+01 0.0000000000000000e+00  1.1900397650789055e+01 -2.8673778737644351e+01 0.0000000000000000e+00  1.3587751275025946e+01 -2.6636524969955730e+01 0.0000000000000000e+00  1.0684524606523414e+01 -2.6781404515098423e+01 0.0000000000000000e+00  1.2249225860923843e+01 -2.5000270156458605e+01 0.0000000000000000e+00  9.3150638895806193e+00 -2.4939310719455833e+01 0.0000000000000000e+00  1.1079597113736726e+01 -2.2925467668358795e+01 0.0000000000000000e+00  8.2860863999793004e+00 -2.2728266536199364e+01 0.0000000000000000e+00  9.7553729191490142e+00 -2.1224322720511314e+01 0.0000000000000000e+00  7.4116598298578849e+00 -2.0646318230922532e+01 0.0000000000000000e+00  8.7700297247904562e+00 -1.9373372486716590e+01 0.0000000000000000e+00  6.4818080113169003e+00 -1.8849897176646980e+01 0.0000000000000000e+00  7.9380725004539920e+00 -1.7492866015712785e+01 0.0000000000000000e+00  5.6155713692512608e+00 -1.7207358644896928e+01 0.0000000000000000e+00  7.0499429708160513e+00 -1.5944710088997581e+01 0.0000000000000000e+00  4.8151961999121689e+00 -1.5762871229306931e+01 0.0000000000000000e+00  6.2242461771120006e+00 -1.4598491524395056e+01 0.0000000000000000e+00  4.0568734688233281e+00 -1.4441010894515076e+01 0.0000000000000000e+00  5.4634985153877285e+00 -1.3338861384977255e+01 0.0000000000000000e+00  3.3803502740384714e+00 -1.3177970832392331e+01 0.0000000000000000e+00  4.7441129712993595e+00 -1.2197809470003937e+01 0.0000000000000000e+00  2.7873176232222137e+00 -1.2006296556602821e+01 0.0000000000000000e+00  4.1056707169481603e+00 -1.1150855289272146e+01 0.0000000000000000e+00  2.2450379831596008e+00 -1.0875698349896837e+01 0.0000000000000000e+00  3.5499682490739066e+00 -1.0095824512532928e+01 0.0000000000000000e+00  1.7711783234799205e+00 -9.7710588894561532e+00 0.0000000000000000e+00  3.0445260501430651e+00 -9.0932107501275414e+00 0.0000000000000000e+00  1.3682640311326508e+00 -8.7126887905582109e+00 0.0000000000000000e+00  2.6067747731745490e+00 -8.1409705641734114e+00 0.0000000000000000e+00  1.0097916213542051e+00 -7.6571360379083337e+00 0.0000000000000000e+00  2.2395882627245758e+00 -7.1514796676710786e+00 0.0000000000000000e+00  7.0676497381607872e-01 -6.6339616276099704e+00 0.0000000000000000e+00  1.9161578275301903e+00 -6.2113586708890862e+00 0.0000000000000000e+00  4.6310896787199085e-01 -5.6258838112136695e+00 0.0000000000000000e+00  1.6481660569312584e+00 -5.2915542824285771e+00 0.0000000000000000e+00  2.6069401995241887e-01 -4.6564833057436950e+00 0.0000000000000000e+00  1.4383575903642605e+00 -4.3845312112407679e+00 0.0000000000000000e+00  1.0817284628118665e-01 -3.6869603918711271e+00 0.0000000000000000e+00  1.2708347361598362e+00 -3.4881058937060532e+00 0.0000000000000000e+00  -1.6126330116056858e-03 -2.8494219091799984e+00 0.0000000000000000e+00  1.1505274585861782e+00 -2.7169172735073563e+00 0.0000000000000000e+00  -7.0833691207432908e-02 -1.9651849314547636e+00 0.0000000000000000e+00  1.0765277301336467e+00 -1.8891290919376376e+00 0.0000000000000000e+00  -1.3771815081938493e-01 -1.3321679509192588e+00 0.0000000000000000e+00  1.0363532878569135e+00 -1.2663614689733571e+00 0.0000000000000000e+00  -2.0981525856579308e-01 -7.1156970487441440e-01 0.0000000000000000e+00  1.0098635229859898e+00 -6.2554435833222721e-01 0.0000000000000000e+00  -3.7205210572811365e-01 1.7148977297229431e-01 0.0000000000000000e+00  9.5391947423025736e-01 3.6859015945952683e-01 0.0000000000000000e+00  -1.2855025716670834e-01 4.4245086146802324e+00 0.0000000000000000e+00  -4.8806491625315046e-01 4.6978729647197026e+00 0.0000000000000000e+00  2.0463389025361406e-01 4.7298309773105514e+00 0.0000000000000000e+00  6.3991817630671133e-01 5.6076087726976720e+00 0.0000000000000000e+00  1.2193806436558270e+00 6.2769062183614972e+00 0.0000000000000000e+00  1.7899665610976836e+00 7.1902153294844560e+00 0.0000000000000000e+00  2.3434301057097775e+00 7.8493491751180722e+00 0.0000000000000000e+00  3.0089022096884555e+00 8.7260359734540636e+00 0.0000000000000000e+00  3.5773549709366579e+00 9.3387771068791956e+00 0.0000000000000000e+00  3.7205424180807207e+00 9.3336153158902420e+00 0.0000000000000000e+00  4.6835368878166710e+00 1.0305493104061290e+01 0.0000000000000000e+00  1.5760377955191294e+00 4.7196348310296878e+00 0.0000000000000000e+00  1.1136369512648635e+01 1.8051387795484871e+01 0.0000000000000000e+00  1.0073183819238174e+01 1.5464649878985325e+01 0.0000000000000000e+00  9.9189957740535224e+00 1.4262153016704938e+01 0.0000000000000000e+00  1.0424436039921874e+01 1.4000087289704540e+01 0.0000000000000000e+00  1.1453993539589533e+01 1.4396478421425572e+01 0.0000000000000000e+00  1.2833896719573234e+01 1.5327345144191188e+01 0.0000000000000000e+00  1.4472367766895935e+01 1.6406754743946767e+01 0.0000000000000000e+00  1.6283013257102905e+01 1.7625250446505753e+01 0.0000000000000000e+00  1.8183740114709618e+01 1.8801946959163914e+01 0.0000000000000000e+00  2.0105200746712114e+01 1.9867434014409941e+01 0.0000000000000000e+00  2.1980357853108082e+01 2.0415915135346740e+01 0.0000000000000000e+00  2.3734286454759410e+01 2.0939497013987200e+01 0.0000000000000000e+00  2.5308018797815333e+01 2.0212391177855345e+01 0.0000000000000000e+00  2.6655329722575459e+01 1.9558893190333492e+01 0.0000000000000000e+00  2.7733163461935991e+01 1.6929779793173434e+01 0.0000000000000000e+00  2.8538720899278594e+01 1.4323284625320769e+01 0.0000000000000000e+00  2.9056800323334674e+01 9.4557002159560852e+00 0.0000000000000000e+00  2.9341388618141391e+01 3.4713581162538643e+00 0.0000000000000000e+00  2.9389936833394529e+01 4.1939404508568824e-04 0.0000000000000000e+00  2.9328732012350788e+01 1.1506040203206249e+00 0.0000000000000000e+00  2.9389927437744177e+01 -3.6698224458300361e-04 0.0000000000000000e+00  2.9172618754337151e+01 -7.7084994120261676e+00 0.0000000000000000e+00  2.0919564350528621e+01 -2.2732614290899889e+01 0.0000000000000000e+00  2.0666350331693938e+01 -2.3013407049783432e+01 0.0000000000000000e+00  1.7768782572366749e+01 -2.6285081198029399e+01 0.0000000000000000e+00  1.6738154216626839e+01 -2.5131860863903476e+01 0.0000000000000000e+00  1.5051660574501064e+01 -2.4688872272434324e+01 0.0000000000000000e+00  1.3785166391968934e+01 -2.3022467910071519e+01 0.0000000000000000e+00  1.2496554944415276e+01 -2.1199515149088509e+01 0.0000000000000000e+00  1.1374056480461014e+01 -1.9265663639465238e+01 0.0000000000000000e+00  1.0094794131345029e+01 -1.7921464465326046e+01 0.0000000000000000e+00  9.1523808133585245e+00 -1.6269489592473221e+01 0.0000000000000000e+00  8.3613462205449061e+00 -1.4636996608176258e+01 0.0000000000000000e+00  7.5131761191267010e+00 -1.3383234938375194e+01 0.0000000000000000e+00  6.7258947110890395e+00 -1.2220023768928625e+01 0.0000000000000000e+00  6.0021115869496917e+00 -1.1140651176061130e+01 0.0000000000000000e+00  5.3186760822246155e+00 -1.0214255590306227e+01 0.0000000000000000e+00  4.7149699391845239e+00 -9.2825560050602611e+00 0.0000000000000000e+00  4.1928489416109667e+00 -8.3549316714423938e+00 0.0000000000000000e+00  3.7201309616580698e+00 -7.5036765072137630e+00 0.0000000000000000e+00  3.3142228546914212e+00 -6.6193321717746381e+00 0.0000000000000000e+00  2.9779603951951281e+00 -5.7447595384127466e+00 0.0000000000000000e+00  2.6849262504419951e+00 -4.9072815594466190e+00 0.0000000000000000e+00  2.4464492321841491e+00 -4.0877629305423531e+00 0.0000000000000000e+00  2.2658483796241273e+00 -3.2533831153757391e+00 0.0000000000000000e+00  2.1264087117575281e+00 -2.5546083863367195e+00 0.0000000000000000e+00  2.0346623708537472e+00 -1.7924046047986646e+00 0.0000000000000000e+00  1.9866998991230063e+00 -1.2261320218665881e+00 0.0000000000000000e+00  1.9751186265010139e+00 -5.9596963217312426e-01 0.0000000000000000e+00  1.9726184731679017e+00 4.3076774891710856e-01 0.0000000000000000e+00  1.1210843575794212e+00 3.8833513286872763e+00 0.0000000000000000e+00  7.9961195510744942e-01 4.2187173464688339e+00 0.0000000000000000e+00  1.4836434970124499e+00 4.2271735539347146e+00 0.0000000000000000e+00  1.8214748742304354e+00 4.9524350183788917e+00 0.0000000000000000e+00  2.2603189940363206e+00 5.4060619634930909e+00 0.0000000000000000e+00  2.8425631237401765e+00 6.3337601668314241e+00 0.0000000000000000e+00  3.4144753451846070e+00 7.0203906777597131e+00 0.0000000000000000e+00  3.9666643377025643e+00 7.7306724257536246e+00 0.0000000000000000e+00  4.6283376490227033e+00 8.4913887054979877e+00 0.0000000000000000e+00  5.1896779391403811e+00 9.1272283960096594e+00 0.0000000000000000e+00  5.3212500983408351e+00 8.8720970522359135e+00 0.0000000000000000e+00  6.2691217528595651e+00 9.3925304469728257e+00 0.0000000000000000e+00  3.1503265203723805e+00 3.7145374705652938e+00 0.0000000000000000e+00  1.2709689826317588e+01 1.7061555764732937e+01 0.0000000000000000e+00  1.1644478936270824e+01 1.4504163124135319e+01 0.0000000000000000e+00  1.1477732557578790e+01 1.3259012040665809e+01 0.0000000000000000e+00  1.1960641022503170e+01 1.2875767213434642e+01 0.0000000000000000e+00  1.2958541626428385e+01 1.3287922825516251e+01 0.0000000000000000e+00  1.4298121659854747e+01 1.3986011686755070e+01 0.0000000000000000e+00  1.5886539790254352e+01 1.4952399282429040e+01 0.0000000000000000e+00  1.7638241655904821e+01 1.6001217660841530e+01 0.0000000000000000e+00  1.9470672048132592e+01 1.7043960301559043e+01 0.0000000000000000e+00  2.1311616584172427e+01 1.7668136129277322e+01 0.0000000000000000e+00  2.3095984632034654e+01 1.8385903366136752e+01 0.0000000000000000e+00  2.4744300292888411e+01 1.7934203039345416e+01 0.0000000000000000e+00  2.6201185195913521e+01 1.7637587583008280e+01 0.0000000000000000e+00  2.7411871383168645e+01 1.5411423396497756e+01 0.0000000000000000e+00  2.8346112760336414e+01 1.3246798553489045e+01 0.0000000000000000e+00  2.8977500209976586e+01 8.7792459677100645e+00 0.0000000000000000e+00  2.9334384788822739e+01 3.2294312029001140e+00 0.0000000000000000e+00  2.9390679426816508e+01 6.0082351556235789e-04 0.0000000000000000e+00  2.9304669871314314e+01 1.4634927939104048e+00 0.0000000000000000e+00  2.9390670959561078e+01 -5.2567431058750521e-04 0.0000000000000000e+00  2.8937329334674981e+01 -7.4165468537637631e+00 0.0000000000000000e+00  2.8768876547958676e+01 -1.0433589448161328e+01 0.0000000000000000e+00  2.0627905789906688e+01 -2.2734800805304094e+01 0.0000000000000000e+00  2.0505167764661365e+01 -2.2019428930262773e+01 0.0000000000000000e+00  1.7717154059000411e+01 -2.3665736824196145e+01 0.0000000000000000e+00  1.6784962907887234e+01 -2.2224243191608807e+01 0.0000000000000000e+00  1.5184235730675917e+01 -2.1185508036537460e+01 0.0000000000000000e+00  1.3996883609663378e+01 -1.9322643888203800e+01 0.0000000000000000e+00  1.2778780757757284e+01 -1.7634290654264550e+01 0.0000000000000000e+00  1.1722384106973394e+01 -1.6051342196549491e+01 0.0000000000000000e+00  1.0504753458985075e+01 -1.4902784118977779e+01 0.0000000000000000e+00  9.6208503196260509e+00 -1.3495033520329560e+01 0.0000000000000000e+00  8.8861154415349706e+00 -1.2154128752799050e+01 0.0000000000000000e+00  8.0922072235259908e+00 -1.1080741346293600e+01 0.0000000000000000e+00  7.3569360972609461e+00 -1.0094956813638420e+01 0.0000000000000000e+00  6.6832703308988419e+00 -9.2275810513244547e+00 0.0000000000000000e+00  6.0479526435644377e+00 -8.4142047639356949e+00 0.0000000000000000e+00  5.4904551564916728e+00 -7.6075003397212333e+00 0.0000000000000000e+00  5.0128234438964521e+00 -6.8292457467717469e+00 0.0000000000000000e+00  4.5830675993707528e+00 -6.0439286223768693e+00 0.0000000000000000e+00  4.2185068076989989e+00 -5.2730345880869578e+00 0.0000000000000000e+00  3.9225247950828712e+00 -4.4990791185749890e+00 0.0000000000000000e+00  3.6682015270148223e+00 -3.7613142983437462e+00 0.0000000000000000e+00  3.4679006827940904e+00 -3.0117022887961689e+00 0.0000000000000000e+00  3.3234112167139886e+00 -2.3760470713901665e+00 0.0000000000000000e+00  3.2206984050097427e+00 -1.6807792432186208e+00 0.0000000000000000e+00  3.1614138572748125e+00 -1.1860792285435262e+00 0.0000000000000000e+00  3.1508817614414890e+00 -5.9855113224405476e-01 0.0000000000000000e+00  3.1626622931060062e+00 4.0084395585622318e-01 0.0000000000000000e+00  2.4343064257489244e+00 3.3983812991195337e+00 0.0000000000000000e+00  2.1489104007659181e+00 3.7948066643501197e+00 0.0000000000000000e+00  2.7602023580865458e+00 3.6785060840191686e+00 0.0000000000000000e+00  3.1306686625167122e+00 4.4396441921759200e+00 0.0000000000000000e+00  3.4773104898372273e+00 4.7417701489385449e+00 0.0000000000000000e+00  3.9250888616119908e+00 5.4550893829777527e+00 0.0000000000000000e+00  4.5150274520778817e+00 6.1582157382706777e+00 0.0000000000000000e+00  5.0927928753496188e+00 6.9002511473863155e+00 0.0000000000000000e+00  5.6478813008821973e+00 7.4994826369817913e+00 0.0000000000000000e+00  6.3081172002923980e+00 8.2891059197590398e+00 0.0000000000000000e+00  6.8626608367666764e+00 8.6832767535929012e+00 0.0000000000000000e+00  6.9824159691529113e+00 7.9809884716362340e+00 0.0000000000000000e+00  7.9175386718819594e+00 8.3972599486478892e+00 0.0000000000000000e+00  4.7984625424939580e+00 2.7125418988700125e+00 0.0000000000000000e+00  1.4375890468698699e+01 1.6090268869990773e+01 0.0000000000000000e+00  1.3325775704308922e+01 1.3508746224434059e+01 0.0000000000000000e+00  1.3158957073344126e+01 1.2160309456592625e+01 0.0000000000000000e+00  1.3628737396653264e+01 1.1809993409335872e+01 0.0000000000000000e+00  1.4599381500502810e+01 1.2003117889862949e+01 0.0000000000000000e+00  1.5900383358175562e+01 1.2605763812683907e+01 0.0000000000000000e+00  1.7438038882717507e+01 1.3417937987570648e+01 0.0000000000000000e+00  1.9125931280224087e+01 1.4349293066857948e+01 0.0000000000000000e+00  2.0880580212701272e+01 1.4970668499167173e+01 0.0000000000000000e+00  2.2629386458536178e+01 1.5787819813662344e+01 0.0000000000000000e+00  2.4301263633075063e+01 1.5548492461949465e+01 0.0000000000000000e+00  2.5821373560629695e+01 1.5562615686903127e+01 0.0000000000000000e+00  2.7122270263171256e+01 1.3707275102651023e+01 0.0000000000000000e+00  2.8164089574157842e+01 1.1999115364471344e+01 0.0000000000000000e+00  2.8887605601854265e+01 7.9558259940194276e+00 0.0000000000000000e+00  2.9316850118130105e+01 2.9203835331053143e+00 0.0000000000000000e+00  2.9391662360001774e+01 7.6339533473718485e-04 0.0000000000000000e+00  2.9281464328327758e+01 1.8870147783019942e+00 0.0000000000000000e+00  2.9391654561170526e+01 -6.6699973012457727e-04 0.0000000000000000e+00  2.8785566615289564e+01 -6.6932484928658553e+00 0.0000000000000000e+00  2.8260993019711663e+01 -1