<?xml version="1.0"?>
<VTKFile type="UnstructuredGrid"  version="0.1"  >
<UnstructuredGrid>
<Piece  NumberOfPoints="1933" NumberOfCells="3640">
<Points>
<DataArray  type="Float64"  NumberOfComponents="3"  format="ascii">-0.0002574756281495949 0.001521880287333141 0  4.999742551209564 0.001451275031549435 0  4.999848529148169 7.501451383418813 0  -0.0001515395496942684 7.501521914510262 0  9.999742574271345 0.001380558423313673 0  9.999848661584835 7.501380696124427 0  14.99974265284877 0.001309648027437296 0  14.99984889521844 7.501309796670356 0  19.99974285884368 0.001238516520174925 0  19.99984926845736 7.501238668735819 0  24.99974326385055 0.00116717091481679 0  24.99984982120145 7.501167324326969 0  29.99974393528573 0.001095640415486915 0  29.99985059404876 7.501095795007413 0  34.99974493630373 0.001023969276598153 0  34.99985162772741 7.501024126175812 0  39.9997463272363 0.0009522128604294929 0  39.99985296298162 7.500952373779459 0  44.99974816757265 0.0008804358500745138 0  44.99985464081507 7.500880602846959 0  49.99975051807446 0.0008087120014035635 0  49.99985670293857 7.500808887401632 0  54.99975344288149 0.0007371250907117462 0  54.99985919229176 7.50073731149384 0  59.99975701157704 0.0006657709046190696 0  59.99986215352907 7.500665971237722 0  64.99976130123343 0.0005947602643481724 0  64.99986563336761 7.500594977862415 0  69.99976639846223 0.0005242232047537778 0  69.9998696806891 7.50052446190412 0  74.99977240149171 0.0004543145619782681 0  74.99987434624936 7.500454578788329 0  79.9997794222555 0.0003852213856502407 0  79.99987968178642 7.500385516199989 0  84.9997875884187 0.0003171728109935121 0  84.9998857382223 7.500317503833168 0  89.99979704513831 0.0002504533443514225 0  89.99989256249144 7.500250826378245 0  94.99980795612797 0.0001854209957343804 0  94.99990019230646 7.50018584097804 0  99.99982050312988 0.0001225324345202593 0  99.99990864786639 7.500123000903661 0  104.9998348820195 6.237850956737067e-05 0  104.999917919107 7.500062887905544 0  109.9998512920037 5.735316134728664e-06 0  109.9999279466994 7.500006256581115 0  114.9998699109423 -4.636110315186304e-05 0  114.999938594859 7.499954095044423 0  119.9998908429718 -9.250381749011079e-05 0  119.9999496148938 7.49990770669944 0  124.9999140110236 -0.0001307484644867956 0  124.9999606022761 7.499868816661528 0  129.999938939628 -0.0001583626959804788 0  129.9999709615678 7.499839700064607 0  134.999964318547 -0.0001714556958228885 0  134.9999799241471 7.499823311393368 0  139.9999871245287 -0.0001644701771955512 0  139.9999867408035 7.499823355451719 0  145.0000008301735 -0.0001296960058269856 0  144.9999913665138 7.49984420418034 0  149.9999916004114 -5.802722793473435e-05 0  149.9999964876998 7.499890830330011 0  160.0000000000011 8.782173465927524e-19 0  164.9998501371798 -0.0002017060755136825 0  164.9999741674422 7.49976873491131 0  160.0000188146535 7.499929924051984 0  169.9997658602931 -0.0003767480844879152 0  169.9999287916677 7.499608295933855 0  174.9997171769174 -0.0005324298722413003 0  174.9998910766253 7.499459273737133 0  179.9996887188499 -0.0006728049313808473 0  179.9998619478892 7.499322363204596 0  184.9996721526379 -0.0008010501474435988 0  184.9998402646868 7.49919604129649 0  189.9996627893564 -0.0009197167247040146 0  189.9998245004222 7.499078483362498 0  194.9996579053746 -0.001030800560260703 0  194.9998132648262 7.498968057789355 0  199.9996558674397 -0.001135837089088069 0  199.9998054308921 7.498863423494737 0  204.9996556635494 -0.001236002857337709 0  204.9998001282901 7.498763510899964 0  209.9996566457495 -0.001332203884133041 0  209.9997966989134 7.498667474105677 0  214.9996583859733 -0.001425145026502321 0  214.999794648845 7.498574642706173 0  219.9996605932486 -0.001515381787693125 0  219.9997936074921 7.498484481357918 0  224.9996630648477 -0.001603358171819074 0  224.9997932957949 7.498396558131899 0  229.9996656566165 -0.001689434173443579 0  229.9997935024841 7.498310520454205 0  234.9996682644042 -0.001773905807481011 0  234.9997940666815 7.498226076998182 0  239.999670812094 -0.001857019839390383 0  239.9997948652303 7.498142984049279 0  244.9996732436849 -0.001938984758695376 0  244.9997958034817 7.498061035168592 0  249.9996755179342 -0.002019979078285638 0  249.9997968085758 7.497980053273912 0  254.9996776046936 -0.002100157713550559 0  254.9997978245379 7.497899884496059 0  259.9996794823979 -0.002179656964788851 0  259.9997988086901 7.497820393349874 0  264.9996811364097 -0.002258598462836888 0  264.9997997290446 7.497741458896034 0  269.9996825580131 -0.002337092316433226 0  269.9998005624347 7.497662971675592 0  274.9996837439863 -0.002415239599585679 0  274.999801293199 7.497584831288014 0  279.9996846967085 -0.002493134217142661 0  279.9998019122973 7.497506944569293 0  284.999685424832 -0.002570864060711246 0  284.9998024167369 7.49742922442583 0  289.9996859445345 -0.002648511172957012 0  289.9998028091904 7.497351589509451 0  294.9996862813753 -0.002726150300493893 0  294.9998030977125 7.497273965101147 0  299.9996864725251 -0.002803844584846687 0  299.9998032954609 7.497196285822774 0  304.9996865686472 -0.002881635911626914 0  304.9998034206022 7.49711850110475 0  309.9996866331746 -0.002959524981388928 0  309.9998034973618 7.497040584611692 0  4.99995411430891 15.00145164708221 0  -4.596492291469856e-05 15.00152200266538 0  9.999954258982292 15.00138102708422 0  14.99995450391537 15.00131014498171 0  19.99995487454072 15.0012390143745 0  24.99995539293894 15.00116766204733 0  29.99995608031856 15.00109612661418 0  34.99995695780881 15.00102445667293 0  39.99995804654651 15.00095270950455 0  44.99995936749154 15.00088095060915 0  49.99996094112637 15.00080925411228 0  54.99996278706114 15.00073770401807 0  59.9999649234983 15.00066639631165 0  64.99996736647853 15.00059544196806 0  69.99997012879858 15.00052497099641 0  74.99997321847205 15.00045513773219 0  79.99997663657143 15.00038612768823 0  84.99998037427089 15.000318166389 0  89.99998440889726 15.00025153074401 0  94.99998869884553 15.00018656364577 0  99.99999317735208 15.00012369256644 0  104.9999977455253 15.00006345286297 0  110.0000022658519 15.00000651603942 0  115.0000065591147 14.99995372182704 0  120.0000104108256 14.9999061095373 0  125.0000135988995 14.99986493651725 0  130.0000159633306 14.99983165531451 0  135.0000175511875 14.99980778753068 0  140.0000188816155 14.9997945619432 0  145.0000213631991 14.99979202315155 0  150.0000277709659 14.99979684898103 0  165.0000475288755 14.99968775752231 0  160.0000546162081 14.99980600246385 0  170.0000317952397 14.9995589032589 0  175.000012728102 14.99942933904911 0  179.9999939574156 14.99930399899604 0  184.999977223943 14.99918455561472 0  189.999963119075 14.99907113644038 0  194.9999516460461 14.9989632463163 0  199.9999425474865 14.99886019916204 0  204.9999354779949 14.99876130401915 0  209.9999300878657 14.99866593586703 0  214.9999260592743 14.99857355489391 0  219.9999231183816 14.99848370427453 0  224.9999210360452 14.99839600021874 0  229.999919623703 14.99831012031539 0  234.9999187277059 14.99822579258851 0  239.9999182235985 14.99814278605663 0  244.9999180109795 14.99806090289363 0  249.9999180091406 14.99797997202835 0  254.9999181534718 14.99789984394709 0  259.9999183925597 14.99782038647265 0  264.9999186858556 14.99774148132923 0  269.9999190018188 14.99766302134953 0  274.9999193164227 14.99758490822588 0  279.9999196119343 14.99750705075261 0  284.9999198759102 14.99742936354671 0  289.9999201003358 14.99735176625835 0  294.9999202809739 14.99727418325674 0  299.9999204170491 14.99719654361138 0  304.999920511724 14.99711878063654 0  309.9999205742317 14.99704082868184 0  5.000059217982829 22.50145221108195 0  5.913836020782215e-05 22.50152238188384 0  10.00005934343027 22.50138166526658 0  15.00005954223058 22.5013107988799 0  20.00005983121396 22.50123965814808 0  25.00006022130674 22.50116828879696 0  30.00006072038654 22.50109673975632 0  35.00006133466113 22.50102506483286 0  40.00006206910283 22.50095332361242 0  45.00006292731886 22.50088158228193 0  50.00006391108089 22.50080991472699 0  55.00006501961887 22.50073840409143 0  60.00006624871305 22.50066714491532 0  65.00006758957566 22.50059624595459 0  70.0000690274947 22.50052583379549 0  75.00007054021202 22.50045605740321 0  80.00007209603132 22.50038709376483 0  85.00007365170249 22.50031915479717 0  90.00007515024166 22.5002524956561 0  95.00007651904157 22.50018742446757 0  100.0000776689654 22.50012431320948 0  105.0000784956729 22.50006360886008 0  110.0000788852928 22.50000584271016 0  115.0000787278034 22.49995163345331 0  120.0000779430818 22.49990167555116 0  125.0000765261828 22.49985669726005 0  130.0000746187455 22.49981736104645 0  135.0000726093412 22.49978406149411 0  140.0000712497813 22.49975655333002 0  145.0000717321175 22.49973332874235 0  150.000075577344 22.49971073374608 0  165.0001093698988 22.49959789937379 0  160.0000988551176 22.49969018175605 0  170.000111605913 22.4994934268437 0  175.0001079181549 22.49938328769879 0  180.0001007948163 22.49927206270358 0  185.0000921893065 22.49916244253388 0  190.0000833832127 22.49905573926036 0  195.0000751121824 22.49895242245108 0  200.0000677373587 22.49885250225618 0  205.0000613870094 22.49875576430793 0  210.0000560557505 22.49866190205174 0  215.0000516683615 22.49857058651783 0  220.0000481184945 22.49848150040648 0  225.0000452909591 22.49839435274944 0  230.0000430737856 22.49830888346614 0  235.0000413641803 22.49822486295668 0  240.0000400709524 22.4981420894832 0  245.0000391149978 22.49806038575812 0  250.0000384287696 22.49797959543795 0  255.000037955284 22.49789957983944 0  260.0000376469416 22.49782021500103 0  265.000037464344 22.49774138911808 0  270.0000373751566 22.49766300033825 0  275.0000373530622 22.49758495488706 0  280.0000373768037 22.49750716548436 0  285.0000374293267 22.49742954999346 0  290.0000374970415 22.49735203019556 0  295.0000375692851 22.4972745304592 0 
[...]
<PointData  Vectors="v"> 
<DataArray  type="Float64"  Name="v"  NumberOfComponents="3" format="ascii">1.5802824469633721e+00 -5.7323666674900906e+00 0.0000000000000000e+00  1.1460457164660205e+00 -5.5676282125559089e+00 0.0000000000000000e+00  8.4493293277500325e-01 -4.9164288809790113e+00 0.0000000000000000e+00  1.1769533683593927e+00 -5.2349431343574242e+00 0.0000000000000000e+00  5.6649226158183386e-01 -6.2415287187746991e+00 0.0000000000000000e+00  4.1090334067672862e-01 -5.3730851534327977e+00 0.0000000000000000e+00  -5.8991918776302322e-03 -7.3255936982883920e+00 0.0000000000000000e+00  -1.6770617426886403e-01 -6.4683101310017221e+00 0.0000000000000000e+00  -5.6303743519551208e-01 -7.9571933505882679e+00 0.0000000000000000e+00  -7.3853070083908712e-01 -7.1235734774200772e+00 0.0000000000000000e+00  -1.2346112449260638e+00 -9.0167822024311661e+00 0.0000000000000000e+00  -1.2934297304235680e+00 -8.0122771042660244e+00 0.0000000000000000e+00  -1.8121642672253029e+00 -9.7023254361217219e+00 0.0000000000000000e+00  -1.9616735874074149e+00 -8.8394185816708557e+00 0.0000000000000000e+00  -1.9674775149814268e+00 -9.8006783498247660e+00 0.0000000000000000e+00  -2.5350691222640185e+00 -9.5721350407471242e+00 0.0000000000000000e+00  -2.9459028366332625e+00 -1.1011260985401263e+01 0.0000000000000000e+00  -2.6853323803512499e+00 -9.5489826089919259e+00 0.0000000000000000e+00  1.4474150210898173e-01 -6.1336154594681949e+00 0.0000000000000000e+00  -3.6574090082235924e+00 -1.0775384389898241e+01 0.0000000000000000e+00  -9.4318244987568782e+00 -1.9997516677077897e+01 0.0000000000000000e+00  -5.5939689357606048e-01 -5.6404022253562358e+00 0.0000000000000000e+00  -8.3846987936389041e+00 -1.7477175186827104e+01 0.0000000000000000e+00  -1.0128362566769676e+01 -1.9055626619489068e+01 0.0000000000000000e+00  -8.2548368923291200e+00 -1.6248153881509893e+01 0.0000000000000000e+00  -9.0719307129679070e+00 -1.6452820218876077e+01 0.0000000000000000e+00  -8.7906684055607762e+00 -1.6025818282736427e+01 0.0000000000000000e+00  -8.9304195664757433e+00 -1.5234045743520724e+01 0.0000000000000000e+00  -9.8595540626234506e+00 -1.6614156107181220e+01 0.0000000000000000e+00  -9.4524847001569778e+00 -1.5025188614151428e+01 0.0000000000000000e+00  -1.1285882844420385e+01 -1.7677083439207010e+01 0.0000000000000000e+00  -1.0504446807175352e+01 -1.5553491941002866e+01 0.0000000000000000e+00  -1.2977182430743598e+01 -1.8998472253585060e+01 0.0000000000000000e+00  -1.1911602956231789e+01 -1.6480187779870075e+01 0.0000000000000000e+00  -1.4849902673741139e+01 -2.0591394539757474e+01 0.0000000000000000e+00  -1.3581452339860757e+01 -1.7803282680203068e+01 0.0000000000000000e+00  -1.6820425166944101e+01 -2.2078486038766350e+01 0.0000000000000000e+00  -1.5429097975382611e+01 -1.9145398888430716e+01 0.0000000000000000e+00  -1.8819287585623211e+01 -2.3476635734237252e+01 0.0000000000000000e+00  -1.7372377619030029e+01 -2.0504385229684516e+01 0.0000000000000000e+00  -2.0782267091453473e+01 -2.4633555531055887e+01 0.0000000000000000e+00  -1.9340822323806247e+01 -2.1717147486942377e+01 0.0000000000000000e+00  -2.2633768912084918e+01 -2.5464596172002551e+01 0.0000000000000000e+00  -2.1270258756252876e+01 -2.2718335303115058e+01 0.0000000000000000e+00  -2.4313217027236973e+01 -2.5577123149730379e+01 0.0000000000000000e+00  -2.3084209492454519e+01 -2.3090935801419072e+01 0.0000000000000000e+00  -2.5779769520947681e+01 -2.5511695030697954e+01 0.0000000000000000e+00  -2.4725078280265773e+01 -2.3349691477335927e+01 0.0000000000000000e+00  -2.6984712309491922e+01 -2.4059076242178953e+01 0.0000000000000000e+00  -2.6145541623723137e+01 -2.2288115983100049e+01 0.0000000000000000e+00  -2.7930335592339230e+01 -2.2608660576808724e+01 0.0000000000000000e+00  -2.7307147559302745e+01 -2.1236181077251732e+01 0.0000000000000000e+00  -2.8598961333772522e+01 -1.9166899461004061e+01 0.0000000000000000e+00  -2.8197061379967312e+01 -1.8202613361345396e+01 0.0000000000000000e+00  -2.9041245805770934e+01 -1.5776971249346373e+01 0.0000000000000000e+00  -2.8819321873253852e+01 -1.5169605740730701e+01 0.0000000000000000e+00  -2.9266244604855512e+01 -1.0254671416676768e+01 0.0000000000000000e+00  -2.9194371094895988e+01 -9.9555127309117850e+00 0.0000000000000000e+00  -2.9368184583886354e+01 -3.6949364642447629e+00 0.0000000000000000e+00  -2.9372131345625615e+01 -3.6108572213036609e+00 0.0000000000000000e+00  -2.9389262613201009e+01 -3.0005848647117542e-11 0.0000000000000000e+00  -2.9389474442690499e+01 -2.1072359673912565e-04 0.0000000000000000e+00  -2.9389262614599684e+01 2.0557059873658345e-19 0.0000000000000000e+00  -2.1018565758486989e+01 1.1485623050098843e+01 0.0000000000000000e+00  -2.9366977088533091e+01 -1.0325424920761708e+00 0.0000000000000000e+00  -2.9389472732720812e+01 2.1399512175286593e-04 0.0000000000000000e+00  -2.0624427468511179e+01 2.0691126661187809e+01 0.0000000000000000e+00  -2.1047344636825859e+01 2.0167696050707033e+01 0.0000000000000000e+00  -1.7602069495476584e+01 2.7677992914595457e+01 0.0000000000000000e+00  -2.0712826118234627e+01 2.3186162121318308e+01 0.0000000000000000e+00  -1.6451170528210078e+01 2.9107944663657367e+01 0.0000000000000000e+00  -1.7747944634426872e+01 2.7432849763531067e+01 0.0000000000000000e+00  -1.4657169856939365e+01 3.0549908547892432e+01 0.0000000000000000e+00  -1.6650598276641865e+01 2.7903902215544075e+01 0.0000000000000000e+00  -1.3284144870684271e+01 2.9744288591634223e+01 0.0000000000000000e+00  -1.4907744905828311e+01 2.7730496868817053e+01 0.0000000000000000e+00  -1.1897780001935280e+01 2.8692048099494343e+01 0.0000000000000000e+00  -1.3585301594184566e+01 2.6654501907218645e+01 0.0000000000000000e+00  -1.0681585676616805e+01 2.6799675759695390e+01 0.0000000000000000e+00  -1.2246603458281923e+01 2.5018009619937306e+01 0.0000000000000000e+00  -9.3118305479728747e+00 2.4956986449132177e+01 0.0000000000000000e+00  -1.1076659988635717e+01 2.2942662171156698e+01 0.0000000000000000e+00  -8.2827393523148896e+00 2.2745274624474447e+01 0.0000000000000000e+00  -9.7521367574500228e+00 2.1241092665246466e+01 0.0000000000000000e+00  -7.4086147599088017e+00 2.0661851322978848e+01 0.0000000000000000e+00  -8.7666679248169910e+00 1.9389294992355637e+01 0.0000000000000000e+00  -6.4789670303760003e+00 1.8864149625908457e+01 0.0000000000000000e+00  -7.9350066134289170e+00 1.7507380198946311e+01 0.0000000000000000e+00  -5.6128965004573903e+00 1.7220450882348395e+01 0.0000000000000000e+00  -7.0470735558392619e+00 1.5958015085889800e+01 0.0000000000000000e+00  -4.8126423074790869e+00 1.5775032717540466e+01 0.0000000000000000e+00  -6.2215336629769711e+00 1.4610808159039300e+01 0.0000000000000000e+00  -4.0544308123286594e+00 1.4452199088421002e+01 0.0000000000000000e+00  -5.4609017925294019e+00 1.3350196855722830e+01 0.0000000000000000e+00  -3.3779892411196810e+00 1.3188324594632949e+01 0.0000000000000000e+00  -4.7416224926872035e+00 1.2208267957418922e+01 0.0000000000000000e+00  -2.7850417030637988e+00 1.2015962325694414e+01 0.0000000000000000e+00  -4.1032556683488819e+00 1.1160634442225309e+01 0.0000000000000000e+00  -2.2428573580509132e+00 1.0884603985186143e+01 0.0000000000000000e+00  -3.5476356448804856e+00 1.0104860626793601e+01 0.0000000000000000e+00  -1.7691031677909939e+00 9.7792751261576853e+00 0.0000000000000000e+00  -3.0422856903778168e+00 9.1015730735077884e+00 0.0000000000000000e+00  -1.3663164933411487e+00 8.7202993229879571e+00 0.0000000000000000e+00  -2.6046359860856669e+00 8.1487616825962110e+00 0.0000000000000000e+00  -1.0079900679022569e+00 7.6640589427932264e+00 0.0000000000000000e+00  -2.2375761286115869e+00 7.1586105816293264e+00 0.0000000000000000e+00  -7.0513911019610709e-01 6.6402570343437359e+00 0.0000000000000000e+00  -1.9142890778163717e+00 6.2179076565555373e+00 0.0000000000000000e+00  -4.6166798888682703e-01 5.6315596523671818e+00 0.0000000000000000e+00  -1.6464708395113512e+00 5.2974974227508387e+00 0.0000000000000000e+00  -2.5948669243677158e-01 4.6615338566363489e+00 0.0000000000000000e+00  -1.4368451438237420e+00 4.3899239976514730e+00 0.0000000000000000e+00  -1.0718457057617128e-01 3.6913317903098153e+00 0.0000000000000000e+00  -1.2695548564762533e+00 3.4927970282118257e+00 0.0000000000000000e+00  2.3039223009628917e-03 2.8532631283750849e+00 0.0000000000000000e+00  -1.1494610999619357e+00 2.7212016952560001e+00 0.0000000000000000e+00  7.1273595428094472e-02 1.9681716952711623e+00 0.0000000000000000e+00  -1.0757595101745578e+00 1.8924878693844833e+00 0.0000000000000000e+00  1.3782773570933665e-01 1.3348574523491532e+00 0.0000000000000000e+00  -1.0358286167853097e+00 1.2695555837377261e+00 0.0000000000000000e+00  2.0934205206818979e-01 7.1270693873235358e-01 0.0000000000000000e+00  -1.0096711151663471e+00 6.2756657446655484e-01 0.0000000000000000e+00  3.7249069830101528e-01 -1.7141358205147178e-01 0.0000000000000000e+00  -9.5432344434825922e-01 -3.6987977462665417e-01 0.0000000000000000e+00  1.2586311066004549e-01 -4.4175184648143961e+00 0.0000000000000000e+00  4.8544133057642502e-01 -4.6975491513477659e+00 0.0000000000000000e+00  -2.0741344385800070e-01 -4.7212671638368899e+00 0.0000000000000000e+00  -6.4251326776243245e-01 -5.6002134682187128e+00 0.0000000000000000e+00  -1.2213800389392753e+00 -6.2676882372919316e+00 0.0000000000000000e+00  -1.7914178310015803e+00 -7.1807197625436849e+00 0.0000000000000000e+00  -2.3444545397558683e+00 -7.8389209905855299e+00 0.0000000000000000e+00  -3.0092944796390118e+00 -8.7150331299124915e+00 0.0000000000000000e+00  -3.5773573337944855e+00 -9.3271403849448902e+00 0.0000000000000000e+00  -3.7206894218110165e+00 -9.3225734908555218e+00 0.0000000000000000e+00  -4.6833387322495499e+00 -1.0294066127715316e+01 0.0000000000000000e+00  -1.5748070975705015e+00 -4.7067301126802601e+00 0.0000000000000000e+00  -1.1137612209934991e+01 -1.8040877493765763e+01 0.0000000000000000e+00  -1.0074050624599277e+01 -1.5453677007236234e+01 0.0000000000000000e+00  -9.9196818030442966e+00 -1.4250779905124006e+01 0.0000000000000000e+00  -1.0425029075114086e+01 -1.3988612808398663e+01 0.0000000000000000e+00  -1.1454546712709076e+01 -1.4385132045048385e+01 0.0000000000000000e+00  -1.2834435851125125e+01 -1.5316006815037372e+01 0.0000000000000000e+00  -1.4472903444171569e+01 -1.6395498010839660e+01 0.0000000000000000e+00  -1.6283553476601291e+01 -1.7614261102502475e+01 0.0000000000000000e+00  -1.8184285437952298e+01 -1.8790738096362539e+01 0.0000000000000000e+00  -2.0105749909507090e+01 -1.9856203572996527e+01 0.0000000000000000e+00  -2.1980897569231409e+01 -2.0404222804307885e+01 0.0000000000000000e+00  -2.3734817804670538e+01 -2.0927409891734893e+01 0.0000000000000000e+00  -2.5308507755425403e+01 -2.0198586794905133e+01 0.0000000000000000e+00  -2.6655783057398519e+01 -1.9544618733824475e+01 0.0000000000000000e+00  -2.7733535567282392e+01 -1.6911936876094256e+01 0.0000000000000000e+00  -2.8539022488289955e+01 -1.4304158250677888e+01 0.0000000000000000e+00  -2.9056998336812086e+01 -9.4329194362180857e+00 0.0000000000000000e+00  -2.9341483306324136e+01 -3.4388756388002539e+00 0.0000000000000000e+00  -2.9389987339084740e+01 -4.0237777003812781e-04 0.0000000000000000e+00  -2.9328824059076688e+01 -1.1922345342789080e+00 0.0000000000000000e+00  -2.9389984126869447e+01 4.3344365119982387e-04 0.0000000000000000e+00  -2.9172577388446754e+01 7.7083332863661527e+00 0.0000000000000000e+00  -2.0917754331967323e+01 2.2736667607783662e+01 0.0000000000000000e+00  -2.0664137288608213e+01 2.3027738072596136e+01 0.0000000000000000e+00  -1.7767555961496718e+01 2.6299009401698203e+01 0.0000000000000000e+00  -1.6736085378842677e+01 2.5148836126183429e+01 0.0000000000000000e+00  -1.5049618332093795e+01 2.4706389656516663e+01 0.0000000000000000e+00  -1.3782838669892939e+01 2.3039916075918651e+01 0.0000000000000000e+00  -1.2494058508823397e+01 2.1216179419085474e+01 0.0000000000000000e+00  -1.1371239180341222e+01 1.9281952214269726e+01 0.0000000000000000e+00  -1.0091664543715730e+01 1.7937148402714122e+01 0.0000000000000000e+00  -9.1491182270908116e+00 1.6284392230924841e+01 0.0000000000000000e+00  -8.3583707689836508e+00 1.4650561392825367e+01 0.0000000000000000e+00  -7.5103868760566836e+00 1.3395761832142892e+01 0.0000000000000000e+00  -6.7232561157430606e+00 1.2231511485555497e+01 0.0000000000000000e+00  -5.9995827252031670e+00 1.1151253676450846e+01 0.0000000000000000e+00  -5.3162463002296043e+00 1.0224135965295623e+01 0.0000000000000000e+00  -4.7126119783909708e+00 9.2917018102524622e+00 0.0000000000000000e+00  -4.1905694645445166e+00 8.3634205695173023e+00 0.0000000000000000e+00  -3.7179390066748543e+00 7.5116096455054251e+00 0.0000000000000000e+00  -3.3121307271437450e+00 6.6266394507360813e+00 0.0000000000000000e+00  -2.9759916005203726e+00 5.7515121348598912e+00 0.0000000000000000e+00  -2.6830980159726554e+00 4.9134737218240616e+00 0.0000000000000000e+00  -2.4447918439172187e+00 4.0934183008387928e+00 0.0000000000000000e+00  -2.2643721054591377e+00 3.2584115847649451e+00 0.0000000000000000e+00  -2.1251590576925334e+00 2.5592074935510047e+00 0.0000000000000000e+00  -2.0336269156945357e+00 1.7962012985023097e+00 0.0000000000000000e+00  -1.9859544966341616e+00 1.2296927768368846e+00 0.0000000000000000e+00  -1.9746181554159732e+00 5.9849073757903659e-01 0.0000000000000000e+00  -1.9724645779849110e+00 -4.3117831960594089e-01 0.0000000000000000e+00  -1.1237254819505329e+00 -3.8762088240336898e+00 0.0000000000000000e+00  -8.0212361821973810e-01 -4.2181384200875351e+00 0.0000000000000000e+00  -1.4863696381946794e+00 -4.2184426092929748e+00 0.0000000000000000e+00  -1.8243084070989997e+00 -4.9453203322411587e+00 0.0000000000000000e+00  -2.2629543981188949e+00 -5.3977351685837220e+00 0.0000000000000000e+00  -2.8446128949577094e+00 -6.3250962702491469e+00 0.0000000000000000e+00  -3.4159708011761327e+00 -7.0105983449128697e+00 0.0000000000000000e+00  -3.9677364967044064e+00 -7.7206281490430948e+00 0.0000000000000000e+00  -4.6287757939990346e+00 -8.4803302198726449e+00 0.0000000000000000e+00  -5.1897293006037053e+00 -9.1159167733812279e+00 0.0000000000000000e+00  -5.3214398546151847e+00 -8.8612138349016121e+00 0.0000000000000000e+00  -6.2689532003432005e+00 -9.3807233554159968e+00 0.0000000000000000e+00  -3.1491256066312383e+00 -3.7012744868366414e+00 0.0000000000000000e+00  -1.2710968317683562e+01 -1.7050918400151708e+01 0.0000000000000000e+00  -1.1645388354855752e+01 -1.4492936622717853e+01 0.0000000000000000e+00  -1.1478464489385003e+01 -1.3247624103210816e+01 0.0000000000000000e+00  -1.1961280368360175e+01 -1.2864480326738915e+01 0.0000000000000000e+00  -1.2959146150937071e+01 -1.3276645348507687e+01 0.0000000000000000e+00  -1.4298709252293424e+01 -1.3974817656929295e+01 0.0000000000000000e+00  -1.5887124991773321e+01 -1.4941474687635887e+01 0.0000000000000000e+00  -1.7638830843608375e+01 -1.5990075344087000e+01 0.0000000000000000e+00  -1.9471267020850281e+01 -1.7032795283192794e+01 0.0000000000000000e+00  -2.1312206289575645e+01 -1.7656505547016174e+01 0.0000000000000000e+00  -2.3096574273589852e+01 -1.8373873285565779e+01 0.0000000000000000e+00  -2.4744857220686715e+01 -1.7920450573131685e+01 0.0000000000000000e+00  -2.6201715043126793e+01 -1.7623355048871652e+01 0.0000000000000000e+00  -2.7412327448996894e+01 -1.5393615394196962e+01 0.0000000000000000e+00  -2.8346501696003305e+01 -1.3227695811212284e+01 0.0000000000000000e+00  -2.8977779875222723e+01 -8.7564775158644359e+00 0.0000000000000000e+00  -2.9334549745682793e+01 -3.1969508273168401e+00 0.0000000000000000e+00  -2.9390789084478417e+01 -5.7641410060339641e-04 0.0000000000000000e+00  -2.9304827260967279e+01 -1.5051060409328236e+00 0.0000000000000000e+00  -2.9390786142611436e+01 6.2798853114139368e-04 0.0000000000000000e+00  -2.8937339615571130e+01 7.4164385924607634e+00 0.0000000000000000e+00  -2.8768866133978900e+01 1.0435768856621854e+01 0.0000000000000000e+00  -2.0626156786443982e+01 2.2748534711387016e+01 0.0000000000000000e+00  -2.0503037900574842e+01 2.2035060324129613e+01 0.0000000000000000e+00  -1.7716045559030579e+01 2.3681429377013565e+01 0.0000000000000000e+00  -1.6783016228236136e+01 2.2241837127710514e+01 0.0000000000000000e+00  -1.5182329078071312e+01 2.1202495983907955e+01 0.0000000000000000e+00  -1.3994694377191644e+01 1.9339017688621386e+01 0.0000000000000000e+00  -1.2776415798330628e+01 1.7650050849356138e+01 0.0000000000000000e+00  -1.1719684782775646e+01 1.6066546647939820e+01 0.0000000000000000e+00  -1.0501733617419616e+01 1.4917450951663987e+01 0.0000000000000000e+00  -9.6176880999663599e+00 1.3508990117140016e+01 0.0000000000000000e+00  -8.8832296938045960e+00 1.2166918991704856e+01 0.0000000000000000e+00  -8.0895009609491151e+00 1.1092443312499601e+01 0.0000000000000000e+00  -7.3543740079707076e+00 1.0105716000409810e+01 0.0000000000000000e+00  -6.6808104552816436e+00 9.2376102621744849e+00 0.0000000000000000e+00  -6.0455878570103581e+00 8.4234571020244431e+00 0.0000000000000000e+00  -5.4881579157869416e+00 7.6161047183425872e+00 0.0000000000000000e+00  -5.0105997006678411e+00 6.8373116782720516e+00 0.0000000000000000e+00  -4.5809294021568467e+00 6.0513845992431339e+00 0.0000000000000000e+00  -4.2164649443451330e+00 5.2799706775702901e+00 0.0000000000000000e+00  -3.9206033509764557e+00 4.5054824151994630e+00 0.0000000000000000e+00  -3.6664178726974495e+00 3.7672266530385539e+00 0.0000000000000000e+00  -3.4662862828787988e+00 3.0170016602133978e+00 0.0000000000000000e+00  -3.3219719771344578e+00 2.3809922781846211e+00 0.0000000000000000e+00  -3.2194867523193080e+00 1.6848996102855864e+00 0.0000000000000000e+00  -3.1604082432649898e+00 1.1900874679556239e+00 0.0000000000000000e+00  -3.1501683467980541e+00 6.0144833509252760e-01 0.0000000000000000e+00  -3.1622074984000479e+00 -4.0074542526884310e-01 0.0000000000000000e+00  -2.4368065954634481e+00 -3.3909822726839058e+00 0.0000000000000000e+00  -2.1513566636546200e+00 -3.7940809709643615e+00 0.0000000000000000e+00  -2.7628534368824291e+00 -3.6696210185984239e+00 0.0000000000000000e+00  -3.1334197472789285e+00 -4.4323599702821923e+00 0.0000000000000000e+00  -3.4801555107237254e+00 -4.7337209853212396e+00 0.0000000000000000e+00  -3.9277459812725151e+00 -5.4473128043556089e+00 0.0000000000000000e+00  -4.5170930238102018e+00 -6.1492504443172091e+00 0.0000000000000000e+00  -5.0943081229164493e+00 -6.8908374327285387e+00 0.0000000000000000e+00  -5.6489719020708877e+00 -7.4893767228436667e+00 0.0000000000000000e+00  -6.3085773963301195e+00 -8.2783660360228950e+00 0.0000000000000000e+00  -6.8627286855023115e+00 -8.6721177831316414e+00 0.0000000000000000e+00  -6.9826095824188510e+00 -7.9697186379358378e+00 0.0000000000000000e+00  -7.9173730475709876e+00 -8.3850897771216939e+00 0.0000000000000000e+00  -4.7972697781328337e+00 -2.6991278639042706e+00 0.0000000000000000e+00  -1.4377184667049351e+01 -1.6079366600055430e+01 0.0000000000000000e+00  -1.3326708099855381e+01 -1.3497493689834252e+01 0.0000000000000000e+00  -1.3159714681293570e+01 -1.2149096609080608e+01 0.0000000000000000e+00  -1.3629409212122740e+01 -1.1798760970010193e+01 0.0000000000000000e+00  -1.4600016805583355e+01 -1.1991968072556958e+01 0.0000000000000000e+00  -1.5901004420284856e+01 -1.2594883692508535e+01 0.0000000000000000e+00  -1.7438658626643463e+01 -1.3406840538046765e+01 0.0000000000000000e+00  -1.9126557301572642e+01 -1.4338173233129307e+01 0.0000000000000000e+00  -2.0881205193000145e+01 -1.4959082199222758e+01 0.0000000000000000e+00  -2.2630017806783446e+01 -1.5775829871901619e+01 0.0000000000000000e+00  -2.4301872928551610e+01 -1.5534777719973251e+01 0.0000000000000000e+00  -2.5821968257404343e+01 -1.5548417037540725e+01 0.0000000000000000e+00  -2.7122801609664027e+01 -1.3689495869001410e+01 0.0000000000000000e+00  -2.8164564508178902e+01 -1.1980036262974568e+01 0.0000000000000000e+00  -2.8887972845753360e+01 -7.9330719694750451e+00 0.0000000000000000e+00  -2.9317098639026991e+01 -2.8879055523482533e+00 0.0000000000000000e+00  -2.9391849808