<?xml version="1.0"?>
<VTKFile type="UnstructuredGrid"  version="0.1"  >
<UnstructuredGrid>
<Piece  NumberOfPoints="1933" NumberOfCells="3640">
<Points>
<DataArray  type="Float64"  NumberOfComponents="3"  format="ascii">-0.0002655792710686278 0.001801804986024138 0  4.999734430789379 0.001729934311892516 0  4.999842298010956 7.501729995941699 0  -0.0001577425608734195 7.50180181181758 0  9.999734429865269 0.001657991693889087 0  9.999842381299421 7.501658076631629 0  14.99973445625364 0.001585907486309585 0  14.99984253433511 7.501586002209824 0  19.99973456034429 0.001513650706037793 0  19.99984278568351 7.501513749453862 0  24.99973479450745 0.0014412152365375 0  24.9998431658762 7.501441315931468 0  29.99973520966905 0.001368611353509174 0  29.99984370687003 7.501368713750146 0  34.999735854855 0.001295860497040629 0  34.99984444166227 7.501295965294581 0  39.99973677803695 0.001222992209342595 0  39.99984540425635 7.501223100628265 0  44.99973802752319 0.001150042577189345 0  44.99984662992716 7.501150156171652 0  49.99973965356668 0.001077053767748108 0  49.99984815569118 7.501077174363011 0  54.99974171006527 0.001004074416734087 0  54.99985002089557 7.501004204117252 0  59.99974425632729 0.0009311607516787463 0  59.99985226786072 7.500931301993588 0  64.99974735892386 0.0008583784303673563 0  64.9998549425177 7.500858534066889 0  69.99975109366778 0.0007858051607139048 0  69.99985809498621 7.500785978576262 0  74.99975554777332 0.0007135342573756167 0  74.99986178002086 7.500713729508046 0  79.9997608222445 0.0006416793972700008 0  79.99986605722231 7.500641901371536 0  84.99976703453797 0.0005703809798674208 0  84.99987099085563 7.500570635558455 0  89.99977432150195 0.0004998147062971205 0  89.9998766490264 7.500500108862609 0  94.99978284253189 0.00043020330723179 0  94.99988310182812 7.500430545002395 0  99.99979278270015 0.000361832843979994 0  99.99989041787182 7.5003622303746 0  104.9998043552688 0.0002950757979192316 0  104.9998986583224 7.500295535825003 0  109.9998178022224 0.0002304244483782853 0  109.9999078672055 7.500230947001127 0  114.9998333898743 0.000168540150982429 0  114.9999180564101 7.500169106886863 0  119.9998513932861 0.0001103276208100852 0  119.999929183788 7.500110875314364 0  124.9998720563871 5.704908509440249e-05 0  124.9999411239798 7.500057411175762 0  129.9998955004241 1.050244770548378e-05 0  129.9999536364465 7.500010282433378 0  134.9999215235475 -2.669885340181766e-05 0  134.9999663497707 7.499971603954029 0  139.9999491704295 -5.069530136554461e-05 0  139.9999788212663 7.499944189993896 0  144.9999758056295 -5.579803128908548e-05 0  144.9999908393377 7.499931700349469 0  149.9999950470541 -3.421662595792896e-05 0  150.0000034493521 7.499938924679014 0  160.0000000000001 1.245644440399154e-18 0  164.9998827342509 -0.0001465993324193763 0  164.9999791446944 7.499833421131812 0  160.0000157640024 7.499951861765033 0  169.9998125438383 -0.0002796193583129354 0  169.9999419089111 7.499710238514646 0  174.9997687247514 -0.0004026619864052625 0  174.9999102463659 7.499591632046559 0  179.9997405024888 -0.0005174536768782243 0  179.9998849646073 7.499479158071205 0  184.9997218986066 -0.0006254648263844617 0  184.9998653426265 7.499372448377454 0  189.9997094523553 -0.0007279737325863537 0  189.9998503360582 7.499270700573486 0  194.9997010854994 -0.0008260312079326743 0  194.9998389626838 7.499173102334795 0  199.9996955037223 -0.0009204714538842341 0  199.9998304057842 7.49907894762597 0  204.9996918707407 -0.001011947752159011 0  204.9998240192435 7.498987654411795 0  209.9996896264649 -0.001100971655790454 0  209.999819302467 7.49889875161721 0  214.9996883830263 -0.001187946829916224 0  214.999815870246 7.498811859031347 0  219.999687863714 -0.001273195579992921 0  219.9998134260115 7.498726668228576 0  224.9996878660356 -0.00135697877065597 0  224.999811740438 7.49864292675265 0  229.9996882386573 -0.001439510528705529 0  229.9998106351027 7.498560425702753 0  234.9996888665366 -0.001520969068412751 0  234.9998099702527 7.498478990202595 0  239.9996896610242 -0.00160150471223049 0  239.9998096357176 7.498398472123703 0  244.999690553089 -0.001681245905617861 0  244.9998095441558 7.498318744507055 0  249.9996914885504 -0.00176030380055551 0  249.9998096260189 7.498239697242204 0  254.9996924246705 -0.001838775815215385 0  254.9998098257858 7.498161233671454 0  259.9996933276797 -0.001916748457292063 0  259.9998100991287 7.498083267874295 0  264.9996941710011 -0.001994299612846034 0  264.9998104107894 7.4980057224555 0  269.9996949340007 -0.002071500439221156 0  269.9998107329988 7.497928526713648 0  274.9996956012026 -0.002148416948712072 0  274.999811044312 7.497851615112382 0  279.9996961619235 -0.002225111317364661 0  279.9998113287833 7.497774926021724 0  284.999696610362 -0.002301642884420076 0  284.9998115753998 7.497698400751512 0  289.9996969461776 -0.002378068694323994 0  289.9998117777044 7.497621982976149 0  294.9996971756507 -0.002454443219849702 0  294.9998119335449 7.497545618765703 0  299.9996973134358 -0.002530816473026333 0  299.9998120448774 7.49746925761132 0  304.9996973847021 -0.00260722878534195 0  304.999812117688 7.497392855057019 0  309.9996974267472 -0.002683698430781305 0  309.9998121625352 7.497316377722584 0  4.999949887606943 15.00173015673843 0  -5.016190755396943e-05 15.00180183458321 0  9.999949985972965 15.00165829661271 0  14.99995015974364 15.00158624312695 0  19.99995042926381 15.00151399488331 0  24.99995081290388 15.00144156074661 0  29.99995132893282 15.00136895854291 0  34.99995199621948 15.00129621350045 0  39.99995283443162 15.00122335709138 0  44.99995386404591 15.0011504264702 0  49.99995510629109 15.00107746453254 0  54.999956583051 15.00100452057746 0  59.99995831670408 15.00093165157092 0  64.9999603298523 15.00085892404627 0  69.99996264486754 15.00078641672729 0  74.99996528316827 15.00071422402038 0  79.99996826410788 15.00064246059608 0  84.999971603334 15.00057126737106 0  89.99997531044306 15.00050081931447 0  94.99997938574498 15.00043133563604 0  99.9999838159714 15.00036309305581 0  104.9999885688994 15.00029644296418 0  109.9999935872004 15.00023183324218 0  114.9999987826365 15.00016983506034 0  120.0000040333528 15.00011117350877 0  125.0000091901415 15.00005675713154 0  130.0000141030314 15.00000769253851 0  135.0000186881195 14.99996525006814 0  140.0000230649441 14.99993070019455 0  145.0000277961304 14.99990482548151 0  150.0000342029845 14.99988656951439 0  165.0000421054119 14.99977939160128 0  160.0000490433883 14.99987242130686 0  170.0000292442343 14.9996764538771 0  175.0000139256061 14.99957068414078 0  179.9999987099941 14.99946599641445 0  184.9999848918296 14.99936400039622 0  189.9999729576774 14.99926514177713 0  194.9999629638857 14.99916934856727 0  199.99995476501 14.99907634780395 0  204.9999481381107 14.99898581118736 0  209.9999428455834 14.99889741761746 0  214.9999386641822 14.99881087673042 0  219.9999353963559 14.9987259348529 0  224.999932872815 14.99864237356647 0  229.9999309510855 14.99856000560434 0  234.999929512498 14.99847867017169 0  239.9999284587968 14.99839822853886 0  244.9999277089175 14.9983185601896 0  249.9999271961456 14.99823955956158 0  254.999926865705 14.9981611333199 0  259.9999266727592 14.99808319807898 0  264.9999265807715 14.99800567848889 0  269.9999265601717 14.99792850561805 0  274.9999265872653 14.99785161558264 0  279.9999266433283 14.99777494839404 0  284.9999267138519 14.99769844701717 0  289.9999267878699 14.99762205664613 0  294.9999268573958 14.99754572418896 0  299.9999269169984 14.99746939785092 0  304.9999269637397 14.99739302633947 0  309.9999269978962 14.99731655611371 0  5.000057097609784 22.50173052276821 0  5.704662969541197e-05 22.50180203934172 0  10.00005718595601 22.50165873784339 0  15.0000573341533 22.50158671272004 0  20.0000575568272 22.50151447090495 0  25.00005786442244 22.50144203620384 0  30.00005826541864 22.50136943502501 0  35.00005876746886 22.50129669735157 0  40.00005937784648 22.50122385720933 0  45.00006010347288 22.50115095309276 0  50.00006095069109 22.50107802859335 0  55.00006192486189 22.50100513336159 0  60.00006302980864 22.50093232448824 0  65.00006426710029 22.50085966838223 0  70.00006563514047 22.50078724323484 0  75.00006712802447 22.50071514218405 0  80.00006873411901 22.50064347732276 0  85.00007043434213 22.50057238472122 0  90.0000722001584 22.50050203064958 0  95.00007399139474 22.50043261916476 0  100.0000757541471 22.50036440112196 0  105.0000774193463 22.50029768440135 0  110.0000789030418 22.50023284453448 0  115.0000801102354 22.50017033368254 0  120.0000809451924 22.50011068352988 0  125.0000813324951 22.5000544932304 0  130.0000812541462 22.50000238568328 0  135.0000808070972 22.49995490221157 0  140.0000802784136 22.49991228567414 0  145.0000802120616 22.49987407971771 0  150.0000813829626 22.49983848875419 0  165.000101495257 22.499719937331 0  160.0000941117181 22.4997982734652 0  170.0001031545939 22.49963194256748 0  175.0001005627441 22.49953862429512 0  180.0000953827826 22.49944324698675 0  185.0000889807913 22.49934787635818 0  190.0000822887361 22.49925363842732 0  195.0000758669705 22.49916105306213 0  200.0000700116098 22.49907028887064 0  205.0000648486156 22.49898132659028 0  210.0000604020892 22.49889405524627 0  215.0000566395463 22.49880832570919 0  220.0000535002723 22.4987239790903 0  225.0000509122866 22.49864086089075 0  230.0000488020265 22.4985588273467 0  235.0000470995422 22.49847774763789 0  240.0000457410107 22.49839750399617 0  245.0000446696982 22.49831799081837 0  250.0000438360568 22.49823911336696 0  255.0000431973743 22.49816078635645 0  260.0000427172005 22.49808293257017 0  265.000042364699 22.49800548157037 0  270.00004211398 22.49792836852516 0  275.0000419434551 22.49785153315491 0  280.0000418352152 22.49777491878998 0  285.0000417744385 22.49769847151773 0  290.0000417488305 22.4976221393668 0  295.0000417481216 22.4975458714048 0  300.000041763643 22.497
[...]
<PointData  Vectors="v"> 
<DataArray  type="Float64"  Name="v"  NumberOfComponents="3" format="ascii">1.5807274327403369e+00 -5.7322911949809257e+00 0.0000000000000000e+00  1.1464436086582310e+00 -5.5691422819684773e+00 0.0000000000000000e+00  8.4538167113471374e-01 -4.9178722169828113e+00 0.0000000000000000e+00  1.1773831082339619e+00 -5.2348959720918673e+00 0.0000000000000000e+00  5.6676187980210846e-01 -6.2436552696646963e+00 0.0000000000000000e+00  4.1130485209991319e-01 -5.3750195328746742e+00 0.0000000000000000e+00  -5.7476491423641479e-03 -7.3276146761837140e+00 0.0000000000000000e+00  -1.6743301598229454e-01 -6.4701543625837470e+00 0.0000000000000000e+00  -5.6298869636691207e-01 -7.9595249934210210e+00 0.0000000000000000e+00  -7.3837550097093507e-01 -7.1257511176393367e+00 0.0000000000000000e+00  -1.2347060488587502e+00 -9.0192402506495952e+00 0.0000000000000000e+00  -1.2933773686062253e+00 -8.0145202074325699e+00 0.0000000000000000e+00  -1.8123373051604013e+00 -9.7049416767686072e+00 0.0000000000000000e+00  -1.9617646844257761e+00 -8.8419176810450306e+00 0.0000000000000000e+00  -1.9676318199698408e+00 -9.8031983752268470e+00 0.0000000000000000e+00  -2.5352384314765390e+00 -9.5746830893178867e+00 0.0000000000000000e+00  -2.9461236209491983e+00 -1.1013882353313367e+01 0.0000000000000000e+00  -2.6854828942063751e+00 -9.5515047057872327e+00 0.0000000000000000e+00  1.4441672597208846e-01 -6.1363325965291446e+00 0.0000000000000000e+00  -3.6576259749252875e+00 -1.0777943123581919e+01 0.0000000000000000e+00  -9.4318381589402964e+00 -1.9999731740061598e+01 0.0000000000000000e+00  -5.5971765957954467e-01 -5.6430906760242605e+00 0.0000000000000000e+00  -8.3847143290212571e+00 -1.7479476251589006e+01 0.0000000000000000e+00  -1.0128372382994387e+01 -1.9057923400182126e+01 0.0000000000000000e+00  -8.2548531727898471e+00 -1.6250538676481117e+01 0.0000000000000000e+00  -9.0719422583679545e+00 -1.6455203019764646e+01 0.0000000000000000e+00  -8.7906847570698599e+00 -1.6028246045786865e+01 0.0000000000000000e+00  -8.9304317832761679e+00 -1.5236473069213339e+01 0.0000000000000000e+00  -9.8595700080302802e+00 -1.6616650505421859e+01 0.0000000000000000e+00  -9.4524969723617946e+00 -1.5027683852716168e+01 0.0000000000000000e+00  -1.1285897993970046e+01 -1.7679595465900597e+01 0.0000000000000000e+00  -1.0504458691782002e+01 -1.5556005849249456e+01 0.0000000000000000e+00  -1.2977196405635121e+01 -1.9000958751947547e+01 0.0000000000000000e+00  -1.1911614097065028e+01 -1.6482677133580339e+01 0.0000000000000000e+00  -1.4849915208283569e+01 -2.0593880629789375e+01 0.0000000000000000e+00  -1.3581462538458238e+01 -1.7805772590237503e+01 0.0000000000000000e+00  -1.6820435826859629e+01 -2.2080953108424914e+01 0.0000000000000000e+00  -1.5429106884496035e+01 -1.9147870667105085e+01 0.0000000000000000e+00  -1.8819296091227468e+01 -2.3479054230453645e+01 0.0000000000000000e+00  -1.7372385014319097e+01 -2.0506809178291096e+01 0.0000000000000000e+00  -2.0782273240681498e+01 -2.4636020914259912e+01 0.0000000000000000e+00  -1.9340827993517390e+01 -2.1719618730025218e+01 0.0000000000000000e+00  -2.2633772777214141e+01 -2.5467087558170565e+01 0.0000000000000000e+00  -2.1270262657329436e+01 -2.2720832304105404e+01 0.0000000000000000e+00  -2.4313218583899260e+01 -2.5579720480241363e+01 0.0000000000000000e+00  -2.3084211360160641e+01 -2.3093537428146544e+01 0.0000000000000000e+00  -2.5779770333783837e+01 -2.5514430884912528e+01 0.0000000000000000e+00  -2.4725079178261321e+01 -2.3352428999210094e+01 0.0000000000000000e+00  -2.6984711970218374e+01 -2.4062181795997539e+01 0.0000000000000000e+00  -2.6145540822930567e+01 -2.2291218686089856e+01 0.0000000000000000e+00  -2.7930338168154826e+01 -2.2611969330629890e+01 0.0000000000000000e+00  -2.7307147802834066e+01 -2.1239480029175354e+01 0.0000000000000000e+00  -2.8598964463939627e+01 -1.9170972849521721e+01 0.0000000000000000e+00  -2.8197060862995389e+01 -1.8206669006558823e+01 0.0000000000000000e+00  -2.9041255766570686e+01 -1.5781383996412169e+01 0.0000000000000000e+00  -2.8819324170525167e+01 -1.5173989399757106e+01 0.0000000000000000e+00  -2.9266255213956999e+01 -1.0260056978006837e+01 0.0000000000000000e+00  -2.9194373528906393e+01 -9.9608646976895905e+00 0.0000000000000000e+00  -2.9368186174846620e+01 -3.7019073303507843e+00 0.0000000000000000e+00  -2.9372131202680777e+01 -3.6178098247784032e+00 0.0000000000000000e+00  -2.9389262613794170e+01 -1.7693453011438291e-11 0.0000000000000000e+00  -2.9389474444604996e+01 -2.1072533661995713e-04 0.0000000000000000e+00  -2.9389262614618936e+01 1.5230549659286046e-19 0.0000000000000000e+00  -2.1018839724800259e+01 1.1494042614087714e+01 0.0000000000000000e+00  -2.9366976417639734e+01 -1.0238016137385693e+00 0.0000000000000000e+00  -2.9389472733928077e+01 2.1399638001560968e-04 0.0000000000000000e+00  -2.0624800985987424e+01 2.0691464965695424e+01 0.0000000000000000e+00  -2.1047674981580663e+01 2.0168119447085946e+01 0.0000000000000000e+00  -1.7602303573993122e+01 2.7677194548631025e+01 0.0000000000000000e+00  -2.0713228204379664e+01 2.3185091734193623e+01 0.0000000000000000e+00  -1.6451552403785705e+01 2.9105092368064327e+01 0.0000000000000000e+00  -1.7748192672171658e+01 2.7430203990212142e+01 0.0000000000000000e+00  -1.4657598755393733e+01 3.0546506652201117e+01 0.0000000000000000e+00  -1.6650988940729594e+01 2.7900554256222179e+01 0.0000000000000000e+00  -1.3284637848288071e+01 2.9740444516595396e+01 0.0000000000000000e+00  -1.4908175104980177e+01 2.7726745629981373e+01 0.0000000000000000e+00  -1.1898337239545192e+01 2.8687950515786756e+01 0.0000000000000000e+00  -1.3585793621611453e+01 2.6650498487336638e+01 0.0000000000000000e+00  -1.0682224714113575e+01 2.6795577026765571e+01 0.0000000000000000e+00  -1.2247157073759761e+01 2.5014034541777608e+01 0.0000000000000000e+00  -9.3125495407141905e+00 2.4953002354737272e+01 0.0000000000000000e+00  -1.1077294087326687e+01 2.2938798102692360e+01 0.0000000000000000e+00  -8.2834937950529746e+00 2.2741450799427700e+01 0.0000000000000000e+00  -9.7528501586844278e+00 2.1237323560135099e+01 0.0000000000000000e+00  -7.4093213259852320e+00 2.0658343915870926e+01 0.0000000000000000e+00  -8.7674167234473153e+00 1.9385717105023019e+01 0.0000000000000000e+00  -6.4796337741206287e+00 1.8860935337115869e+01 0.0000000000000000e+00  -7.9357073970472802e+00 1.7504106728787338e+01 0.0000000000000000e+00  -5.6135342691574124e+00 1.7217494115837493e+01 0.0000000000000000e+00  -7.0477344468824716e+00 1.5955015192623323e+01 0.0000000000000000e+00  -4.8132579496829679e+00 1.5772287674386950e+01 0.0000000000000000e+00  -6.2221655977479866e+00 1.4608030066227188e+01 0.0000000000000000e+00  -4.0550270946521687e+00 1.4449667887896322e+01 0.0000000000000000e+00  -5.4615115741543834e+00 1.3347636658001548e+01 0.0000000000000000e+00  -3.3785711901705482e+00 1.3185979069082464e+01 0.0000000000000000e+00  -4.7422129205166161e+00 1.2205901003239809e+01 0.0000000000000000e+00  -2.7856080206767166e+00 1.2013771100485700e+01 0.0000000000000000e+00  -4.1038318225169723e+00 1.1158419847888496e+01 0.0000000000000000e+00  -2.2434052251006467e+00 1.0882579662334299e+01 0.0000000000000000e+00  -3.5481962060668097e+00 1.0102808720874815e+01 0.0000000000000000e+00  -1.7696294834238531e+00 9.7774041622534860e+00 0.0000000000000000e+00  -3.0428278680125618e+00 9.0996699104449004e+00 0.0000000000000000e+00  -1.3668155967606206e+00 8.7185647453976092e+00 0.0000000000000000e+00  -2.6051567075237596e+00 8.1469864363363218e+00 0.0000000000000000e+00  -1.0084569837698780e+00 7.6624766047461890e+00 0.0000000000000000e+00  -2.2380697208051910e+00 7.1569801346493307e+00 0.0000000000000000e+00  -7.0556709956572183e-01 6.6388159669815199e+00 0.0000000000000000e+00  -1.9147505934382336e+00 6.2164083843168365e+00 0.0000000000000000e+00  -4.6205264355575049e-01 5.6302586481821422e+00 0.0000000000000000e+00  -1.6468935480783167e+00 5.2961316165046748e+00 0.0000000000000000e+00  -2.5981844386393216e-01 4.6603742704043229e+00 0.0000000000000000e+00  -1.4372246433504474e+00 4.3886852556539591e+00 0.0000000000000000e+00  -1.0746211504566767e-01 3.6903251959431977e+00 0.0000000000000000e+00  -1.2698815826890193e+00 3.4917093285211829e+00 0.0000000000000000e+00  2.0958395803844401e-03 2.8523847579791823e+00 0.0000000000000000e+00  -1.1497337816868172e+00 2.7202192977533186e+00 0.0000000000000000e+00  7.1129930500137120e-02 1.9674775447769517e+00 0.0000000000000000e+00  -1.0759628577152378e+00 1.8916972628773254e+00 0.0000000000000000e+00  1.3777564695725417e-01 1.3342683640824362e+00 0.0000000000000000e+00  -1.0359677267737581e+00 1.2688292071836640e+00 0.0000000000000000e+00  2.0940880091158307e-01 7.1244412381487188e-01 0.0000000000000000e+00  -1.0097187913481902e+00 6.2712551648502546e-01 0.0000000000000000e+00  3.7242171919969375e-01 -1.7139389580723854e-01 0.0000000000000000e+00  -9.5425223568029538e-01 -3.6965633184525326e-01 0.0000000000000000e+00  1.2629189447929029e-01 -4.4189900272886229e+00 0.0000000000000000e+00  4.8584571054300901e-01 -4.6975383407076281e+00 0.0000000000000000e+00  -2.0696581148164558e-01 -4.7231307526870889e+00 0.0000000000000000e+00  -6.4211296058224809e-01 -5.6018655043905143e+00 0.0000000000000000e+00  -1.2211079674401182e+00 -6.2696891086062010e+00 0.0000000000000000e+00  -1.7912637684805579e+00 -7.1828088654172380e+00 0.0000000000000000e+00  -2.3444032342139063e+00 -7.8412051617717440e+00 0.0000000000000000e+00  -3.0093866216417782e+00 -8.7174640630969975e+00 0.0000000000000000e+00  -3.5775276255039028e+00 -9.3296904697435785e+00 0.0000000000000000e+00  -3.7208408835698412e+00 -9.3250330533836774e+00 0.0000000000000000e+00  -4.6835565464907862e+00 -1.0296595531886613e+01 0.0000000000000000e+00  -1.5751283305826551e+00 -4.7095020336157702e+00 0.0000000000000000e+00  -1.1137623022119977e+01 -1.8043255595371733e+01 0.0000000000000000e+00  -1.0074062997720127e+01 -1.5456102097013451e+01 0.0000000000000000e+00  -9.9196947501573405e+00 -1.4253274599293711e+01 0.0000000000000000e+00  -1.0425042021818507e+01 -1.3991127561440518e+01 0.0000000000000000e+00  -1.1454559258221822e+01 -1.4387623340671363e+01 0.0000000000000000e+00  -1.2834447822016559e+01 -1.5318499680986173e+01 0.0000000000000000e+00  -1.4472914558141715e+01 -1.6397973665871326e+01 0.0000000000000000e+00  -1.6283563589279360e+01 -1.7616689742799764e+01 0.0000000000000000e+00  -1.8184294373381508e+01 -1.8793214619162676e+01 0.0000000000000000e+00  -2.0105757594709086e+01 -1.9858706059432418e+01 0.0000000000000000e+00  -2.1980903633472323e+01 -2.0406829411747353e+01 0.0000000000000000e+00  -2.3734822886689166e+01 -2.0930150844674085e+01 0.0000000000000000e+00  -2.5308511015759137e+01 -2.0201690522435801e+01 0.0000000000000000e+00  -2.6655786125446753e+01 -1.9547914385514783e+01 0.0000000000000000e+00  -2.7733537071031794e+01 -1.6915985485080139e+01 0.0000000000000000e+00  -2.8539024410450622e+01 -1.4308529505851620e+01 0.0000000000000000e+00  -2.9056999505889038e+01 -9.4382587136787937e+00 0.0000000000000000e+00  -2.9341483226396527e+01 -3.4458229698370539e+00 0.0000000000000000e+00  -2.9389987347266374e+01 -4.0238086942082692e-04 0.0000000000000000e+00  -2.9328823657763159e+01 -1.1834928701182685e+00 0.0000000000000000e+00  -2.9389984133435956e+01 4.3344656568769177e-04 0.0000000000000000e+00  -2.9172589954958664e+01 7.7091204275438523e+00 0.0000000000000000e+00  -2.0918077845517729e+01 2.2735692878337908e+01 0.0000000000000000e+00  -2.0664526105228955e+01 2.3024831865826048e+01 0.0000000000000000e+00  -1.7767786317915252e+01 2.6295869441234146e+01 0.0000000000000000e+00  -1.6736453982439322e+01 2.5145138799955888e+01 0.0000000000000000e+00  -1.5050024889054599e+01 2.4702478112771903e+01 0.0000000000000000e+00  -1.3783305305312524e+01 2.3036033988372395e+01 0.0000000000000000e+00  -1.2494585861757425e+01 2.1212437960468726e+01 0.0000000000000000e+00  -1.1371846854390615e+01 1.9278302683834699e+01 0.0000000000000000e+00  -1.0092351633328466e+01 1.7933624942689232e+01 0.0000000000000000e+00  -9.1498407774695583e+00 1.6281048160363220e+01 0.0000000000000000e+00  -8.3590454834246994e+00 1.4647502399041363e+01 0.0000000000000000e+00  -7.5110219137860597e+00 1.3392940779179135e+01 0.0000000000000000e+00  -6.7238623369149275e+00 1.2228918454699341e+01 0.0000000000000000e+00  -6.0001669524307149e+00 1.1148857981497116e+01 0.0000000000000000e+00  -5.3168113682561478e+00 1.0221900208818040e+01 0.0000000000000000e+00  -4.7131629231358962e+00 9.2896268096156351e+00 0.0000000000000000e+00  -4.1911049868831869e+00 8.3614901053165518e+00 0.0000000000000000e+00  -3.7184563339762478e+00 7.5098024773027943e+00 0.0000000000000000e+00  -3.3126267558261620e+00 6.6249686120949711e+00 0.0000000000000000e+00  -2.9764606798013502e+00 5.7499650273961986e+00 0.0000000000000000e+00  -2.6835351945412120e+00 4.9120499766399268e+00 0.0000000000000000e+00  -2.4451903878535766e+00 4.0921150152238743e+00 0.0000000000000000e+00  -2.2647276017742435e+00 3.2572449810211714e+00 0.0000000000000000e+00  -2.1254619751756492e+00 2.5581442258605636e+00 0.0000000000000000e+00  -2.0338759206322172e+00 1.7953068918685680e+00 0.0000000000000000e+00  -1.9861343645278626e+00 1.2288701552848094e+00 0.0000000000000000e+00  -1.9747339004600897e+00 5.9791259778568240e-01 0.0000000000000000e+00  -1.9724888668615812e+00 -4.3113295284270686e-01 0.0000000000000000e+00  -1.1233223829722550e+00 -3.8777165910562781e+00 0.0000000000000000e+00  -8.0175589328121100e-01 -4.2181802280366956e+00 0.0000000000000000e+00  -1.4859423054824585e+00 -4.2203343017098272e+00 0.0000000000000000e+00  -1.8238623441938022e+00 -4.9469014888536673e+00 0.0000000000000000e+00  -2.2625555470058565e+00 -5.3995437694211450e+00 0.0000000000000000e+00  -2.8443423419675042e+00 -6.3270085543700940e+00 0.0000000000000000e+00  -3.4158181762849233e+00 -7.0127284720104814e+00 0.0000000000000000e+00  -3.9676866182011015e+00 -7.7228441344909129e+00 0.0000000000000000e+00  -4.6288692970159619e+00 -8.4827631642421633e+00 0.0000000000000000e+00  -5.1899009228918329e+00 -9.1184042607576075e+00 0.0000000000000000e+00  -5.3215924974279014e+00 -8.8636440748944523e+00 0.0000000000000000e+00  -6.2691719982394929e+00 -9.3833357125611965e+00 0.0000000000000000e+00  -3.1494474685022142e+00 -3.7041287873065678e+00 0.0000000000000000e+00  -1.2710980460704494e+01 -1.7053338484240172e+01 0.0000000000000000e+00  -1.1645401826444497e+01 -1.4495428852212966e+01 0.0000000000000000e+00  -1.1478478354522656e+01 -1.3250138114374222e+01 0.0000000000000000e+00  -1.1961294091146581e+01 -1.2866972248809347e+01 0.0000000000000000e+00  -1.2959159514706590e+01 -1.3279139875934280e+01 0.0000000000000000e+00  -1.4298721995648247e+01 -1.3977295853672032e+01 0.0000000000000000e+00  -1.5887137007046803e+01 -1.4943906597201135e+01 0.0000000000000000e+00  -1.7638842017306274e+01 -1.5992555693488379e+01 0.0000000000000000e+00  -1.9471277275029522e+01 -1.7035301867457409e+01 0.0000000000000000e+00  -2.1312215259343734e+01 -1.7659116177731676e+01 0.0000000000000000e+00  -2.3096582280548180e+01 -1.8376617353922526e+01 0.0000000000000000e+00  -2.4744863475687666e+01 -1.7923556233626993e+01 0.0000000000000000e+00  -2.6201720351753877e+01 -1.7626650048026242e+01 0.0000000000000000e+00  -2.7412330835710595e+01 -1.5397661626114919e+01 0.0000000000000000e+00  -2.8346504124139670e+01 -1.3232061898220817e+01 0.0000000000000000e+00  -2.8977781008923127e+01 -8.7618118570297767e+00 0.0000000000000000e+00  -2.9334549822825018e+01 -3.2038962830639992e+00 0.0000000000000000e+00  -2.9390789102617461e+01 -5.7641832530399163e-04 0.0000000000000000e+00  -2.9304827577902866e+01 -1.4963654414843037e+00 0.0000000000000000e+00  -2.9390786158667222e+01 6.2799270628991519e-04 0.0000000000000000e+00  -2.8937343027328080e+01 7.4172351612501703e+00 0.0000000000000000e+00  -2.8768878385395784e+01 1.0435183941516136e+01 0.0000000000000000e+00  -2.0626471798659765e+01 2.2745726081740081e+01 0.0000000000000000e+00  -2.0503417252629351e+01 2.2031665282677565e+01 0.0000000000000000e+00  -1.7716263005378636e+01 2.3677939167066327e+01 0.0000000000000000e+00  -1.6783371330635159e+01 2.2237979330521405e+01 0.0000000000000000e+00  -1.5182720881036792e+01 2.1198704689842565e+01 0.0000000000000000e+00  -1.3995145828405784e+01 1.9335368302248373e+01 0.0000000000000000e+00  -1.2776928000867427e+01 1.7646523237677393e+01 0.0000000000000000e+00  -1.1720277680034183e+01 1.6063142568592564e+01 0.0000000000000000e+00  -1.0502406110436089e+01 1.4914161164640005e+01 0.0000000000000000e+00  -9.6183963781979624e+00 1.3505860508469796e+01 0.0000000000000000e+00  -8.8838905353265520e+00 1.2164039000550154e+01 0.0000000000000000e+00  -8.0901224225631747e+00 1.1089807554521704e+01 0.0000000000000000e+00  -7.3549669568010732e+00 1.0103287748639843e+01 0.0000000000000000e+00  -6.6813817424673676e+00 9.2353460771412497e+00 0.0000000000000000e+00  -6.0461402588084026e+00 8.4213612633147346e+00 0.0000000000000000e+00  -5.4886964792757622e+00 7.6141514863396003e+00 0.0000000000000000e+00  -5.0111231399396665e+00 6.8354775379454482e+00 0.0000000000000000e+00  -4.5814349035959765e+00 6.0496821618765795e+00 0.0000000000000000e+00  -4.2169494204826146e+00 5.2783834925389339e+00 0.0000000000000000e+00  -3.9210611411666823e+00 4.5040111341592430e+00 0.0000000000000000e+00  -3.6668440151928610e+00 3.7658657140411869e+00 0.0000000000000000e+00  -3.4666740250359340e+00 3.0157707724483584e+00 0.0000000000000000e+00  -3.3223169346287573e+00 2.3798503480637216e+00 0.0000000000000000e+00  -3.2197793197278477e+00 1.6839245332225909e+00 0.0000000000000000e+00  -3.1606471478391525e+00 1.1891612388415598e+00 0.0000000000000000e+00  -3.1503382731273208e+00 6.0077406791811305e-01 0.0000000000000000e+00  -3.1623132889161467e+00 -4.0083696995604556e-01 0.0000000000000000e+00  -2.4364388187128374e+00 -3.3925426528624096e+00 0.0000000000000000e+00  -2.1510092854616354e+00 -3.7941529024357603e+00 0.0000000000000000e+00  -2.7624504700693753e+00 -3.6715489194132518e+00 0.0000000000000000e+00  -3.1329926745312706e+00 -4.4339692426249169e+00 0.0000000000000000e+00  -3.4797096029458334e+00 -4.7354587265027979e+00 0.0000000000000000e+00  -3.9273473602194549e+00 -5.4490328575400122e+00 0.0000000000000000e+00  -4.5168226285922559e+00 -6.1512037954961700e+00 0.0000000000000000e+00  -5.0941556576839755e+00 -6.8928994271024733e+00 0.0000000000000000e+00  -5.6489221277667054e+00 -7.4915947835011982e+00 0.0000000000000000e+00  -6.3086709878108946e+00 -8.2807364458453083e+00 0.0000000000000000e+00  -6.8629002788380138e+00 -8.6745759849597519e+00 0.0000000000000000e+00  -6.9827619712439954e+00 -7.9722318970175170e+00 0.0000000000000000e+00  -7.9175915274181339e+00 -8.3877844532964421e+00 0.0000000000000000e+00  -4.7975909661609952e+00 -2.7020244266296016e+00 0.0000000000000000e+00  -1.4377196867699439e+01 -1.6081853904293151e+01 0.0000000000000000e+00  -1.3326721360946848e+01 -1.3500005292101630e+01 0.0000000000000000e+00  -1.3159728123862482e+01 -1.2151587785312914e+01 0.0000000000000000e+00  -1.3629422469683123e+01 -1.1801256002011204e+01 0.0000000000000000e+00  -1.4600029590709084e+01 -1.1994447648568674e+01 0.0000000000000000e+00  -1.5901016621856794e+01 -1.2597317640449846e+01 0.0000000000000000e+00  -1.7438670156591876e+01 -1.3409323381001686e+01 0.0000000000000000e+00  -1.9126568113972112e+01 -1.4340682540081113e+01 0.0000000000000000e+00  -2.0881214986212875e+01 -1.4961695588785989e+01 0.0000000000000000e+00  -2.2630026709199367e+01 -1.5778576176822714e+01 0.0000000000000000e+00  -2.4301880293970935e+01 -1.5537885057265580e+01 0.0000000000000000e+00  -2.5821974380316387e+01 -1.5551712210991040e+01 0.0000000000000000e+00  -2.7122805803460903e+01 -1.3693541480382169e+01 0.0000000000000000e+00  -2.8164567180021695e+01 -1.1984400278339800e+01 0.0000000000000000e+00  -2.8887974011464845e+01 -7.9384043494248235e+00 0.0000000000000000e+00  -2.9317098802319382e+01 -2.8948503157233354e+00 0.0000000000000000e+00  -2.9391849839