<?xml version="1.0"?>
<VTKFile type="UnstructuredGrid"  version="0.1"  >
<UnstructuredGrid>
<Piece  NumberOfPoints="1933" NumberOfCells="3640">
<Points>
<DataArray  type="Float64"  NumberOfComponents="3"  format="ascii">-0.2935448138747248 -0.003182539421884847 0  4.706455240630372 -0.00309531018823945 0  4.706324361712477 7.496904807784285 0  -0.2936757046332255 7.496817561531532 0  9.70645533861849 -0.003008162393385633 0  9.706324466352065 7.496991953368688 0  14.70645552353328 -0.002921067624246705 0  14.70632462137174 7.497079041365904 0  19.70645582664478 -0.002833973569656415 0  19.70632483451517 7.497166128596993 0  24.70645626708579 -0.002746817191554692 0  24.70632510909818 7.497253279269429 0  29.7064568539502 -0.002659530256179313 0  29.70632544354954 7.497340561678191 0  34.70645758834056 -0.002572041294822646 0  34.70632583105982 7.497428047014404 0  39.70645846481672 -0.002484275780753115 0  39.70632625926133 7.497515809450056 0  44.70645947218187 -0.002396155354334599 0  44.70632670979609 7.497603926988925 0  49.70646059366455 -0.00230759648015692 0  49.70632715765161 7.497692482815014 0  54.70646180655622 -0.002218508690393062 0  54.70632757016651 7.497781567025258 0  59.70646308132214 -0.002128792439319642 0  59.70632790561167 7.497871278732885 0  64.70646438015274 -0.002038336509176705 0  64.70632811122955 7.49796172859832 0  69.70646565484735 -0.001947014837337651 0  69.70632812058084 7.498053041904141 0  74.70646684384121 -0.001854682559961672 0  74.70632784998453 7.49814536235042 0  79.70646786804879 -0.001761170971801098 0  79.70632719375062 7.498238856818102 0  84.70646862500294 -0.00166628096828374 0  84.70632601779322 7.49833372143453 0  89.70646898043438 -0.001569774342352789 0  89.70632415105212 7.49843018937977 0  94.7064687558873 -0.001471362026045196 0  94.70632137396646 7.498528540982527 0  99.70646770999404 -0.00137068796050576 0  99.70631740306317 7.498629116727854 0  104.7064655093346 -0.001267306718081702 0  104.7063118706194 7.498732333719721 0  109.7064616817133 -0.001160652299698633 0  109.7063042986332 7.498838705619518 0  114.7064555390951 -0.001049994864553168 0  114.706294067587 7.498948864451457 0  119.7064460471127 -0.0009343821821171939 0  119.7062803841501 7.499063578427736 0  124.7064315990196 -0.000812565392713395 0  124.706262261214 7.499183749869089 0  129.7064096166785 -0.0006829202608760248 0  129.7062385451453 7.499310354657325 0  134.7063758358852 -0.0005434133519655223 0  134.7062080728703 7.499444236520487 0  139.7063230117627 -0.0003917839232077191 0  139.7061701440703 7.499585575828836 0  144.7062385462467 -0.000226518060839181 0  144.7061257125579 7.499732710902657 0  149.7061000334875 -5.071057583560944e-05 0  149.7060801870288 7.499880011069875 0  159.706107373853 7.268192444366547e-19 0  164.7061093283588 -5.46615158478616e-05 0  164.7061096644643 7.499929075075048 0  159.7060996594669 7.499962685258964 0  169.7061321604791 -7.159766708402136e-05 0  169.7061193441578 7.499920639282094 0  174.7061619859256 -6.251807632134119e-05 0  174.7061309612862 7.49993364378232 0  179.7061926879786 -3.484773426099002e-05 0  179.7061441606011 7.499963254387502 0  184.706221662255 6.332679218582954e-06 0  184.7061581021178 7.500005425981384 0  189.7062479303908 5.746291547683427e-05 0  189.7061720496543 7.500057070761167 0  194.7062712610651 0.0001160156356696044 0  194.7061854882466 7.500115892347228 0  199.7062917527599 0.0001801736353848889 0  199.7061981028493 7.500180190473133 0  204.70630963561 0.0002486115853281395 0  204.7062097268067 7.500248700239337 0  209.7063251786689 0.0003203481736263117 0  209.706220293783 7.500320472039626 0  214.70633864806 0.000394645667601533 0  214.7062298011089 7.500394785010446 0  219.706350289568 0.000470941188772986 0  219.7062382842034 7.500471085379127 0  224.7063603228102 0.0005487991506391343 0  224.7062457995995 7.5005489425517 0  229.706368940743 0.0006278778747317569 0  229.7062524140807 7.50062801763531 0  234.7063763114834 0.000707905791958479 0  234.7062581979666 7.500708040648413 0  239.7063825810137 0.0007886642082982728 0  239.7062632211355 7.500788793828939 0  244.7063878761114 0.0008699746380718618 0  244.7062675508298 7.500870099265565 0  249.7063923072199 0.00095168937576757 0  249.7062712506067 7.500951809637648 0  254.7063959711676 0.001033684417231056 0  254.7062743800303 7.50103380123476 0  259.7063989537187 0.001115854137274356 0  259.7062769948238 7.501115968693458 0  264.706401332001 0.001198107338685079 0  264.7062791473154 7.501198221080653 0  269.7064031768397 0.001280364444601057 0  269.7062808870556 7.501280479097694 0  274.7064045550637 0.001362555739496579 0  274.7062822615052 7.501362673300044 0  279.7064055317956 0.001444620696482604 0  279.70628331672 7.501444743339228 0  284.7064061727128 0.001526508582615941 0  284.7062840979374 7.501526638350499 0  289.7064065461048 0.001608180733947291 0  289.7062846499649 7.501608318737297 0  294.7064067243537 0.001689615159975653 0  294.706285017302 7.501689759741088 0  299.7064067838629 0.001770814462562375 0  299.7062852439933 7.50177095731211 0  304.7064068014216 0.001851818249091874 0  304.7062853736127 7.501851936885686 0  309.7064068426369 0.001932720242159454 0  309.7062854506963 7.501932765886264 0  4.706193324734194 14.996905045555 0  -0.2938067377792336 14.99681780412781 0  9.706193399676234 14.99699215528541 0  14.70619349065372 14.99707920298374 0  19.70619359515172 14.99716625386771 0  24.70619370710864 14.99725337350997 0  29.70619381725498 14.9973406290846 0  34.70619391266616 14.99742808993049 0  39.70619397605435 14.99751582823767 0  44.70619398494151 14.99760392002851 0  49.70619391071222 14.99769244644048 0  54.70619371749621 14.9977814952983 0  59.70619336081383 14.99787116298542 0  64.70619278591759 14.99796155665311 0  69.70619192575867 14.99805279683174 0  74.7061906985204 14.99814502052988 0  79.70618900467726 14.99823838491619 0  84.7061867235991 14.99833307166411 0  89.70618370983671 14.99842929197456 0  94.70617978948235 14.99852729211606 0  99.70617475746245 14.99862735892753 0  104.7061683775252 14.99872982389436 0  109.7061603882315 14.99883506273191 0  114.7061505209433 14.99894348415171 0  119.7061385400662 14.99905549535895 0  124.7061243220718 14.99917142073634 0  129.7061079975213 14.99929133107557 0  134.7060901856702 14.99941471034269 0  139.7060723415062 14.99953984485132 0  144.7060571742437 14.99966277415218 0  149.7060488882175 14.99977559310537 0  164.7060795619819 14.99988388290149 0  159.7060724542328 14.99987906356303 0  169.7060828021736 14.99989709025778 0  174.7060853154842 14.99992171167603 0  179.7060884502797 14.99995747123708 0  184.7060925342043 15.00000287467007 0  189.7060974460743 15.0000562011937 0  194.7061029180105 15.00011588033094 0  199.7061086729151 15.00018059752734 0  204.7061144770718 15.00024929360982 0  209.7061201530003 15.00032112923037 0  214.7061255756915 15.00039544290665 0  219.7061306632798 15.00047171297617 0  224.7061353670543 15.00054952624484 0  229.7061396626887 15.00062855323767 0  234.7061435432248 15.00070852904263 0  239.7061470137274 15.00078923860046 0  244.7061500873567 15.0008705054278 0  249.7061527825582 15.00095218296573 0  254.7061551210954 15.00103414793833 0  259.7061571267092 15.00111629527217 0  264.7061588242155 15.00119853425751 0  269.7061602389177 15.00128078573989 0  274.7061613962221 15.00136298021523 0  279.7061623213791 15.00144505677181 0  284.7061630393472 15.00152696287464 0  289.7061635747707 15.00160865501254 0  294.7061639522695 15.00169010019453 0  299.7061641973627 15.00177127814085 0  304.7061643387691 15.00185218365622 0  309.7061644133976 15.00193282793253 0  4.70606230586115 22.49690544260553 0  -0.2939377504573342 22.49681829227556 0  9.706062354066272 22.49699245878317 0  14.70606238912246 22.49707941860359 0  19.7060624032605 22.49716639051075 0  24.70606238633916 22.49725343936703 0  29.70606232593577 22.4973406295703 0  34.70606220702707 22.4974280267926 0  39.70606201142784 22.49751569918405 0  44.70606171711324 22.49760371845465 0  49.70606129748744 22.4976921610113 0  54.70606072061823 22.49778110921939 0  59.70605994844887 22.49787065281452 0  64.70605893600799 22.49796089047049 0  69.70605763066759 22.49805193151045 0  74.70605597155411 22.49814389771942 0  79.70605388930562 22.49823692515456 0  84.70605130650459 22.49833116573738 0  89.70604813933856 22.49842678820496 0  94.70604430137368 22.49852397763313 0  99.70603971081732 22.4986229321119 0  104.7060343033432 22.49872385408955 0  109.7060280534495 22.49882693215047 0  114.7060210083138 22.49893230623028 0  119.7060133387902 22.49904000516139 0  124.7060054115659 22.4991498399426 0  129.7059978823349 22.49926123034187 0  134.7059917979622 22.49937294082682 0  139.7059886691625 22.49948271740405 0  144.7059904262308 22.499586883678 0  149.7059991003527 22.49968016086908 0  164.7060231558529 22.49983147730451 0  159.7060195147439 22.49979955333022 0  169.7060233801627 22.49986461178773 0  174.7060219018726 22.49990253386893 0  179.7060200370654 22.4999466993413 0  184.7060185413742 22.49999724306731 0  189.7060177381457 22.50005363818237 0  194.7060176864081 22.50011510662176 0  199.7060183087548 22.50018083563466 0  204.7060194717985 22.50025007629154 0  209.7060210310584 22.50032217869198 0  214.7060228531532 22.50039659633585 0  219.7060248248383 22.50047287716472 0  224.706026855008 22.50055065008091 0  229.7060288732902 22.50062961106133 0  234.7060308272621 22.50070951057693 0  239.7060326793347 22.50079014286361 0  244.7060344038154 22.50087133706189 0  249.7060359843434 22.50095295003419 0  254.7060374117562 22.50103486061176 0  259.7060386823442 22.50111696503384 0  264.7060397964594 22.50119917337597 0  269.7060407574034 22.50128140680452 0  274.7060415705639 22.50136359552877 0  279.7060422427721 22.50144567734048 0  284.7060427819094 22.50152759662516 0  289.7060431968426 22.50160930367869 0  294.7060434978754 22.50169075403843 0  299.7060436979822 22.50177190
[...]
<PointData  Vectors="v"> 
<DataArray  type="Float64"  Name="v"  NumberOfComponents="3" format="ascii">-3.6602901049468621e+00 1.6119305574469509e+00 0.0000000000000000e+00  -3.5147145481703030e+00 1.8433894383450449e+00 0.0000000000000000e+00  -2.8976582651742659e+00 1.6250325960304892e+00 0.0000000000000000e+00  -3.0047207298221772e+00 1.4520784730785237e+00 0.0000000000000000e+00  -3.2701205877145263e+00 2.3579433904118923e+00 0.0000000000000000e+00  -2.7520187664559916e+00 1.9914722287441742e+00 0.0000000000000000e+00  -2.9645450838656560e+00 3.0895880661345898e+00 0.0000000000000000e+00  -2.5077271787620123e+00 2.6317244978023688e+00 0.0000000000000000e+00  -2.6062403047642348e+00 3.8012998510163909e+00 0.0000000000000000e+00  -2.2026777321913942e+00 3.2648788609544237e+00 0.0000000000000000e+00  -2.2000680122911955e+00 4.6425764427669964e+00 0.0000000000000000e+00  -1.8452294067833492e+00 4.0348588434539865e+00 0.0000000000000000e+00  -1.8042522027046504e+00 5.3987802322797256e+00 0.0000000000000000e+00  -1.4407331669245049e+00 4.8069229208597424e+00 0.0000000000000000e+00  -1.6322133676759425e+00 5.8203549534828847e+00 0.0000000000000000e+00  -1.0471211232167379e+00 5.5650711012900649e+00 0.0000000000000000e+00  -1.1325928337259876e+00 6.6838757910638282e+00 0.0000000000000000e+00  -8.7797155109987068e-01 5.9379227844598592e+00 0.0000000000000000e+00  -3.0270372933138279e+00 3.9555409027144171e+00 0.0000000000000000e+00  -3.8240680606133881e-01 6.8013201319026377e+00 0.0000000000000000e+00  1.3452261011737729e+00 1.0502207335004483e+01 0.0000000000000000e+00  -2.2818068927138349e+00 3.9488453855666603e+00 0.0000000000000000e+00  -2.9116006587430202e-02 8.1986194835956443e+00 0.0000000000000000e+00  2.0856290471432328e+00 1.0265729089087523e+01 0.0000000000000000e+00  -3.1635632802639080e-01 7.5298605720349485e+00 0.0000000000000000e+00  7.0476265037589947e-01 7.9685992434151860e+00 0.0000000000000000e+00  1.9564568538113482e-02 7.8372275884592257e+00 0.0000000000000000e+00  4.0849696634417010e-01 7.3431921404994593e+00 0.0000000000000000e+00  8.0890277690246082e-01 8.8223305314897686e+00 0.0000000000000000e+00  7.3333522724093725e-01 7.6505896455136595e+00 0.0000000000000000e+00  1.8665605141070460e+00 1.0150763004308708e+01 0.0000000000000000e+00  1.5083310141445747e+00 8.5779440197868659e+00 0.0000000000000000e+00  3.1365587947894369e+00 1.1679901483456906e+01 0.0000000000000000e+00  2.5494879494781655e+00 9.7915768398473197e+00 0.0000000000000000e+00  4.5742935247531928e+00 1.3370324688927154e+01 0.0000000000000000e+00  3.8006246880894161e+00 1.1232837678031814e+01 0.0000000000000000e+00  6.1349416909074019e+00 1.5037357978449192e+01 0.0000000000000000e+00  5.2155001482646357e+00 1.2717471709999908e+01 0.0000000000000000e+00  7.7828260662627216e+00 1.6674708061965774e+01 0.0000000000000000e+00  6.7509246502381473e+00 1.4227960996144260e+01 0.0000000000000000e+00  9.4776095296070935e+00 1.8198951676964221e+01 0.0000000000000000e+00  8.3697838467741725e+00 1.5684338458133276e+01 0.0000000000000000e+00  1.1152411906752340e+01 1.9508343978269910e+01 0.0000000000000000e+00  1.0031732936302747e+01 1.7027519278930512e+01 0.0000000000000000e+00  1.2744986147057931e+01 2.0420091672750853e+01 0.0000000000000000e+00  1.1668644481172429e+01 1.8065397666090313e+01 0.0000000000000000e+00  1.4202858083752661e+01 2.1033671261394769e+01 0.0000000000000000e+00  1.3221631085748106e+01 1.8887390597167851e+01 0.0000000000000000e+00  1.5452918023552833e+01 2.0833363244547101e+01 0.0000000000000000e+00  1.4630223954442085e+01 1.8997831829779965e+01 0.0000000000000000e+00  1.6476835364604984e+01 2.0157258413779516e+01 0.0000000000000000e+00  1.5833654312056908e+01 1.8673350165733307e+01 0.0000000000000000e+00  1.7227298034983427e+01 1.8274124955689825e+01 0.0000000000000000e+00  1.6794780696879052e+01 1.7192299687970138e+01 0.0000000000000000e+00  1.7742161193087000e+01 1.5450659318790805e+01 0.0000000000000000e+00  1.7492935303662414e+01 1.4744735348076100e+01 0.0000000000000000e+00  1.8011290016346859e+01 1.1407095159028030e+01 0.0000000000000000e+00  1.7928433807313830e+01 1.1048925619762372e+01 0.0000000000000000e+00  1.8136909118676066e+01 4.7672990338180563e+00 0.0000000000000000e+00  1.8141641898422634e+01 4.6633478590781356e+00 0.0000000000000000e+00  1.8163558467864735e+01 -3.2713436826942135e-05 0.0000000000000000e+00  1.8163235003969469e+01 -3.7069108569832987e-04 0.0000000000000000e+00  1.8163563200088934e+01 2.6518716978914211e-19 0.0000000000000000e+00  1.3886387320832805e+01 -1.1539776195652184e+01 0.0000000000000000e+00  1.8132909372009340e+01 -5.1593497361440122e+00 0.0000000000000000e+00  1.8163249644106827e+01 2.9279541627172818e-04 0.0000000000000000e+00  1.2624765665250667e+01 -2.0106359841353601e+01 0.0000000000000000e+00  1.3905413176797865e+01 -1.8283096195798908e+01 0.0000000000000000e+00  1.0751953002047676e+01 -2.3969469542480002e+01 0.0000000000000000e+00  1.2702476393675349e+01 -2.1196726065940595e+01 0.0000000000000000e+00  9.6681645264829577e+00 -2.4788702355207526e+01 0.0000000000000000e+00  1.0884313111735116e+01 -2.3211050805645726e+01 0.0000000000000000e+00  8.4451754410525588e+00 -2.4342234087977268e+01 0.0000000000000000e+00  9.8495715948881397e+00 -2.2547502148230741e+01 0.0000000000000000e+00  7.4354946406418563e+00 -2.2821985961072173e+01 0.0000000000000000e+00  8.6722819073398529e+00 -2.1347789496241525e+01 0.0000000000000000e+00  6.4871913069017246e+00 -2.1038514425432979e+01 0.0000000000000000e+00  7.7071545617644910e+00 -1.9651603262011321e+01 0.0000000000000000e+00  5.6353427085752266e+00 -1.9028429556602884e+01 0.0000000000000000e+00  6.7994895194078504e+00 -1.7786735313678200e+01 0.0000000000000000e+00  4.7471851353124519e+00 -1.7215395839501582e+01 0.0000000000000000e+00  5.9863818274519272e+00 -1.5916163763045988e+01 0.0000000000000000e+00  4.0377714879812778e+00 -1.5478693272684465e+01 0.0000000000000000e+00  5.1355141626136129e+00 -1.4446435195708457e+01 0.0000000000000000e+00  3.4062512905904234e+00 -1.3964609390948093e+01 0.0000000000000000e+00  4.4612576484620234e+00 -1.3048058124173426e+01 0.0000000000000000e+00  2.7536000489031012e+00 -1.2750431026526300e+01 0.0000000000000000e+00  3.8633883882371411e+00 -1.1800926303974672e+01 0.0000000000000000e+00  2.1587946806597693e+00 -1.1691507039358081e+01 0.0000000000000000e+00  3.2433811052868524e+00 -1.0827471017873199e+01 0.0000000000000000e+00  1.6216068236979078e+00 -1.0769536720777142e+01 0.0000000000000000e+00  2.6797196119242339e+00 -9.9912760463900536e+00 0.0000000000000000e+00  1.1400777160502258e+00 -9.9256904076570844e+00 0.0000000000000000e+00  2.1725685848525735e+00 -9.2298951805441547e+00 0.0000000000000000e+00  7.2365363318795051e-01 -9.1223680457693099e+00 0.0000000000000000e+00  1.7202647619041220e+00 -8.5234137231864793e+00 0.0000000000000000e+00  3.6731693237701868e-01 -8.3645255874418005e+00 0.0000000000000000e+00  1.3320683929190513e+00 -7.8551550982163549e+00 0.0000000000000000e+00  5.5583542723954389e-02 -7.6233567172324594e+00 0.0000000000000000e+00  1.0031578341292646e+00 -7.1802756998057227e+00 0.0000000000000000e+00  -2.0827914071960066e-01 -6.8983522011446379e+00 0.0000000000000000e+00  7.1833432772738337e-01 -6.5264800954759101e+00 0.0000000000000000e+00  -4.2920105378275564e-01 -6.1831966863882721e+00 0.0000000000000000e+00  4.8066642041950686e-01 -5.8754578208977151e+00 0.0000000000000000e+00  -6.1401110481531174e-01 -5.4789892276501977e+00 0.0000000000000000e+00  2.8555143913743369e-01 -5.2248951555845027e+00 0.0000000000000000e+00  -7.6331820192383304e-01 -4.7580363542476753e+00 0.0000000000000000e+00  1.2599888796587597e-01 -4.5570610130205802e+00 0.0000000000000000e+00  -8.7032924471483253e-01 -4.0795240737868834e+00 0.0000000000000000e+00  1.8868586243020384e-03 -3.9414197584442539e+00 0.0000000000000000e+00  -9.4507411293909926e-01 -3.3256133860997013e+00 0.0000000000000000e+00  -8.0808666039889662e-02 -3.2362742429777795e+00 0.0000000000000000e+00  -9.7355335709054591e-01 -2.6952979186779147e+00 0.0000000000000000e+00  -1.3046513176263821e-01 -2.6741008394572936e+00 0.0000000000000000e+00  -9.6012408677899208e-01 -1.8775912764613494e+00 0.0000000000000000e+00  -1.3578568748747855e-01 -1.9209151231377135e+00 0.0000000000000000e+00  -8.9576119036833268e-01 -1.3966492972021149e+00 0.0000000000000000e+00  -9.6576638107406687e-02 -1.5132079479313914e+00 0.0000000000000000e+00  -7.6611787143119758e-01 -4.2895929799346416e-01 0.0000000000000000e+00  -1.1288866532869191e-02 -6.4836043521841646e-01 0.0000000000000000e+00  -5.2203621658127008e-01 5.0974461269988995e-02 0.0000000000000000e+00  1.4753785913583428e-01 -3.3112985231569364e-01 0.0000000000000000e+00  5.9371939565540890e-02 2.8486725458321238e-01 0.0000000000000000e+00  4.0329233991045127e-01 -6.2070897008082138e-01 0.0000000000000000e+00  -2.0116369014726767e+00 1.4634323152491899e+00 0.0000000000000000e+00  -2.1194257496769628e+00 1.2926674324552248e+00 0.0000000000000000e+00  -1.9028935334451123e+00 1.7716824505155360e+00 0.0000000000000000e+00  -1.7550156442820670e+00 2.2640962305688124e+00 0.0000000000000000e+00  -1.5085384942332392e+00 2.8062029345570836e+00 0.0000000000000000e+00  -1.2015966262237305e+00 3.4975118132104996e+00 0.0000000000000000e+00  -8.4252050588153304e-01 4.1997131571099251e+00 0.0000000000000000e+00  -4.3726751376907175e-01 4.9749402830363278e+00 0.0000000000000000e+00  -4.4250667022377538e-02 5.6847204749780280e+00 0.0000000000000000e+00  1.2318060798870321e-01 6.0601624758270836e+00 0.0000000000000000e+00  6.1449690810524948e-01 6.8020059818268281e+00 0.0000000000000000e+00  -1.2901573669252637e+00 3.7145861203690038e+00 0.0000000000000000e+00  3.0780304968804963e+00 1.0039247870226827e+01 0.0000000000000000e+00  1.6967742047717504e+00 7.7917759163855331e+00 0.0000000000000000e+00  1.3933166422327645e+00 7.1684332121953958e+00 0.0000000000000000e+00  1.7073777639309302e+00 7.4251188557694752e+00 0.0000000000000000e+00  2.4659560401493752e+00 8.2416477100137016e+00 0.0000000000000000e+00  3.4864126664845005e+00 9.3693958200676342e+00 0.0000000000000000e+00  4.7132229034911406e+00 1.0612554042538907e+01 0.0000000000000000e+00  6.0982605684264275e+00 1.1945355631307182e+01 0.0000000000000000e+00  7.5982978196519140e+00 1.3277906841768480e+01 0.0000000000000000e+00  9.1772280026086168e+00 1.4563064854136936e+01 0.0000000000000000e+00  1.0790972344241977e+01 1.5640886436371284e+01 0.0000000000000000e+00  1.2373006178254252e+01 1.6594767083618116e+01 0.0000000000000000e+00  1.3862215107431641e+01 1.6924787229387210e+01 0.0000000000000000e+00  1.5198977330391095e+01 1.6920384882407006e+01 0.0000000000000000e+00  1.6316422036877729e+01 1.5795901783745713e+01 0.0000000000000000e+00  1.7188774147382560e+01 1.3773238883431477e+01 0.0000000000000000e+00  1.7771180747921420e+01 1.0439108302057241e+01 0.0000000000000000e+00  1.8104105148379301e+01 4.4566339476466270e+00 0.0000000000000000e+00  1.8162460757479074e+01 -7.0458359511071651e-04 0.0000000000000000e+00  1.8092154776252286e+01 -4.9633756032641756e+00 0.0000000000000000e+00  1.8162478958786533e+01 5.7392011605290178e-04 0.0000000000000000e+00  1.7901126830701724e+01 -1.1960488786613908e+01 0.0000000000000000e+00  1.3744152087606720e+01 -1.9449787003800900e+01 0.0000000000000000e+00  1.2627554079566975e+01 -2.0526258631997312e+01 0.0000000000000000e+00  1.0877393524467646e+01 -2.1035482857820689e+01 0.0000000000000000e+00  9.9061825242928130e+00 -1.9611579507105898e+01 0.0000000000000000e+00  8.7805890320839719e+00 -1.8237039615147314e+01 0.0000000000000000e+00  7.8661170426007141e+00 -1.6451422925259212e+01 0.0000000000000000e+00  7.0020900226276233e+00 -1.4721051794981445e+01 0.0000000000000000e+00  6.2294085844308471e+00 -1.3193716934679715e+01 0.0000000000000000e+00  5.4163824986259632e+00 -1.2058279391485492e+01 0.0000000000000000e+00  4.7774784855481620e+00 -1.0923895791480170e+01 0.0000000000000000e+00  4.2125362775535597e+00 -9.9171185175862888e+00 0.0000000000000000e+00  3.6242436573849441e+00 -9.1639293202710466e+00 0.0000000000000000e+00  3.0903657933741759e+00 -8.4861252763262467e+00 0.0000000000000000e+00  2.6112667060459165e+00 -7.8615078222527259e+00 0.0000000000000000e+00  2.1858570268087227e+00 -7.2884263966825822e+00 0.0000000000000000e+00  1.8232040245688632e+00 -6.7016302722458532e+00 0.0000000000000000e+00  1.5186171965216884e+00 -6.1136289239624135e+00 0.0000000000000000e+00  1.2573159143091543e+00 -5.5327731870125003e+00 0.0000000000000000e+00  1.0423394923940226e+00 -4.9454272594747515e+00 0.0000000000000000e+00  8.6913114527830604e-01 -4.3309047595139400e+00 0.0000000000000000e+00  7.3110530187508649e-01 -3.7677939693889142e+00 0.0000000000000000e+00  6.2788327235270802e-01 -3.1249508476549881e+00 0.0000000000000000e+00  5.6590626401817445e-01 -2.6114029478279659e+00 0.0000000000000000e+00  5.3624782820546302e-01 -1.9259220799789325e+00 0.0000000000000000e+00  5.5136979505475492e-01 -1.5822444400704037e+00 0.0000000000000000e+00  6.0926937490312472e-01 -7.9074719158486717e-01 0.0000000000000000e+00  7.1519084725476278e-01 -5.7670073381158427e-01 0.0000000000000000e+00  8.9136370861636882e-01 -1.0200388648695751e+00 0.0000000000000000e+00  -7.0274664068475390e-01 1.2995031496278213e+00 0.0000000000000000e+00  -7.9471353149129809e-01 1.1581633344584787e+00 0.0000000000000000e+00  -5.9124390377370084e-01 1.6047678802692715e+00 0.0000000000000000e+00  -4.7624933394159230e-01 2.0383291005306181e+00 0.0000000000000000e+00  -3.2208509685424774e-01 2.4320537820616730e+00 0.0000000000000000e+00  -6.8567424955077158e-02 3.0326832992245496e+00 0.0000000000000000e+00  2.4548910699648177e-01 3.6574156756471159e+00 0.0000000000000000e+00  6.1057054637058394e-01 4.3639258847595306e+00 0.0000000000000000e+00  1.0207547799730716e+00 5.0936930334325687e+00 0.0000000000000000e+00  1.4164611250185593e+00 5.8101353755604448e+00 0.0000000000000000e+00  1.5824709496759282e+00 6.0689780373734834e+00 0.0000000000000000e+00  2.0684770704982816e+00 6.5758896435324612e+00 0.0000000000000000e+00  1.6340609967794278e-01 3.4814140759118235e+00 0.0000000000000000e+00  4.5444255387749948e+00 9.8559873701271687e+00 0.0000000000000000e+00  3.1739302230613218e+00 7.6268345368638029e+00 0.0000000000000000e+00  2.8684445403122285e+00 6.9633338617740890e+00 0.0000000000000000e+00  3.1707636558837411e+00 7.1191236530229505e+00 0.0000000000000000e+00  3.9095793605295119e+00 7.8599640916246898e+00 0.0000000000000000e+00  4.9031516524676118e+00 8.7992142197273182e+00 0.0000000000000000e+00  6.0946862069518781e+00 9.8999665288106797e+00 0.0000000000000000e+00  7.4369356019887025e+00 1.1066865379461294e+01 0.0000000000000000e+00  8.8856862395570335e+00 1.2242073004428926e+01 0.0000000000000000e+00  1.0401034632017142e+01 1.3274017145701217e+01 0.0000000000000000e+00  1.1940655375106331e+01 1.4289638704611709e+01 0.0000000000000000e+00  1.3431616435186584e+01 1.4764988206945111e+01 0.0000000000000000e+00  1.4816198920591159e+01 1.5010922181814328e+01 0.0000000000000000e+00  1.6023069788433226e+01 1.4215734391654438e+01 0.0000000000000000e+00  1.6999160774122124e+01 1.2604254979920499e+01 0.0000000000000000e+00  1.7688085587118124e+01 9.6718285628494556e+00 0.0000000000000000e+00  1.8095461662632161e+01 4.1724190858765411e+00 0.0000000000000000e+00  1.8161253018306446e+01 -1.0064942801894924e-03 0.0000000000000000e+00  1.8071574624497501e+01 -4.6182931691463249e+00 0.0000000000000000e+00  1.8161269298799859e+01 8.1979735168682239e-04 0.0000000000000000e+00  1.7669855598958943e+01 -1.1610525445690682e+01 0.0000000000000000e+00  1.7468597326723213e+01 -1.3303596170587925e+01 0.0000000000000000e+00  1.3435306531043278e+01 -1.8959920261034711e+01 0.0000000000000000e+00  1.2457328321816886e+01 -1.8490151429135626e+01 0.0000000000000000e+00  1.0815348041917314e+01 -1.8231871473675959e+01 0.0000000000000000e+00  9.9374493694818220e+00 -1.6607749691815904e+01 0.0000000000000000e+00  8.8899922698726233e+00 -1.5136329032366246e+01 0.0000000000000000e+00  8.0462033361339440e+00 -1.3473831628449879e+01 0.0000000000000000e+00  7.2432205313161058e+00 -1.2079508889500433e+01 0.0000000000000000e+00  6.5269747832439942e+00 -1.0879504619122256e+01 0.0000000000000000e+00  5.7653707134512926e+00 -1.0004178978023132e+01 0.0000000000000000e+00  5.1743607213007143e+00 -9.1055737421141139e+00 0.0000000000000000e+00  4.6547203524469323e+00 -8.3155994965407416e+00 0.0000000000000000e+00  4.1091868071789968e+00 -7.7175306265076022e+00 0.0000000000000000e+00  3.6152826208001527e+00 -7.1730685354997137e+00 0.0000000000000000e+00  3.1738891834297482e+00 -6.6788090037878378e+00 0.0000000000000000e+00  2.7839014310641383e+00 -6.1847584602825618e+00 0.0000000000000000e+00  2.4545999014228537e+00 -5.6823517389886895e+00 0.0000000000000000e+00  2.1816614654954223e+00 -5.1653666478970539e+00 0.0000000000000000e+00  1.9505765948005520e+00 -4.6464983777369602e+00 0.0000000000000000e+00  1.7644414457300788e+00 -4.0939565680596299e+00 0.0000000000000000e+00  1.6192673854916926e+00 -3.5826811905944780e+00 0.0000000000000000e+00  1.5081955681411674e+00 -2.9920702343041490e+00 0.0000000000000000e+00  1.4316692684907255e+00 -2.5390108433790792e+00 0.0000000000000000e+00  1.3950888189279251e+00 -1.9031711797541984e+00 0.0000000000000000e+00  1.3915103995210130e+00 -1.6234719215793931e+00 0.0000000000000000e+00  1.4298085807113607e+00 -9.0054482676143965e-01 0.0000000000000000e+00  1.5146636475910729e+00 -7.4997507493913862e-01 0.0000000000000000e+00  1.6374633853164233e+00 -1.3086212691026149e+00 0.0000000000000000e+00  5.0227990387789023e-01 1.1583528182488461e+00 0.0000000000000000e+00  4.3054988550356266e-01 1.0552879855707167e+00 0.0000000000000000e+00  5.9940261662767191e-01 1.4317295844581712e+00 0.0000000000000000e+00  7.2039031722460822e-01 1.8581318580570729e+00 0.0000000000000000e+00  8.4678290251101651e-01 2.1920647154493014e+00 0.0000000000000000e+00  1.0141027895618282e+00 2.6430202420086837e+00 0.0000000000000000e+00  1.2814821466889044e+00 3.1763584005696308e+00 0.0000000000000000e+00  1.6097919498528841e+00 3.8069758248089363e+00 0.0000000000000000e+00  1.9883326834224839e+00 4.4704270460165443e+00 0.0000000000000000e+00  2.4094516207892021e+00 5.2108553466375351e+00 0.0000000000000000e+00  2.8117556231953125e+00 5.8189020855797935e+00 0.0000000000000000e+00  2.9792984563294511e+00 5.8478313879579522e+00 0.0000000000000000e+00  3.4653669471774551e+00 6.3333643990877588e+00 0.0000000000000000e+00  1.5748867488191480e+00 3.2618540152514139e+00 0.0000000000000000e+00  5.9922225656215113e+00 9.6585579530321510e+00 0.0000000000000000e+00  4.6523806885380550e+00 7.4121439553832138e+00 0.0000000000000000e+00  4.3591537492369969e+00 6.6650801942561895e+00 0.0000000000000000e+00  4.6615661684786982e+00 6.7600197396868076e+00 0.0000000000000000e+00  5.3883942805873630e+00 7.3223446319909948e+00 0.0000000000000000e+00  6.3620373776570096e+00 8.1337167402675128e+00 0.0000000000000000e+00  7.5246159694855290e+00 9.0805741262924364e+00 0.0000000000000000e+00  8.8278163837108128e+00 1.0104118732935644e+01 0.0000000000000000e+00  1.0225908445328880e+01 1.1044965234804653e+01 0.0000000000000000e+00  1.1677802014273340e+01 1.2038956460732944e+01 0.0000000000000000e+00  1.3133059275185456e+01 1.2595676754182799e+01 0.0000000000000000e+00  1.4522867800851529e+01 1.3029045708767937e+01 0.0000000000000000e+00  1.5772917865066585e+01 1.2503644589637819e+01 0.0000000000000000e+00  1.6827138691619236e+01 1.1291966438548931e+01 0.0000000000000000e+00  1.7594158850320667e+01 8.7606549885743910e+00 0.0000000000000000e+00  1.8073776758509602e+01 3.8167238605690454e+00 0.0000000000000000e+00  1.8159659615772100e+01 -1.2745064910620963e-03 0.0000000000000000e+00  1.8048157623983524e+01 -4.1822678245888296e+00 0.0000000000000000e+00  1.8159674417722105e+01 1.0367796002638493e-03 0.0000000000000000e+00  1.7543826815970643e+01 -1.0836437756135849e+01 0.