<?xml version="1.0"?>
<VTKFile type="UnstructuredGrid"  version="0.1"  >
<UnstructuredGrid>
<Piece  NumberOfPoints="1933" NumberOfCells="3640">
<Points>
<DataArray  type="Float64"  NumberOfComponents="3"  format="ascii">-0.2939930568489955 0.0003543124991694812 0  4.706006974236009 0.0003246972681599616 0  4.706051437438139 7.500324798767592 0  -0.2939486250463568 7.500354359245512 0  9.706007012387595 0.0002949874128085807 0  9.70605155223776 7.500295108567303 0  14.70600710800869 0.0002651325925116567 0  14.70605174778272 7.500265259760396 0  19.70600731746143 0.0002351256566065262 0  19.70605205218941 7.500235253760223 0  24.70600769419514 0.000204985438863498 0  24.70605249361249 7.500205113091904 0  29.70600828655077 0.0001747471784183589 0  29.70605309959732 7.50017487462981 0  34.70600913815689 0.0001444571736294989 0  34.70605389661108 7.500144585397047 0  39.70601028923968 0.0001141700297034969 0  39.70605490989353 7.500114300322037 0  44.70601177815806 8.394759847811279e-05 0  44.70605616352855 7.500084081415015 0  49.70601364289732 5.385910128036708e-05 0  49.70605768060549 7.500053998003101 0  54.706015922436 2.398216434801033e-05 0  54.70605948335827 7.500024127818714 0  59.70601865796861 -5.595344564454825e-06 0  59.70606159318682 7.499994558859117 0  64.70602189399139 -3.477267102872789e-05 0  64.70606403046477 7.499965392036251 0  69.70602567924423 -6.343260928510109e-05 0  69.70606681402555 7.499936744728972 0  74.70603006748385 -9.143679898584165e-05 0  74.70606996018074 7.499908755447366 0  79.70603511800449 -0.0001186195319767062 0  79.70607348106022 7.499881589936628 0  84.70604089574306 -0.0001447795376883117 0  84.70607738197498 7.499855449199897 0  89.70604747064196 -0.0001696689546550049 0  89.70608165735655 7.499830580125704 0  94.70605491566675 -0.0001929783038080882 0  94.706086284634 7.499807289686268 0  99.70606330234362 -0.0002143156797043975 0  99.70609121515973 7.499785964046291 0  104.706072691706 -0.0002331774519666492 0  104.7060963609942 7.499767094389005 0  109.7060831166512 -0.0002489063492076666 0  109.7061015761493 7.499751311761611 0  114.706094548127 -0.0002606306522688157 0  114.7061066310651 7.499739433534995 0  119.7061068305959 -0.000267175116994574 0  119.7061111804931 7.49973252350062 0  124.7061195587241 -0.0002669301908342933 0  124.7061147296356 7.499731964555219 0  129.7061318408104 -0.0002576623294385145 0  129.7061166160414 7.499739533612725 0  134.7061418424932 -0.0002362511215629839 0  134.7061160562756 7.49975744528717 0  139.7061458999077 -0.000198376736531982 0  139.7061123818918 7.499788283282159 0  144.7061367704183 -0.0001383849695587242 0  144.7061057711468 7.499834679027187 0  149.706100051373 -5.058646096567382e-05 0  149.7060992534046 7.499898766867203 0  159.7061073738544 8.77220467425866e-19 0  164.706004533945 -0.0001509062024924016 0  164.7060900664665 7.499825181334037 0  159.7061185708472 7.49994355339675 0  169.7059514517422 -0.0002752461443742807 0  169.7060609674953 7.499712757578262 0  174.7059244307665 -0.0003805925709075568 0  174.7060375597974 7.499612854457673 0  179.7059115451764 -0.0004713461211820777 0  179.7060204082497 7.499524910634668 0  184.7059064821891 -0.000550796868550751 0  184.7060085457351 7.499447001202102 0  189.7059057952072 -0.0006214754153746033 0  189.7060007607726 7.499377198901151 0  194.7059075552427 -0.0006853063740829067 0  194.7059959834705 7.499313880334376 0  199.7059106570432 -0.0007437432861059222 0  199.7059933686464 7.49925575131557 0  204.7059144525398 -0.0007978857323582041 0  204.705992280215 7.499201799127547 0  209.7059185533028 -0.0008485721916600616 0  209.705992250162 7.499151233628568 0  214.7059227220023 -0.0008964495844119706 0  214.7059929374958 7.499103435319174 0  219.7059268115001 -0.0009420238690903091 0  219.7059940945297 7.49905791412271 0  224.7059307298725 -0.0009856964469751831 0  224.7059955412801 7.499014278051815 0  229.7059344198243 -0.001027790355160526 0  229.7059971467374 7.498972209794196 0  234.705937846266 -0.001068569242317899 0  234.7059988154097 7.498931449281241 0  239.7059409886383 -0.001108251269000401 0  239.7060004777207 7.498891780660656 0  244.7059438360837 -0.001147019427955378 0  244.7060020831799 7.498853022480245 0  249.7059463843726 -0.001185029318153705 0  249.7060035955205 7.498815020212759 0  254.7059486339664 -0.001222415084744178 0  254.7060049892514 7.498777640499769 0  259.7059505888404 -0.001259294014034628 0  259.706006247216 7.498740766675352 0  264.7059522558731 -0.001295770114793613 0  264.7060073588923 7.498704295266393 0  269.7059536446605 -0.001331936899332269 0  269.70600831924 7.49866813327046 0  274.7059547677285 -0.001367879479611893 0  274.7060091279436 7.49863219610002 0  279.7059556411076 -0.001403675995617325 0  279.7060097889524 7.498596406165155 0  284.705956285295 -0.001439398272446299 0  284.7060103102137 7.49856069216113 0  289.7059567265666 -0.001475111424670964 0  289.7060107034924 7.49852498924444 0  294.7059569985815 -0.001510871834571988 0  294.7060109842021 7.49848924043693 0  299.7059571438983 -0.001546722424460742 0  299.7060111711754 7.498453399798898 0  304.7059572144569 -0.001582683253766352 0  304.7060112865966 7.498417438144253 0  309.705957268511 -0.001618733997168518 0  309.7060113570375 7.498381352307512 0  4.70609559557774 15.00032503359924 0  -0.293904473295007 15.00035447452424 0  9.706095712194559 15.00029538167838 0  14.70609590129034 15.00026553582963 0  19.70609617978796 15.000235519897 0  24.70609656151677 15.00020536686735 0  29.70609705899258 15.00017511821291 0  34.70609768386336 15.00014482274534 0  39.70609844681233 15.00011453587073 0  44.70609935724819 15.00008431948503 0  49.70610042288951 15.00005424253355 0  54.70610164924696 15.00002438221607 0  59.70610303895667 14.99999482584067 0  64.70610459089698 14.99996567337409 0  69.7061062989972 14.99993704079096 0  74.70610815063721 14.99990906438666 0  79.70611012451766 14.999881906288 0  84.70611218788137 14.99985576147086 0  89.7061142929826 14.99983086667 0  94.70611637279231 14.99980751161682 0  99.70611833612141 14.99978605301579 0  104.7061200628232 14.99976693144332 0  109.7061214006356 14.99975069066878 0  114.7061221669921 14.99973799722967 0  119.7061221622418 14.99972965440834 0  124.7061212059532 14.99972659708029 0  129.7061192158659 14.99972983855105 0  134.7061163588409 14.99974031067603 0  139.7061133087658 14.99975848084136 0  144.7061116243391 14.99978350862728 0  149.7061141275556 14.99981137541702 0  164.7061341510216 14.99975956724504 0  159.7061374388985 14.9998400715219 0  169.7061240684335 14.99967359635579 0  174.7061115260031 14.9995896246277 0  179.70609931773 14.99951099188527 0  184.7060887152643 14.99943852685175 0  189.7060801006348 14.99937194386028 0  194.7060734184366 14.99931056025388 0  199.7060684314594 14.99925361706236 0  204.706064851112 14.99920040725685 0  209.7060623979703 14.99915031693538 0  214.7060608259356 14.99910282955349 0  219.7060599285751 14.99905751616395 0  224.7060595374553 14.99901402176634 0  229.7060595174068 14.99897205190476 0  234.7060597610988 14.99893136096521 0  239.7060601839366 14.99889174247104 0  244.7060607196679 14.99885302122622 0  249.7060613167647 14.99881504701981 0  254.7060619355194 14.99877768959612 0  259.7060625457527 14.99874083463756 0  264.7060631250102 14.99870438055971 0  269.7060636571547 14.99866823597421 0  274.7060641312533 14.99863231772446 0  279.7060645406774 14.99859654944611 0  284.7060648823846 14.99856086064269 0  289.706065156317 14.99852518628938 0  294.7060653650188 14.99848946695199 0  299.7060655136223 14.99845364926326 0  304.7060656106856 14.99841768613835 0  309.7060656707679 14.99838153485592 0  4.706139426809465 22.50032551023737 0  -0.2938606409561058 22.50035484439994 0  9.706139524280507 22.50029588850086 0  14.70613966926545 22.50026603389799 0  19.70613987161146 22.50023599341694 0  24.70614013657981 22.50020581290834 0  29.70614046682896 22.50017554032102 0  34.7061408632916 22.50014522723559 0  39.70614132534932 22.50011492974904 0  44.70614185059348 22.50008470927682 0  49.70614243434019 22.50005463355611 0  54.70614306897582 22.50002477799345 0  59.70614374315858 22.49999522744263 0  64.70614444087532 22.49996607848475 0  69.70614514034486 22.49993744228534 0  74.70614581277202 22.49990944811485 0  79.70614642099166 22.4998822476203 0  84.70614691810607 22.49985601991717 0  89.70614724634626 22.49983097750349 0  94.70614733659487 22.49980737283722 0  99.70614710934669 22.49978550508035 0  104.7061464784197 22.49976572585805 0  109.7061453595186 22.49974844166067 0  114.7061436868275 22.49973410834252 0  119.7061414420573 22.49972320944018 0  124.7061387013296 22.49971620394032 0  129.7061357046008 22.49971341984642 0  134.7061329469023 22.49971485743545 0  139.7061312740109 22.49971985413084 0  144.7061319253597 22.49972656857415 0  149.7061363874129 22.49973133605716 0  164.7061646301552 22.49968626405625 0  159.7061565616784 22.49974299953709 0  169.7061662520309 22.49962141325448 0  174.7061634215937 22.49955371365661 0  179.706158137902 22.49948663439962 0  184.7061519107322 22.49942205729304 0  189.7061456935292 22.49936077114414 0  194.7061400062815 22.49930292977441 0  199.7061350812766 22.49924836286334 0  204.7061309781209 22.49919675919843 0  209.7061276618584 22.49914776553762 0  214.7061250517768 22.49910103566722 0  219.7061230500576 22.49905625196529 0  224.7061215575789 22.49901313258917 0  229.7061204819324 22.49897143160454 0  234.7061197409268 22.49893093597309 0  239.7061192635888 22.49889146141524 0  244.7061189898594 22.49885284813076 0  249.7061188696741 22.4988149568178 0  254.7061188618141 22.49877766515544 0  259.7061189327155 22.49874086478385 0  264.7061190553505 22.49870445875712 0  269.7061192082024 22.49866835942487 0  274.7061193743565 22.49863248669395 0  279.7061195407005 22.49859676661916 0  284.7061196972476 22.49856113025814 0  289.7061198366162 22.49852551267929 0  294.7061199537602 22.498489851
[...]
<PointData  Vectors="v"> 
<DataArray  type="Float64"  Name="v"  NumberOfComponents="3" format="ascii">-1.1009189978320191e+00 -7.6635105556206460e+00 0.0000000000000000e+00  -1.6581510470625640e+00 -7.1718213296217357e+00 0.0000000000000000e+00  -1.5280077266568604e+00 -6.3362287736119676e+00 0.0000000000000000e+00  -1.0979213689497147e+00 -7.0186365395244179e+00 0.0000000000000000e+00  -2.3518459499442241e+00 -7.7500459217869739e+00 0.0000000000000000e+00  -2.0848341714931049e+00 -6.7105079095702544e+00 0.0000000000000000e+00  -2.9729170732699726e+00 -8.7719481266106918e+00 0.0000000000000000e+00  -2.7772986321939088e+00 -7.8419273059123062e+00 0.0000000000000000e+00  -3.5164624936756947e+00 -9.0835679590834584e+00 0.0000000000000000e+00  -3.3963647413024169e+00 -8.2705699162968873e+00 0.0000000000000000e+00  -4.1974928334532997e+00 -9.9571529233279179e+00 0.0000000000000000e+00  -3.9371403327441294e+00 -8.9386557505327087e+00 0.0000000000000000e+00  -4.7365143047564295e+00 -1.0310956122108019e+01 0.0000000000000000e+00  -4.6144611303064860e+00 -9.5060708365010402e+00 0.0000000000000000e+00  -4.8156008902489846e+00 -1.0047916186125915e+01 0.0000000000000000e+00  -5.1489584824137662e+00 -9.9336752973015283e+00 0.0000000000000000e+00  -5.8994368882072123e+00 -1.1143736297158522e+01 0.0000000000000000e+00  -5.2227644186244548e+00 -9.5231391930790608e+00 0.0000000000000000e+00  -2.7936299119690480e+00 -5.9801314227410582e+00 0.0000000000000000e+00  -6.3003828330687695e+00 -1.0644355746700066e+01 0.0000000000000000e+00  -1.3915334606707354e+01 -2.1864228857010033e+01 0.0000000000000000e+00  -3.1876142637750591e+00 -5.1886476303530236e+00 0.0000000000000000e+00  -1.3595550596801901e+01 -2.0090179525928061e+01 0.0000000000000000e+00  -1.4301855060573800e+01 -2.0577001984072659e+01 0.0000000000000000e+00  -1.3672712796153192e+01 -1.8770621540700947e+01 0.0000000000000000e+00  -1.3973536955352643e+01 -1.8663045463858062e+01 0.0000000000000000e+00  -1.4203798616517968e+01 -1.8103631082715161e+01 0.0000000000000000e+00  -1.4040873174335495e+01 -1.7316532871813131e+01 0.0000000000000000e+00  -1.5143951530881626e+01 -1.8070754140405548e+01 0.0000000000000000e+00  -1.4560765572649425e+01 -1.6671445840228117e+01 0.0000000000000000e+00  -1.6394140074048938e+01 -1.8462271095075689e+01 0.0000000000000000e+00  -1.5487878161766826e+01 -1.6598973315770838e+01 0.0000000000000000e+00  -1.7860718515505848e+01 -1.9071115895422885e+01 0.0000000000000000e+00  -1.6723547327593952e+01 -1.6884680480173245e+01 0.0000000000000000e+00  -1.9453101445082677e+01 -1.9958152252016166e+01 0.0000000000000000e+00  -1.8174280392629989e+01 -1.7584279628241827e+01 0.0000000000000000e+00  -2.1080819006491804e+01 -2.0697270145672174e+01 0.0000000000000000e+00  -1.9748955517761537e+01 -1.8271216938769509e+01 0.0000000000000000e+00  -2.2667154390610023e+01 -2.1321992249775580e+01 0.0000000000000000e+00  -2.1357819294549859e+01 -1.8959431020173067e+01 0.0000000000000000e+00  -2.4148531516459059e+01 -2.1669932053804665e+01 0.0000000000000000e+00  -2.2923966170876692e+01 -1.9465594293901312e+01 0.0000000000000000e+00  -2.5469519088622711e+01 -2.1705256658005624e+01 0.0000000000000000e+00  -2.4383906919826810e+01 -1.9742438440897185e+01 0.0000000000000000e+00  -2.6594355996790970e+01 -2.0976014945520944e+01 0.0000000000000000e+00  -2.5682033106575624e+01 -1.9307880725280139e+01 0.0000000000000000e+00  -2.7509425543198763e+01 -2.0256952116579392e+01 0.0000000000000000e+00  -2.6784034490513502e+01 -1.8904957299091155e+01 0.0000000000000000e+00  -2.8209032954985410e+01 -1.8108380564229879e+01 0.0000000000000000e+00  -2.7673824207105028e+01 -1.7078373783322615e+01 0.0000000000000000e+00  -2.8715194989674590e+01 -1.6438065656934469e+01 0.0000000000000000e+00  -2.8349941025558060e+01 -1.5701215210082555e+01 0.0000000000000000e+00  -2.9046638636887984e+01 -1.2755406605685355e+01 0.0000000000000000e+00  -2.8828777825147199e+01 -1.2276973127223016e+01 0.0000000000000000e+00  -2.9247452411217299e+01 -1.0094894692323818e+01 0.0000000000000000e+00  -2.9137521194575882e+01 -9.8181020348786365e+00 0.0000000000000000e+00  -2.9342421025066482e+01 -5.2063581997121924e+00 0.0000000000000000e+00  -2.9308932472017855e+01 -5.0805328533489771e+00 0.0000000000000000e+00  -2.9381811519079509e+01 -1.2406650679037821e+00 0.0000000000000000e+00  -2.9383432827734911e+01 -1.2086045566541113e+00 0.0000000000000000e+00  -2.9389262610219244e+01 3.7272005227213522e-09 0.0000000000000000e+00  -2.9389940980995505e+01 -7.0929344363029933e-04 0.0000000000000000e+00  -2.9389262614641812e+01 4.1363414551493192e-19 0.0000000000000000e+00  -2.0123653719621768e+01 7.0796127739439951e+00 0.0000000000000000e+00  -2.9383911214747190e+01 -6.7930893760387772e+00 0.0000000000000000e+00  -2.9389929049275899e+01 6.7739159307587038e-04 0.0000000000000000e+00  -2.0748123814144904e+01 1.3371530339393269e+01 0.0000000000000000e+00  -2.0151412528039426e+01 1.4348407054194244e+01 0.0000000000000000e+00  -1.7729830199280538e+01 2.0812480703811975e+01 0.0000000000000000e+00  -2.0813535608131783e+01 1.6315824840909762e+01 0.0000000000000000e+00  -1.6952223051337814e+01 2.2297439162200320e+01 0.0000000000000000e+00  -1.7833547914278682e+01 2.1165858532583112e+01 0.0000000000000000e+00  -1.5272468183113862e+01 2.5075848994664518e+01 0.0000000000000000e+00  -1.7093505377599467e+01 2.2589235912453358e+01 0.0000000000000000e+00  -1.4060809103705425e+01 2.5290586740786935e+01 0.0000000000000000e+00  -1.5450782899376451e+01 2.3506823954902643e+01 0.0000000000000000e+00  -1.2766088033301008e+01 2.5370640937878310e+01 0.0000000000000000e+00  -1.4276407903932624e+01 2.3461018752213239e+01 0.0000000000000000e+00  -1.1650374644460374e+01 2.4318768606888728e+01 0.0000000000000000e+00  -1.3018169620350024e+01 2.2678150414855935e+01 0.0000000000000000e+00  -1.0322473679962215e+01 2.3150746924275190e+01 0.0000000000000000e+00  -1.1938553351403462e+01 2.1191160579087626e+01 0.0000000000000000e+00  -9.3668964778759740e+00 2.1309375105920601e+01 0.0000000000000000e+00  -1.0646559028713812e+01 1.9908039113065705e+01 0.0000000000000000e+00  -8.5838111315372121e+00 1.9453667769617304e+01 0.0000000000000000e+00  -9.7264177475479130e+00 1.8310859908666650e+01 0.0000000000000000e+00  -7.7320904504338035e+00 1.7760209653843692e+01 0.0000000000000000e+00  -8.9783961784417858e+00 1.6514186232814101e+01 0.0000000000000000e+00  -6.9254270698945994e+00 1.6160570771749249e+01 0.0000000000000000e+00  -8.1615344072897535e+00 1.4981756012986464e+01 0.0000000000000000e+00  -6.1676760423105454e+00 1.4744606164394789e+01 0.0000000000000000e+00  -7.3893138881838647e+00 1.3638973680329316e+01 0.0000000000000000e+00  -5.4223004297010968e+00 1.3448897723733642e+01 0.0000000000000000e+00  -6.6656407568884193e+00 1.2361485436419299e+01 0.0000000000000000e+00  -4.7441520152381829e+00 1.2207938062371452e+01 0.0000000000000000e+00  -5.9540372454325725e+00 1.1221034484773099e+01 0.0000000000000000e+00  -4.1410095262034217e+00 1.1069439435647533e+01 0.0000000000000000e+00  -5.3092712197899967e+00 1.0194761520633577e+01 0.0000000000000000e+00  -3.5753904835401253e+00 9.9806761496228251e+00 0.0000000000000000e+00  -4.7391017120660059e+00 9.1619918741913136e+00 0.0000000000000000e+00  -3.0726140518847087e+00 8.9178001220449108e+00 0.0000000000000000e+00  -4.2061742036316607e+00 8.1929995842135366e+00 0.0000000000000000e+00  -2.6417048806696402e+00 7.9200038154672177e+00 0.0000000000000000e+00  -3.7356231499222874e+00 7.3028178135620712e+00 0.0000000000000000e+00  -2.2466055760564609e+00 6.9157576036846322e+00 0.0000000000000000e+00  -3.3367154817787923e+00 6.3518366622416851e+00 0.0000000000000000e+00  -1.9057373679845155e+00 5.9806901089572619e+00 0.0000000000000000e+00  -2.9730542452585342e+00 5.4980675680954336e+00 0.0000000000000000e+00  -1.6186441850337114e+00 5.0276151372206499e+00 0.0000000000000000e+00  -2.6636776454697997e+00 4.6249606321838810e+00 0.0000000000000000e+00  -1.3660475011183884e+00 4.2125193199901272e+00 0.0000000000000000e+00  -2.4070308645742515e+00 3.8620843516924235e+00 0.0000000000000000e+00  -1.1479062532023561e+00 3.2735868562589241e+00 0.0000000000000000e+00  -2.1858054386245307e+00 2.9732656422029997e+00 0.0000000000000000e+00  -9.5705356129047303e-01 2.7357224440007015e+00 0.0000000000000000e+00  -1.9966164044316514e+00 2.4783286276675267e+00 0.0000000000000000e+00  -7.8087598988155704e-01 1.7852845712819172e+00 0.0000000000000000e+00  -1.8378989420695713e+00 1.5459358086489818e+00 0.0000000000000000e+00  -5.4322829987048127e-01 1.7285211291746487e+00 0.0000000000000000e+00  -1.6877720149191622e+00 1.4030006486890327e+00 0.0000000000000000e+00  -1.8290900177530672e-01 1.2031586746193617e+00 0.0000000000000000e+00  -1.4863211137197303e+00 6.8250642504180059e-01 0.0000000000000000e+00  6.6170773737003852e-01 7.4620980703321432e-03 0.0000000000000000e+00  -1.1405064704111720e+00 -1.2180828704069575e+00 0.0000000000000000e+00  -1.8055127415584808e+00 -5.6907048874510533e+00 0.0000000000000000e+00  -1.3315549248122258e+00 -6.3086426930660524e+00 0.0000000000000000e+00  -2.2359441541069005e+00 -5.8753552396939206e+00 0.0000000000000000e+00  -2.7922583952579800e+00 -6.8041159180964774e+00 0.0000000000000000e+00  -3.4829577777032767e+00 -7.3436324586599628e+00 0.0000000000000000e+00  -4.0988553422033487e+00 -8.1299298035418914e+00 0.0000000000000000e+00  -4.6349920837197764e+00 -8.4935591809347581e+00 0.0000000000000000e+00  -5.3060474018021795e+00 -9.1364654815494131e+00 0.0000000000000000e+00  -5.8325124351307513e+00 -9.4176689324116794e+00 0.0000000000000000e+00  -5.8968205934793181e+00 -9.0342919677380493e+00 0.0000000000000000e+00  -6.9634370851818757e+00 -9.8647452486779716e+00 0.0000000000000000e+00  -3.8389093354588719e+00 -3.9125132171269410e+00 0.0000000000000000e+00  -1.4942428166394107e+01 -1.9161880626936078e+01 0.0000000000000000e+00  -1.4602960732014960e+01 -1.7223335637096440e+01 0.0000000000000000e+00  -1.4656682997505785e+01 -1.5900575388726178e+01 0.0000000000000000e+00  -1.5160302160580976e+01 -1.5219737549806959e+01 0.0000000000000000e+00  -1.6067517821314354e+01 -1.5044678124213059e+01 0.0000000000000000e+00  -1.7279768299470490e+01 -1.5423149010933535e+01 0.0000000000000000e+00  -1.8704054800101954e+01 -1.5926616832958407e+01 0.0000000000000000e+00  -2.0248709457007486e+01 -1.6565628552070336e+01 0.0000000000000000e+00  -2.1824119627879693e+01 -1.7136906938655532e+01 0.0000000000000000e+00  -2.3354182210601934e+01 -1.7575779884496328e+01 0.0000000000000000e+00  -2.4774492651577507e+01 -1.7385116173912742e+01 0.0000000000000000e+00  -2.6030364538343559e+01 -1.7278170798692344e+01 0.0000000000000000e+00  -2.7087459414195568e+01 -1.5770421471852508e+01 0.0000000000000000e+00  -2.7930659162864728e+01 -1.4717120074501796e+01 0.0000000000000000e+00  -2.8557105330411062e+01 -1.1584971319848115e+01 0.0000000000000000e+00  -2.8988120450622535e+01 -9.3892505711802130e+00 0.0000000000000000e+00  -2.9243895381326116e+01 -4.8447680728069802e+00 0.0000000000000000e+00  -2.9371380938309102e+01 -1.1370413516463014e+00 0.0000000000000000e+00  -2.9391565341477964e+01 -1.3511207532704353e-03 0.0000000000000000e+00  -2.9362955772323879e+01 -6.8555237791902632e+00 0.0000000000000000e+00  -2.9391543579796647e+01 1.3313477521081567e-03 0.0000000000000000e+00  -2.9301262476878929e+01 5.1299425269220855e-01 0.0000000000000000e+00  -2.0103028111452044e+01 1.7336020960409513e+01 0.0000000000000000e+00  -2.0809674349721426e+01 1.6721581241296455e+01 0.0000000000000000e+00  -1.7872167321813109e+01 2.1505616042725425e+01 0.0000000000000000e+00  -1.7175161503687679e+01 2.1065802829982811e+01 0.0000000000000000e+00  -1.5571974838325263e+01 2.1723893496750023e+01 0.0000000000000000e+00  -1.4437006398216919e+01 2.0813124166024899e+01 0.0000000000000000e+00  -1.3215902462165539e+01 1.9593247507628273e+01 0.0000000000000000e+00  -1.2172118593887419e+01 1.7991228670583830e+01 0.0000000000000000e+00  -1.0915021972061520e+01 1.6951240540296812e+01 0.0000000000000000e+00  -1.0028986361119271e+01 1.5412062552381911e+01 0.0000000000000000e+00  -9.3142453494152484e+00 1.3776377314667263e+01 0.0000000000000000e+00  -8.5303152724639340e+00 1.2500150220431975e+01 0.0000000000000000e+00  -7.7904633700979540e+00 1.1295049270139286e+01 0.0000000000000000e+00  -7.0985427098579637e+00 1.0172528281849763e+01 0.0000000000000000e+00  -6.4182062254957888e+00 9.2461144542469569e+00 0.0000000000000000e+00  -5.8040976419893129e+00 8.3248235871736700e+00 0.0000000000000000e+00  -5.2639365928139839e+00 7.4113847467088290e+00 0.0000000000000000e+00  -4.7604304596156419e+00 6.6144451047627291e+00 0.0000000000000000e+00  -4.3187101071590961e+00 5.7704037930683691e+00 0.0000000000000000e+00  -3.9479277117398173e+00 4.9694019052226830e+00 0.0000000000000000e+00  -3.6119203774327939e+00 4.1770052095569339e+00 0.0000000000000000e+00  -3.3294045486401580e+00 3.4934212038008225e+00 0.0000000000000000e+00  -3.0993006628237283e+00 2.6564244931673877e+00 0.0000000000000000e+00  -2.9035041047990604e+00 2.2109320188657278e+00 0.0000000000000000e+00  -2.7400970830728451e+00 1.3207192765087714e+00 0.0000000000000000e+00  -2.6047951592891319e+00 1.1957884015839109e+00 0.0000000000000000e+00  -2.4803188822429831e+00 3.8943642443494203e-01 0.0000000000000000e+00  -2.3003798088162526e+00 -1.7173784410636301e+00 0.0000000000000000e+00  -2.5186001292869036e+00 -4.9789076965835273e+00 0.0000000000000000e+00  -2.0903244728090846e+00 -5.6676625948405368e+00 0.0000000000000000e+00  -2.9937983766182978e+00 -5.2288267965930979e+00 0.0000000000000000e+00  -3.4255168012731829e+00 -5.9699796600855732e+00 0.0000000000000000e+00  -3.9812868317471759e+00 -6.3093534426959783e+00 0.0000000000000000e+00  -4.6694596463718083e+00 -7.2095841567357750e+00 0.0000000000000000e+00  -5.2803807142774373e+00 -7.6950337393073029e+00 0.0000000000000000e+00  -5.8084544356609449e+00 -8.1376333222761144e+00 0.0000000000000000e+00  -6.4684296137628907e+00 -8.6380254462276884e+00 0.0000000000000000e+00  -6.9807003961247203e+00 -8.9502347417513217e+00 0.0000000000000000e+00  -7.0276288816306529e+00 -8.2788633891786816e+00 0.0000000000000000e+00  -8.0750722047546883e+00 -8.6133771622381090e+00 0.0000000000000000e+00  -4.9326828777665934e+00 -2.5191441894657873e+00 0.0000000000000000e+00  -1.6021809199436866e+01 -1.7743485953181697e+01 0.0000000000000000e+00  -1.5668311845995573e+01 -1.5834026492248368e+01 0.0000000000000000e+00  -1.5703746955777147e+01 -1.4482591044058003e+01 0.0000000000000000e+00  -1.6182652440687839e+01 -1.3706725040673025e+01 0.0000000000000000e+00  -1.7058416116839748e+01 -1.3632788268456572e+01 0.0000000000000000e+00  -1.8232304759068064e+01 -1.3823162925323436e+01 0.0000000000000000e+00  -1.9610882083408384e+01 -1.4286299825173657e+01 0.0000000000000000e+00  -2.1102952569248771e+01 -1.4816319021516520e+01 0.0000000000000000e+00  -2.2619145131136207e+01 -1.5328339542040355e+01 0.0000000000000000e+00  -2.4082501187949671e+01 -1.5306026488172632e+01 0.0000000000000000e+00  -2.5430047955363985e+01 -1.5451534557043198e+01 0.0000000000000000e+00  -2.6606078963856699e+01 -1.4244067228528019e+01 0.0000000000000000e+00  -2.7578759476904363e+01 -1.3517867507204416e+01 0.0000000000000000e+00  -2.8330744014898222e+01 -1.0708403736047835e+01 0.0000000000000000e+00  -2.8866235161130735e+01 -8.8164496001507722e+00 0.0000000000000000e+00  -2.9198820508394874e+01 -4.5175200500929718e+00 0.0000000000000000e+00  -2.9368823031257541e+01 -1.0298011506565756e+00 0.0000000000000000e+00  -2.9394100418558601e+01 -1.9321095227437357e-03 0.0000000000000000e+00  -2.9344749925309468e+01 -7.0167032263114821e+00 0.0000000000000000e+00  -2.9394081112395096e+01 1.9039539061817916e-03 0.0000000000000000e+00  -2.9151964831794878e+01 3.9060116582358112e-01 0.0000000000000000e+00  -2.9080620402071741e+01 3.5805768019513473e+00 0.0000000000000000e+00  -1.9940079008023023e+01 1.7836719686271902e+01 0.0000000000000000e+00  -2.0719224396229151e+01 1.7150290381314246e+01 0.0000000000000000e+00  -1.7850837073202349e+01 2.0072331190318597e+01 0.0000000000000000e+00  -1.7219796188103295e+01 1.9365437790692848e+01 0.0000000000000000e+00  -1.5677264378732065e+01 1.9155631106062099e+01 0.0000000000000000e+00  -1.4599674925176755e+01 1.7803437386214021e+01 0.0000000000000000e+00  -1.3431610169187197e+01 1.6465444346134824e+01 0.0000000000000000e+00  -1.2438333815106905e+01 1.5103742111866415e+01 0.0000000000000000e+00  -1.1229531671438188e+01 1.4120242865084773e+01 0.0000000000000000e+00  -1.0390265441464129e+01 1.2740499178028259e+01 0.0000000000000000e+00  -9.7213069995809072e+00 1.1359940172921881e+01 0.0000000000000000e+00  -8.9824091974427951e+00 1.0220405065276756e+01 0.0000000000000000e+00  -8.2867316222643446e+00 9.1691128199499889e+00 0.0000000000000000e+00  -7.6381888969226024e+00 8.2593683157265634e+00 0.0000000000000000e+00  -7.0002825878544872e+00 7.4367519407522424e+00 0.0000000000000000e+00  -6.4275852876432795e+00 6.6333795131610138e+00 0.0000000000000000e+00  -5.9277551836066067e+00 5.8906993586838015e+00 0.0000000000000000e+00  -5.4635452195670240e+00 5.1384217644084860e+00 0.0000000000000000e+00  -5.0598803396426932e+00 4.4432210418043621e+00 0.0000000000000000e+00  -4.7262369246710323e+00 3.7017903286848122e+00 0.0000000000000000e+00  -4.4259058005777394e+00 3.0982888328381613e+00 0.0000000000000000e+00  -4.1784670628970622e+00 2.3379707139225032e+00 0.0000000000000000e+00  -3.9813834014077467e+00 1.9450227465257386e+00 0.0000000000000000e+00  -3.8189443279302377e+00 1.0991177816319389e+00 0.0000000000000000e+00  -3.6848622653210268e+00 1.0215159362320327e+00 0.0000000000000000e+00  -3.5831888031197439e+00 2.2061452782636518e-01 0.0000000000000000e+00  -3.4796757890609191e+00 -1.9571801393314661e+00 0.0000000000000000e+00  -3.4383595008063086e+00 -4.3351605988798108e+00 0.0000000000000000e+00  -3.0482761843829191e+00 -5.0845178550750658e+00 0.0000000000000000e+00  -3.8686650790158761e+00 -4.5139811794104903e+00 0.0000000000000000e+00  -4.3471914743400468e+00 -5.3203310123418186e+00 0.0000000000000000e+00  -4.7817502325835246e+00 -5.4746784439716487e+00 0.0000000000000000e+00  -5.3388342650139968e+00 -6.1781471832411503e+00 0.0000000000000000e+00  -6.0255882557648919e+00 -6.7816530769925256e+00 0.0000000000000000e+00  -6.6317323227100333e+00 -7.3513841576955894e+00 0.0000000000000000e+00  -7.1510369084147971e+00 -7.6570292550818460e+00 0.0000000000000000e+00  -7.7977561077024591e+00 -8.1938262792592358e+00 0.0000000000000000e+00  -8.2924259675173726e+00 -8.2232690582157364e+00 0.0000000000000000e+00  -8.3186878917478904e+00 -7.0578761199482116e+00 0.0000000000000000e+00  -9.3454395038074978e+00 -7.2452523023761408e+00 0.0000000000000000e+00  -6.1880111001492120e+00 -1.1173374884589482e+00 0.0000000000000000e+00  -1.7270060297649135e+01 -1.6369172436192461e+01 0.0000000000000000e+00  -1.6910345656260692e+01 -1.4438115280160591e+01 0.0000000000000000e+00  -1.6933410835050196e+01 -1.3003271235265762e+01 0.0000000000000000e+00  -1.7390992057996677e+01 -1.2341461390690892e+01 0.0000000000000000e+00  -1.8234642156147800e+01 -1.2091687307167353e+01 0.0000000000000000e+00  -1.9366044562474769e+01 -1.2255645910342434e+01 0.0000000000000000e+00  -2.0691445405346784e+01 -1.2622802729808882e+01 0.0000000000000000e+00  -2.2119323396559043e+01 -1.3106256231043732e+01 0.0000000000000000e+00  -2.3560314205491721e+01 -1.3170509386680873e+01 0.0000000000000000e+00  -2.4938057660856227e+01 -1.3498451411376996e+01 0.0000000000000000e+00  -2.6187928717304420e+01 -1.2553239306643452e+01 0.0000000000000000e+00  -2.7257696351357669e+01 -1.2142387430738111e+01 0.0000000000000000e+00  -2.8112474492348746e+01 -9.6631380493723888e+00 0.0000000000000000e+00  -2.8743908611334515e+01 -8.1099536670611840e+00 0.0000000000000000e+00  -2.9147464406332592e+01 -4.0963730302027432e+00 0.0000000000000000e+00  -2.9362302086391697e+01 -8.8543805553944044e-01 0.0000000000000000e+00  -2