<?xml version="1.0"?>
<VTKFile type="UnstructuredGrid"  version="0.1"  >
<UnstructuredGrid>
<Piece  NumberOfPoints="1933" NumberOfCells="3640">
<Points>
<DataArray  type="Float64"  NumberOfComponents="3"  format="ascii">0.0002956688813633979 -0.002699320208505249 0  5.00029571451944 -0.002625022770818023 0  5.000184238468225 7.49737507586126 0  0.000184183065797705 7.497300764453284 0  10.00029579681078 -0.002550793390308643 0  10.00018432581178 7.497449303234193 0  15.00029595206462 -0.002476607715541682 0  15.00018445509252 7.497523483144614 0  20.00029620626885 -0.002402421522671547 0  20.00018463263855 7.497597663559539 0  25.00029657517762 -0.002328181706044386 0  25.00018486103091 7.497671898544434 0  30.0002970660909 -0.002253830879185389 0  30.0001851387166 7.497746245525138 0  35.00029767957256 -0.002179308995037287 0  35.00018545971134 7.497820764308419 0  40.00029841065639 -0.002104553480902851 0  40.00018581332634 7.497895517163982 0  45.00029924949047 -0.002029498583704632 0  45.00018618379865 7.497970569541573 0  50.00030018147152 -0.001954074246065708 0  50.00018654972497 7.498045991198638 0  55.00030118691877 -0.001878204641971854 0  55.00018688321632 7.498121857643953 0  60.00030224030271 -0.001801806393132193 0  60.00018714869525 7.498198251885339 0  65.0003033089999 -0.001724786416864528 0  65.00018730123703 7.498275266528131 0  70.00030435148169 -0.001647039298339022 0  70.00018728432866 7.498353006320071 0  75.00030531477785 -0.001568444018408581 0  75.00018702686681 7.498431591287546 0  80.0003061309372 -0.001488859789663424 0  80.00018643914314 7.49851116066609 0  85.00030671204904 -0.001408120643541775 0  85.00018540747332 7.498591877898877 0  90.00030694310122 -0.001326028252213559 0  90.00018378699242 7.498673937061075 0  95.000306671499 -0.001242342237137619 0  95.00018139198845 7.49875757115576 0  100.0003056912446 -0.001156766883572419 0  100.0001779829943 7.498843062781483 0  105.0003037183609 -0.001068932723810613 0  105.0001732497824 7.498930757594306 0  110.0003003515526 -0.0009783708863178892 0  110.0001667896379 7.499021080532508 0  115.0002950074213 -0.0008844775859718249 0  115.0001580813529 7.499114553379933 0  120.000286810919 -0.0007864662202597174 0  120.0001464584658 7.499211808651828 0  125.0002744058267 -0.0006833069843025954 0  125.0001310930369 7.499313586280135 0  130.0002556206107 -0.0005736637988597686 0  130.0001110192652 7.49942068050375 0  135.0002268706228 -0.0004558705530521309 0  135.0000852661828 7.499533763825075 0  140.0001820765771 -0.0003280899019455719 0  140.0000532543576 7.49965293574561 0  145.0001106859969 -0.0001891328506162863 0  145.000015793484 7.499776721825329 0  149.9999939700827 -4.165749466159869e-05 0  149.9999774188576 7.499900246866598 0  159.9999999999994 1.217827839637877e-18 0  165.0000030993596 -4.381132162340315e-05 0  165.0000018853891 7.499942774849584 0  159.9999930678158 7.499969045148211 0  170.0000230860409 -5.609748499215804e-05 0  170.0000104099373 7.499937529321309 0  175.0000485833074 -4.671116063147185e-05 0  175.0000204883658 7.499950151887475 0  180.0000746122435 -2.186524911637179e-05 0  180.0000318165535 7.499976592100588 0  185.0000990736425 1.420335581568127e-05 0  185.0000437002246 7.500013472662371 0  190.0001211953195 5.85316495444111e-05 0  190.0000555359199 7.500058221106046 0  195.0001408112187 0.0001090188405381351 0  195.0000669046677 7.500108926984694 0  200.0001580204238 0.0001641555723538389 0  200.0000775527474 7.500164177090403 0  205.0001730258898 0.0002228415622281428 0  205.0000873484363 7.500222920725032 0  210.0001860593986 0.0002842623707674835 0  210.0000962420917 7.500284369412888 0  215.0001973479996 0.000347805826559985 0  215.00010423587 7.500347924767602 0  220.0002071002949 0.0004130048991766631 0  220.0001113626809 7.500413127182314 0  225.0002155020717 0.0004794981905843337 0  225.0001176722685 7.500479619318125 0  230.0002227162011 0.0005470022164770215 0  230.0001232223402 7.500547119948377 0  235.0002288843621 0.0006152916520570648 0  235.0001280731098 7.500615405030245 0  240.0002341294309 0.0006841850293951442 0  240.0001322840872 7.500684293845483 0  245.00023855802 0.0007535342269074504 0  245.0001359123295 7.50075363873307 0  250.0002422629358 0.000823216647183184 0  250.0001390116266 7.500823317403994 0  255.0002453254965 0.0008931293450921242 0  255.0001416322893 7.500893227149376 0  260.0002478176925 0.0009631846143133146 0  260.0001438213111 7.500963280475058 0  265.0002498042401 0.001033306713232133 0  265.0001456227666 7.501033401855209 0  270.0002513445459 0.001103429541672994 0  270.0001470783461 7.501103525418134 0  275.0002524946484 0.001173495190855175 0  275.0001482279453 7.501173593477736 0  280.0002533091376 0.00124345339929774 0  280.0001491102469 7.501243555917347 0  285.0002538430506 0.001313262075751993 0  285.0001497632189 7.501313370529891 0  290.0002541535898 0.001382889216897176 0  290.0001502244417 7.501383004524507 0  295.0002543013521 0.001452316770390168 0  295.0001505312133 7.501452437524164 0  300.0002543502574 0.001521547263281313 0  300.0001507204282 7.501521666483684 0  305.0002543644798 0.001590614172073027 0  305.0001508285607 7.501590713030506 0  310.0002543987397 0.00165959617579847 0  310.0001508928627 7.501659633911418 0  5.000072631225216 14.99737527464757 0  7.257910305291659e-05 14.99730096816587 0  10.00007269349935 14.99744947147559 0  15.00007276879953 14.99752361731938 0  20.00007285488569 14.9975977670688 0  25.00007294654007 14.99767197586579 0  30.00007303583859 14.99774630015654 0  35.00007311176871 14.99782079817016 0  40.00007315963144 14.99789553049723 0  45.00007316034494 14.99797056091148 0  50.00007308964778 14.99804595743965 0  55.0000729171598 14.99812179366869 0  60.00007260524496 14.99819815029783 0  65.00007210762072 14.9982751169663 0  70.00007136765475 14.99835279440868 0  75.00007031630265 14.99843129700696 0  80.00006886965275 14.99851075581451 0  85.00006692609757 14.99859132211343 0  90.0000643632505 14.9986731715094 0  95.00006103493989 14.9987565084187 0  100.0000567690088 14.9988415704664 0  105.0000513674001 14.9989286316106 0  110.0000446113095 14.99901800139662 0  115.000036276426 14.99911001500936 0  120.0000261668413 14.99920500365998 0  125.0000141814204 14.99930322557032 0  130.000000432789 14.99940472189722 0  134.9999854434121 14.99950903671493 0  139.999970434752 14.99961470555188 0  144.9999576739969 14.99971838104969 0  149.9999506682251 14.99981343212481 0  164.9999755663997 14.99990570657331 0  159.9999696385399 14.99990030091689 0  169.9999783692728 14.99991828281679 0  174.9999806083762 14.99994045042781 0  179.9999833758878 14.99997192925843 0  184.9999869281205 15.00001144930056 0  189.9999911563314 15.00005756526867 0  194.9999958346436 15.00010896407333 0  200.0000007321813 15.00016454928022 0  205.0000056554788 15.00022343879526 0  210.0000104584059 15.00028493429699 0  215.0000150386267 15.00034848582229 0  220.000019329639 15.00041365986226 0  225.0000232923735 15.00048011315985 0  230.0000269078708 15.00054757206685 0  235.0000301714457 15.00061581658755 0  240.0000330882559 15.00068466813695 0  245.0000356700533 15.00075398016261 0  250.0000379328681 15.00082363095366 0  255.0000398953898 15.00089351812322 0  260.0000415778693 15.00096355438977 0  265.0000430013834 15.00103366439172 0  270.0000441873554 15.00110378235989 0  275.0000451572483 15.00117385054246 0  280.0000459323547 15.00124381833585 0  285.0000465336925 15.0013136421187 0  290.0000469819924 15.00138328580578 0  295.0000472979442 15.00145272211157 0  300.0000475029759 15.00152193439447 0  305.0000476211841 15.0015909186561 0  310.0000476835075 15.00165968465724 0  4.999961041597992 22.4973756061391 0  -3.900530947220648e-05 22.49730137727849 0  9.999961081472518 22.49744972377019 0  14.99996110996007 22.49752379542785 0  19.99996112045407 22.49759787855877 0  24.99996110437565 22.49767202761421 0  29.99996105123608 22.49774629665102 0  34.9999609483621 22.49782074078181 0  39.9999607804225 22.49789541717851 0  44.99996052885982 22.49797038597224 0  49.99996017127967 22.4980457111973 0  54.99995968081323 22.49812146183566 0  59.99995902546293 22.49819771298234 0  64.99995816744958 22.4982745471353 0  69.99995706260248 22.49835205559694 0  74.99995565988446 22.49843033994971 0  79.99995390121052 22.49850951351598 0  84.99995172184194 22.49858970261686 0  89.99994905181832 22.4986710472708 0  94.9999458191694 22.49875370066614 0  99.99994195606101 22.49883782621167 0  104.9999374096077 22.49892359007872 0  109.9999321598315 22.49901114568559 0  114.9999262480655 22.49910060427468 0  119.999919819653 22.49919198231736 0  124.9999131842346 22.49928511193846 0  129.9999068933866 22.49937949583696 0  134.9999018253753 22.49947408709368 0  139.9998992446496 22.49956698784675 0  144.9999007629097 22.49965511771443 0  149.9999080709856 22.4997340770688 0  164.9999272657132 22.49986268587567 0  159.9999244449133 22.49983483113575 0  169.9999273323702 22.49989171136428 0  174.9999260516809 22.49992483122095 0  179.9999244965483 22.49996321454211 0  184.999923277695 22.50000694487871 0  189.9999226511827 22.50005556566976 0  194.9999226574272 22.50010841848678 0  199.9999232265202 22.50016482061086 0  204.9999242441914 22.50022414523324 0  209.9999255884033 22.50028584961702 0  214.999927147284 22.50034947803455 0  219.9999288262856 22.50041465389225 0  224.9999305496164 22.50048106826493 0  229.9999322589232 22.50054846819682 0  234.9999339108821 22.50061664615069 0  239.9999354745509 22.50068543103377 0  244.9999369288921 22.50075468079977 0  249.9999382606209 22.50082427645922 0  254.9999394624204 22.50089411728661 0  259.999940531485 22.50096411702407 0  264.9999414683617 22.50103420091061 0  269.9999422760253 22.50110430340096 0  274.9999429591624 22.50117436646599 0  279.999943523638 22.50124433838336 0  284.9999439761734 22.50131417292155 0  289.9999443242957 22.50138382877847 0  294.9999445767228 22.50145326903234 0  299.99994
[...]
<PointData  Vectors="v"> 
<DataArray  type="Float64"  Name="v"  NumberOfComponents="3" format="ascii">-1.5827834301613295e+00 5.7324375280862805e+00 0.0000000000000000e+00  -1.1483348782929812e+00 5.5744993219725893e+00 0.0000000000000000e+00  -8.4753020739154428e-01 4.9230008566307459e+00 0.0000000000000000e+00  -1.1794831193578295e+00 5.2351451322002402e+00 0.0000000000000000e+00  -5.6820925419362811e-01 6.2509187166286830e+00 0.0000000000000000e+00  -4.1331004020137380e-01 5.3815877309612778e+00 0.0000000000000000e+00  4.7034279653315981e-03 7.3343889925618724e+00 0.0000000000000000e+00  1.6585708270496230e-01 6.4762737682293388e+00 0.0000000000000000e+00  5.6225176442316716e-01 7.9674978985354654e+00 0.0000000000000000e+00  7.3721711663482792e-01 7.1332367475728278e+00 0.0000000000000000e+00  1.2344261785373385e+00 9.0274694563668856e+00 0.0000000000000000e+00  1.2925169662649234e+00 8.0220113577293439e+00 0.0000000000000000e+00  1.8123540510601757e+00 9.7138587026443322e+00 0.0000000000000000e+00  1.9613687934827622e+00 8.8503598829179442e+00 0.0000000000000000e+00  1.9675254483240070e+00 9.8115777013390897e+00 0.0000000000000000e+00  2.5351368552403311e+00 9.5832622364199178e+00 0.0000000000000000e+00  2.9462783733262539e+00 1.1022741968935843e+01 0.0000000000000000e+00  2.6852616669384717e+00 9.5599011075369980e+00 0.0000000000000000e+00  -1.4337655027602458e-01 6.1458454348518492e+00 0.0000000000000000e+00  3.6576643590290003e+00 1.0786515941397145e+01 0.0000000000000000e+00  9.4307630212316216e+00 2.0006949647167250e+01 0.0000000000000000e+00  5.6065028798745498e-01 5.6524454458022344e+00 0.0000000000000000e+00  8.3840151251356314e+00 1.7487304741679704e+01 0.0000000000000000e+00  1.0127201638420802e+01 1.9065382529719450e+01 0.0000000000000000e+00  8.2543386962804544e+00 1.6258762662002567e+01 0.0000000000000000e+00  9.0711494309997391e+00 1.6463244190990995e+01 0.0000000000000000e+00  8.7902660614186470e+00 1.6036635158528640e+01 0.0000000000000000e+00  8.9298222075090337e+00 1.5244735784388361e+01 0.0000000000000000e+00  9.8591891901672550e+00 1.6625276183246633e+01 0.0000000000000000e+00  9.4519812358367314e+00 1.5036207305989780e+01 0.0000000000000000e+00  1.1285531942880052e+01 1.7688278621480418e+01 0.0000000000000000e+00  1.0503981318844126e+01 1.5564582457492969e+01 0.0000000000000000e+00  1.2976831764276493e+01 1.9009549897340467e+01 0.0000000000000000e+00  1.1911154327999048e+01 1.6491156845590869e+01 0.0000000000000000e+00  1.4849539432285754e+01 2.0602468917931340e+01 0.0000000000000000e+00  1.3581001839089918e+01 1.7814245422748751e+01 0.0000000000000000e+00  1.6820051119552602e+01 2.2089486636741146e+01 0.0000000000000000e+00  1.5428641544411073e+01 1.9156285398472434e+01 0.0000000000000000e+00  1.8818903313742094e+01 2.3487378379512158e+01 0.0000000000000000e+00  1.7371912645102014e+01 2.0515014454164326e+01 0.0000000000000000e+00  2.0781876517658610e+01 2.4644500758494630e+01 0.0000000000000000e+00  1.9340351275086139e+01 2.1727985104030278e+01 0.0000000000000000e+00  2.2633379462054556e+01 2.5475545391532453e+01 0.0000000000000000e+00  2.1269784741288930e+01 2.2729184586813531e+01 0.0000000000000000e+00  2.4312848070102667e+01 2.5588497686432859e+01 0.0000000000000000e+00  2.3083750203966364e+01 2.3102221600656659e+01 0.0000000000000000e+00  2.5779417418191482e+01 2.5523410531555342e+01 0.0000000000000000e+00  2.4724632968086436e+01 2.3361338214013244e+01 0.0000000000000000e+00  2.6984412358465214e+01 2.4072408772093940e+01 0.0000000000000000e+00  2.6145144445060954e+01 2.2301400327223845e+01 0.0000000000000000e+00  2.7930069562754799e+01 2.2622381941589413e+01 0.0000000000000000e+00  2.7306789141802625e+01 2.1249886687696478e+01 0.0000000000000000e+00  2.8598769899411046e+01 1.9184004226706058e+01 0.0000000000000000e+00  2.8196784271023262e+01 1.8219730222283598e+01 0.0000000000000000e+00  2.9041097336403979e+01 1.5795245496179312e+01 0.0000000000000000e+00  2.8819108099264852e+01 1.5187930324267857e+01 0.0000000000000000e+00  2.9266163522573645e+01 1.0276390152605240e+01 0.0000000000000000e+00  2.9194246518008171e+01 9.9772956579395959e+00 0.0000000000000000e+00  2.9368171431315336e+01 3.7260787152615835e+00 0.0000000000000000e+00  2.9372091350969605e+01 3.6420322661249132e+00 0.0000000000000000e+00  2.9389264413096477e+01 1.2411339552096071e-05 0.0000000000000000e+00  2.9389462128767533e+01 2.2004870399161230e-04 0.0000000000000000e+00  2.9389262614613109e+01 -1.0006498130320407e-19 0.0000000000000000e+00  2.1019974012926021e+01 -1.1523700200337123e+01 0.0000000000000000e+00  2.9366937742620653e+01 9.9256970565836877e-01 0.0000000000000000e+00  2.9389455238905025e+01 -1.8668003586570016e-04 0.0000000000000000e+00  2.0626457545148888e+01 -2.0688757107313126e+01 0.0000000000000000e+00  2.1049088587743181e+01 -2.0165883464189015e+01 0.0000000000000000e+00  1.7603219911205333e+01 -2.7675234548323040e+01 0.0000000000000000e+00  2.0715029938373227e+01 -2.3181713919367205e+01 0.0000000000000000e+00  1.6453210037122421e+01 -2.9094583870889675e+01 0.0000000000000000e+00  1.7749206386272725e+01 -2.7420721481546117e+01 0.0000000000000000e+00  1.4659231205509839e+01 -3.0535410104032419e+01 0.0000000000000000e+00  1.6652721746438953e+01 -2.7889309546314788e+01 0.0000000000000000e+00  1.3286504458003282e+01 -2.9727638499857608e+01 0.0000000000000000e+00  1.4909838616002066e+01 -2.7714288836696117e+01 0.0000000000000000e+00  1.1900320784206414e+01 -2.8674528953544939e+01 0.0000000000000000e+00  1.3587685527377785e+01 -2.6637257766192324e+01 0.0000000000000000e+00  1.0684432224165198e+01 -2.6782155185841745e+01 0.0000000000000000e+00  1.2249148277454299e+01 -2.5000997733070779e+01 0.0000000000000000e+00  9.3149558404284001e+00 -2.4940041530609392e+01 0.0000000000000000e+00  1.1079503768097771e+01 -2.2926174996645496e+01 0.0000000000000000e+00  8.2859708676274586e+00 -2.2728968577496698e+01 0.0000000000000000e+00  9.7552637843620165e+00 -2.1225013826388015e+01 0.0000000000000000e+00  7.4115525532074331e+00 -2.0646962037762872e+01 0.0000000000000000e+00  8.7699130970810799e+00 -1.9374028926370023e+01 0.0000000000000000e+00  6.4817072619835523e+00 -1.8850487694968699e+01 0.0000000000000000e+00  7.9379641024837939e+00 -1.7493466427766229e+01 0.0000000000000000e+00  5.6154751910981631e+00 -1.7207902168155595e+01 0.0000000000000000e+00  7.0498410869738422e+00 -1.5945260531428012e+01 0.0000000000000000e+00  4.8151033188816212e+00 -1.5763376409744614e+01 0.0000000000000000e+00  6.2241488679405430e+00 -1.4599001676394753e+01 0.0000000000000000e+00  4.0567833133292055e+00 -1.4441476958002276e+01 0.0000000000000000e+00  5.4634044983761330e+00 -1.3339331544419888e+01 0.0000000000000000e+00  3.3802619048102356e+00 -1.3178402884714236e+01 0.0000000000000000e+00  4.7440216809702038e+00 -1.2198244214851920e+01 0.0000000000000000e+00  2.7872312994333646e+00 -1.2006700456848492e+01 0.0000000000000000e+00  4.1055812240633207e+00 -1.1151262272135911e+01 0.0000000000000000e+00  2.2449541975863978e+00 -1.0876071455665347e+01 0.0000000000000000e+00  3.5498808088770453e+00 -1.0096201442854495e+01 0.0000000000000000e+00  1.7710976560955043e+00 -9.7714036632968462e+00 0.0000000000000000e+00  3.0444411607444088e+00 -9.0935602251141638e+00 0.0000000000000000e+00  1.3681875700712720e+00 -8.7130084806127570e+00 0.0000000000000000e+00  2.6066930198363445e+00 -8.1412965916639344e+00 0.0000000000000000e+00  1.0097202449069198e+00 -7.6574273478110531e+00 0.0000000000000000e+00  2.2395107312995322e+00 -7.1517786367083760e+00 0.0000000000000000e+00  7.0669995799418828e-01 -6.6342268680855909e+00 0.0000000000000000e+00  1.9160854015530058e+00 -6.2116334868638203e+00 0.0000000000000000e+00  4.6305104859728946e-01 -5.6261228799560552e+00 0.0000000000000000e+00  1.6481000139975879e+00 -5.2918040333984546e+00 0.0000000000000000e+00  2.6064495229538304e-01 -4.6566965646544141e+00 0.0000000000000000e+00  1.4382986675752056e+00 -4.3847577847966805e+00 0.0000000000000000e+00  1.0813260975292270e-01 -3.6871448210562741e+00 0.0000000000000000e+00  1.2707846893711841e+00 -3.4883036079402960e+00 0.0000000000000000e+00  -1.6413228898240610e-03 -2.8495843747276752e+00 0.0000000000000000e+00  1.1504862734302057e+00 -2.7170970899163476e+00 0.0000000000000000e+00  -7.0852276592986735e-02 -1.9653124119223369e+00 0.0000000000000000e+00  1.0764981155690689e+00 -1.8892717610005114e+00 0.0000000000000000e+00  -1.3772216278384822e-01 -1.3322808925992586e+00 0.0000000000000000e+00  1.0363338116189067e+00 -1.2664962848013299e+00 0.0000000000000000e+00  -2.0979924742425632e-01 -7.1162213513696360e-01 0.0000000000000000e+00  1.0098586469452939e+00 -6.2562682539574355e-01 0.0000000000000000e+00  -3.7206768078769820e-01 1.7149146681359284e-01 0.0000000000000000e+00  9.5393461251964284e-01 3.6863920186241877e-01 0.0000000000000000e+00  -1.2846621480886683e-01 4.4242324836138573e+00 0.0000000000000000e+00  -4.8798526430615502e-01 4.6978774559651129e+00 0.0000000000000000e+00  2.0472149207688187e-01 4.7294817728966940e+00 0.0000000000000000e+00  6.3999713656054247e-01 5.6073011626258387e+00 0.0000000000000000e+00  1.2194354743634286e+00 6.2765315613048358e+00 0.0000000000000000e+00  1.7899992173378358e+00 7.1898248592048954e+00 0.0000000000000000e+00  2.3434436074366070e+00 7.8489216082888404e+00 0.0000000000000000e+00  3.0088886701802720e+00 8.7255808862135495e+00 0.0000000000000000e+00  3.5773268654851109e+00 9.3382994074841026e+00 0.0000000000000000e+00  3.7205184330681749e+00 9.3331556900076471e+00 0.0000000000000000e+00  4.6835009994266219e+00 1.0305021101328929e+01 0.0000000000000000e+00  1.5759816740432722e+00 4.7191176816896521e+00 0.0000000000000000e+00  1.1136371319300677e+01 1.8050940064717761e+01 0.0000000000000000e+00  1.0073185956467656e+01 1.5464194976114364e+01 0.0000000000000000e+00  9.9189980548663357e+00 1.4261685796791845e+01 0.0000000000000000e+00  1.0424438348692206e+01 1.3999616595090290e+01 0.0000000000000000e+00  1.1453995797720838e+01 1.4396011941681733e+01 0.0000000000000000e+00  1.2833898890127269e+01 1.5326877879516100e+01 0.0000000000000000e+00  1.4472369793616593e+01 1.6406289921246497e+01 0.0000000000000000e+00  1.6283015109528137e+01 1.7624793822356981e+01 0.0000000000000000e+00  1.8183741757273101e+01 1.8801480469324336e+01 0.0000000000000000e+00  2.0105202163084186e+01 1.9866962715525776e+01 0.0000000000000000e+00  2.1980358971700586e+01 2.0415423976544876e+01 0.0000000000000000e+00  2.3734287393383291e+01 2.0938982829700059e+01 0.0000000000000000e+00  2.5308019398082713e+01 2.0211808767292524e+01 0.0000000000000000e+00  2.6655330287964841e+01 1.9558280122124884e+01 0.0000000000000000e+00  2.7733163735863211e+01 1.6929023530669344e+01 0.0000000000000000e+00  2.8538721251761817e+01 1.4322474160752515e+01 0.0000000000000000e+00  2.9056800535763859e+01 9.4547046238997119e+00 0.0000000000000000e+00  2.9341388601316655e+01 3.4700548167801202e+00 0.0000000000000000e+00  2.9389936834652918e+01 4.1939450320868670e-04 0.0000000000000000e+00  2.9328731940340596e+01 1.1522660362736932e+00 0.0000000000000000e+00  2.9389927438728549e+01 -3.6698226360244664e-04 0.0000000000000000e+00  2.9172621077277025e+01 -7.7083446675007155e+00 0.0000000000000000e+00  2.0919514899028837e+01 -2.2732792937399882e+01 0.0000000000000000e+00  2.0666292573567603e+01 -2.3013941841409284e+01 0.0000000000000000e+00  1.7768755605993245e+01 -2.6285656754617268e+01 0.0000000000000000e+00  1.6738102281558405e+01 -2.5132537298681026e+01 0.0000000000000000e+00  1.5051601742732929e+01 -2.4689587869991701e+01 0.0000000000000000e+00  1.3785095874409626e+01 -2.3023177847256186e+01 0.0000000000000000e+00  1.2496472428148616e+01 -2.1200199187652053e+01 0.0000000000000000e+00  1.1373958171645189e+01 -1.9266331178141456e+01 0.0000000000000000e+00  1.0094680054720287e+01 -1.7922109914951314e+01 0.0000000000000000e+00  9.1522592557056033e+00 -1.6270102615116148e+01 0.0000000000000000e+00  8.3612329261799783e+00 -1.4637556959753983e+01 0.0000000000000000e+00  7.5130693793283294e+00 -1.3383752040986314e+01 0.0000000000000000e+00  6.7257925721750471e+00 -1.2220498940739581e+01 0.0000000000000000e+00  6.0020127700448498e+00 -1.1141090065132282e+01 0.0000000000000000e+00  5.3185800284805449e+00 -1.0214665315830855e+01 0.0000000000000000e+00  4.7148757111095723e+00 -9.2829360696277643e+00 0.0000000000000000e+00  4.1927567982186860e+00 -8.3552850240108185e+00 0.0000000000000000e+00  3.7200414044203969e+00 -7.5040072879876556e+00 0.0000000000000000e+00  3.3141364630862147e+00 -6.6196375303498689e+00 0.0000000000000000e+00  2.9778782592411583e+00 -5.7450420650016190e+00 0.0000000000000000e+00  2.6848492529249590e+00 -4.9075409359341071e+00 0.0000000000000000e+00  2.4463786500668272e+00 -4.0880002349434843e+00 0.0000000000000000e+00  2.2657849479324863e+00 -3.2535941916061168e+00 0.0000000000000000e+00  2.1263541925619047e+00 -2.5548015320428825e+00 0.0000000000000000e+00  2.0346167380468261e+00 -1.7925646674350491e+00 0.0000000000000000e+00  1.9866658738985619e+00 -1.2262820660191578e+00 0.0000000000000000e+00  1.9750947611818155e+00 -5.9607401226352141e-01 0.0000000000000000e+00  1.9726092039558185e+00 4.3078672306964672e-01 0.0000000000000000e+00  1.1211642561399671e+00 3.8830685375920559e+00 0.0000000000000000e+00  7.9968529074483707e-01 4.2187119111657543e+00 0.0000000000000000e+00  1.4837278174508512e+00 4.2268189787956763e+00 0.0000000000000000e+00  1.8215627760149420e+00 4.9521403908642316e+00 0.0000000000000000e+00  2.2603982331228649e+00 5.4057235166520563e+00 0.0000000000000000e+00  2.8426182447880501e+00 6.3334029947977273e+00 0.0000000000000000e+00  3.4145082767040984e+00 7.0199918599767575e+00 0.0000000000000000e+00  3.9666781126620876e+00 7.7302579424059257e+00 0.0000000000000000e+00  4.6283243703955881e+00 8.4909328709166196e+00 0.0000000000000000e+00  5.1896500888015575e+00 9.1267625294178814e+00 0.0000000000000000e+00  5.3212263403824149e+00 8.8716429729962254e+00 0.0000000000000000e+00  6.2690860545301508e+00 9.3920428162274199e+00 0.0000000000000000e+00  3.1502705224735665e+00 3.7140048278307591e+00 0.0000000000000000e+00  1.2709691888123629e+01 1.7061099866784087e+01 0.0000000000000000e+00  1.1644481284904314e+01 1.4503695388523935e+01 0.0000000000000000e+00  1.1477735015678082e+01 1.3258541165099656e+01 0.0000000000000000e+00  1.1960643481721148e+01 1.2875300814421948e+01 0.0000000000000000e+00  1.2958544042707643e+01 1.3287455842255190e+01 0.0000000000000000e+00  1.4298123979744650e+01 1.3985547315488287e+01 0.0000000000000000e+00  1.5886541990206496e+01 1.4951943251133480e+01 0.0000000000000000e+00  1.7638243711417243e+01 1.6000751872426594e+01 0.0000000000000000e+00  1.9470673941818106e+01 1.7043489758846434e+01 0.0000000000000000e+00  2.1311618245193532e+01 1.7667645716043921e+01 0.0000000000000000e+00  2.3095986118416437e+01 1.8385389760090604e+01 0.0000000000000000e+00  2.4744301455275405e+01 1.7933620987624817e+01 0.0000000000000000e+00  2.6201186183351627e+01 1.7636974391173549e+01 0.0000000000000000e+00  2.7411872012446722e+01 1.5410666687710185e+01 0.0000000000000000e+00  2.8346113210634645e+01 1.3245987120514380e+01 0.0000000000000000e+00  2.8977500418350971e+01 8.7782494499025088e+00 0.0000000000000000e+00  2.9334384801014295e+01 3.2281275458222263e+00 0.0000000000000000e+00  2.9390679429610632e+01 6.0082413064668002e-04 0.0000000000000000e+00  2.9304669928265863e+01 1.4651550144915577e+00 0.0000000000000000e+00  2.9390670961995813e+01 -5.2567436167771952e-04 0.0000000000000000e+00  2.8937329961312077e+01 -7.4163938355226717e+00 0.0000000000000000e+00  2.8768878802086913e+01 -1.0433676074804998e+01 0.0000000000000000e+00  2.0627854732534704e+01 -2.2735323073947267e+01 0.0000000000000000e+00  2.0505108223663811e+01 -2.2020047412658425e+01 0.0000000000000000e+00  1.7717124663537195e+01 -2.3666375761369530e+01 0.0000000000000000e+00  1.6784908433509063e+01 -2.2224947847840347e+01 0.0000000000000000e+00  1.5184174125267745e+01 -2.1186200572065907e+01 0.0000000000000000e+00  1.3996810238095236e+01 -1.9323310115245150e+01 0.0000000000000000e+00  1.2778695393788125e+01 -1.7634934773650937e+01 0.0000000000000000e+00  1.1722283020628348e+01 -1.6051964042637923e+01 0.0000000000000000e+00  1.0504636638641381e+01 -1.4903386124681239e+01 0.0000000000000000e+00  9.6207260790960962e+00 -1.3495606479837317e+01 0.0000000000000000e+00  8.8859995391088873e+00 -1.2154655795023304e+01 0.0000000000000000e+00  8.0920979313386088e+00 -1.1081223512418795e+01 0.0000000000000000e+00  7.3568314629147373e+00 -1.0095400766876315e+01 0.0000000000000000e+00  6.6831690808632649e+00 -9.2279949795970406e+00 0.0000000000000000e+00  6.0478542080650017e+00 -8.4145876319041495e+00 0.0000000000000000e+00  5.4903586001113664e+00 -7.6078568878007529e+00 0.0000000000000000e+00  5.0127290281251566e+00 -6.8295804667863385e+00 0.0000000000000000e+00  4.5829758180151376e+00 -6.0442387948038583e+00 0.0000000000000000e+00  4.2184182432470774e+00 -5.2733235630672501e+00 0.0000000000000000e+00  3.9224405357024468e+00 -4.4993462617689284e+00 0.0000000000000000e+00  3.6681224535457702e+00 -3.7615612817640418e+00 0.0000000000000000e+00  3.4678280686767624e+00 -3.0119241445010672e+00 0.0000000000000000e+00  3.3233458023610307e+00 -2.3762536243564760e+00 0.0000000000000000e+00  3.2206419385678529e+00 -1.6809526725575756e+00 0.0000000000000000e+00  3.1613663240705994e+00 -1.1862467023374270e+00 0.0000000000000000e+00  3.1508458656785461e+00 -5.9867076266253294e-01 0.0000000000000000e+00  3.1626365549301036e+00 4.0084098509688998e-01 0.0000000000000000e+00  2.4343797582017292e+00 3.3980885804588166e+00 0.0000000000000000e+00  2.1489800705431490e+00 3.7947956469275339e+00 0.0000000000000000e+00  2.7602822875277502e+00 3.6781448496110527e+00 0.0000000000000000e+00  3.1307530374818553e+00 4.4393441963465383e+00 0.0000000000000000e+00  3.4773984265853310e+00 4.7414446885676789e+00 0.0000000000000000e+00  3.9251681494138153e+00 5.4547684286590048e+00 0.0000000000000000e+00  4.5150826083239775e+00 6.1578502267438759e+00 0.0000000000000000e+00  5.0928258423788106e+00 6.8998654230020042e+00 0.0000000000000000e+00  5.6478951010165055e+00 7.4990674183315784e+00 0.0000000000000000e+00  6.3081039438422026e+00 8.2886619298163051e+00 0.0000000000000000e+00  6.8626329865793911e+00 8.6828164406343262e+00 0.0000000000000000e+00  6.9823921691776434e+00 7.9805187768328869e+00 0.0000000000000000e+00  7.9175029195325672e+00 8.3967568130913968e+00 0.0000000000000000e+00  4.7984064239357487e+00 2.7120011413350942e+00 0.0000000000000000e+00  1.4375892546968071e+01 1.6089800154751646e+01 0.0000000000000000e+00  1.3325778018787069e+01 1.3508274844109748e+01 0.0000000000000000e+00  1.3158959457105194e+01 1.2159842876250725e+01 0.0000000000000000e+00  1.3628739773226391e+01 1.1809526484388229e+01 0.0000000000000000e+00  1.4599383812513560e+01 1.2002653747520315e+01 0.0000000000000000e+00  1.5900385580319751e+01 1.2605308138869853e+01 0.0000000000000000e+00  1.7438040995257253e+01 1.3417472646980437e+01 0.0000000000000000e+00  1.9125933271177246e+01 1.4348823019030597e+01 0.0000000000000000e+00  2.0880582022887591e+01 1.4970178591403542e+01 0.0000000000000000e+00  2.2629388109459558e+01 1.5787306618540594e+01 0.0000000000000000e+00  2.4301265001695146e+01 1.5547910718797235e+01 0.0000000000000000e+00  2.5821374700082405e+01 1.5562002524422370e+01 0.0000000000000000e+00  2.7122271043773761e+01 1.3706518275525749e+01 0.0000000000000000e+00  2.8164090070769220e+01 1.1998303542465605e+01 0.0000000000000000e+00  2.8887605816887596e+01 7.9548291080818849e+00 0.0000000000000000e+00  2.9316850145994181e+01 2.9190797438317393e+00 0.0000000000000000e+00  2.9391662364703041e+01 7.6339606113055825e-04 0.0000000000000000e+00  2.9281464375485175e+01 1.8886771848027579e+00 0.0000000000000000e+00  2.9391654565457589e+01 -6.6699981172843657e-04 0.0000000000000000e+00  2.8785566901693567e+01 -6.6930953448355561e+00 0.0000000000000000e+00  2.8260993653271175e+01 -1