<?xml version="1.0"?>
<VTKFile type="UnstructuredGrid"  version="0.1"  >
<UnstructuredGrid>
<Piece  NumberOfPoints="1933" NumberOfCells="3640">
<Points>
<DataArray  type="Float64"  NumberOfComponents="3"  format="ascii">-0.2935468406503615 -0.003112563214769234 0  4.706453209670464 -0.003025650173193622 0  4.70632280282961 7.496974456124961 0  -0.2936772564947631 7.496887530905926 0  9.706453301671898 -0.002938808718340192 0  9.706322895191898 7.497061293867667 0  14.70645347354887 -0.002852007239829212 0  14.70632303007139 7.497148088285019 0  19.70645375119345 -0.002765194341418719 0  19.70632321275107 7.497234894472669 0  24.70645414893241 -0.002678310267578315 0  24.70632344420479 7.497321773028489 0  29.70645467173717 -0.002591291516710603 0  29.7063237207011 7.497408787383431 0  34.70645531717825 -0.002504072323733542 0  34.70632403349806 7.497496002975133 0  39.70645607672566 -0.002416584616963062 0  39.70632436854288 7.497583487504646 0  44.70645693638748 -0.002328757185861669 0  44.70632470604557 7.497671311823737 0  49.70645787676528 -0.002240514392203971 0  49.70632501982021 7.49775955122018 0  54.70645887259015 -0.002151774553308211 0  54.70632527630754 7.497848287007096 0  59.7064598917588 -0.002062448013215297 0  59.70632543319508 7.497937608409051 0  64.70646089383662 -0.001972434845010189 0  64.70632543752902 7.498027614797993 0  69.70646182792339 -0.001881622067778319 0  69.7063252231798 7.498118418382331 0  74.70646262970109 -0.001789880198021183 0  74.70632470746638 7.4982101475025 0  79.70646321735198 -0.001697058873632426 0  79.70632378666483 7.498302950745687 0  84.70646348585717 -0.001602981173935586 0  84.70632233002533 7.498397002163845 0  89.70646329887033 -0.0015074360931305 0  89.70632017178103 7.498492507963131 0  94.70646247685639 -0.001410168383040015 0  94.70631710046695 7.49858971511641 0  99.70646077928072 -0.001310864636783094 0  99.70631284471386 7.498688922390436 0  104.7064578770702 -0.001209134018546022 0  104.7063070546073 7.49879049416329 0  109.7064533087245 -0.001104481483222754 0  109.7062992779856 7.498894876859117 0  114.7064464083224 -0.0009962708617524609 0  114.7062889322515 7.499002616219678 0  119.7064361842296 -0.0008836754774633454 0  119.7062752757128 7.499114369564024 0  124.7064211099515 -0.000765617004086408 0  124.7062573910562 7.49923089765634 0  129.7063987565334 -0.0006407048158930714 0  129.7062342133758 7.499352999583914 0  134.7063651368742 -0.0005072248190246374 0  134.7062046789 7.499481309167359 0  139.7063135230811 -0.0003633407041595294 0  139.7061681639361 7.499615784135317 0  144.7062322900657 -0.0002080438565752992 0  144.7061255806356 7.499754584765899 0  149.7061008951286 -4.475794278578763e-05 0  149.7060819273893 7.499892034607483 0  159.7061073738531 1.12627265015409e-18 0  164.7061174775026 -4.088459027994486e-05 0  164.7061109087082 7.499945246771619 0  159.7060988967756 7.499968169703224 0  169.7061438311366 -4.731505053295989e-05 0  169.7061226232552 7.499946125189588 0  174.7061748725745 -3.007549805954861e-05 0  174.7061357533619 7.499966733769904 0  179.7062056335157 3.99084705066463e-06 0  179.7061499142978 7.500002453680221 0  184.7062340983227 5.02299337701922e-05 0  184.7061643710211 7.500049528501929 0  189.7062595956718 0.0001053997430668349 0  189.7061785079034 7.500105125990985 0  194.7062820555884 0.0001672092083588915 0  194.7061919119885 7.500167154586894 0  199.7063016612876 0.0002340164339294946 0  199.7062043457992 7.500234072783583 0  204.7063186868332 0.0003046269066394827 0  204.7062156987303 7.500304737566934 0  209.7063334232446 0.0003781579311251281 0  209.7062259438219 7.500378293036823 0  214.7063461466939 0.0004539470726767627 0  214.7062351055801 7.500454090878636 0  219.7063571065315 0.0005314897522781343 0  219.706243237929 7.500531634049483 0  224.7063665224331 0.0006103961683316594 0  224.7062504098344 7.500610536823898 0  229.70637458556 0.0006903611093547798 0  229.7062566962902 7.500690496227595 0  234.7063814613059 0.0007711424564627557 0  234.7062621728976 7.500771271391881 0  239.7063872925199 0.0008525456264316176 0  239.7062669127806 7.500852668451427 0  244.7063922027219 0.0009344121446389466 0  244.7062709850081 7.500934529365069 0  249.7063962991203 0.001016611145835714 0  249.7062744539652 7.501016723555263 0  254.7063996753961 0.001099033000200346 0  254.706277379329 7.501099141614572 0  259.7064024142621 0.001181584530716739 0  259.7062798164097 7.501181690570824 0  264.7064045898613 0.001264185476379547 0  264.7062818167182 7.50126429037703 0  269.7064062700388 0.001346765998179781 0  269.7062834286538 7.501346871423985 0  274.7064075185601 0.001429265146015387 0  274.7062846982315 7.501429372983242 0  279.7064083972818 0.001511630325182196 0  279.7062856697801 7.501511742589866 0  284.706408968268 0.001593817940799652 0  284.7062863865326 7.501593936479996 0  289.7064092956784 0.001675795578431375 0  289.7062868910134 7.501675921312723 0  294.706409447075 0.001757546315977687 0  294.70628722517 7.501757677526792 0  299.7064094932323 0.001839076037598529 0  299.7062874302471 7.501839204789782 0  304.7064095045661 0.001920424739121012 0  304.7062875467729 7.50192053006541 0  309.7064095401496 0.002001681749690736 0  309.706287615867 7.502001719016949 0  4.706192266716981 14.99697466819494 0  -0.2938077883775625 14.9968877571709 0  9.706192330091948 14.99706146805557 0  14.70619240328802 14.99714822307017 0  19.70619248251843 14.99723499470707 0  24.70619256079412 14.99732184405899 0  29.70619262811088 14.99740883310305 0  34.70619267097921 14.99749602533578 0  39.7061926717441 14.99758348649505 0  44.70619260780694 14.99767128551688 0  49.70619245073909 14.99775949573136 0  54.70619216523892 14.99784819628698 0  59.70619170787099 14.99793747381253 0  64.70619102552845 14.998027424349 0  69.70619005355657 14.99811815560553 0  74.70618871349022 14.9982097896086 0  79.70618691037477 14.99830246581648 0  84.70618452969879 14.99839634475086 0  89.70618143408137 14.99849161212778 0  94.70617746009427 14.99858848329521 0  99.70617241603895 14.99868720740417 0  104.7061660823322 14.99878806994835 0  109.7061582175827 14.99889139073708 0  114.7061485758993 14.99899751134103 0  119.7061369448478 14.99910676040867 0  124.7061232191208 14.99921937511973 0  129.7061075317887 14.99933533977802 0  134.7060904693616 14.99945407552914 0  139.7060733869183 14.99957387910571 0  144.706058782168 14.99969097454584 0  149.7060504959912 14.9997980231512 0  164.7060782058724 14.99990679153522 0  159.7060710608453 14.99989566830233 0  169.7060821640668 14.99992647813712 0  174.7060856143704 14.99995704830404 0  179.7060896378038 14.99999797109686 0  184.70609445044 15.00004773653535 0  189.7060999048921 15.00010470337119 0  194.706105746558 15.00016740691443 0  199.7061117263185 15.00023463588701 0  204.7061176410702 15.00030542177877 0  209.7061233413558 15.00037900122092 0  214.7061287258085 15.00045477509276 0  219.7061337316335 15.00053227251972 0  224.7061383250818 15.00061112165079 0  229.7061424933481 15.00069102679723 0  234.7061462382183 15.00077175084256 0  239.7061495713068 15.00085310179068 0  244.7061525106072 15.00093492248594 0  249.7061550780632 15.00101708274678 0  254.7061572978964 15.00109947334218 0  259.7061591954914 15.00118200139675 0  264.7061607966675 15.00126458693232 0  269.7061621272199 15.00134716035348 0  274.7061632126378 15.00142966076221 0  279.7061640779238 15.00151203505107 0  284.7061647475197 15.00159423777218 0  289.7061652453323 15.00167623180036 0  294.7061655950435 15.00175798977939 0  299.7061658210081 15.00183949621351 0  304.70616595042 15.00192074975578 0  309.7061660179493 15.00200176462548 0  4.706061774184149 22.49697501576965 0  -0.293938274984312 22.49688820172057 0  9.706061813123698 22.49706172233198 0  14.70606183553819 22.49714839263035 0  19.70606183310738 22.49723508942892 0  24.70606179556983 22.49732187211005 0  29.70606171065348 22.49740879944133 0  34.70606156369662 22.4974959311389 0  39.70606133708944 22.497583328963 0  44.70606100963587 22.49767105770056 0  49.70606055588313 22.49775918618504 0  54.70605994543197 22.49784778840858 0  59.70605914223673 22.49793694474457 0  64.70605810391555 22.49802674328017 0  69.70605678111963 22.49811728123991 0  74.70605511706435 22.49820866645214 0  79.70605304740407 22.49830101875058 0  84.70605050076387 22.4983944710952 0  89.70604740044432 22.49848917000169 0  94.70604366812091 22.49858527452855 0  99.70603923081039 22.49868295248493 0  104.7060340330054 22.49878237154415 0  109.7060280566857 22.49888368134999 0  114.7060213527862 22.49898698020375 0  119.7060140882586 22.49909225624157 0  124.7060066121723 22.49919928818413 0  129.7059995403109 22.49930748590434 0  134.7059938466305 22.49941565055123 0  139.7059909256522 22.49952165016171 0  144.7059925456385 22.4996220712046 0  149.7060005512436 22.4997120995027 0  164.7060211866839 22.499861986926 0  159.706018328443 22.49982657630197 0  169.7060212667345 22.49989924095559 0  174.7060200623127 22.49994136837623 0  179.7060186832358 22.49998949590797 0  184.7060177383157 22.50004360217132 0  189.7060174634994 22.50010311378499 0  194.7060178739937 22.50016726525556 0  199.7060188761346 22.50023528344349 0  204.7060203359574 22.50030646819326 0  209.7060221163505 22.50038021849785 0  214.7060240946156 22.50045603281629 0  219.7060261689145 22.50053349869234 0  224.7060282589431 22.50061227914546 0  229.7060303039296 22.50069209923171 0  234.7060322596614 22.50077273411697 0  239.7060340953907 22.50085399902969 0  244.7060357910169 22.50093574103164 0  249.7060373346786 22.50101783238689 0  254.7060387207806 22.50110016527625 0  259.7060399484004 22.50118264762535 0  264.7060410200298 22.50126519985154 0  269.706041940582 22.50134775237646 0  274.7060427166261 22.50143024378317 0  279.7060433558304 22.50151261951615 0  284.706043866634 22.50159483101702 0  289.7060442582273 22.50167683514358 0  294.7060445410124 22.50175859360802 0  299.7060447277918 22.5018
[...]
<PointData  Vectors="v"> 
<DataArray  type="Float64"  Name="v"  NumberOfComponents="3" format="ascii">-3.6601779273069295e+00 1.6119507254251881e+00 0.0000000000000000e+00  -3.5146141396809232e+00 1.8430122573547734e+00 0.0000000000000000e+00  -2.8975452855241075e+00 1.6246730603770438e+00 0.0000000000000000e+00  -3.0046123226324282e+00 1.4520917642234970e+00 0.0000000000000000e+00  -3.2700519906237333e+00 2.3574131919726664e+00 0.0000000000000000e+00  -2.7519175512982361e+00 1.9909897687185696e+00 0.0000000000000000e+00  -2.9645057609366479e+00 3.0890842630506006e+00 0.0000000000000000e+00  -2.5076577710559000e+00 2.6312646478942625e+00 0.0000000000000000e+00  -2.6062267710861220e+00 3.8007185427304919e+00 0.0000000000000000e+00  -2.2026376061466428e+00 3.2643362816115427e+00 0.0000000000000000e+00  -2.2000901514914624e+00 4.6419633794354720e+00 0.0000000000000000e+00  -1.8452150715099729e+00 4.0342993473837510e+00 0.0000000000000000e+00  -1.8042935006089598e+00 5.3981282542578102e+00 0.0000000000000000e+00  -1.4407545138796567e+00 4.8062997300468373e+00 0.0000000000000000e+00  -1.6322495995289625e+00 5.8197272769332518e+00 0.0000000000000000e+00  -1.0471616355764808e+00 5.5644358349132155e+00 0.0000000000000000e+00  -1.1326449959098992e+00 6.6832235980264105e+00 0.0000000000000000e+00  -8.7800700719229452e-01 5.9372945497782421e+00 0.0000000000000000e+00  -3.0271146172118604e+00 3.9548667452843467e+00 0.0000000000000000e+00  -3.8245820014270659e-01 6.8006833585684507e+00 0.0000000000000000e+00  1.3452252119787165e+00 1.0501654306348094e+01 0.0000000000000000e+00  -2.2818834788337763e+00 3.9481784713593258e+00 0.0000000000000000e+00  -2.9116401470797418e-02 8.1980466520131348e+00 0.0000000000000000e+00  2.0856289070139429e+00 1.0265155169126071e+01 0.0000000000000000e+00  -3.1635646852877281e-01 7.5292675641771574e+00 0.0000000000000000e+00  7.0476297263313104e-01 7.9680057092545900e+00 0.0000000000000000e+00  1.9564567102507254e-02 7.8366238703458997e+00 0.0000000000000000e+00  4.0849752630294556e-01 7.3425882105936751e+00 0.0000000000000000e+00  8.0890284898005793e-01 8.8217098436864312e+00 0.0000000000000000e+00  7.3333591760977723e-01 7.6499689711430694e+00 0.0000000000000000e+00  1.8665606063643789e+00 1.0150137108977010e+01 0.0000000000000000e+00  1.5083317757832084e+00 8.5773183126858452e+00 0.0000000000000000e+00  3.1365588475357202e+00 1.1679280618269170e+01 0.0000000000000000e+00  2.5494887345093056e+00 9.7909563445847230e+00 0.0000000000000000e+00  4.5742934767440477e+00 1.3369702383624400e+01 0.0000000000000000e+00  3.8006254579398568e+00 1.1232215946703931e+01 0.0000000000000000e+00  6.1349414413604437e+00 1.5036738534639632e+01 0.0000000000000000e+00  5.2155008388328046e+00 1.2716853075941051e+01 0.0000000000000000e+00  7.7828255145591339e+00 1.6674098669729744e+01 0.0000000000000000e+00  6.7509251935629608e+00 1.4227352672288973e+01 0.0000000000000000e+00  9.4776085773765075e+00 1.8198328953505538e+01 0.0000000000000000e+00  8.3697841648184603e+00 1.5683717048056240e+01 0.0000000000000000e+00  1.1152410491238916e+01 1.9507713853780455e+01 0.0000000000000000e+00  1.0031732962862879e+01 1.7026890618883769e+01 0.0000000000000000e+00  1.2744984239777951e+01 2.0419435290060509e+01 0.0000000000000000e+00  1.1668644152983109e+01 1.8064742718863410e+01 0.0000000000000000e+00  1.4202855870159564e+01 2.1032983111127976e+01 0.0000000000000000e+00  1.3221630481507461e+01 1.8886703547886693e+01 0.0000000000000000e+00  1.5452915621603655e+01 2.0832587079734196e+01 0.0000000000000000e+00  1.4630223068361364e+01 1.8997055966192470e+01 0.0000000000000000e+00  1.6476833386420346e+01 2.0156440137070174e+01 0.0000000000000000e+00  1.5833653470486773e+01 1.8672530755893202e+01 0.0000000000000000e+00  1.7227296733669355e+01 1.8273123175088955e+01 0.0000000000000000e+00  1.6794779975378844e+01 1.7191294704092144e+01 0.0000000000000000e+00  1.7742161266923802e+01 1.5449586228463579e+01 0.0000000000000000e+00  1.7492935014064930e+01 1.4743656325867201e+01 0.0000000000000000e+00  1.8011291967289555e+01 1.1405777435172205e+01 0.0000000000000000e+00  1.7928434184033993e+01 1.1047599155707497e+01 0.0000000000000000e+00  1.8136909640182498e+01 4.7655849534810280e+00 0.0000000000000000e+00  1.8141641847634876e+01 4.6616278796461552e+00 0.0000000000000000e+00  1.8163558467629557e+01 -3.2713650429328402e-05 0.0000000000000000e+00  1.8163235003447156e+01 -3.7069155867468695e-04 0.0000000000000000e+00  1.8163563200102487e+01 9.3801836271077581e-20 0.0000000000000000e+00  1.3886320252428114e+01 -1.1537710862384248e+01 0.0000000000000000e+00  1.8132909851383459e+01 -5.1571645779797581e+00 0.0000000000000000e+00  1.8163249643891284e+01 2.9279541591916824e-04 0.0000000000000000e+00  1.2624693744767049e+01 -2.0106269985791180e+01 0.0000000000000000e+00  1.3905350801499560e+01 -1.8282983097603886e+01 0.0000000000000000e+00  1.0751924474456633e+01 -2.3969667358337695e+01 0.0000000000000000e+00  1.2702402919956697e+01 -2.1196980003111996e+01 0.0000000000000000e+00  9.6681055222897214e+00 -2.4789394751706567e+01 0.0000000000000000e+00  1.0884280661249596e+01 -2.3211694753656833e+01 0.0000000000000000e+00  8.4451075592133940e+00 -2.4343059537691303e+01 0.0000000000000000e+00  9.8495069675354809e+00 -2.2548313232885995e+01 0.0000000000000000e+00  7.4354116328010749e+00 -2.2822919062497505e+01 0.0000000000000000e+00  8.6722074736850718e+00 -2.1348700301561159e+01 0.0000000000000000e+00  6.4870922676311507e+00 -2.1039510992520714e+01 0.0000000000000000e+00  7.7070646698990055e+00 -1.9652576351941068e+01 0.0000000000000000e+00  5.6352225323343443e+00 -1.9029428192607575e+01 0.0000000000000000e+00  6.7993833896175513e+00 -1.7787702941870347e+01 0.0000000000000000e+00  4.7470438493043892e+00 -1.7216368915901541e+01 0.0000000000000000e+00  5.9862545271289909e+00 -1.5917105593130845e+01 0.0000000000000000e+00  4.0376201620154477e+00 -1.5479628446849203e+01 0.0000000000000000e+00  5.1353658164952316e+00 -1.4447355718534750e+01 0.0000000000000000e+00  3.4061105715260944e+00 -1.3965467954646622e+01 0.0000000000000000e+00  4.4610993506542300e+00 -1.3048932882425477e+01 0.0000000000000000e+00  2.7534680304289241e+00 -1.2751218647685855e+01 0.0000000000000000e+00  3.8632407734955088e+00 -1.1801727093913730e+01 0.0000000000000000e+00  2.1586686512287341e+00 -1.1692232234917148e+01 0.0000000000000000e+00  3.2432422606185090e+00 -1.0828205271544876e+01 0.0000000000000000e+00  1.6214851089339892e+00 -1.0770210660196927e+01 0.0000000000000000e+00  2.6795868280253146e+00 -9.9919565078760346e+00 0.0000000000000000e+00  1.1399595464123520e+00 -9.9263122975381233e+00 0.0000000000000000e+00  2.1724401816671985e+00 -9.2305224340456906e+00 0.0000000000000000e+00  7.2353777416993614e-01 -9.1229445840603489e+00 0.0000000000000000e+00  1.7201399719988677e+00 -8.5239937819849434e+00 0.0000000000000000e+00  3.6720370966992077e-01 -8.3650644516443897e+00 0.0000000000000000e+00  1.3319459860741487e+00 -7.8556979770827384e+00 0.0000000000000000e+00  5.5473630142633408e-02 -7.6238546154184261e+00 0.0000000000000000e+00  1.0030381332816829e+00 -7.1807786294529388e+00 0.0000000000000000e+00  -2.0838496011165425e-01 -6.8988123223505653e+00 0.0000000000000000e+00  7.1821801030550780e-01 -6.5269464282501586e+00 0.0000000000000000e+00  -4.2930133679187643e-01 -6.1836232474665476e+00 0.0000000000000000e+00  4.8055426994154654e-01 -5.8758927632431606e+00 0.0000000000000000e+00  -6.1410463913626934e-01 -5.4793780423447727e+00 0.0000000000000000e+00  2.8544489985955357e-01 -5.2252941720746016e+00 0.0000000000000000e+00  -7.6340329420306063e-01 -4.7583902802549494e+00 0.0000000000000000e+00  1.2589917067817533e-01 -4.5574276861686887e+00 0.0000000000000000e+00  -8.7040483867588658e-01 -4.0798430251193185e+00 0.0000000000000000e+00  1.7956634541242489e-03 -3.9417530385536956e+00 0.0000000000000000e+00  -9.4513790862195479e-01 -3.3258976643674454e+00 0.0000000000000000e+00  -8.0890293310688616e-02 -3.2365763105281244e+00 0.0000000000000000e+00  -9.7360521439285463e-01 -2.6955436995641833e+00 0.0000000000000000e+00  -1.3053487291298574e-01 -2.6743646055284294e+00 0.0000000000000000e+00  -9.6016053806149859e-01 -1.8778069715411370e+00 0.0000000000000000e+00  -1.3584342855428749e-01 -1.9211540296739777e+00 0.0000000000000000e+00  -8.9578396047812436e-01 -1.3968186499934907e+00 0.0000000000000000e+00  -9.6618867565847685e-02 -1.5133978820040956e+00 0.0000000000000000e+00  -7.6612106702467508e-01 -4.2910775420281411e-01 0.0000000000000000e+00  -1.1317377017588117e-02 -6.4853837904408340e-01 0.0000000000000000e+00  -5.2201410736664255e-01 5.0905144063486438e-02 0.0000000000000000e+00  1.4752905583672257e-01 -3.3123718017202558e-01 0.0000000000000000e+00  5.9352590557943605e-02 2.8486966469062408e-01 0.0000000000000000e+00  4.0330893037890403e-01 -6.2064447283124657e-01 0.0000000000000000e+00  -2.0115275512013402e+00 1.4630658890623514e+00 0.0000000000000000e+00  -2.1193224211239494e+00 1.2926716577688269e+00 0.0000000000000000e+00  -1.9027796043484824e+00 1.7712176251167322e+00 0.0000000000000000e+00  -1.7549134733476748e+00 2.2636841131849299e+00 0.0000000000000000e+00  -1.5084681370059512e+00 2.8057043059396993e+00 0.0000000000000000e+00  -1.2015555502293660e+00 3.4969910481504014e+00 0.0000000000000000e+00  -8.4250522884500290e-01 4.1991435395655117e+00 0.0000000000000000e+00  -4.3728792425659885e-01 4.9743338134664787e+00 0.0000000000000000e+00  -4.4290252654349375e-02 5.6840846529649145e+00 0.0000000000000000e+00  1.2314607047693772e-01 6.0595496780931644e+00 0.0000000000000000e+00  6.1444641619022267e-01 6.8013763612554010e+00 0.0000000000000000e+00  -1.2902331093686823e+00 3.7138985189559310e+00 0.0000000000000000e+00  3.0780312568487997e+00 1.0038653157240562e+01 0.0000000000000000e+00  1.6967753838419233e+00 7.7911714258932472e+00 0.0000000000000000e+00  1.3933180308312711e+00 7.1678123240773841e+00 0.0000000000000000e+00  1.7073792649916242e+00 7.4244931852158675e+00 0.0000000000000000e+00  2.4659576030350538e+00 8.2410274369904482e+00 0.0000000000000000e+00  3.4864142628115102e+00 9.3687744953960532e+00 0.0000000000000000e+00  4.7132244917368169e+00 1.0611936011088069e+01 0.0000000000000000e+00  6.0982621135131181e+00 1.1944748129237050e+01 0.0000000000000000e+00  7.5982992693495941e+00 1.3277286476470259e+01 0.0000000000000000e+00  9.1772293054481615e+00 1.4562437433646171e+01 0.0000000000000000e+00  1.0790973426481401e+01 1.5640232807401468e+01 0.0000000000000000e+00  1.2373007059028243e+01 1.6594081237632651e+01 0.0000000000000000e+00  1.3862215702353764e+01 1.6924012185192421e+01 0.0000000000000000e+00  1.5198977782113561e+01 1.6919565496982845e+01 0.0000000000000000e+00  1.6316422291518403e+01 1.5794895768087365e+01 0.0000000000000000e+00  1.7188774344205047e+01 1.3772157596804574e+01 0.0000000000000000e+00  1.7771180976905448e+01 1.0437778622652189e+01 0.0000000000000000e+00  1.8104105110926046e+01 4.4549122775125225e+00 0.0000000000000000e+00  1.8162460755050745e+01 -7.0458440805155312e-04 0.0000000000000000e+00  1.8092155234957708e+01 -4.9611884350734661e+00 0.0000000000000000e+00  1.8162478956945943e+01 5.7392001476985874e-04 0.0000000000000000e+00  1.7901128458212071e+01 -1.1960262985470326e+01 0.0000000000000000e+00  1.3744087122551317e+01 -1.9450020148968164e+01 0.0000000000000000e+00  1.2627476799800887e+01 -2.0526960243252887e+01 0.0000000000000000e+00  1.0877356104868779e+01 -2.1036245298371178e+01 0.0000000000000000e+00  9.9061123935026281e+00 -1.9612475596046202e+01 0.0000000000000000e+00  8.7805088929036188e+00 -1.8237990052913780e+01 0.0000000000000000e+00  7.8660213541775850e+00 -1.6452366809223758e+01 0.0000000000000000e+00  7.0019781253989333e+00 -1.4721962465144250e+01 0.0000000000000000e+00  6.2292756454215903e+00 -1.3194606198407740e+01 0.0000000000000000e+00  5.4162286339122483e+00 -1.2059139532865673e+01 0.0000000000000000e+00  4.7773147811175081e+00 -1.0924712849746921e+01 0.0000000000000000e+00  4.2123833653144835e+00 -9.9178660470669744e+00 0.0000000000000000e+00  3.6240996173707298e+00 -9.1646189560835118e+00 0.0000000000000000e+00  3.0902279046515653e+00 -8.4867591726082665e+00 0.0000000000000000e+00  2.6111332866315253e+00 -7.8620933689792283e+00 0.0000000000000000e+00  2.1857273106223367e+00 -7.2889729184369303e+00 0.0000000000000000e+00  1.8230767745868877e+00 -6.7021373374356212e+00 0.0000000000000000e+00  1.5184927369596748e+00 -6.1141004084185573e+00 0.0000000000000000e+00  1.2571949209464193e+00 -5.5332144581839016e+00 0.0000000000000000e+00  1.0422227468690861e+00 -4.9458347721365845e+00 0.0000000000000000e+00  8.6902008814418286e-01 -4.3312817478670862e+00 0.0000000000000000e+00  7.3100114908196179e-01 -3.7681401064924001e+00 0.0000000000000000e+00  6.2778771078593787e-01 -3.1252673522857615e+00 0.0000000000000000e+00  5.6582035601791980e-01 -2.6116846074556173e+00 0.0000000000000000e+00  5.3617386437127090e-01 -1.9261790751967465e+00 0.0000000000000000e+00  5.5130792981062537e-01 -1.5824576815611999e+00 0.0000000000000000e+00  6.0922305374282359e-01 -7.9094581557780608e-01 0.0000000000000000e+00  7.1515835857313959e-01 -5.7683764260636050e-01 0.0000000000000000e+00  8.9135103711591523e-01 -1.0200124407377038e+00 0.0000000000000000e+00  -7.0264272232568303e-01 1.2991276303334285e+00 0.0000000000000000e+00  -7.9461834452326430e-01 1.1581543971501227e+00 0.0000000000000000e+00  -5.9113395427460314e-01 1.6042961409433549e+00 0.0000000000000000e+00  -4.7613479644096962e-01 2.0379345996450078e+00 0.0000000000000000e+00  -3.2198232283663930e-01 2.4316028719666818e+00 0.0000000000000000e+00  -6.8496463249476794e-02 3.0322064757118676e+00 0.0000000000000000e+00  2.4553077905135615e-01 3.6568847839395309e+00 0.0000000000000000e+00  6.1058641298766003e-01 4.3633729870720632e+00 0.0000000000000000e+00  1.0207349473444960e+00 5.0930860079607019e+00 0.0000000000000000e+00  1.4164221079986226e+00 5.8095149854876960e+00 0.0000000000000000e+00  1.5824369571474524e+00 6.0683723933414928e+00 0.0000000000000000e+00  2.0684270906720181e+00 6.5752392607920669e+00 0.0000000000000000e+00  1.6333081285421358e-01 3.4807058040756886e+00 0.0000000000000000e+00  4.5444268240154209e+00 9.8553816373519751e+00 0.0000000000000000e+00  3.1739318617723269e+00 7.6262130495817226e+00 0.0000000000000000e+00  2.8684463416960937e+00 6.9627079466251001e+00 0.0000000000000000e+00  3.1707655323356922e+00 7.1185033798937587e+00 0.0000000000000000e+00  3.9095812838260198e+00 7.8593429357501652e+00 0.0000000000000000e+00  4.9031535887761875e+00 8.7985965108589710e+00 0.0000000000000000e+00  6.0946881377016382e+00 9.8993594999148158e+00 0.0000000000000000e+00  7.4369375023908679e+00 1.1066245643619810e+01 0.0000000000000000e+00  8.8856880742273923e+00 1.2241446353959695e+01 0.0000000000000000e+00  1.0401036335987856e+01 1.3273364380976814e+01 0.0000000000000000e+00  1.1940656937387068e+01 1.4288953682948151e+01 0.0000000000000000e+00  1.3431617747501839e+01 1.4764213816398199e+01 0.0000000000000000e+00  1.4816200009174512e+01 1.5010103020355348e+01 0.0000000000000000e+00  1.6023070556978929e+01 1.4214728079979745e+01 0.0000000000000000e+00  1.6999161251261093e+01 1.2603172799078983e+01 0.0000000000000000e+00  1.7688085827747276e+01 9.6704976146104649e+00 0.0000000000000000e+00  1.8095461653303847e+01 4.1706968048756297e+00 0.0000000000000000e+00  1.8161253012860424e+01 -1.0064953546750687e-03 0.0000000000000000e+00  1.8071574556729516e+01 -4.6161058697236497e+00 0.0000000000000000e+00  1.8161269294124693e+01 8.1979726600727126e-04 0.0000000000000000e+00  1.7669856320134905e+01 -1.1610299493876131e+01 0.0000000000000000e+00  1.7468598353427261e+01 -1.3303720144937945e+01 0.0000000000000000e+00  1.3435239891907177e+01 -1.8960601880987870e+01 0.0000000000000000e+00  1.2457248823065548e+01 -1.8490971939127629e+01 0.0000000000000000e+00  1.0815308021696790e+01 -1.8232718670895391e+01 0.0000000000000000e+00  9.9373765652283232e+00 -1.6608685210526843e+01 0.0000000000000000e+00  8.8899094197122022e+00 -1.5137250056303559e+01 0.0000000000000000e+00  8.0461050144857360e+00 -1.3474718433377891e+01 0.0000000000000000e+00  7.2431061539593475e+00 -1.2080366967066277e+01 0.0000000000000000e+00  6.5268395248111535e+00 -1.0880333564224834e+01 0.0000000000000000e+00  5.7652146684783325e+00 -1.0004981512200482e+01 0.0000000000000000e+00  5.1741949793104247e+00 -9.1063376590541694e+00 0.0000000000000000e+00  4.6545655429721098e+00 -8.3163025528034584e+00 0.0000000000000000e+00  4.1090409942540447e+00 -7.7181738501671147e+00 0.0000000000000000e+00  3.6151430793677668e+00 -7.1736608809195932e+00 0.0000000000000000e+00  3.1737542308456539e+00 -6.6793611705991269e+00 0.0000000000000000e+00  2.7837702926616790e+00 -6.1852693243179067e+00 0.0000000000000000e+00  2.4544713400877791e+00 -5.6828275121944847e+00 0.0000000000000000e+00  2.1815358025945626e+00 -5.1658132215182455e+00 0.0000000000000000e+00  1.9504545032387599e+00 -4.6469123664142051e+00 0.0000000000000000e+00  1.7643237022015255e+00 -4.0943421963422280e+00 0.0000000000000000e+00  1.6191554354446880e+00 -3.5830377812879428e+00 0.0000000000000000e+00  1.5080906124230671e+00 -2.9923997317343858e+00 0.0000000000000000e+00  1.4315730115373595e+00 -2.5393070668651161e+00 0.0000000000000000e+00  1.3950022921186103e+00 -1.9034461956322637e+00 0.0000000000000000e+00  1.3914359368452778e+00 -1.6237033612903760e+00 0.0000000000000000e+00  1.4297462637121274e+00 -9.0076687902690211e-01 0.0000000000000000e+00  1.5146170112800668e+00 -7.5013274691472687e-01 0.0000000000000000e+00  1.6374306962015579e+00 -1.3086245378816641e+00 0.0000000000000000e+00  5.0237529024324923e-01 1.1579641439272579e+00 0.0000000000000000e+00  4.3064032951217385e-01 1.0552715737253551e+00 0.0000000000000000e+00  5.9950674588648012e-01 1.4312487609537010e+00 0.0000000000000000e+00  7.2050048776241116e-01 1.8577304537403627e+00 0.0000000000000000e+00  8.4689765659636185e-01 2.1916314345883943e+00 0.0000000000000000e+00  1.0142057824816935e+00 2.6425911530627091e+00 0.0000000000000000e+00  1.2815533190716353e+00 3.1758714685568550e+00 0.0000000000000000e+00  1.6098338269294661e+00 3.8064616745770006e+00 0.0000000000000000e+00  1.9883487441377541e+00 4.4698736169653950e+00 0.0000000000000000e+00  2.4094319734545309e+00 5.2102637779743253e+00 0.0000000000000000e+00  2.8117167715952713e+00 5.8182888707470637e+00 0.0000000000000000e+00  2.9792645943309184e+00 5.8472050069532742e+00 0.0000000000000000e+00  3.4653170837617933e+00 6.3326933561556595e+00 0.0000000000000000e+00  1.5748115167594614e+00 3.2611347831746604e+00 0.0000000000000000e+00  5.9922239716344192e+00 9.6579352595207890e+00 0.0000000000000000e+00  4.6523823743587309e+00 7.4115174700670421e+00 0.0000000000000000e+00  4.3591555438460743e+00 6.6644596923307011e+00 0.0000000000000000e+00  4.6615680073241963e+00 6.7593985757907102e+00 0.0000000000000000e+00  5.3883961327722876e+00 7.3217270515626653e+00 0.0000000000000000e+00  6.3620392289971610e+00 8.1331099498276824e+00 0.0000000000000000e+00  7.5246178076186130e+00 9.0799547211368647e+00 0.0000000000000000e+00  8.8278181936352720e+00 1.0103492493161410e+01 0.0000000000000000e+00  1.0225910179509944e+01 1.1044312937000775e+01 0.0000000000000000e+00  1.1677803651644849e+01 1.2038271888797400e+01 0.0000000000000000e+00  1.3133060717323296e+01 1.2594902729353956e+01 0.0000000000000000e+00  1.4522869020266825e+01 1.3028226685646340e+01 0.0000000000000000e+00  1.5772918755588496e+01 1.2502638157423160e+01 0.0000000000000000e+00  1.6827139238006147e+01 1.1290883860386620e+01 0.0000000000000000e+00  1.7594159076534325e+01 8.7593234694612665e+00 0.0000000000000000e+00  1.8073776758182280e+01 3.8150013240283238e+00 0.0000000000000000e+00  1.8159659606609306e+01 -1.2745077380975909e-03 0.0000000000000000e+00  1.8048157597142936e+01 -4.1800800130412314e+00 0.0000000000000000e+00  1.8159674409445770e+01 1.0367795405164162e-03 0.0000000000000000e+00  1.7543826966736866e+01 -1.0836211863317109e+01 0.