<?xml version="1.0"?>
<VTKFile type="UnstructuredGrid"  version="0.1"  >
<UnstructuredGrid>
<Piece  NumberOfPoints="1933" NumberOfCells="3640">
<Points>
<DataArray  type="Float64"  NumberOfComponents="3"  format="ascii">-0.2940092089464127 0.0009136799575577947 0  4.705990788607306 0.0008815497912359168 0  4.706039006514513 7.500881557808374 0  -0.2939609997391585 7.500913671958415 0  9.705990778814236 0.0008494038189313751 0  9.706039023036576 7.500849419476305 0  14.70599077008733 0.0008172172881800459 0  14.70603905740024 7.500817236644906 0  19.70599077576177 0.0007849757365150534 0  19.70603911803368 7.500784996930925 0  24.70599081083471 0.000752671743246857 0  24.70603921435249 7.500752693987623 0  29.70599089066178 0.0007203026945913145 0  29.70603935661625 7.500720325781081 0  34.70599103060967 0.0006878692633140956 0  34.70603955582703 7.500687893309453 0  39.70599124617923 0.0006553744169755968 0  39.70603982373847 7.500655399736075 0  44.70599155336212 0.0006228228169162294 0  44.70604017297261 7.500622849857009 0  49.70599196912002 0.0005902205089923531 0  49.70604061722444 7.500590249831275 0  54.70599251194071 0.0005575748401102334 0  54.70604117153693 7.500557607122212 0  59.70599320246058 0.0005248945616077561 0  59.70604185263476 7.50052493061902 0  64.70599406416396 0.0004921901027433412 0  64.70604267931094 7.500492230926862 0  69.70599512418235 0.0004594740170162203 0  69.70604367286504 7.500459520832007 0  74.70599641423033 0.0004267616232708231 0  74.70604485759499 7.500426815967692 0  79.70599797172727 0.0003940718854494171 0  79.70604626134168 7.500394135728924 0  84.70599984117261 0.0003614286034114178 0  84.70604791608596 7.500361504514778 0  89.70600207586709 0.0003288620283489391 0  89.70604985858225 7.500328953420418 0  94.70600474010931 0.0002964110798558237 0  94.70605213099748 7.500296522567712 0  99.70600791204718 0.0002641264450120251 0  99.70605478148033 7.50026426436923 0  104.7060116874388 0.0002320750148941026 0  104.7060578645154 7.500232248192179 0  109.7060161846736 0.00020034642148414 0  109.7060614407829 7.500200567172298 0  114.7060215515223 0.000169062997367231 0  114.7060655760221 7.500169348400243 0  119.7060279741849 0.0001383955343785943 0  119.7060703380148 7.500138768490088 0  124.7060356891648 0.0001085892792823541 0  124.7060757902357 7.500109077834447 0  129.7060449979679 8.000882493043742e-05 0  129.7060819799648 7.500080638903902 0  134.7060562826726 5.321970857603595e-05 0  134.7060889181182 7.500053986899153 0  139.706070014751 2.914599095241544e-05 0  139.7060965492814 7.500029924106181 0  144.7060867347117 9.398883043920829e-06 0  144.7061047186567 7.500009657060794 0  149.706106944783 -2.964147610120084e-06 0  149.7061131738181 7.499994952705072 0  159.7061073738538 7.734355317742624e-19 0  164.7060697415448 -4.067707637681824e-05 0  164.7061000225358 7.499954570608324 0  159.7061124665331 7.499987433029538 0  169.7060448415787 -8.095727587378042e-05 0  169.7060872079292 7.49991667432238 0  174.7060275559931 -0.0001210093234936866 0  174.7060759091791 7.499877618357912 0  179.7060151471917 -0.0001605798703648914 0  179.706066455037 7.499838563806376 0  184.7060060128943 -0.0001995460890203943 0  184.7060587179228 7.499799895187595 0  189.70599916316 -0.0002378928240872996 0  189.7060524508582 7.499761729642048 0  194.7059939599959 -0.0002756545569080103 0  194.7060474001096 7.499724082285868 0  199.7059899761655 -0.0003128823880737592 0  199.7060433411248 7.499686928990174 0  204.7059869151426 -0.0003496293875735299 0  204.7060400862987 7.499650232103002 0  209.7059845643041 -0.0003859451142869066 0  209.7060374826834 7.499613951118002 0  214.7059827667759 -0.0004218741130724795 0  214.7060354067436 7.499578046917252 0  219.7059814039884 -0.0004574559522273232 0  219.7060337588713 7.499542483254942 0  224.7059803845257 -0.000492725757453301 0  224.70603245858 7.499507227086461 0  229.7059796367631 -0.0005277148322442143 0  229.706031440574 7.499472248444325 0  234.7059791038501 -0.0005624512248823041 0  234.7060306516326 7.499437520160204 0  239.7059787401837 -0.0005969602100802244 0  239.7060300481677 7.499403017554177 0  244.7059785088609 -0.0006312646921243195 0  244.706029594317 7.49936871813446 0  249.7059783797906 -0.0006653855474965441 0  249.7060292604486 7.499334601318283 0  254.7059783282656 -0.0006993419260190422 0  254.7060290219872 7.499300648171277 0  259.7059783338626 -0.0007331515277430929 0  259.7060288584851 7.499266841158041 0  264.7059783795878 -0.0007668308707235023 0  264.7060287528878 7.499233163894939 0  269.7059784512093 -0.0008003955631967589 0  269.7060286909562 7.499199600896007 0  274.7059785367503 -0.0008338605922478923 0  274.7060286608126 7.49916613730363 0  279.705978626124 -0.0008672406385405954 0  279.7060286526004 7.499132758597704 0  284.7059787109237 -0.0009005504203002939 0  284.7060286582306 7.499099450282569 0  289.7059787843931 -0.0009338050528545081 0  289.7060286712127 7.499066197562617 0  294.7059788416407 -0.0009670203669971159 0  294.7060286865499 7.49903298504157 0  299.7059788801938 -0.001000213020817074 0  299.7060287006747 7.49899979652325 0  304.705978901012 -0.0010333999583978 0  304.7060287114123 7.498966615055371 0  309.7059789100751 -0.001066595992245888 0  309.7060287180053 7.498933423391613 0  4.706087149681695 15.00088158693986 0  -0.2939128597769629 15.00091365650624 0  9.706087173698897 15.00084947065424 0  14.70608722047725 15.00081729794485 0  19.706087296762 15.00078506266544 0  24.70608740896008 15.00075276196709 0  29.70608756370587 15.00072039574949 0  34.70608776812399 15.00068796608763 0  39.70608802995643 15.00065547677228 0  44.70608835764212 15.00062293301007 0  49.70608876038835 15.00059034128839 0  54.70608924824844 15.00055770939847 0  59.70608983220548 15.00052504661166 0  64.70609052425426 15.00049236401281 0  69.70609133746777 15.00045967500707 0  74.70609228602768 15.00042699603247 0  79.70609338518807 15.00039434753161 0  84.70609465112878 15.00036175526416 0  89.70609610063218 15.00032925208219 0  94.70609775048734 15.00029688034747 0  99.70609961648341 15.00026469525304 0  104.7061017117982 15.00023276942987 0  109.7061040445274 15.00020119938149 0  114.7061066140547 15.0001701144923 0  119.7061094059924 15.00013968955158 0  124.7061123856728 15.00011016174936 0  129.7061154909326 15.00008185239021 0  134.7061186267468 15.00005519060692 0  139.7061216678915 15.00003072687721 0  144.7061244812994 15.00000909626555 0  149.7061269817125 14.99999081109387 0  164.7061232950802 14.99994285612847 0  159.7061262836393 14.99997291884917 0  169.7061189585067 14.99990873169652 0  174.706113914484 14.99987236366602 0  179.7061088178673 14.99983505112736 0  184.7061040475211 14.99979749682744 0  189.7060997757493 14.99976005120898 0  194.7060960533342 14.99972287782929 0  199.7060928669005 14.99968604388266 0  204.7060901727771 14.99964956761447 0  209.7060879157471 14.99961344293781 0  214.7060860388806 14.99957765218806 0  219.7060844883302 14.99954217271215 0  224.7060832153801 14.99950698024721 0  229.7060821770488 14.99947205062288 0  234.7060813359748 14.99943736058585 0  239.706080659973 14.99940288816255 0  244.7060801214728 14.99936861277689 0  249.7060796969417 14.99933451523618 0  254.7060793663462 14.99930057764331 0  259.7060791126673 14.99926678326497 0  264.70607892148 14.99923311636967 0  269.7060787805922 14.99919956204188 0  274.7060786797378 14.9991661059741 0  279.7060786103127 14.9991327342378 0  284.7060785651443 14.99909943303436 0  289.7060785382757 14.99906618842915 0  294.7060785247542 14.99903298606872 0  299.7060785204036 14.99899981086117 0  304.7060785215818 14.99896664651319 0  309.7060785249387 14.99893347452886 0  4.706135169771121 22.50088166766342 0  -0.293864840729654 22.50091367751129 0  9.706135193053807 22.50084958358378 0  14.70613523683834 22.500817427404 0  19.70613530656068 22.50078520067629 0  24.70613540651753 22.50075290541345 0  29.70613554056973 22.50072054452358 0  34.70613571253919 22.50068812194199 0  39.70613592640768 22.50065564264733 0  44.70613618639317 22.50062311267173 0  49.70613649695216 22.50059053916539 0  54.70613686273022 22.50055793054953 0  59.70613728846928 22.50052529678031 0  64.70613777886645 22.50049264974565 0  69.70613833836953 22.50046000382125 0  74.70613897088649 22.50042737662314 0  79.70613967937545 22.5003947900085 0  84.70614046527255 22.50036227139705 0  89.70614132770427 22.50032985551069 0  94.70614226242067 22.50029758666159 0  99.70614326038411 22.50026552175421 0  104.7061443059594 22.50023373419898 0  109.7061453747027 22.50020231894008 0  114.7061464308626 22.50017139872596 0  119.7061474249513 22.50014113147849 0  124.7061482921859 22.50011171789282 0  129.7061489533045 22.50008340671445 0  134.7061493201714 22.50005649152966 0  139.7061493091568 22.50003128580349 0  144.7061488636154 22.50000805083175 0  149.706147977937 22.49998683845211 0  164.706148859348 22.49993036435673 0  159.7061470543973 22.49995919603075 0  169.7061493271763 22.49989848196611 0  174.7061486882424 22.49986443820842 0  179.706147291308 22.49982906927863 0  184.7061454714068 22.49979300678215 0  189.70614348266 22.49975666721645 0  194.7061414944038 22.49972030486292 0  199.7061396088213 22.49968406622306 0  204.7061378808754 22.49964803023285 0  209.7061363345589 22.49961223476926 0  214.7061349746193 22.49957669327263 0  219.7061337944976 22.49954140492555 0  224.7061327814898 22.49950636081293 0  229.7061319199998 22.49947154762691 0  234.706131193526 22.49943694988396 0  239.7061305858327 22.49940255124157 0  244.7061300816041 22.49936833526702 0  249.7061296667769 22.49933428586993 0  254.7061293286779 22.49930038752521 0  259.7061290560441 22.49926662536316 0  264.7061288389752 22.49923298517246 0  269.7061286688473 22.49919945334459 0  274.7061285382042 22.49916601677717 0  279.7061284406306 22.49913266274736 0  284.7061283706077 22.49909937876224 0  289.7061283233467 22.49906615238677 0  294.7061282945887 22.499
[...]
<PointData  Vectors="v"> 
<DataArray  type="Float64"  Name="v"  NumberOfComponents="3" format="ascii">-1.1283652435228673e+00 -7.6330826811823718e+00 0.0000000000000000e+00  -1.6839304732146947e+00 -7.1476890027441637e+00 0.0000000000000000e+00  -1.5552671537878751e+00 -6.3145961779516586e+00 0.0000000000000000e+00  -1.1266706183973640e+00 -6.9904435235581230e+00 0.0000000000000000e+00  -2.3764507643989128e+00 -7.7267859243497794e+00 0.0000000000000000e+00  -2.1104276631121608e+00 -6.6890096338985430e+00 0.0000000000000000e+00  -2.9959940613399176e+00 -8.7454506007466772e+00 0.0000000000000000e+00  -2.8017189597502665e+00 -7.8177209466992341e+00 0.0000000000000000e+00  -3.5376158451736779e+00 -9.0567885827517465e+00 0.0000000000000000e+00  -3.4192588833867332e+00 -8.2466744367072877e+00 0.0000000000000000e+00  -4.2173636327063324e+00 -9.9291262802231888e+00 0.0000000000000000e+00  -3.9581134211954545e+00 -8.9125513373389254e+00 0.0000000000000000e+00  -4.7549283567523259e+00 -1.0283010708950496e+01 0.0000000000000000e+00  -4.6341545332317171e+00 -9.4803081413284715e+00 0.0000000000000000e+00  -4.8319586199835820e+00 -1.0018427925247025e+01 0.0000000000000000e+00  -5.1671986281267301e+00 -9.9072680901567409e+00 0.0000000000000000e+00  -5.9146979556651225e+00 -1.1114973486328999e+01 0.0000000000000000e+00  -5.2389520875936988e+00 -9.4960189160396773e+00 0.0000000000000000e+00  -2.8068971172376980e+00 -5.9505648143936840e+00 0.0000000000000000e+00  -6.3154781878663400e+00 -1.0617771270037586e+01 0.0000000000000000e+00  -1.3929712552515712e+01 -2.1838742972446912e+01 0.0000000000000000e+00  -3.2007201131374114e+00 -5.1615072331158016e+00 0.0000000000000000e+00  -1.3608381056372814e+01 -2.0065035560302810e+01 0.0000000000000000e+00  -1.4316077137159883e+01 -2.0554172990855673e+01 0.0000000000000000e+00  -1.3684000704674158e+01 -1.8745918356333458e+01 0.0000000000000000e+00  -1.3986216716515639e+01 -1.8640649854591132e+01 0.0000000000000000e+00  -1.4213576039922090e+01 -1.8079294543266766e+01 0.0000000000000000e+00  -1.4052015999124400e+01 -1.7294456147888887e+01 0.0000000000000000e+00  -1.5152276787832895e+01 -1.8047065131780787e+01 0.0000000000000000e+00  -1.4570403972034619e+01 -1.6649929720447059e+01 0.0000000000000000e+00  -1.6401100790378838e+01 -1.8439194683172364e+01 0.0000000000000000e+00  -1.5496070841307368e+01 -1.6577938871096041e+01 0.0000000000000000e+00  -1.7866424480731670e+01 -1.9048591018799900e+01 0.0000000000000000e+00  -1.6730382218528156e+01 -1.6864033232291074e+01 0.0000000000000000e+00  -1.9457679811813392e+01 -1.9936537300617157e+01 0.0000000000000000e+00  -1.8179867917694985e+01 -1.7564352352675680e+01 0.0000000000000000e+00  -2.1084407774354030e+01 -2.0676542778224643e+01 0.0000000000000000e+00  -1.9753422849981607e+01 -1.8251970253105345e+01 0.0000000000000000e+00  -2.2669895352286677e+01 -2.1302175618793047e+01 0.0000000000000000e+00  -2.1361304929271050e+01 -1.8940882371223701e+01 0.0000000000000000e+00  -2.4150564123590296e+01 -2.1651462319537018e+01 0.0000000000000000e+00  -2.2926612143214385e+01 -1.9448182943097223e+01 0.0000000000000000e+00  -2.5470976648205589e+01 -2.1688196050417773e+01 0.0000000000000000e+00  -2.4385852967932429e+01 -1.9726235202725498e+01 0.0000000000000000e+00  -2.6595360159182142e+01 -2.0960360483775556e+01 0.0000000000000000e+00  -2.5683411653992376e+01 -1.9292897454158343e+01 0.0000000000000000e+00  -2.7510087015526931e+01 -2.0243327771729010e+01 0.0000000000000000e+00  -2.6784969618191749e+01 -1.8891837320996956e+01 0.0000000000000000e+00  -2.8209443183988228e+01 -1.8096763171848764e+01 0.0000000000000000e+00  -2.7674421268482423e+01 -1.7067112498058759e+01 0.0000000000000000e+00  -2.8715438061591119e+01 -1.6428641430715913e+01 0.0000000000000000e+00  -2.8350299188414795e+01 -1.5692021456485598e+01 0.0000000000000000e+00  -2.9046768085971774e+01 -1.2748810378270376e+01 0.0000000000000000e+00  -2.8828967674213949e+01 -1.2270504818598379e+01 0.0000000000000000e+00  -2.9247527993742136e+01 -1.0090941323733247e+01 0.0000000000000000e+00  -2.9137613308100892e+01 -9.8141922419989722e+00 0.0000000000000000e+00  -2.9342453587958957e+01 -5.2054018427668440e+00 0.0000000000000000e+00  -2.9308963504407458e+01 -5.0795782584457454e+00 0.0000000000000000e+00  -2.9381814772412714e+01 -1.2436316091312978e+00 0.0000000000000000e+00  -2.9383434877930121e+01 -1.2115686613656109e+00 0.0000000000000000e+00  -2.9389262614364540e+01 2.1838838022928620e-10 0.0000000000000000e+00  -2.9389940960200267e+01 -7.0927211290802391e-04 0.0000000000000000e+00  -2.9389262614623664e+01 3.3871531493487673e-19 0.0000000000000000e+00  -2.0119358247931004e+01 7.0871852304412757e+00 0.0000000000000000e+00  -2.9383907392868363e+01 -6.7921125007005108e+00 0.0000000000000000e+00  -2.9389929024620116e+01 6.7736886918832323e-04 0.0000000000000000e+00  -2.0749269023245592e+01 1.3350675695799078e+01 0.0000000000000000e+00  -2.0147243193157500e+01 1.4335611646204118e+01 0.0000000000000000e+00  -1.7731091369252020e+01 2.0788624884148817e+01 0.0000000000000000e+00  -2.0814745975048410e+01 1.6291993440859645e+01 0.0000000000000000e+00  -1.6956586861460590e+01 2.2261728668020194e+01 0.0000000000000000e+00  -1.7834823932628666e+01 2.1134754866896461e+01 0.0000000000000000e+00  -1.5278373011875306e+01 2.5037480533234142e+01 0.0000000000000000e+00  -1.7097859180015163e+01 2.2553114513003361e+01 0.0000000000000000e+00  -1.4068587548843167e+01 2.5248342747928003e+01 0.0000000000000000e+00  -1.5456639274271474e+01 2.3467357031218960e+01 0.0000000000000000e+00  -1.2775336226968236e+01 2.5326796648493637e+01 0.0000000000000000e+00  -1.4284111383365271e+01 2.3419348320727575e+01 0.0000000000000000e+00  -1.1661092998985055e+01 2.4274644539737082e+01 0.0000000000000000e+00  -1.3027314299762024e+01 2.2636209874552939e+01 0.0000000000000000e+00  -1.0334331208978433e+01 2.3107730288644081e+01 0.0000000000000000e+00  -1.1949142791711726e+01 2.1149830839196056e+01 0.0000000000000000e+00  -9.3797492330734222e+00 2.1268027484875628e+01 0.0000000000000000e+00  -1.0658263764860138e+01 1.9868167399938230e+01 0.0000000000000000e+00  -8.5972679358502457e+00 1.9415262695102626e+01 0.0000000000000000e+00  -9.7390958901402449e+00 1.8273344502821217e+01 0.0000000000000000e+00  -7.7460633852674539e+00 1.7725211515200161e+01 0.0000000000000000e+00  -8.9916566557079332e+00 1.6479944929156197e+01 0.0000000000000000e+00  -6.9398098250563125e+00 1.6129304945953795e+01 0.0000000000000000e+00  -8.1752898294674665e+00 1.4951087480436515e+01 0.0000000000000000e+00  -6.1823599361204655e+00 1.4717135958861629e+01 0.0000000000000000e+00  -7.4034585648432154e+00 1.3611937508166839e+01 0.0000000000000000e+00  -5.4371711878120665e+00 1.3425456365749659e+01 0.0000000000000000e+00  -6.6800662108915159e+00 1.2338306690757481e+01 0.0000000000000000e+00  -4.7591207162957598e+00 1.2188382376299380e+01 0.0000000000000000e+00  -5.9686295934062894e+00 1.1201608292890073e+01 0.0000000000000000e+00  -4.1559469331165806e+00 1.1053457534567343e+01 0.0000000000000000e+00  -5.3239420045176153e+00 1.0178715462625497e+01 0.0000000000000000e+00  -3.5901877772912165e+00 9.9681650083603959e+00 0.0000000000000000e+00  -4.7537219679992342e+00 9.1492535730710909e+00 0.0000000000000000e+00  -3.0871466989624219e+00 8.9082969865838209e+00 0.0000000000000000e+00  -4.2206354405109634e+00 8.1830828133876299e+00 0.0000000000000000e+00  -2.6558487778133859e+00 7.9131050751059968e+00 0.0000000000000000e+00  -3.7498012663979683e+00 7.2953194722553238e+00 0.0000000000000000e+00  -2.2602268529843621e+00 6.9109981692427089e+00 0.0000000000000000e+00  -3.3504865283130281e+00 6.3462771714885866e+00 0.0000000000000000e+00  -1.9187274466264816e+00 5.9778254518892897e+00 0.0000000000000000e+00  -2.9862848367649075e+00 5.4942400507631231e+00 0.0000000000000000e+00  -1.6308515295208637e+00 5.0257551770068174e+00 0.0000000000000000e+00  -2.6762592187496610e+00 4.6219109868660091e+00 0.0000000000000000e+00  -1.3773732954027946e+00 4.2121480828613187e+00 0.0000000000000000e+00  -2.4188125901243427e+00 3.8603748985130788e+00 0.0000000000000000e+00  -1.1582054074490171e+00 3.2730714026950967e+00 0.0000000000000000e+00  -2.1966879270424409e+00 2.9711953250136518e+00 0.0000000000000000e+00  -9.6615666832311220e-01 2.7371089444186594e+00 0.0000000000000000e+00  -2.0064561854803915e+00 2.4779047856593168e+00 0.0000000000000000e+00  -7.8865930701312292e-01 1.7851385851788391e+00 0.0000000000000000e+00  -1.8465244759803117e+00 1.5437963510646437e+00 0.0000000000000000e+00  -5.4914977386677477e-01 1.7325304710690370e+00 0.0000000000000000e+00  -1.6950635107010330e+00 1.4041993972213498e+00 0.0000000000000000e+00  -1.8590352155007200e-01 1.2076669472915171e+00 0.0000000000000000e+00  -1.4917301671599055e+00 6.8261290346126191e-01 0.0000000000000000e+00  6.6444165670849942e-01 8.8313098027585392e-03 0.0000000000000000e+00  -1.1429797917370488e+00 -1.2253295670712760e+00 0.0000000000000000e+00  -1.8339035807043214e+00 -5.6713056975362663e+00 0.0000000000000000e+00  -1.3612671834112917e+00 -6.2824327453879860e+00 0.0000000000000000e+00  -2.2628472209232302e+00 -5.8563544182847576e+00 0.0000000000000000e+00  -2.8174991442982358e+00 -6.7816675427951560e+00 0.0000000000000000e+00  -3.5070299304054249e+00 -7.3220231241654821e+00 0.0000000000000000e+00  -4.1214076450059070e+00 -8.1067032538819603e+00 0.0000000000000000e+00  -4.6556305239278082e+00 -8.4697116585588752e+00 0.0000000000000000e+00  -5.3254145694432147e+00 -9.1122330708132893e+00 0.0000000000000000e+00  -5.8504355451278922e+00 -9.3936209199801013e+00 0.0000000000000000e+00  -5.9127012466207258e+00 -9.0093408365469063e+00 0.0000000000000000e+00  -6.9782359773304945e+00 -9.8405756689588966e+00 0.0000000000000000e+00  -3.8517292099605731e+00 -3.8880235263727658e+00 0.0000000000000000e+00  -1.4956376984659450e+01 -1.9141788656322074e+01 0.0000000000000000e+00  -1.4615378923874681e+01 -1.7203554685111090e+01 0.0000000000000000e+00  -1.4667576666690906e+01 -1.5881307006335929e+01 0.0000000000000000e+00  -1.5169704384201884e+01 -1.5200863405392274e+01 0.0000000000000000e+00  -1.6075487982047967e+01 -1.5026059922704016e+01 0.0000000000000000e+00  -1.7286395263277250e+01 -1.5405086217737178e+01 0.0000000000000000e+00  -1.8709449164101560e+01 -1.5909044045927441e+01 0.0000000000000000e+00  -2.0252999262583707e+01 -1.6548546472600837e+01 0.0000000000000000e+00  -2.1827443740935010e+01 -1.7120749114267884e+01 0.0000000000000000e+00  -2.3356683059787326e+01 -1.7560619912493458e+01 0.0000000000000000e+00  -2.4776309288854293e+01 -1.7370974939992767e+01 0.0000000000000000e+00  -2.6031631614302533e+01 -1.7265706570647289e+01 0.0000000000000000e+00  -2.7088296325707265e+01 -1.5759650160114020e+01 0.0000000000000000e+00  -2.7931177421168318e+01 -1.4708268541663967e+01 0.0000000000000000e+00  -2.8557394252472946e+01 -1.1578727683573430e+01 0.0000000000000000e+00  -2.8988261216999742e+01 -9.3854630591369830e+00 0.0000000000000000e+00  -2.9243946595499121e+01 -4.8438762365012442e+00 0.0000000000000000e+00  -2.9371387464351617e+01 -1.1400250965351055e+00 0.0000000000000000e+00  -2.9391565285902061e+01 -1.3510802004686503e-03 0.0000000000000000e+00  -2.9362964947016202e+01 -6.8545009730567674e+00 0.0000000000000000e+00  -2.9391543514756464e+01 1.3313071405329775e-03 0.0000000000000000e+00  -2.9301330321076961e+01 4.9366023725059605e-01 0.0000000000000000e+00  -2.0098875685995313e+01 1.7320238656958711e+01 0.0000000000000000e+00  -2.0810865729771272e+01 1.6690497314964954e+01 0.0000000000000000e+00  -1.7873394591894350e+01 2.1474079316874036e+01 0.0000000000000000e+00  -1.7179430472494342e+01 2.1028557517089808e+01 0.0000000000000000e+00  -1.5577717221817998e+01 2.1684970610148621e+01 0.0000000000000000e+00  -1.4444564534812111e+01 2.0773327142228560e+01 0.0000000000000000e+00  -1.3224872885594824e+01 1.9554071054688421e+01 0.0000000000000000e+00  -1.2182506735488992e+01 1.7953014464764060e+01 0.0000000000000000e+00  -1.0926499876010050e+01 1.6915172573751409e+01 0.0000000000000000e+00  -1.0041412795257166e+01 1.5378683492784418e+01 0.0000000000000000e+00  -9.3272305592274343e+00 1.3746439111527376e+01 0.0000000000000000e+00  -8.5437728788220468e+00 1.2473685900595331e+01 0.0000000000000000e+00  -7.8042884968470663e+00 1.1272280074462040e+01 0.0000000000000000e+00  -7.1126279119504696e+00 1.0153340972626784e+01 0.0000000000000000e+00  -6.4324386011480872e+00 9.2301749998291758e+00 0.0000000000000000e+00  -5.8183895247480777e+00 8.3119990106947679e+00 0.0000000000000000e+00  -5.2781598926436484e+00 7.4012193245742202e+00 0.0000000000000000e+00  -4.7744774952925919e+00 6.6065122922986852e+00 0.0000000000000000e+00  -4.3324573628250507e+00 5.7642244611998308e+00 0.0000000000000000e+00  -3.9612519850493921e+00 4.9647545694642528e+00 0.0000000000000000e+00  -3.6246887103347700e+00 4.1729734153377667e+00 0.0000000000000000e+00  -3.3415090304611734e+00 3.4905032187193563e+00 0.0000000000000000e+00  -3.1105905834413337e+00 2.6529973989600051e+00 0.0000000000000000e+00  -2.9138809900863958e+00 2.2089350910947250e+00 0.0000000000000000e+00  -2.7494168135626076e+00 1.3167516756687099e+00 0.0000000000000000e+00  -2.6128880588445771e+00 1.1949757958973324e+00 0.0000000000000000e+00  -2.4870631206791565e+00 3.8671423841149399e-01 0.0000000000000000e+00  -2.3052288625179655e+00 -1.7290387371055054e+00 0.0000000000000000e+00  -2.5476108370577171e+00 -4.9614883312159730e+00 0.0000000000000000e+00  -2.1208102664975139e+00 -5.6436667384677355e+00 0.0000000000000000e+00  -3.0214910533821127e+00 -5.2120537564272134e+00 0.0000000000000000e+00  -3.4517284201558307e+00 -5.9500194063007212e+00 0.0000000000000000e+00  -4.0058451485634787e+00 -6.2894894055337627e+00 0.0000000000000000e+00  -4.6928617959785015e+00 -7.1886280224614909e+00 0.0000000000000000e+00  -5.3022776939579215e+00 -7.6740456099834820e+00 0.0000000000000000e+00  -5.8284546926056766e+00 -8.1152953496268196e+00 0.0000000000000000e+00  -6.4871775117635817e+00 -8.6161294764011664e+00 0.0000000000000000e+00  -6.9980248104393397e+00 -8.9283313492647576e+00 0.0000000000000000e+00  -7.0429324690945583e+00 -8.2563014496636082e+00 0.0000000000000000e+00  -8.0893165580894966e+00 -8.5918305459462214e+00 0.0000000000000000e+00  -4.9449708982694522e+00 -2.4973669961348088e+00 0.0000000000000000e+00  -1.6035251360056471e+01 -1.7725980436950199e+01 0.0000000000000000e+00  -1.5680247228802212e+01 -1.5817024357300134e+01 0.0000000000000000e+00  -1.5714182751549830e+01 -1.4465933908005201e+01 0.0000000000000000e+00  -1.6191622856470858e+01 -1.3690235172376276e+01 0.0000000000000000e+00  -1.7065981969915260e+01 -1.3616721245511007e+01 0.0000000000000000e+00  -1.8238555684737392e+01 -1.3807420125718783e+01 0.0000000000000000e+00  -1.9615930004873988e+01 -1.4270855962967856e+01 0.0000000000000000e+00  -2.1106926317901468e+01 -1.4801591005998720e+01 0.0000000000000000e+00  -2.2622184333946414e+01 -1.5314395282967238e+01 0.0000000000000000e+00  -2.4084748049543247e+01 -1.5292890528215445e+01 0.0000000000000000e+00  -2.5431643316749280e+01 -1.5439873301522457e+01 0.0000000000000000e+00  -2.6607154298882516e+01 -1.4233915039528490e+01 0.0000000000000000e+00  -2.7579438049992557e+01 -1.3509468036650846e+01 0.0000000000000000e+00  -2.8331131388365584e+01 -1.0702472977239154e+01 0.0000000000000000e+00  -2.8866425835076456e+01 -8.8128536542023159e+00 0.0000000000000000e+00  -2.9198890685864825e+01 -4.5167354874195738e+00 0.0000000000000000e+00  -2.9368831927678691e+01 -1.0328203441664863e+00 0.0000000000000000e+00  -2.9394100313311874e+01 -1.9320524565172423e-03 0.0000000000000000e+00  -2.9344781468644399e+01 -7.0155953071891783e+00 0.0000000000000000e+00  -2.9394080994420758e+01 1.9038979536799376e-03 0.0000000000000000e+00  -2.9152105096787945e+01 3.7135045414091677e-01 0.0000000000000000e+00  -2.9080814534748935e+01 3.5582673562693072e+00 0.0000000000000000e+00  -1.9936003118593064e+01 1.7813632020754806e+01 0.0000000000000000e+00  -2.0720453359509214e+01 1.7118734822825168e+01 0.0000000000000000e+00  -1.7852051906413362e+01 2.0039613106568911e+01 0.0000000000000000e+00  -1.7224007515438458e+01 1.9328681712984491e+01 0.0000000000000000e+00  -1.5682901202164640e+01 1.9118523014664515e+01 0.0000000000000000e+00  -1.4607080782910364e+01 1.7766346429553980e+01 0.0000000000000000e+00  -1.3440383381386170e+01 1.6429326430355029e+01 0.0000000000000000e+00  -1.2448481837016006e+01 1.5069277240778819e+01 0.0000000000000000e+00  -1.1240727703665963e+01 1.4088258548236631e+01 0.0000000000000000e+00  -1.0402370601387785e+01 1.2711373056353064e+01 0.0000000000000000e+00  -9.7339339395780815e+00 1.1334158707679766e+01 0.0000000000000000e+00  -8.9954735602911402e+00 1.0198162771804952e+01 0.0000000000000000e+00  -8.3001308736426775e+00 9.1502926143999659e+00 0.0000000000000000e+00  -7.6518178793931453e+00 8.2436276918795741e+00 0.0000000000000000e+00  -7.0140303792498004e+00 7.4239960583537519e+00 0.0000000000000000e+00  -6.4413661941185731e+00 6.6230919568520576e+00 0.0000000000000000e+00  -5.9414429508157340e+00 5.8824838051846067e+00 0.0000000000000000e+00  -5.4770335889629145e+00 5.1317755404261538e+00 0.0000000000000000e+00  -5.0730473082296799e+00 4.4379227170180382e+00 0.0000000000000000e+00  -4.7389602897899108e+00 3.6969090146848478e+00 0.0000000000000000e+00  -4.4380538440997199e+00 3.0943596105685804e+00 0.0000000000000000e+00  -4.1899322336637175e+00 2.3333075660821945e+00 0.0000000000000000e+00  -3.9920164616248019e+00 1.9416410576806580e+00 0.0000000000000000e+00  -3.8286460549067787e+00 1.0935518576761853e+00 0.0000000000000000e+00  -3.6934912712457977e+00 1.0188468313164847e+00 0.0000000000000000e+00  -3.5905720204997689e+00 2.1585949201716648e-01 0.0000000000000000e+00  -3.4856979426779704e+00 -1.9716989896569317e+00 0.0000000000000000e+00  -3.4678318097902836e+00 -4.3199507691922898e+00 0.0000000000000000e+00  -3.0790746189648717e+00 -5.0625133148240566e+00 0.0000000000000000e+00  -3.8966667358587062e+00 -4.4991798309469830e+00 0.0000000000000000e+00  -4.3738844418860188e+00 -5.3025841430903338e+00 0.0000000000000000e+00  -4.8069751784083321e+00 -5.4572827827951507e+00 0.0000000000000000e+00  -5.3624239962025051e+00 -6.1589113094590502e+00 0.0000000000000000e+00  -6.0480436611816275e+00 -6.7629056783005730e+00 0.0000000000000000e+00  -6.6527082392603223e+00 -7.3318718916658403e+00 0.0000000000000000e+00  -7.1701447031827126e+00 -7.6369907684477463e+00 0.0000000000000000e+00  -7.8156427113862579e+00 -8.1740353702131685e+00 0.0000000000000000e+00  -8.3089219174379263e+00 -8.2037131269387285e+00 0.0000000000000000e+00  -8.3331970048687385e+00 -7.0378941127104966e+00 0.0000000000000000e+00  -9.3589244997098131e+00 -7.2263745562864674e+00 0.0000000000000000e+00  -6.1995742299819492e+00 -1.0981040550623087e+00 0.0000000000000000e+00  -1.7282814165404318e+01 -1.6354401751533544e+01 0.0000000000000000e+00  -1.6921627902958843e+01 -1.4423678621319231e+01 0.0000000000000000e+00  -1.6943230030825561e+01 -1.2988950627415603e+01 0.0000000000000000e+00  -1.7399384205412925e+01 -1.2327472873796193e+01 0.0000000000000000e+00  -1.8241669437910531e+01 -1.2077888472823592e+01 0.0000000000000000e+00  -1.9371798325165063e+01 -1.2241978018088274e+01 0.0000000000000000e+00  -2.0696038976587634e+01 -1.2609657190785670e+01 0.0000000000000000e+00  -2.2122886863861922e+01 -1.3093684390219501e+01 0.0000000000000000e+00  -2.3562987502294909e+01 -1.3158530950253521e+01 0.0000000000000000e+00  -2.4939984646777202e+01 -1.3487735894696661e+01 0.0000000000000000e+00  -2.6189248442235460e+01 -1.2543832786926624e+01 0.0000000000000000e+00  -2.7258542440914031e+01 -1.2134548014801505e+01 0.0000000000000000e+00  -2.8112967147801349e+01 -9.6576078109796892e+00 0.0000000000000000e+00  -2.8744154813063034e+01 -8.1066145432639036e+00 0.0000000000000000e+00  -2.9147557759269898e+01 -4.0957388949908200e+00 0.0000000000000000e+00  -2.9362314905401835e+01 -8.8850864485571290e-01 0.0000000000000000e+00  -2