<?xml version="1.0"?>
<VTKFile type="UnstructuredGrid"  version="0.1"  >
<UnstructuredGrid>
<Piece  NumberOfPoints="1933" NumberOfCells="3640">
<Points>
<DataArray  type="Float64"  NumberOfComponents="3"  format="ascii">0.2940389726114606 -0.001706939724850841 0  5.29403902370318 -0.001671842271805742 0  5.293986381281743 7.498328288522528 0  0.2939863043948969 7.498293148206817 0  10.29403910446044 -0.001636849305807519 0  10.29398651199821 7.498363292017217 0  15.29403927058005 -0.001601974483791568 0  15.29398672069992 7.498398166505096 0  20.29403957423151 -0.001567191531976054 0  20.29398702881822 7.498432946042997 0  25.294040058747 -0.001532452281823752 0  25.2939874552218 7.498467681700889 0  30.29404075852845 -0.001497695654940994 0  30.29398801555777 7.498502435575002 0  35.29404170048181 -0.001462852015830044 0  35.2939887217628 7.498537277573235 0  40.29404290564909 -0.00142784492195516 0  40.29398958178282 7.498572284123894 0  45.29404439058739 -0.001392591299072527 0  45.29399059935949 7.498607538186819 0  50.29404616836786 -0.001357000571705901 0  50.29399177373182 7.498643130193359 0  55.29404824917806 -0.001320973000953323 0  55.29399309913 7.498679159726032 0  60.29405064052623 -0.00128439731047337 0  60.29399456394632 7.49871573788112 0  65.29405334703132 -0.001247147560412581 0  65.29399614945622 7.498752990359757 0  70.2940563697294 -0.001209079125554268 0  70.29399782793543 7.498791061423686 0  75.29405970476705 -0.001170023524967201 0  75.29399955995677 7.498830118945937 0  80.29406334123712 -0.001129781714743984 0  80.29400129056224 7.498870360898943 0  85.29406725774606 -0.001088115268667895 0  85.29400294388586 7.498912023764707 0  90.29407141700597 -0.001044734600994257 0  90.2940044156186 7.49895539353621 0  95.29407575725139 -0.0009992829842714983 0  95.29400556248422 7.499000820211501 0  100.2940801783818 -0.0009513145170502031 0  100.2940061876361 7.499048736946412 0  105.2940845191333 -0.0009002633145335931 0  105.2940060206459 7.499099685260529 0  110.2940885186127 -0.0008453999368717392 0  110.2940046907959 7.499154347670166 0  115.2940917500492 -0.0007857694055827032 0  115.2940016932365 7.499213588316251 0  120.2940935043048 -0.0007201033527680598 0  120.2939963505959 7.499278499274032 0  125.2940925812692 -0.0006466981619671259 0  125.2939877809333 7.49935044237413 0  130.2940869104814 -0.0005632558169554299 0  130.2939749032857 7.499431057312732 0  135.294072852386 -0.0004667093209519802 0  135.2939565592894 7.49952216449111 0  140.2940438968234 -0.0003531518812361437 0  140.2939319355655 7.499625407741958 0  145.2939882031004 -0.0002183635327601723 0  145.2939017107295 7.499741367481461 0  150.2938837958534 -6.100350121556316e-05 0  150.2938709245997 7.499868017830858 0  160.293892626145 9.019145278990116e-19 0  165.2938333705798 -0.0001211407184460535 0  165.2938835517562 7.499855098235559 0  160.2938945938323 7.499944681785069 0  170.2938157940249 -0.000204031694568628 0  170.2938720426154 7.499784275991387 0  175.2938176855129 -0.0002601368460834858 0  175.2938650708571 7.499733717824464 0  180.2938283873231 -0.0002965110034679127 0  180.2938627415452 7.49970015677465 0  185.2938426396726 -0.0003181464357043472 0  185.2938639776762 7.499680020424962 0  190.293857838476 -0.0003286717168564208 0  190.2938676239916 7.499670317700633 0  195.2938727168703 -0.0003307361387730229 0  195.2938727423293 7.499668714834073 0  200.2938866879567 -0.0003262841338610483 0  200.293878646934 7.499673431176283 0  205.2938995110993 -0.0003167559778282019 0  205.2938848640395 7.499683113722305 0  210.2939111206266 -0.000303231612571943 0  210.2938910787799 7.499696729924297 0  215.2939215372436 -0.0002865320813015098 0  215.2938970890319 7.499713484943568 0  220.2939308220105 -0.0002672906640628895 0  220.2939027702505 7.499732760271256 0  225.2939390524421 -0.0002460028962782932 0  225.2939080502541 7.499754068879724 0  230.2939463102189 -0.0002230620334721889 0  230.2939128917216 7.499777022533658 0  235.2939526750519 -0.0001987844972545836 0  235.2939172802766 7.499801307855909 0  240.2939582218443 -0.0001734283852873036 0  240.2939212164749 7.499826668655118 0  245.2939630196435 -0.000147207129060761 0  245.293924710487 7.49985289274223 0  250.2939671315775 -0.000120299708624675 0  250.293927778622 7.499879801991727 0  255.293970615358 -9.285837908264616e-05 0  255.2939304411208 7.499907244781707 0  260.2939735241239 -6.501455396889296e-05 0  260.2939327208162 7.499935090215511 0  265.2939759075348 -3.688327277561528e-05 0  265.2939346424039 7.499963223722551 0  270.2939778130596 -8.566516424939052e-06 0  270.2939362321311 7.499991543784671 0  275.2939792874721 1.984450291748401e-05 0  275.2939375177647 7.500019959657712 0  280.2939803785536 4.826808776894486e-05 0  280.2939385287297 7.500048390074109 0  285.2939811369992 7.663200947930523e-05 0  285.2939392963031 7.50007676303684 0  290.2939816184191 0.0001048750662475688 0  290.293939853743 7.500105016960058 0  295.2939818851667 0.0001329509713055251 0  295.2939402362671 7.500133103585064 0  300.2939820072106 0.0001608357892928256 0  300.2939404808401 7.500160993294704 0  305.2939820603088 0.0001885407820562831 0  305.2939406261272 7.500188683639794 0  310.2939821174307 0.0002161328305562398 0  310.2939407139599 7.50021621215985 0  5.29393346308698 14.99832856949318 0  0.2939333846053113 14.99829336013 0  10.29393357752271 14.99836357505833 0  15.29393374488496 14.99839842779468 0  20.29393397387366 14.99843318014475 0  25.29393426925675 14.99846789026014 0  30.29393463313631 14.99850262234072 0  35.29393506495315 14.99853744628116 0  40.29393556101184 14.99857243763122 0  45.29393611380769 14.99860767811415 0  50.29393671121879 14.99864325672205 0  55.29393733553535 14.99867927137008 0  60.29393796226012 14.99871583111772 0  65.29393855859826 14.9987530590084 0  70.29393908154131 14.99879109562712 0  75.29393947544973 14.99883010352521 0  80.29393966903838 14.99887027270796 0  85.29393957170527 14.99891182741673 0  90.29393906922505 14.99895503444276 0  95.29393801903504 14.99900021313479 0  100.293936245737 14.99904774701097 0  105.2939335382614 14.99909809625067 0  110.2939296516042 14.99915180893157 0  115.2939243187006 14.99920952593689 0  120.2939172823994 14.99927196860653 0  125.2939083643635 14.99933988702223 0  130.2938975970108 14.99941392631559 0  135.2938854536559 14.99949433261358 0  140.2938732096247 14.9995803609831 0  145.2938634180076 14.99966914870911 0  150.2938602816891 14.99975358711012 0  165.2938908811819 14.99978941122792 0  160.2938887954051 14.99983347579703 0  170.2938866673346 14.99974715732292 0  175.2938806032834 14.99971293429724 0  180.2938751358462 14.99968852980103 0  185.293871203147 14.99967352644945 0  190.2938689525369 14.99966671972428 0  195.2938681876413 14.99966676458527 0  200.2938686006996 14.99967242628412 0  205.2938698804353 14.99968265472904 0  210.2938717551129 14.99969658692245 0  215.2938740043165 14.99971352400608 0  220.2938764569789 14.9997329025393 0  225.2938789843477 14.99975426757606 0  230.2938814919046 14.99977724989156 0  235.2938839119454 14.99980154758989 0  240.2938861973636 14.99982691156901 0  245.2938883167037 14.99985313414063 0  250.2938902503473 14.99988004014735 0  255.2938919876227 14.99990748003124 0  260.293893524653 14.99993532443371 0  265.293894862754 14.999963460016 0  270.2938960072537 14.99999178628718 0  275.2938969666059 15.00002021330659 0  280.2938977517099 15.0000486601972 0  285.293898375401 15.00007705446054 0  290.2938988520872 15.00010533211152 0  295.2938991976914 15.0001334386177 0  300.2938994301859 15.00016133045777 0  305.293899571441 15.00018897663279 0  310.2938996516761 15.00021635828395 0  5.293880358986311 22.49832908890603 0  0.2938802847977277 22.4982938686045 0  10.29388044627279 22.49836405796905 0  15.29388055441099 22.49839885412505 0  20.29388068477437 22.49843354560216 0  25.29388083459466 22.49846819785808 0  30.29388099820545 22.4985028773514 0  35.2938811673819 22.49853765348407 0  40.2938813311164 22.49857259984213 0  45.29388147507809 22.49860779531578 0  50.29388158089311 22.49864332537364 0  55.29388162530326 22.49867928361769 0  60.29388157922634 22.49871577368549 0  65.29388140672887 22.49875291154586 0  70.29388106393785 22.49879082822554 0  75.29388049795647 22.49882967299264 0  80.29387964592244 22.49886961698715 0  85.29387843446916 22.49891085721056 0  90.29387678005665 22.49895362062224 0  95.2938745909622 22.4989981677769 0  100.2938717722171 22.49904479485804 0  105.2938682355092 22.49909383193641 0  110.2938639170789 22.49914563351027 0  115.2938588078674 22.49920055444121 0  120.2938530013252 22.49925889972841 0  125.2938467644851 22.49932082966197 0  130.2938406350109 22.49938619293433 0  135.2938355366205 22.4994542519284 0  140.2938328795849 22.49952326654394 0  145.2938345600851 22.49958994579805 0  150.2938426828273 22.4996489548037 0  165.2938741794755 22.49971484960462 0  160.2938674402518 22.49972860429039 0  170.2938750905151 22.49969701098728 0  175.2938723790233 22.49968034721324 0  180.2938680122151 22.49966777752085 0  185.2938633299338 22.49966048994491 0  190.2938590843674 22.4996586318067 0  195.293855614225 22.49966182674893 0  200.2938530075602 22.49966948762843 0  205.2938512177367 22.49968098323384 0  210.2938501362397 22.49969571735215 0  215.2938496346076 22.49971316008056 0  220.2938495866237 22.49973285502033 0  225.2938498787471 22.49975441534425 0  230.2938504139359 22.49977751550043 0  235.2938511120044 22.49980188187294 0  240.2938519083172 22.49982728390549 0  245.2938527518332 22.49985352627051 0  250.2938536030137 22.49988044222526 0  255.2938544318608 22.4999078881002 0  260.2938552161647 22.49993573879531 0  265.2938559400085 22.49996388414712 0  270.2938565924966 22.49999222604153 0  275.2938571666993 22.50002067616607 0  280.2938576587977 22.50004915430545 0  285.2938580674463 22.50007758707233 0  290.2938583934228 22.50010590690964 0  295.2938586397282 22.50013405106107 0 
[...]
<PointData  Vectors="v"> 
<DataArray  type="Float64"  Name="v"  NumberOfComponents="3" format="ascii">1.0982391348607208e+00 7.6633368813489620e+00 0.0000000000000000e+00  1.6557020992816582e+00 7.1792897539485985e+00 0.0000000000000000e+00  1.5252920746958640e+00 6.3433684524752687e+00 0.0000000000000000e+00  1.0952822925512600e+00 7.0186073940105693e+00 0.0000000000000000e+00  2.3500218499294525e+00 7.7603406661923744e+00 0.0000000000000000e+00  2.0823241246252282e+00 6.7198321394268641e+00 0.0000000000000000e+00  2.9716705103707115e+00 8.7815821851628364e+00 0.0000000000000000e+00  2.7753972005112444e+00 7.8506445071342617e+00 0.0000000000000000e+00  3.5156892260592247e+00 9.0948823405702814e+00 0.0000000000000000e+00  3.3950580635977232e+00 8.2811571898262724e+00 0.0000000000000000e+00  4.1973974971063761e+00 9.9689102100714226e+00 0.0000000000000000e+00  3.9362963374124478e+00 8.9493501216892586e+00 0.0000000000000000e+00  4.7368510506386139e+00 1.0323654674904338e+01 0.0000000000000000e+00  4.6143038250837130e+00 9.5181021969255095e+00 0.0000000000000000e+00  4.8158185597149359e+00 1.0059970559016305e+01 0.0000000000000000e+00  5.1492308496523940e+00 9.9459299145768210e+00 0.0000000000000000e+00  5.9000172717380863e+00 1.1156420433366668e+01 0.0000000000000000e+00  5.2229218221460032e+00 9.5352108437979517e+00 0.0000000000000000e+00  2.7952987793310040e+00 5.9937293555639082e+00 0.0000000000000000e+00  6.3009017783995382e+00 1.0656654532850499e+01 0.0000000000000000e+00  1.3914095013442276e+01 2.1874291910628113e+01 0.0000000000000000e+00  3.1892307040598187e+00 5.2020464723600579e+00 0.0000000000000000e+00  1.3594610701739638e+01 2.0100973730456868e+01 0.0000000000000000e+00  1.4300574812868986e+01 2.0587447151785838e+01 0.0000000000000000e+00  1.3671984831224165e+01 1.8782024259738531e+01 0.0000000000000000e+00  1.3972560258287817e+01 1.8674198471686505e+01 0.0000000000000000e+00  1.4203206094403440e+01 1.8115339265517850e+01 0.0000000000000000e+00  1.4040108851553292e+01 1.7328062805006617e+01 0.0000000000000000e+00  1.5143435595197362e+01 1.8082848217919320e+01 0.0000000000000000e+00  1.4560135553587751e+01 1.6683408419598969e+01 0.0000000000000000e+00  1.6393665213508868e+01 1.8474468587925887e+01 0.0000000000000000e+00  1.5487325371198599e+01 1.6611063160940990e+01 0.0000000000000000e+00  1.7860264228753465e+01 1.9083186454404700e+01 0.0000000000000000e+00  1.6723038113578991e+01 1.6896656517726012e+01 0.0000000000000000e+00  1.9452650629128044e+01 1.9970206488401089e+01 0.0000000000000000e+00  1.8173788213172365e+01 1.7596247191696545e+01 0.0000000000000000e+00  2.1080371301413887e+01 2.0709225242730099e+01 0.0000000000000000e+00  1.9748472002524537e+01 1.8283090042936731e+01 0.0000000000000000e+00  2.2666709935362231e+01 2.1333651605743793e+01 0.0000000000000000e+00  2.1357339523093554e+01 1.8971013071476648e+01 0.0000000000000000e+00  2.4148095349317710e+01 2.1681804050203102e+01 0.0000000000000000e+00  2.2923492282357955e+01 1.9477395715198060e+01 0.0000000000000000e+00  2.5469097325294818e+01 2.1717140927150336e+01 0.0000000000000000e+00  2.4383442633525608e+01 1.9754260786046714e+01 0.0000000000000000e+00  2.6593967555723573e+01 2.0988384970532454e+01 0.0000000000000000e+00  2.5681596642285459e+01 1.9320199781671921e+01 0.0000000000000000e+00  2.7509062037251248e+01 2.0269743846261949e+01 0.0000000000000000e+00  2.6783620947043993e+01 1.8917715564914818e+01 0.0000000000000000e+00  2.8208729404908006e+01 1.8123010840493340e+01 0.0000000000000000e+00  2.7673468294652686e+01 1.7092986776315804e+01 0.0000000000000000e+00  2.8714922286792717e+01 1.6453222214736321e+01 0.0000000000000000e+00  2.8349622392690179e+01 1.5716381025175380e+01 0.0000000000000000e+00  2.9046444851583825e+01 1.2774410891218137e+01 0.0000000000000000e+00  2.8828540637285641e+01 1.2295999716490938e+01 0.0000000000000000e+00  2.9247287851625366e+01 1.0115264413370365e+01 0.0000000000000000e+00  2.9137330019094659e+01 9.8385223285794421e+00 0.0000000000000000e+00  2.9342337643990444e+01 5.2308148284081808e+00 0.0000000000000000e+00  2.9308824179842318e+01 5.1050230797806657e+00 0.0000000000000000e+00  2.9381791180725134e+01 1.2752008657330092e+00 0.0000000000000000e+00  2.9383384568216400e+01 1.2431337936287099e+00 0.0000000000000000e+00  2.9389262609510503e+01 -4.3392480506546635e-09 0.0000000000000000e+00  2.9389916192444371e+01 6.8474593117890249e-04 0.0000000000000000e+00  2.9389262614648501e+01 -3.9929160151941568e-19 0.0000000000000000e+00  2.0125148754621957e+01 -7.1218612660067171e+00 0.0000000000000000e+00  2.9383850910704417e+01 6.7485963828788051e+00 0.0000000000000000e+00  2.9389904729387876e+01 -6.5390465898167876e-04 0.0000000000000000e+00  2.0750138871690602e+01 -1.3369366449821060e+01 0.0000000000000000e+00  2.0153177987268144e+01 -1.4346846634603143e+01 0.0000000000000000e+00  1.7730851994453275e+01 -2.0809239340079422e+01 0.0000000000000000e+00  2.0815734471331972e+01 -1.6310828198650981e+01 0.0000000000000000e+00  1.6954173588163872e+01 -2.2282581892168086e+01 0.0000000000000000e+00  1.7834718815154478e+01 -2.1152327560201694e+01 0.0000000000000000e+00  1.5274472160485853e+01 -2.5059540718637269e+01 0.0000000000000000e+00  1.7095607278112784e+01 -2.2572868214005300e+01 0.0000000000000000e+00  1.4063161235668803e+01 -2.5271905025601363e+01 0.0000000000000000e+00  1.5452895533391535e+01 -2.3488627263580156e+01 0.0000000000000000e+00  1.2768681001176473e+01 -2.5350954866490483e+01 0.0000000000000000e+00  1.4278864444433342e+01 -2.3441656356996987e+01 0.0000000000000000e+00  1.1653343108940328e+01 -2.4299076120208564e+01 0.0000000000000000e+00  1.3020844955035546e+01 -2.2659032497732962e+01 0.0000000000000000e+00  1.0325790935713432e+01 -2.3131690464153877e+01 0.0000000000000000e+00  1.1941592908549461e+01 -2.1172636400008475e+01 0.0000000000000000e+00  9.3703533422360774e+00 -2.1291056539970935e+01 0.0000000000000000e+00  1.0649944951835813e+01 -1.9889975741886751e+01 0.0000000000000000e+00  8.5869550766378051e+00 -1.9436943496135655e+01 0.0000000000000000e+00  9.7299505595541227e+00 -1.8293715733276240e+01 0.0000000000000000e+00  7.7350194748008159e+00 -1.7744872172666014e+01 0.0000000000000000e+00  8.9816176359295010e+00 -1.6498565574928659e+01 0.0000000000000000e+00  6.9281830602196743e+00 -1.6146483751939982e+01 0.0000000000000000e+00  8.1645453930407346e+00 -1.4967444411976889e+01 0.0000000000000000e+00  6.1703068905908243e+00 -1.4731519952505986e+01 0.0000000000000000e+00  7.3921589720435623e+00 -1.3625726690875526e+01 0.0000000000000000e+00  5.4248176010204503e+00 -1.3436854342141713e+01 0.0000000000000000e+00  6.6683642469336863e+00 -1.2349292264624006e+01 0.0000000000000000e+00  4.7465865233951741e+00 -1.2196791751764748e+01 0.0000000000000000e+00  5.9566510283993317e+00 -1.1209783204078713e+01 0.0000000000000000e+00  4.1433569790502647e+00 -1.1059033601069324e+01 0.0000000000000000e+00  5.3118079917611709e+00 -1.0184240608568592e+01 0.0000000000000000e+00  3.5776397175975392e+00 -9.9710874786619659e+00 0.0000000000000000e+00  4.7415538203214203e+00 -9.1522691667703953e+00 0.0000000000000000e+00  3.0747533047051134e+00 -8.9089564925044158e+00 0.0000000000000000e+00  4.2085308586028924e+00 -8.1840038959726584e+00 0.0000000000000000e+00  2.6437098978935860e+00 -7.9118159009169435e+00 0.0000000000000000e+00  3.7378741159142215e+00 -7.2944396562447134e+00 0.0000000000000000e+00  2.2484560670516718e+00 -6.9083133800756311e+00 0.0000000000000000e+00  3.3388327795367108e+00 -6.3441720947341160e+00 0.0000000000000000e+00  1.9074021306630731e+00 -5.9739261838808595e+00 0.0000000000000000e+00  2.9750206157907400e+00 -5.4910340697721427e+00 0.0000000000000000e+00  1.6201116370616995e+00 -5.0215243970920937e+00 0.0000000000000000e+00  2.6654592686422998e+00 -4.6185843712716670e+00 0.0000000000000000e+00  1.3672690745413387e+00 -4.2071029755740499e+00 0.0000000000000000e+00  2.4086199227196921e+00 -3.8563036699872844e+00 0.0000000000000000e+00  1.1488937355748903e+00 -3.2689072651251725e+00 0.0000000000000000e+00  2.1871456162883978e+00 -2.9682449397384514e+00 0.0000000000000000e+00  9.5773354384518961e-01 -2.7316083266311666e+00 0.0000000000000000e+00  1.9977346477210143e+00 -2.4737456602376646e+00 0.0000000000000000e+00  7.8128875163325440e-01 -1.7820892187459201e+00 0.0000000000000000e+00  1.8386973250964633e+00 -1.5423496465606628e+00 0.0000000000000000e+00  5.4330997541158832e-01 -1.7256296886497688e+00 0.0000000000000000e+00  1.6883259553743146e+00 -1.3995809400965251e+00 0.0000000000000000e+00  1.8239580030749150e-01 -1.2019124996583721e+00 0.0000000000000000e+00  1.4865237135013454e+00 -6.8035239737512121e-01 0.0000000000000000e+00  -6.6123482203106176e-01 -7.3848676870317933e-03 0.0000000000000000e+00  1.1400738481418975e+00 1.2166822352127069e+00 0.0000000000000000e+00  1.8028220425042363e+00 5.6979974003701255e+00 0.0000000000000000e+00  1.3289389549821293e+00 6.3087592715733987e+00 0.0000000000000000e+00  2.2331514517580953e+00 5.8843591403564579e+00 0.0000000000000000e+00  2.7896548504043688e+00 6.8118711605565281e+00 0.0000000000000000e+00  3.4809797448183262e+00 7.3533115067547890e+00 0.0000000000000000e+00  4.0974611307814479e+00 8.1399058290950332e+00 0.0000000000000000e+00  4.6340688912958283e+00 8.5045364259462062e+00 0.0000000000000000e+00  5.3058080357135120e+00 9.1480617050454640e+00 0.0000000000000000e+00  5.8327063432194084e+00 9.4299495722318731e+00 0.0000000000000000e+00  5.8968980405076357e+00 9.0459872473655079e+00 0.0000000000000000e+00  6.9638837323565053e+00 9.8768521504530931e+00 0.0000000000000000e+00  3.8404676537415310e+00 3.9263086619690823e+00 0.0000000000000000e+00  1.4941090587193816e+01 1.9172693048229828e+01 0.0000000000000000e+00  1.4601925781157338e+01 1.7234624239437714e+01 0.0000000000000000e+00  1.4655858193583532e+01 1.5912368405593012e+01 0.0000000000000000e+00  1.5159611188115907e+01 1.5231704695352343e+01 0.0000000000000000e+00  1.6066905653945774e+01 1.5056555501830546e+01 0.0000000000000000e+00  1.7279195562844965e+01 1.5435031613132185e+01 0.0000000000000000e+00  1.8703503389304622e+01 1.5938412696253794e+01 0.0000000000000000e+00  2.0248166743512069e+01 1.6577138042759639e+01 0.0000000000000000e+00  2.1823582800714558e+01 1.7148640302887070e+01 0.0000000000000000e+00  2.3353652061006073e+01 1.7587540045653554e+01 0.0000000000000000e+00  2.4773984538500773e+01 1.7397379047358221e+01 0.0000000000000000e+00  2.6029874609889848e+01 1.7290883229701031e+01 0.0000000000000000e+00  2.7087022287273840e+01 1.5784997315760846e+01 0.0000000000000000e+00  2.7930259691686889e+01 1.4732264561663479e+01 0.0000000000000000e+00  2.8556787534013964e+01 1.1603982713560670e+01 0.0000000000000000e+00  2.8987856788205828e+01 9.4096708424751014e+00 0.0000000000000000e+00  2.9243721655432402e+01 4.8692524916586573e+00 0.0000000000000000e+00  2.9371273401373671e+01 1.1715538187376870e+00 0.0000000000000000e+00  2.9391483878160393e+01 1.3052627972138665e-03 0.0000000000000000e+00  2.9362808891881862e+01 6.8109649939817363e+00 0.0000000000000000e+00  2.9391462839139695e+01 -1.2860080864220873e-03 0.0000000000000000e+00  2.9301245435893915e+01 -5.1356978840925460e-01 0.0000000000000000e+00  2.0104835396355334e+01 -1.7331630532440371e+01 0.0000000000000000e+00  2.0811863441829029e+01 -1.6706300370195287e+01 0.0000000000000000e+00  1.7873340574382858e+01 -2.1490579626186918e+01 0.0000000000000000e+00  1.7177225599439833e+01 -2.1047550336567294e+01 0.0000000000000000e+00  1.5574048105240239e+01 -2.1705018131306232e+01 0.0000000000000000e+00  1.4439404188980983e+01 -2.0794330380323686e+01 0.0000000000000000e+00  1.3218509832279775e+01 -1.9575297316353115e+01 0.0000000000000000e+00  1.2175088724155069e+01 -1.7973697611627074e+01 0.0000000000000000e+00  1.0918346732517506e+01 -1.6934351442814428e+01 0.0000000000000000e+00  1.0032460494582097e+01 -1.5396021929170480e+01 0.0000000000000000e+00  9.3174131996049390e+00 -1.3761783067377980e+01 0.0000000000000000e+00  8.5332803366776115e+00 -1.2486679578187267e+01 0.0000000000000000e+00  7.7932666715907635e+00 -1.1282696504976458e+01 0.0000000000000000e+00  7.1012289361034542e+00 -1.0161128684949105e+01 0.0000000000000000e+00  6.4207888896773930e+00 -9.2354902581746803e+00 0.0000000000000000e+00  5.8066061868442427e+00 -8.3149876194670522e+00 0.0000000000000000e+00  5.2663637045435276e+00 -7.4022570068785525e+00 0.0000000000000000e+00  4.7627668215972996e+00 -6.6059170195653198e+00 0.0000000000000000e+00  4.3209417559709715e+00 -5.7625512090269781e+00 0.0000000000000000e+00  3.9500296387725227e+00 -4.9621504443350233e+00 0.0000000000000000e+00  3.6138726945458046e+00 -4.1703618719776969e+00 0.0000000000000000e+00  3.3311771254866049e+00 -3.4873576464212284e+00 0.0000000000000000e+00  3.1008779679428851e+00 -2.6510422196536583e+00 0.0000000000000000e+00  2.9048448474115798e+00 -2.2060108903171955e+00 0.0000000000000000e+00  2.7412037924401487e+00 -1.3166673514098428e+00 0.0000000000000000e+00  2.6056048659211668e+00 -1.1919811311563311e+00 0.0000000000000000e+00  2.4808642245924348e+00 -3.8675762516720363e-01 0.0000000000000000e+00  2.3005330041694005e+00 1.7168821190802550e+00 0.0000000000000000e+00  2.5159478002777109e+00 4.9863602044876503e+00 0.0000000000000000e+00  2.0878162569615668e+00 5.6680472681689489e+00 0.0000000000000000e+00  2.9910457827665358e+00 5.2379980487366229e+00 0.0000000000000000e+00  3.4226454698625686e+00 5.9774294839221662e+00 0.0000000000000000e+00  3.9786211152959039e+00 6.3180857596812601e+00 0.0000000000000000e+00  4.6674079542905842e+00 7.2186674761277132e+00 0.0000000000000000e+00  5.2789204557686151e+00 7.7053083016207911e+00 0.0000000000000000e+00  5.8074616153216505e+00 8.1481913215676762e+00 0.0000000000000000e+00  6.4681233554513300e+00 8.6496635803956252e+00 0.0000000000000000e+00  6.9808250123747033e+00 8.9621546759004556e+00 0.0000000000000000e+00  7.0276439719505159e+00 8.2903828850662151e+00 0.0000000000000000e+00  8.0754692460159863e+00 8.6258943188751225e+00 0.0000000000000000e+00  4.9341934828545044e+00 2.5333325777393658e+00 0.0000000000000000e+00  1.6020420268056952e+01 1.7754450873130565e+01 0.0000000000000000e+00  1.5667220536550925e+01 1.5845594902504567e+01 0.0000000000000000e+00  1.5702862837457261e+01 1.4494405418198996e+01 0.0000000000000000e+00  1.6181901499132643e+01 1.3718496713862413e+01 0.0000000000000000e+00  1.7057737914938887e+01 1.3644589633964994e+01 0.0000000000000000e+00  1.8231668378737261e+01 1.3834891340403132e+01 0.0000000000000000e+00  1.9610265411284374e+01 1.4297749812666723e+01 0.0000000000000000e+00  2.1102345044675484e+01 1.4827997270325431e+01 0.0000000000000000e+00  2.2618542756900748e+01 1.5340048498787510e+01 0.0000000000000000e+00  2.4081916038532725e+01 1.5318241824434489e+01 0.0000000000000000e+00  2.5429474339026914e+01 1.5464204606658750e+01 0.0000000000000000e+00  2.6605550618445353e+01 1.4258604199813039e+01 0.0000000000000000e+00  2.7578264099276947e+01 1.3532981413577078e+01 0.0000000000000000e+00  2.8330326860685872e+01 1.0727387347076577e+01 0.0000000000000000e+00  2.8865873028045765e+01 8.8368500992293448e+00 0.0000000000000000e+00  2.9198553776834686e+01 4.5419861389369336e+00 0.0000000000000000e+00  2.9368628150227103e+01 1.0642959238026999e+00 0.0000000000000000e+00  2.9393932735637136e+01 1.8678282144551546e-03 0.0000000000000000e+00  2.9344486897957250e+01 6.9720955527877253e+00 0.0000000000000000e+00  2.9393913996235355e+01 -1.8402680951878005e-03 0.0000000000000000e+00  2.9151841043673208e+01 -3.9119317767483902e-01 0.0000000000000000e+00  2.9080559106416587e+01 -3.5782483321432799e+00 0.0000000000000000e+00  1.9941829167714701e+01 -1.7822053186099385e+01 0.0000000000000000e+00  2.0721354736278805e+01 -1.7133501485649546e+01 0.0000000000000000e+00  1.7851919571540151e+01 -2.0055414445328474e+01 0.0000000000000000e+00  1.7221766600824282e+01 -1.9346509514069801e+01 0.0000000000000000e+00  1.5679227111285856e+01 -1.9137326488717907e+01 0.0000000000000000e+00  1.4601954156933688e+01 -1.7785812422014882e+01 0.0000000000000000e+00  1.3434098754099285e+01 -1.6448487472068908e+01 0.0000000000000000e+00  1.2441193900086787e+01 -1.5087385176405512e+01 0.0000000000000000e+00  1.1232750007441808e+01 -1.4104456398683634e+01 0.0000000000000000e+00  1.0393639039686775e+01 -1.2725483459289663e+01 0.0000000000000000e+00  9.7243825306008524e+00 -1.1346185084096753e+01 0.0000000000000000e+00  8.9852866524726593e+00 -1.0207826443544336e+01 0.0000000000000000e+00  8.2894523168873864e+00 -9.1575510442993604e+00 0.0000000000000000e+00  7.6407990471431217e+00 -8.2485929073439923e+00 0.0000000000000000e+00  7.0027924608499825e+00 -7.4268094065722154e+00 0.0000000000000000e+00  6.4300246014230007e+00 -6.6241348506827755e+00 0.0000000000000000e+00  5.9301180299509930e+00 -5.8820352254385195e+00 0.0000000000000000e+00  5.4658185304222053e+00 -5.1304148822018023e+00 0.0000000000000000e+00  5.0620530545006037e+00 -4.4357768494072056e+00 0.0000000000000000e+00  4.7282813433290167e+00 -3.6949239893552974e+00 0.0000000000000000e+00  4.4278056880434145e+00 -3.0919528492953527e+00 0.0000000000000000e+00  4.1801844891268001e+00 -2.3322999145784182e+00 0.0000000000000000e+00  3.9829178569018890e+00 -1.9397341388719211e+00 0.0000000000000000e+00  3.8202299518831548e+00 -1.0947215617444011e+00 0.0000000000000000e+00  3.6859367293550749e+00 -1.0172364993992611e+00 0.0000000000000000e+00  3.5839458469192613e+00 -2.1754173463538734e-01 0.0000000000000000e+00  3.4801281818057541e+00 1.9572155177567003e+00 0.0000000000000000e+00  3.4358390642842491e+00 4.3428862874667855e+00 0.0000000000000000e+00  3.0458199735805289e+00 5.0850590502360973e+00 0.0000000000000000e+00  3.8659749692161345e+00 4.5233178717893168e+00 0.0000000000000000e+00  4.3443842244106188e+00 5.3279542294293947e+00 0.0000000000000000e+00  4.7788402986887766e+00 5.4831118551694109e+00 0.0000000000000000e+00  5.3361179914371730e+00 6.1862909120677028e+00 0.0000000000000000e+00  6.0234929691690828e+00 6.7910424993760996e+00 0.0000000000000000e+00  6.6302241187961766e+00 7.3612473693617133e+00 0.0000000000000000e+00  7.1499980451445602e+00 7.6676373501945179e+00 0.0000000000000000e+00  7.7974006037394208e+00 8.2051120112724387e+00 0.0000000000000000e+00  8.2925074053445638e+00 8.2350211730957863e+00 0.0000000000000000e+00  8.3186718840552647e+00 7.0698147639838815e+00 0.0000000000000000e+00  9.3458069061199520e+00 7.2581695012097036e+00 0.0000000000000000e+00  6.1894883907386866e+00 1.1317017452643723e+00 0.0000000000000000e+00  1.7268631666146653e+01 1.6380429745216254e+01 0.0000000000000000e+00  1.6909208282764400e+01 1.4449717562481984e+01 0.0000000000000000e+00  1.6932476790318791e+01 1.3014902786547323e+01 0.0000000000000000e+00  1.7390182351068606e+01 1.2353170347697604e+01 0.0000000000000000e+00  1.8233905139688094e+01 1.2103348493069690e+01 0.0000000000000000e+00  1.9365345430402655e+01 1.2267043106129194e+01 0.0000000000000000e+00  2.0690764211539314e+01 1.2634436633982110e+01 0.0000000000000000e+00  2.2118648564320267e+01 1.3117925554743593e+01 0.0000000000000000e+00  2.3559652667294980e+01 1.3182687796132628e+01 0.0000000000000000e+00  2.4937400962064942e+01 1.3511088016013559e+01 0.0000000000000000e+00  2.6187308064844554e+01 1.2567744002381364e+01 0.0000000000000000e+00  2.7257099468140435e+01 1.2157472033740852e+01 0.0000000000000000e+00  2.8111948956476670e+01 9.6820939477052121e+00 0.0000000000000000e+00  2.8743432610392080e+01 8.1303298279045642e+00 0.0000000000000000e+00  2.9147085262270728e+01 4.1208187507516083e+00 0.0000000000000000e+00  2.9361996865056749e+01 9.1991699960100992e-01 0.0000000000000000e+00  2.9397168979848040e+01 2.3696012141967938e-03 0.0000000000000000e+00  2.9330404161352867e+01 7.2213042772981630e+00 0.0000000000000000e+00  2.9397151561425279e+01 -2.3316746941061772e-03 0.0000000000000000e+00  2.9032347626575604e+01 4.9928983718591025e-03 0.0000000000000000e+00  2.8736578573286309e+01 -3.44839077128