<?xml version="1.0"?>
<VTKFile type="UnstructuredGrid"  version="0.1"  >
<UnstructuredGrid>
<Piece  NumberOfPoints="1933" NumberOfCells="3640">
<Points>
<DataArray  type="Float64"  NumberOfComponents="3"  format="ascii">0.2935659997366196 0.002503883596520411 0  5.293565988724105 0.002417296432584321 0  5.293695930354553 7.502417305813107 0  0.2936959205357604 7.502503854172772 0  10.29356595472073 0.002330677501022355 0  10.29369596229473 7.502330706449334 0  15.29356591461343 0.002243961261381914 0  15.2936960342977 7.502244000304025 0  20.29356589900952 0.002157105723627362 0  20.29369616694175 7.502157150197822 0  25.29356594402686 0.002070085564868918 0  25.29369638380832 7.50207013340755 0  30.29356608782437 0.001982887061462576 0  30.29369671118386 7.501982937670751 0  35.29356636955191 0.001895504482475925 0  35.29369717785411 7.50189555810933 0  40.29356682954779 0.001807937651517727 0  40.29369781517202 7.501807995081363 0  45.29356751019235 0.001720190412496289 0  45.29369865740521 7.501720252812648 0  50.29356845713183 0.001632269790277424 0  50.29369974232493 7.501632338656565 0  55.2935697207519 0.001544185699598398 0  55.29370111199972 7.501544262867796 0  60.2935713578722 0.001455951112929452 0  60.29370281377141 7.501456038819674 0  65.29357343368984 0.001367582648110154 0  65.2937049014059 7.501367683638894 0  70.29357602403847 0.001279101582128937 0  70.29370743642458 7.501279219274353 0  75.2935792180688 0.001190535343182132 0  75.29371048963165 7.501190674063309 0  80.29358312149689 0.001101919585713986 0  80.29371414285377 7.501102084913979 0  85.29358786062738 0.001013301021785536 0  85.29371849090768 7.501013500299401 0  90.2935935874393 0.0009247412812354555 0  90.29372364378692 7.500924984368106 0  95.29360048615065 0.0008363222271534744 0  95.29372972901794 7.500836622649149 0  100.2936087818615 0.0007481534061971748 0  100.2937368940351 7.500748530107121 0  105.2936187521611 0.0006603827477381516 0  105.2937453082335 7.500660862764803 0  110.2936307430071 0.0005732124019269317 0  110.2937551639883 7.500573834894603 0  115.2936451907915 0.0004869230447348397 0  115.2937666752546 7.500487745127971 0  120.2936626533317 0.0004019127373999638 0  120.2937800711341 7.50040301716655 0  125.2936838534509 0.0003187619087517853 0  125.2937955797207 7.500320264821591 0  130.2937097393128 0.0002383472988691104 0  130.2938133942628 7.500240398034451 0  135.2937415639308 0.0001620516640228453 0  135.2938336094006 7.500164798136834 0  140.2937809767308 9.21683321129945e-05 0  140.293856112684 7.500095609540883 0  145.2938300858161 3.271352724793114e-05 0  145.2938804285668 7.5000362269566 0  150.2938913353785 -8.917018399367018e-06 0  150.2939055903715 7.499992132074528 0  160.2938926261462 4.757578531434645e-19 0  165.2937979246261 -9.892499324458282e-05 0  165.2938746267327 7.499890418690336 0  160.2939072496801 7.499973031851412 0  170.2937339090148 -0.0001994839745019707 0  170.2938414927819 7.499795013814578 0  175.2936886413377 -0.0003008644064988901 0  175.2938121534899 7.499695876060671 0  180.2936555725794 -0.0004019692038210557 0  180.2937873943543 7.49959596746984 0  185.2936308065842 -0.0005022465750250745 0  185.2937669254191 7.499496392390603 0  190.293611907003 -0.0006015010417644997 0  190.2937501602381 7.49939757035092 0  195.2935972876385 -0.0006997074093381239 0  195.2937364865525 7.499299639154318 0  200.2935858764191 -0.0007969108529431027 0  200.2937253564446 7.499202616182174 0  205.2935769227799 -0.000893180949667409 0  205.2937163079789 7.499106468096696 0  210.2935698840901 -0.0009885922513950892 0  210.2937089615379 7.49901114181232 0  215.2935643568563 -0.001083216776460749 0  215.29370300824 7.498916578261031 0  220.2935600338264 -0.001177121545957032 0  220.2936981972868 7.49882271838796 0  225.2935566764037 -0.001270368122472636 0  225.2936943246488 7.498729505638529 0  230.2935540963289 -0.001363012866768682 0  230.2936912236982 7.49863688687566 0  235.2935521431215 -0.001455107400835742 0  235.2936887577085 7.498544812604111 0  240.2935506952026 -0.001546699093585163 0  240.2936868139297 7.498453236892796 0  245.2935496534393 -0.001637831518601739 0  245.293685298922 7.498362117163415 0  250.2935489363246 -0.001728544884319584 0  250.293684134873 7.498271413912519 0  255.2935484763005 -0.001818876455000635 0  255.2936832566776 7.498181090387814 0  260.2935482168935 -0.00190886098705892 0  260.2936826096096 7.498091112217808 0  265.2935481104541 -0.00199853120827592 0  265.2936821474626 7.49800144698249 0  270.2935481163574 -0.00208791837056417 0  270.2936818310678 7.497912063705741 0  275.2935481995882 -0.002177052910690158 0  275.2936816271236 7.497822932245646 0  280.2935483296754 -0.002265965256010259 0  280.2936815072997 7.497734022557172 0  285.2935484800026 -0.002354686808281906 0  285.2936814475783 7.497645303806666 0  290.2935486275859 -0.002443251113444151 0  290.2936814278171 7.497556743337047 0  295.293548753512 -0.002531695141601223 0  295.293681431501 7.497468305530632 0  300.2935488443684 -0.002620060359818892 0  300.2936814456221 7.497379950713805 0  305.2935488951671 -0.002708392595881159 0  305.2936814606169 7.497291634399363 0  310.293548914457 -0.002796737660911193 0  310.2936814703208 7.497203307229243 0  5.293825698748171 15.00241735653015 0  0.2938256804469348 15.0025037916467 0  10.29382575255695 15.00233081665059 0  15.29382586220374 15.00224414042585 0  20.29382604497425 15.00215730560368 0  25.29382631769228 15.00207029815882 0  30.29382669812146 15.00198311082082 0  35.29382720567586 15.00189574161322 0  40.29382786181029 15.00180819267466 0  45.29382869029735 15.0017204694634 0  50.29382971749148 15.00163258036102 0  55.293830972618 15.00154453666392 0  60.2938324880912 15.00145635295499 0  65.29383429984617 15.00136804786897 0  70.29383644765149 15.00127964529542 0  75.2938389753525 15.00119117610464 0  80.29384193096637 15.00110268053682 0  85.29384536651136 15.0010142114705 0  90.29384933738746 15.00092583889725 0  95.29385390103252 15.00083765609141 0  100.2938591144398 15.00074978820623 0  105.2938650299291 15.00066240438878 0  110.2938716883203 15.00057573502951 0  115.2938791083983 15.00049009648496 0  120.2938872714227 15.00040592648432 0  125.2938960997976 15.00032383412361 0  130.2939054307279 15.00024466765062 0  135.2939149905308 15.00016959736608 0  140.2939243863381 15.00010018851871 0  145.2939331523846 15.00003836492585 0  150.2939409098269 14.99998592119494 0  165.2939348750931 14.99986273567655 0  160.2939429629854 14.99993866019461 0  170.2939234406745 14.99977605554257 0  175.2939102951103 14.99968319949588 0  180.2938970245125 14.99958741015096 0  185.2938845549987 14.9994904970295 0  190.2938733180822 14.99939340968817 0  195.2938634500632 14.99929662916223 0  200.293854928423 14.99920038673966 0  205.2938476536116 14.99910478128582 0  210.2938414950717 14.99900984173694 0  215.2938363158243 14.99891556046189 0  220.293831984766 14.99882191116366 0  225.293828382162 14.99872885854399 0  230.2938254014978 14.99863636354993 0  235.2938229494734 14.99854438622612 0  240.2938209451177 14.99845288724996 0  245.2938193185487 14.99836182872535 0  250.2938180096559 14.99827117454424 0  255.2938169668372 14.99818089048195 0  260.2938161458525 14.99809094411396 0  265.2938155088127 14.99800130459825 0  270.2938150233085 14.99791194234271 0  275.293814661663 14.99782282856293 0  280.2938144002899 14.9977339347288 0  285.2938142191299 14.99764523189771 0  290.2938141011151 14.99755668993428 0  295.293814031617 14.99746827661587 0  300.2938139977979 14.99737995658577 0  305.2938139877955 14.997291689938 0  310.2938139896571 14.99720342956953 0  5.293955154128071 22.50241752160714 0  0.2939551326099619 22.5025037966144 0  10.29395520858971 22.5023310728562 0  15.29395531588124 22.50224444787686 0  20.29395549041019 22.50215764352582 0  25.29395574396311 22.502070658106 0  30.29395608747028 22.50198349219946 0  35.29395653203341 22.50189614887177 0  40.29395708947381 22.50180863364081 0  45.29395777258058 22.50172095444888 0  50.29395859517236 22.50163312177685 0  55.29395957202882 22.50154514898236 0  60.29396071870972 22.50145705292082 0  65.29396205124716 22.50136885490851 0  70.29396358566925 22.50128058210037 0  75.29396533728941 22.50119226938676 0  80.29396731966372 22.50110396195378 0  85.2939695430865 22.50101571871338 0  90.29397201245402 22.50092761688754 0  95.29397472428433 22.50083975813618 0  100.2939776626482 22.5007522767462 0  105.2939807937665 22.50066535053971 0  110.2939840591183 22.50057921526603 0  115.2939873671731 22.50049418318968 0  120.2939905844924 22.50041066607863 0  125.2939935281872 22.50032920115297 0  130.293995963891 22.50025047432798 0  135.2939976165762 22.50017532534548 0  140.2939982046397 22.50010469878851 0  145.293997505751 22.50003946628907 0  150.2939954410746 22.49997999236211 0  165.2940014028521 22.499833242697 0  160.2939969320533 22.4999068452472 0  170.2940025304306 22.49975159698947 0  175.2940008807585 22.49966410977238 0  180.2939973161725 22.49957287655869 0  185.2939926631383 22.49947949909523 0  190.2939875528446 22.49938505707612 0  195.2939824111389 22.49929023158217 0  200.2939774997681 22.49919543432308 0  205.2939729638091 22.49910090460783 0  210.2939688708282 22.49900677428668 0  215.2939652394582 22.49891310916939 0  220.2939620589672 22.49881993486548 0  225.2939593021345 22.49872725276388 0  230.2939569334694 22.49863504989689 0  235.2939549143177 22.49854330503811 0  240.2939532059325 22.49845199247852 0  245.2939517712463 22.49836108435937 0  250.2939505758201 22.49827055209633 0  255.2939495882886 22.49818036721896 0  260.2939487804933 22.49809050182438 0  265.2939481274348 22.49800092876597 0  270.2939476071134 22.49791162165272 0  275.2939472003033 22.4978225547063 0  280.2939468902694 22.49773370250761 0  285.2939466624254 22.49764503965505 0  290.2939465039065 22.49755654034832 0  295.2939464030165 22.49746817789504 0  300.2939463484804 22.49737992408807 0  
[...]
<PointData  Vectors="v"> 
<DataArray  type="Float64"  Name="v"  NumberOfComponents="3" format="ascii">3.6556648502694058e+00 -1.6087175746433271e+00 0.0000000000000000e+00  3.5103698552295906e+00 -1.8365178072925767e+00 0.0000000000000000e+00  2.8929747128359344e+00 -1.6185744413836036e+00 0.0000000000000000e+00  2.9999715049899933e+00 -1.4489533176456200e+00 0.0000000000000000e+00  3.2662538248570354e+00 -2.3495685867082008e+00 0.0000000000000000e+00  2.7476120464113669e+00 -1.9838210094297246e+00 0.0000000000000000e+00  2.9611532857750680e+00 -3.0812671695560687e+00 0.0000000000000000e+00  2.5037948363589724e+00 -2.6241330972172627e+00 0.0000000000000000e+00  2.6032720581313860e+00 -3.7919685655831330e+00 0.0000000000000000e+00  2.1992227739714618e+00 -3.2562004888316589e+00 0.0000000000000000e+00  2.1975885445393475e+00 -4.6328667629456408e+00 0.0000000000000000e+00  1.8421960802929209e+00 -4.0259064150750401e+00 0.0000000000000000e+00  1.8021441188044860e+00 -5.3884751474789612e+00 0.0000000000000000e+00  1.4381900571749777e+00 -4.7971952689442503e+00 0.0000000000000000e+00  1.6301410851263158e+00 -5.8103319718421851e+00 0.0000000000000000e+00  1.0449488068262083e+00 -5.5551026278375000e+00 0.0000000000000000e+00  1.1309201068786232e+00 -6.6733556009988764e+00 0.0000000000000000e+00  8.7583577524946732e-01 -5.9280295439973774e+00 0.0000000000000000e+00  3.0257911804785484e+00 -3.9449085811617124e+00 0.0000000000000000e+00  3.8066986731610353e-01 -6.7911440365714721e+00 0.0000000000000000e+00  -1.3471363183543525e+00 -1.0492481160607092e+01 0.0000000000000000e+00  2.2804996870226404e+00 -3.9384891575366114e+00 0.0000000000000000e+00  2.7482005433658065e-02 -8.1886334213678822e+00 0.0000000000000000e+00  -2.0875959998581926e+00 -1.0256003919941673e+01 0.0000000000000000e+00  3.1491979066815617e-01 -7.5196668403673170e+00 0.0000000000000000e+00  -7.0645402001202018e-01 -7.9586451052592260e+00 0.0000000000000000e+00  -2.0827265643273467e-02 -7.8269268579210749e+00 0.0000000000000000e+00  -4.0999292224602951e-01 -7.3331531799436345e+00 0.0000000000000000e+00  -8.1001141030180879e-01 -8.8118468269098678e+00 0.0000000000000000e+00  -7.3465857489702013e-01 -7.6403792760830083e+00 0.0000000000000000e+00  -1.8675296305518247e+00 -1.0140232297948007e+01 0.0000000000000000e+00  -1.5095002844202012e+00 -8.5676874826996539e+00 0.0000000000000000e+00  -3.1374058358584529e+00 -1.1669448776711024e+01 0.0000000000000000e+00  -2.5505164261247790e+00 -9.7813877289254307e+00 0.0000000000000000e+00  -4.5750378088009107e+00 -1.3359910568925306e+01 0.0000000000000000e+00  -3.8015308818360452e+00 -1.1222671255440597e+01 0.0000000000000000e+00  -6.1355988381552296e+00 -1.5027039348620850e+01 0.0000000000000000e+00  -5.2163003572783948e+00 -1.2707381758467232e+01 0.0000000000000000e+00  -7.7834114108776342e+00 -1.6664619683095022e+01 0.0000000000000000e+00  -6.7516362362146660e+00 -1.4218081795627109e+01 0.0000000000000000e+00  -9.4781350848922994e+00 -1.8188835014557544e+01 0.0000000000000000e+00  -8.3704217613259519e+00 -1.5674412024835320e+01 0.0000000000000000e+00  -1.1152885698000951e+01 -1.9498352693002619e+01 0.0000000000000000e+00  -1.0032309536385331e+01 -1.7017699100201153e+01 0.0000000000000000e+00  -1.2745410190142143e+01 -2.0409953221371236e+01 0.0000000000000000e+00  -1.1669165404402152e+01 -1.8055410298347994e+01 0.0000000000000000e+00  -1.4203238318916679e+01 -2.1023529304245653e+01 0.0000000000000000e+00  -1.3222103941257039e+01 -1.8877376447574317e+01 0.0000000000000000e+00  -1.5453246343074646e+01 -2.0822386299156602e+01 0.0000000000000000e+00  -1.4630642329718976e+01 -1.8986954610366414e+01 0.0000000000000000e+00  -1.6477119012449329e+01 -2.0146329340543787e+01 0.0000000000000000e+00  -1.5834021319450541e+01 -1.8662483922198199e+01 0.0000000000000000e+00  -1.7227526399412660e+01 -1.8261357987602779e+01 0.0000000000000000e+00  -1.6795082550092214e+01 -1.7179551675130124e+01 0.0000000000000000e+00  -1.7742339075335629e+01 -1.5437534815028195e+01 0.0000000000000000e+00  -1.7493168060518105e+01 -1.4731580249954092e+01 0.0000000000000000e+00  -1.8011423440278513e+01 -1.1392320693350845e+01 0.0000000000000000e+00  -1.7928593158170248e+01 -1.1034072112360661e+01 0.0000000000000000e+00  -1.8136944597018793e+01 -4.7465942958782383e+00 0.0000000000000000e+00  -1.8141698889034796e+01 -4.6426112946908473e+00 0.0000000000000000e+00  -1.8163563200475142e+01 7.4390510753490990e-12 0.0000000000000000e+00  -1.8163229802476526e+01 3.1823431917942202e-04 0.0000000000000000e+00  -1.8163563200134600e+01 -1.2591107695180653e-19 0.0000000000000000e+00  -1.3885157519164965e+01 1.1517575785748654e+01 0.0000000000000000e+00  -1.8132850023456957e+01 5.1353379211276762e+00 0.0000000000000000e+00  -1.8163230955083868e+01 -3.3661555429856111e-04 0.0000000000000000e+00  -1.2623345722900886e+01 2.0107522868259561e+01 0.0000000000000000e+00  -1.3904062555403687e+01 1.8284098244263074e+01 0.0000000000000000e+00  -1.0751167847203195e+01 2.3970152160124858e+01 0.0000000000000000e+00  -1.2700982282648415e+01 2.1198438467465529e+01 0.0000000000000000e+00  -9.6669193345169422e+00 2.4795347587209907e+01 0.0000000000000000e+00  -1.0883463997497115e+01 2.3217032469605748e+01 0.0000000000000000e+00  -8.4440245195398163e+00 2.4349362863930367e+01 0.0000000000000000e+00  -9.8482801686146271e+00 2.2554772212474699e+01 0.0000000000000000e+00  -7.4342403630957001e+00 2.2830263231997467e+01 0.0000000000000000e+00  -8.6710926380356188e+00 2.1355880261859870e+01 0.0000000000000000e+00  -6.4859226361759346e+00 2.1047162236923654e+01 0.0000000000000000e+00  -7.7058613264148281e+00 1.9660189633704476e+01 0.0000000000000000e+00  -5.6339549816935799e+00 1.9037067133637542e+01 0.0000000000000000e+00  -6.7981804936334171e+00 1.7795145790088604e+01 0.0000000000000000e+00  -4.7457099010166646e+00 1.7223680407245890e+01 0.0000000000000000e+00  -5.9849482019834053e+00 1.5924276698985139e+01 0.0000000000000000e+00  -4.0362808497232452e+00 1.5486620557760142e+01 0.0000000000000000e+00  -5.1339828928942115e+00 1.4454299140415877e+01 0.0000000000000000e+00  -3.4049613965729271e+00 1.3971759072532976e+01 0.0000000000000000e+00  -4.4597013742640002e+00 1.3055476112617628e+01 0.0000000000000000e+00  -2.7524634918839999e+00 1.2756931272738209e+01 0.0000000000000000e+00  -3.8620251937519519e+00 1.1807636399365242e+01 0.0000000000000000e+00  -2.1577887784752772e+00 1.1697438919558415e+01 0.0000000000000000e+00  -3.2421642913557358e+00 1.0833584336868102e+01 0.0000000000000000e+00  -1.6206933373137482e+00 1.0775036539250712e+01 0.0000000000000000e+00  -2.6786270480244752e+00 9.9969048544931454e+00 0.0000000000000000e+00  -1.1392536195840095e+00 9.9307581046675413e+00 0.0000000000000000e+00  -2.1715637070073233e+00 9.2350899493611855e+00 0.0000000000000000e+00  -7.2289530913834787e-01 9.1270931102390840e+00 0.0000000000000000e+00  -1.7193452148851924e+00 8.5282313018526121e+00 0.0000000000000000e+00  -3.6661293811113344e-01 8.3689848330128953e+00 0.0000000000000000e+00  -1.3312106685507279e+00 7.8596908142069628e+00 0.0000000000000000e+00  -5.4939335057968601e-02 7.6275238102217973e+00 0.0000000000000000e+00  -1.0023518874981006e+00 7.1845277607554259e+00 0.0000000000000000e+00  2.0886538782100694e-01 6.9022630826446454e+00 0.0000000000000000e+00  -7.1758553081066312e-01 6.5304733764027949e+00 0.0000000000000000e+00  4.2972830082145147e-01 6.1868864319559913e+00 0.0000000000000000e+00  -4.7997331868064513e-01 5.8792315355906268e+00 0.0000000000000000e+00  6.1447198013552273e-01 5.4824099124931820e+00 0.0000000000000000e+00  -2.8491533389420631e-01 5.2284110658575322e+00 0.0000000000000000e+00  7.6370108709570916e-01 4.7612144878558977e+00 0.0000000000000000e+00  -1.2542790712806778e-01 4.5603508970168321e+00 0.0000000000000000e+00  8.7064241737231018e-01 4.0824384041276698e+00 0.0000000000000000e+00  -1.3908236435498170e-03 3.9444346636201613e+00 0.0000000000000000e+00  9.4528827386080616e-01 3.3282718644488027e+00 0.0000000000000000e+00  8.1234564717984389e-02 3.2390740806656622e+00 0.0000000000000000e+00  9.7369155086931014e-01 2.6976280961110630e+00 0.0000000000000000e+00  1.3079730230690256e-01 2.6765421075022426e+00 0.0000000000000000e+00  9.6014099440475831e-01 1.8797194011648790e+00 0.0000000000000000e+00  1.3603893789799099e-01 1.9232144754762450e+00 0.0000000000000000e+00  8.9570284938509637e-01 1.3982951252625198e+00 0.0000000000000000e+00  9.6719560931173287e-02 1.5149684621215409e+00 0.0000000000000000e+00  7.6594053624630398e-01 4.3061268795616736e-01 0.0000000000000000e+00  1.1346781603340274e-02 6.5017392320346146e-01 0.0000000000000000e+00  5.2161725892847965e-01 -5.0201419921709053e-02 0.0000000000000000e+00  -1.4758171302449552e-01 3.3226380511120174e-01 0.0000000000000000e+00  -5.9029771660163904e-02 -2.8474417874933533e-01 0.0000000000000000e+00  -4.0355771591679745e-01 6.1968977716270413e-01 0.0000000000000000e+00  2.0069112369232083e+00 -1.4570557289986990e+00 0.0000000000000000e+00  2.1146445953507249e+00 -1.2896086279548256e+00 0.0000000000000000e+00  1.8982297707646121e+00 -1.7644383251824887e+00 0.0000000000000000e+00  1.7506250910845713e+00 -2.2572218282782552e+00 0.0000000000000000e+00  1.5046246340438418e+00 -2.7982472457916447e+00 0.0000000000000000e+00  1.1981580911454792e+00 -3.4892052539723863e+00 0.0000000000000000e+00  8.3950479805668865e-01 -4.1907354719172636e+00 0.0000000000000000e+00  4.3474114464105251e-01 -4.9655416909536614e+00 0.0000000000000000e+00  4.2095460442250425e-02 -5.6748739589611201e+00 0.0000000000000000e+00  -1.2530039760471309e-01 -6.0506053322043982e+00 0.0000000000000000e+00  -6.1621571501903116e-01 -6.7920982369253498e+00 0.0000000000000000e+00  1.2888740147739723e+00 -3.7042217042812347e+00 0.0000000000000000e+00  -3.0799761753808141e+00 -1.0029546475056014e+01 0.0000000000000000e+00  -1.6984466344135500e+00 -7.7819677977126256e+00 0.0000000000000000e+00  -1.3947949790131271e+00 -7.1584751182579680e+00 0.0000000000000000e+00  -1.7086838496251724e+00 -7.4151254108127977e+00 0.0000000000000000e+00  -2.4671071664874455e+00 -8.2317217877084250e+00 0.0000000000000000e+00  -3.4874232148513218e+00 -9.3594812625731070e+00 0.0000000000000000e+00  -4.7141086314037519e+00 -1.0602699325822355e+01 0.0000000000000000e+00  -6.0990393605694608e+00 -1.1935691797642553e+01 0.0000000000000000e+00  -7.5989865816588349e+00 -1.3268175423863227e+01 0.0000000000000000e+00  -9.1778421023439680e+00 -1.4553419871001966e+01 0.0000000000000000e+00  -1.0791521647002980e+01 -1.5631054686693959e+01 0.0000000000000000e+00  -1.2373501334034659e+01 -1.6584888095517147e+01 0.0000000000000000e+00  -1.3862652492463152e+01 -1.6914024251821846e+01 0.0000000000000000e+00  -1.5199360352566725e+01 -1.6909607761528274e+01 0.0000000000000000e+00  -1.6316735824634957e+01 -1.5783217792686321e+01 0.0000000000000000e+00  -1.7189011649661790e+01 -1.3760121625102713e+01 0.0000000000000000e+00  -1.7771331179834796e+01 -1.0424272439349856e+01 0.0000000000000000e+00  -1.8104142429198504e+01 -4.4359282193482912e+00 0.0000000000000000e+00  -1.8162421553288880e+01 6.0657772980110102e-04 0.0000000000000000e+00  -1.8092019907257612e+01 4.9393682080460106e+00 0.0000000000000000e+00  -1.8162423629449389e+01 -6.9197207323176452e-04 0.0000000000000000e+00  -1.7900935022806479e+01 1.1959771678918598e+01 0.0000000000000000e+00  -1.3742700439157012e+01 1.9451348649149214e+01 0.0000000000000000e+00  -1.2625976900876893e+01 2.0533272266623666e+01 0.0000000000000000e+00  -1.0876476290972054e+01 2.1042084799296557e+01 0.0000000000000000e+00  -9.9048323536448581e+00 1.9619807765692507e+01 0.0000000000000000e+00  -8.7793405894353231e+00 1.8245436547360175e+01 0.0000000000000000e+00  -7.8647640448310154e+00 1.6459769711602565e+01 0.0000000000000000e+00  -7.0007164507747772e+00 1.4728935680848663e+01 0.0000000000000000e+00  -6.2279013050866388e+00 1.3201407144810442e+01 0.0000000000000000e+00  -5.4147686273121431e+00 1.2065631785884735e+01 0.0000000000000000e+00  -4.7758325374200110e+00 1.0930871687074811e+01 0.0000000000000000e+00  -4.2110769560486876e+00 9.9234388636409783e+00 0.0000000000000000e+00  -3.6229247214220393e+00 9.1697365007194449e+00 0.0000000000000000e+00  -3.0891666761834604e+00 8.4914457656511111e+00 0.0000000000000000e+00  -2.6101514068368354e+00 7.8664490623257368e+00 0.0000000000000000e+00  -2.1848233052030004e+00 7.2930510677601976e+00 0.0000000000000000e+00  -1.8222297224580133e+00 6.7059551139409752e+00 0.0000000000000000e+00  -1.5176921427023369e+00 6.1177033627105075e+00 0.0000000000000000e+00  -1.2564458562688496e+00 5.5366253684901530e+00 0.0000000000000000e+00  -1.0415232242929013e+00 4.9490230748791761e+00 0.0000000000000000e+00  -8.6837068830580988e-01 4.3342856999510326e+00 0.0000000000000000e+00  -7.3040701175423139e-01 3.7709163119373219e+00 0.0000000000000000e+00  -6.2726039853679028e-01 3.1278468594838906e+00 0.0000000000000000e+00  -5.6534832259752299e-01 2.6139810039693119e+00 0.0000000000000000e+00  -5.3578659159741504e-01 1.9283278995919972e+00 0.0000000000000000e+00  -5.5097663513536899e-01 1.5841713396233894e+00 0.0000000000000000e+00  -6.0899628885543966e-01 7.9267052367664037e-01 0.0000000000000000e+00  -7.1498568368233339e-01 5.7798964327202762e-01 0.0000000000000000e+00  -8.9124043366545391e-01 1.0193756507276117e+00 0.0000000000000000e+00  6.9806145958115151e-01 -1.2931813742768845e+00 0.0000000000000000e+00  7.8999096864131180e-01 -1.1551308237109195e+00 0.0000000000000000e+00  5.8661040043378143e-01 -1.5975936371851103e+00 0.0000000000000000e+00  4.7167407143155177e-01 -2.0318497459271727e+00 0.0000000000000000e+00  3.1778529143558826e-01 -2.4248026269592065e+00 0.0000000000000000e+00  6.4742083613146401e-02 -3.0250864949803624e+00 0.0000000000000000e+00  -2.4883820352299035e-01 -3.6490704214179810e+00 0.0000000000000000e+00  -6.1349806946563601e-01 -4.3552632931332065e+00 0.0000000000000000e+00  -1.0231931481909917e+00 -5.0844019057542589e+00 0.0000000000000000e+00  -1.4185301842173050e+00 -5.8006100413245747e+00 0.0000000000000000e+00  -1.5845032673301944e+00 -6.0596740515467218e+00 0.0000000000000000e+00  -2.0701038661898363e+00 -6.5659595404083193e+00 0.0000000000000000e+00  -1.6459873188308219e-01 -3.4710553511539981e+00 0.0000000000000000e+00  -4.5462847219391884e+00 -9.8464169580171763e+00 0.0000000000000000e+00  -3.1755184272805490e+00 -7.6170910130431677e+00 0.0000000000000000e+00  -2.8698395047308205e+00 -6.9535748320110695e+00 0.0000000000000000e+00  -3.1719862156313092e+00 -7.1094414723866715e+00 0.0000000000000000e+00  -3.9106480942693080e+00 -7.8502919640856064e+00 0.0000000000000000e+00  -4.9040784444683396e+00 -8.7895893737829596e+00 0.0000000000000000e+00  -6.0954884779577645e+00 -9.8905146561274453e+00 0.0000000000000000e+00  -7.4376309520990658e+00 -1.1057324812437852e+01 0.0000000000000000e+00  -8.8862920369631553e+00 -1.2232597298301929e+01 0.0000000000000000e+00  -1.0401563839949658e+01 -1.3264334000720188e+01 0.0000000000000000e+00  -1.1941122827124680e+01 -1.4279887861831570e+01 0.0000000000000000e+00  -1.3432022183850686e+01 -1.4754334524524637e+01 0.0000000000000000e+00  -1.4816548915914819e+01 -1.5000235024418552e+01 0.0000000000000000e+00  -1.6023350989256397e+01 -1.4203123135457684e+01 0.0000000000000000e+00  -1.6999365791256345e+01 -1.2591194672287569e+01 0.0000000000000000e+00  -1.7688200051035434e+01 -9.6570370338921929e+00 0.0000000000000000e+00  -1.8095456774944314e+01 -4.1517561755547110e+00 0.0000000000000000e+00  -1.8161163044391081e+01 8.6606563659459134e-04 0.0000000000000000e+00  -1.8071377393556467e+01 4.5942613627261979e+00 0.0000000000000000e+00  -1.8161165158036248e+01 -1.0058339796708495e-03 0.0000000000000000e+00  -1.7669558840445898e+01 1.1609864336246062e+01 0.0000000000000000e+00  -1.7468317195271315e+01 1.3303482170208731e+01 0.0000000000000000e+00  -1.3433777364741294e+01 1.8966783837963369e+01 0.0000000000000000e+00  -1.2455696085325719e+01 1.8497783957502008e+01 0.0000000000000000e+00  -1.0814384628216589e+01 1.8239426523853478e+01 0.0000000000000000e+00  -9.9360548396550890e+00 1.6616281193533357e+01 0.0000000000000000e+00  -8.8886995829937909e+00 1.5144484550491466e+01 0.0000000000000000e+00  -8.0448024200650714e+00 1.3481651348520082e+01 0.0000000000000000e+00  -7.2417908579088506e+00 1.2086970513679441e+01 0.0000000000000000e+00  -6.5254034750722427e+00 1.0886684359900302e+01 0.0000000000000000e+00  -5.7636862567002529e+00 1.0011090740215241e+01 0.0000000000000000e+00  -5.1726382553781729e+00 9.1121616372791543e+00 0.0000000000000000e+00  -4.6531789893202680e+00 8.3216156395699503e+00 0.0000000000000000e+00  -4.1077816876701956e+00 7.7230316262059517e+00 0.0000000000000000e+00  -3.6139936605080920e+00 7.1781378243493963e+00 0.0000000000000000e+00  -3.1726804311841237e+00 6.6835598438245603e+00 0.0000000000000000e+00  -2.7827719235675485e+00 6.1891749637058382e+00 0.0000000000000000e+00  -2.4535273388132883e+00 5.6865018442059139e+00 0.0000000000000000e+00  -2.1806360216746508e+00 5.1693030341556403e+00 0.0000000000000000e+00  -1.9496042485274163e+00 4.6501758680693142e+00 0.0000000000000000e+00  -1.7635216884416998e+00 4.0974207705785135e+00 0.0000000000000000e+00  -1.6184004805347980e+00 3.5858980749076892e+00 0.0000000000000000e+00  -1.5073912443033155e+00 2.9950773106887727e+00 0.0000000000000000e+00  -1.4309351693854484e+00 2.5416888172798751e+00 0.0000000000000000e+00  -1.3944225290516172e+00 1.9057176633100874e+00 0.0000000000000000e+00  -1.3909300528869883e+00 1.6255092781376823e+00 0.0000000000000000e+00  -1.4293058613598859e+00 9.0263864260750959e-01 0.0000000000000000e+00  -1.5142641685570633e+00 7.5137812823009409e-01 0.0000000000000000e+00  -1.6371117296162812e+00 1.3081170696912698e+00 0.0000000000000000e+00  -5.0686536147079475e-01 -1.1520603041038753e+00 0.0000000000000000e+00  -4.3520154881659873e-01 -1.0523262383246801e+00 0.0000000000000000e+00  -6.0395446671818265e-01 -1.4246129956853424e+00 0.0000000000000000e+00  -7.2489407173554254e-01 -1.8517249385790162e+00 0.0000000000000000e+00  -8.5122614170032529e-01 -2.1852107658489723e+00 0.0000000000000000e+00  -1.0182727356627954e+00 -2.6361295701540075e+00 0.0000000000000000e+00  -1.2851767004811097e+00 -3.1687239001548200e+00 0.0000000000000000e+00  -1.6130116241297665e+00 -3.7989459788542677e+00 0.0000000000000000e+00  -1.9911311779008340e+00 -4.4618714894905001e+00 0.0000000000000000e+00  -2.4117631749265729e+00 -5.2018842683363085e+00 0.0000000000000000e+00  -2.8136971879552592e+00 -5.8096284674017964e+00 0.0000000000000000e+00  -2.9811994130840347e+00 -5.8385034402512286e+00 0.0000000000000000e+00  -3.4668639472227825e+00 -6.3234400756561007e+00 0.0000000000000000e+00  -1.5759522045382552e+00 -3.2516204749641910e+00 0.0000000000000000e+00  -5.9939577266447985e+00 -9.6490514583549718e+00 0.0000000000000000e+00  -4.6538464073117396e+00 -7.4025969642532718e+00 0.0000000000000000e+00  -4.3604260141222069e+00 -6.6556274736151222e+00 0.0000000000000000e+00  -4.6626671722987352e+00 -6.7505839940367167e+00 0.0000000000000000e+00  -5.3893402032494784e+00 -7.3129528290066066e+00 0.0000000000000000e+00  -6.3628420987507690e+00 -8.1244833941389913e+00 0.0000000000000000e+00  -7.5252966730052719e+00 -9.0712322356947439e+00 0.0000000000000000e+00  -8.8283912736835912e+00 -1.0094818790846988e+01 0.0000000000000000e+00  -1.0226392775655590e+01 -1.1035434715213009e+01 0.0000000000000000e+00  -1.1678213708676129e+01 -1.2029335794288089e+01 0.0000000000000000e+00  -1.3133403024849702e+01 -1.2585132842739963e+01 0.0000000000000000e+00  -1.4523153499993132e+01 -1.3018449449982052e+01 0.0000000000000000e+00  -1.5773135418713998e+01 -1.2491108342015451e+01 0.0000000000000000e+00  -1.6827283370982926e+01 -1.1278967971402899e+01 0.0000000000000000e+00  -1.7594214341296500e+01 -8.7459145125360696e+00 0.0000000000000000e+00  -1.8073711478160817e+01 -3.7961042364125874e+00 0.0000000000000000e+00  -1.8159505200154854e+01 1.0956095725031931e-03 0.0000000000