<?xml version="1.0"?>
<VTKFile type="UnstructuredGrid"  version="0.1"  >
<UnstructuredGrid>
<Piece  NumberOfPoints="1933" NumberOfCells="3640">
<Points>
<DataArray  type="Float64"  NumberOfComponents="3"  format="ascii">-0.4752563808086728 -0.002521854615604331 0  4.524743665780143 -0.002454360506436631 0  4.524642399511301 7.497545742946698 0  -0.4753576591179681 7.497478230768579 0  9.524743748019779 -0.002386939609347476 0  9.524642493185395 7.497613163614386 0  14.52474390495977 -0.002319572976981008 0  14.52464263390879 7.49768052525378 0  19.524744166294 -0.002252218952758686 0  19.52464283015418 7.497747873838867 0  24.5247445516849 -0.002184825163575963 0  24.52464308682027 7.497815262978878 0  29.52474507228079 -0.002117333744643658 0  29.52464340480919 7.497882750717597 0  34.52474573239772 -0.002049683348754253 0  34.5246437807055 7.497950398235682 0  39.52474653079096 -0.0019818095114063 0  39.52464420650606 7.498018269736965 0  44.5247474614097 -0.001913644114714345 0  44.52464466927733 7.498086433064711 0  49.5247485136617 -0.001845114300384261 0  49.52464515063333 7.498154960802052 0  54.52474967222864 -0.001776140977992443 0  54.52464562594596 7.498223931748712 0  59.52475091644601 -0.00170663695801 0  59.52464606320471 7.498293432755947 0  64.52475221922158 -0.001636504661384944 0  64.52464642142391 7.49836356096653 0  69.52475354540498 -0.001565633292852172 0  69.52464664846784 7.498434426561864 0  74.52475484945569 -0.001493895296543078 0  74.52464667811029 7.49850615617405 0  79.52475607213916 -0.001421141825354091 0  79.52464642607131 7.498578897187196 0  84.52475713582189 -0.001347196834154522 0  84.52464578467547 7.498652823233785 0  89.52475793765107 -0.001271849230900983 0  89.52464461563886 7.498728141291917 0  94.52475833944642 -0.00119484226206851 0  94.52464274032643 7.498805100899709 0  99.52475815230466 -0.001115858935387026 0  99.52463992665776 7.49888400609152 0  104.5247571124796 -0.00103450176036315 0  104.524635871733 7.498965230633733 0  109.5247548424697 -0.0009502644125591452 0  109.524630179454 7.499049236757398 0  114.5247507864705 -0.0008624922228753053 0  114.5246223334364 7.499136596298804 0  119.5247441005088 -0.0007703281720306809 0  119.5246116685585 7.499228009709327 0  124.5247334612206 -0.0006726429862653807 0  124.5245973522925 7.499324310057141 0  129.5247167268213 -0.0005679569077764706 0  129.5245784052281 7.499426420211735 0  134.5246903272978 -0.0004543914822535262 0  134.524553831024 7.499535190842879 0  139.5246481550864 -0.0003297893287774513 0  139.5245230144367 7.499650967512873 0  144.5245795229595 -0.0001924776603785982 0  144.5244867359485 7.499772614497291 0  149.5244653104523 -4.443080628149429e-05 0  149.5244495773549 7.49989574152307 0  159.5244717418521 1.079140855133018e-18 0  164.5244648676741 -5.628055660409623e-05 0  164.5244721779878 7.499928686785151 0  159.5244664003367 7.499965241749065 0  169.5244788340804 -8.01055722160488e-05 0  169.5244776072177 7.499912684293685 0  174.5245005504102 -8.152670019281361e-05 0  174.5244850457569 7.499914859936752 0  179.5245241330566 -6.685812839243364e-05 0  179.5244942612076 7.499931314095202 0  184.5245469757826 -4.043781480633589e-05 0  184.5245045026126 7.499958654885716 0  189.5245680106265 -5.323265582709419e-06 0  189.5245150811421 7.499994253521707 0  194.5245868928071 3.63043281945125e-05 0  194.5245254965279 7.500036138608253 0  199.5246036095588 8.287055695046456e-05 0  199.5245354269944 7.500082842454794 0  204.5246182913277 0.0001332235794434966 0  204.5245446867619 7.500133268727614 0  209.524631121253 0.0001865082518177185 0  209.5245531842075 7.500186591632691 0  214.524642292701 0.0002420800956848052 0  214.5245608891508 7.500242182449321 0  219.5246519902857 0.0002994461784949013 0  219.524567809607 7.500299556841706 0  224.5246603822949 0.0003582240790510177 0  224.5245739760896 7.500358337161853 0  229.5246676185791 0.0004181130275720008 0  229.524579431369 7.500418225343418 0  234.5246738309709 0.0004788733028467278 0  234.5245842239881 7.500478983233087 0  239.5246791348046 0.0005403112957455089 0  239.5245884042828 7.500540418160007 0  244.524683630857 0.0006022685200829247 0  244.5245920220613 7.500602372226657 0  249.5246874073852 0.0006646134235377834 0  249.5245951253614 7.500664714278959 0  254.5246905421424 0.0007272352293517362 0  254.5245977599187 7.50072733384189 0  259.5246931043212 0.0007900392947388002 0  259.524599969087 7.50079013653508 0  264.5246951564487 0.0008529436512394395 0  264.5246017940555 7.500853040647399 0  269.5246967562406 0.0009158765276067568 0  269.5246032742484 7.500915974674038 0  274.5246979584708 0.000978774770721894 0  274.5246044478145 7.500978875723487 0  279.5246988168553 0.001041583194403541 0  279.5246053521375 7.501041688798413 0  284.5246993859487 0.001104255019665758 0  284.524606024286 7.501104367055959 0  289.5246997229032 0.001166753745461073 0  289.5246065013056 7.501166873265129 0  294.5246998887858 0.001229057028445687 0  294.5246068203031 7.501229182802397 0  299.524699948643 0.001291163453531863 0  299.5246070183067 7.501291288645001 0  304.5246999686005 0.001353103305955654 0  304.5246071322429 7.501353208911969 0  309.5247000062856 0.001414953787070981 0  309.5246072001739 7.501414997697231 0  4.52454098154228 14.99754595363147 0  -0.475459074501343 14.99747843588074 0  9.524541051401789 14.99761334838754 0  14.52454113995054 14.9976806777218 0  19.52454124650136 14.99774799616157 0  24.52454136725789 14.9978153592478 0  29.524541495729 14.99788282448537 0  34.5245416224035 14.99795045170341 0  39.52454173417163 14.99801830354585 0  44.52454181363445 14.99808644625008 0  49.52454183830797 14.99815495072052 0  54.52454177968275 14.99822389388557 0  59.52454160208102 14.99829336034591 0  64.52454126125276 14.99836344434815 0  69.52454070264581 14.99843425214365 0  74.52453985929596 14.99850590481395 0  79.52453864929424 14.99857854165713 0  84.52453697283704 14.99865232422361 0  89.52453470896226 14.99872744104327 0  94.5245317122838 14.99880411294929 0  99.52452781043031 14.9988825985848 0  104.5245228036532 14.99896319899078 0  109.5245164693849 14.99904625877296 0  114.5245085768218 14.99913215859699 0  119.5244989202739 14.99922128854919 0  124.5244873854672 14.99931398238391 0  129.524474069777 14.99941037612482 0  134.5244594824223 14.99951012772393 0  139.5244448432132 14.99961189608962 0  144.5244324476684 14.9997124318943 0  149.5244258884407 14.99980506899528 0  164.5244517548467 14.9998871334693 0  159.5244462712759 14.99988992910218 0  169.5244535885368 14.99989061375075 0  174.5244546300013 14.99990339574651 0  179.5244561892589 14.99992553732795 0  184.5244586348775 14.99995591315274 0  189.5244619024253 14.99999312327901 0  194.5244657736199 15.00003585455058 0  199.5244700075779 15.00008299194378 0  204.5244743937594 15.00013362889885 0  209.5244787673029 15.00018704236328 0  214.5244830080371 15.00024265962207 0  219.5244870335619 15.00030002708259 0  224.5244907911272 15.00035878408118 0  229.524494250233 15.00041864198371 0  234.5244973965714 15.00047936789594 0  239.5245002273309 15.00054077209221 0  244.5245027476914 15.0006026983417 0  249.5245049682792 15.00066501646284 0  254.5245069033524 15.00072761659041 0  259.5245085695396 15.00079040477518 0  264.52450998497 15.00085329964507 0  269.5245111686849 15.00091622994718 0  274.5245121402405 15.0009791328617 0  279.5245129194247 15.00104195303917 0  284.5245135260896 15.00110464235734 0  289.5245139800844 15.00116716041513 0  294.5245143014558 15.00122947575265 0  299.524514511192 15.00129156765942 0  304.5245146331442 15.00135342810789 0  309.5245146982562 15.00141506265013 0  4.524439552287458 22.49754631200546 0  -0.4755604986720375 22.49747885931005 0  9.52443959906655 22.49761363363577 0  14.52443963902158 22.49768089131966 0  19.52443966667059 22.49774814402515 0  24.52443967425287 22.49781544774296 0  29.52443965195957 22.49788285825479 0  34.52443958774638 22.49795043265429 0  39.52443946689505 22.49801823038517 0  44.52443927144856 22.49808631417335 0  49.52443897958365 22.49815475101918 0  54.52443856494246 22.49822361331644 0  59.52443799593469 22.4982929801255 0  64.52443723502665 22.49836293861102 0  69.52443623805637 22.49843358563936 0  74.52443495366067 22.4985050295088 0  79.52443332296987 22.49857739173599 0  84.52443127984492 22.49865080873063 0  89.52442875211786 22.49872543301856 0  94.52442566457964 22.49880143336872 0  99.52442194488269 22.49887899264452 0  104.5244175341247 22.4989583012945 0  109.5244124046645 22.49903954289487 0  114.5244065886009 22.49912286576816 0  119.5244002209898 22.4992083311078 0  124.5243936014446 22.49929582314471 0  129.5243872743631 22.49938490152033 0  134.5243821180472 22.49947457377196 0  139.5243794104189 22.4995629774781 0  144.5243807965771 22.49964701586554 0  149.524388021115 22.49972216445625 0  164.5244092430626 22.49983919190298 0  159.5244056355017 22.49981837832931 0  169.5244095920856 22.4998603344 0  174.5244082136099 22.49988509133389 0  179.5244063222922 22.49991490851916 0  184.5244046462045 22.49995004715268 0  189.5244035225303 22.49999014969713 0  194.524403041489 22.50003460540691 0  199.5244031604661 22.50008274904935 0  204.5244037778071 22.50013395482788 0  209.524404775158 22.500187672725 0  214.5244060392489 22.50024343606458 0  219.5244074714916 22.50030085613535 0  224.524408990891 22.50035961200526 0  229.5244105335865 22.50041943942471 0  234.5244120509171 22.50048012051237 0  239.5244135070135 22.50054147482735 0  244.5244148764249 22.50060335192345 0  249.5244161419921 22.50066562526973 0  254.5244172930462 22.50072818735296 0  259.524418323914 22.50079094577547 0  264.5244192327123 22.50085382018383 0  269.5244200203739 22.5009167398951 0  274.5244206898809 22.5009796421134 0  279.5244212456848 22.5010424706451 0  284.5244216933362 22.50110517501438 0  289.5244220393921 22.50116770983625 0  294.5244222917595 22.50123003419531 0  299.524422460699 22.50129211055476
[...]
<PointData  Vectors="v"> 
<DataArray  type="Float64"  Name="v"  NumberOfComponents="3" format="ascii">-4.3398520223321500e+00 -3.1243476490681119e+00 0.0000000000000000e+00  -4.5387467531816759e+00 -2.5915716404035272e+00 0.0000000000000000e+00  -3.8411314765750308e+00 -2.2933904624881749e+00 0.0000000000000000e+00  -3.6824072947155084e+00 -2.8856930406918178e+00 0.0000000000000000e+00  -4.7230888476153083e+00 -2.4353301901531244e+00 0.0000000000000000e+00  -4.0397002480243431e+00 -2.1590025603699656e+00 0.0000000000000000e+00  -4.8015456240544063e+00 -2.3350328980979054e+00 0.0000000000000000e+00  -4.2235765898215591e+00 -2.2178024159675860e+00 0.0000000000000000e+00  -4.7793251892403044e+00 -1.8164652072438308e+00 0.0000000000000000e+00  -4.3013278758464404e+00 -1.8501809328394283e+00 0.0000000000000000e+00  -4.7942717984830345e+00 -1.5152353610872487e+00 0.0000000000000000e+00  -4.2782471143164642e+00 -1.4931322874968576e+00 0.0000000000000000e+00  -4.7317223363943981e+00 -9.7798821330966978e-01 0.0000000000000000e+00  -4.2925810684568022e+00 -1.0721856224971429e+00 0.0000000000000000e+00  -4.6085212839083249e+00 -3.9361972176412757e-01 0.0000000000000000e+00  -4.2294380851475131e+00 -5.7836782727928249e-01 0.0000000000000000e+00  -4.7788485911516387e+00 -2.0753372472091439e-01 0.0000000000000000e+00  -4.1058644678936460e+00 4.8284294125184875e-02 0.0000000000000000e+00  -4.7542817471558516e+00 2.5502668975303761e-01 0.0000000000000000e+00  -4.2764041153417098e+00 2.1868720563884930e-01 0.0000000000000000e+00  -7.2544830929255122e+00 -3.0139793748485504e+00 0.0000000000000000e+00  -4.2524948942207992e+00 7.3757505594814177e-01 0.0000000000000000e+00  -8.4314143432341773e+00 -4.2215084018255764e+00 0.0000000000000000e+00  -6.7529168414946961e+00 -2.4550228389881301e+00 0.0000000000000000e+00  -8.7664369073805588e+00 -4.0749304437977125e+00 0.0000000000000000e+00  -7.9310991534209698e+00 -3.5696118676967528e+00 0.0000000000000000e+00  -8.7587857355600107e+00 -3.3554095690330583e+00 0.0000000000000000e+00  -8.2690737067936819e+00 -3.3629400801716081e+00 0.0000000000000000e+00  -8.5505017548584856e+00 -2.3500772537212087e+00 0.0000000000000000e+00  -8.2655863247240511e+00 -2.6569656397385963e+00 0.0000000000000000e+00  -8.2655006796462711e+00 -1.2636223396793218e+00 0.0000000000000000e+00  -8.0635857156786432e+00 -1.6848236835584514e+00 0.0000000000000000e+00  -7.9018897956302565e+00 -1.1070878322479681e-01 0.0000000000000000e+00  -7.7861134302387205e+00 -6.4770195662364205e-01 0.0000000000000000e+00  -7.4482887760786385e+00 1.0315161877507553e+00 0.0000000000000000e+00  -7.4315698446226737e+00 3.6120671697501988e-01 0.0000000000000000e+00  -6.8936149371320958e+00 2.2417926764419525e+00 0.0000000000000000e+00  -6.9898873634941934e+00 1.4213368787603475e+00 0.0000000000000000e+00  -6.2261309030330096e+00 3.4931511108311195e+00 0.0000000000000000e+00  -6.4487858530899222e+00 2.5065958441994738e+00 0.0000000000000000e+00  -5.4468825191513179e+00 4.8022985271896363e+00 0.0000000000000000e+00  -5.7978516833590339e+00 3.6500873067123667e+00 0.0000000000000000e+00  -4.5884932406206103e+00 6.0898705360308334e+00 0.0000000000000000e+00  -5.0381906710281372e+00 4.8221773734699074e+00 0.0000000000000000e+00  -3.6911141324431904e+00 7.4521745951952223e+00 0.0000000000000000e+00  -4.2035699371664164e+00 6.1284814838751149e+00 0.0000000000000000e+00  -2.7987903713890701e+00 8.5100476702797039e+00 0.0000000000000000e+00  -3.3316612820451694e+00 7.1993709853060412e+00 0.0000000000000000e+00  -1.9811325681240861e+00 9.6370561766069365e+00 0.0000000000000000e+00  -2.4730089977506400e+00 8.4381162117964656e+00 0.0000000000000000e+00  -1.2700487088580414e+00 9.9931232014956901e+00 0.0000000000000000e+00  -1.6874547288255417e+00 8.9646052035741928e+00 0.0000000000000000e+00  -7.2445666493686611e-01 1.0384764900272739e+01 0.0000000000000000e+00  -1.0222989961102427e+00 9.5986000186464029e+00 0.0000000000000000e+00  -3.3370955633137084e-01 9.2051461776152053e+00 0.0000000000000000e+00  -5.1497827260598616e-01 8.6702355432146305e+00 0.0000000000000000e+00  -1.2329295196597755e-01 8.1815012577844559e+00 0.0000000000000000e+00  -1.8544962304874146e-01 7.9010301092560100e+00 0.0000000000000000e+00  -2.2039796648220797e-02 3.9891583545764076e+00 0.0000000000000000e+00  -1.8313187042832191e-02 3.9049751585650059e+00 0.0000000000000000e+00  -1.0693587857350452e-05 -7.3881616785756278e-05 0.0000000000000000e+00  -7.4071599235641294e-04 -8.3733436501862233e-04 0.0000000000000000e+00  -3.7832347819192204e-11 5.1388445499110972e-19 0.0000000000000000e+00  1.4487269644420959e+00 -7.1502486061166888e+00 0.0000000000000000e+00  -2.7291011638962429e-02 -9.3428444895712399e+00 0.0000000000000000e+00  -7.0761549649428631e-04 6.6112633625359739e-04 0.0000000000000000e+00  -1.9904936554533373e-01 -1.1843306852174539e+01 0.0000000000000000e+00  1.4504685172100571e+00 -9.4161306066713664e+00 0.0000000000000000e+00  -2.0615929643443714e-01 -1.1108067483887611e+01 0.0000000000000000e+00  -1.6182832835289024e-01 -1.1115018918351891e+01 0.0000000000000000e+00  -8.0967102156170123e-01 -1.1013435340643008e+01 0.0000000000000000e+00  -1.3793752496959993e-01 -1.0134717048781839e+01 0.0000000000000000e+00  -9.9453984866951661e-01 -8.8502946921949430e+00 0.0000000000000000e+00  -7.1561032838222682e-01 -8.5924016779276062e+00 0.0000000000000000e+00  -1.2554803705101980e+00 -7.1981059935648428e+00 0.0000000000000000e+00  -8.7764270669292244e-01 -6.8261830531246348e+00 0.0000000000000000e+00  -1.4036735669197904e+00 -5.3654849089127339e+00 0.0000000000000000e+00  -1.1170693547277701e+00 -5.1586814971288897e+00 0.0000000000000000e+00  -1.5660840948970400e+00 -4.0054787126193077e+00 0.0000000000000000e+00  -1.2471614701301241e+00 -3.7775555337780244e+00 0.0000000000000000e+00  -1.6336598812407406e+00 -2.9140965479448582e+00 0.0000000000000000e+00  -1.3931363668225090e+00 -2.8257796481110145e+00 0.0000000000000000e+00  -1.7525279901324129e+00 -2.3151689424899136e+00 0.0000000000000000e+00  -1.4456152149459349e+00 -2.1489016335709867e+00 0.0000000000000000e+00  -1.8999606372946043e+00 -1.9474334815750587e+00 0.0000000000000000e+00  -1.5512322551723274e+00 -1.7373166922344940e+00 0.0000000000000000e+00  -2.0261428280109817e+00 -1.7793956489025000e+00 0.0000000000000000e+00  -1.6866870308315658e+00 -1.6000687152900634e+00 0.0000000000000000e+00  -2.1223409294322755e+00 -1.7086724562980860e+00 0.0000000000000000e+00  -1.8017726538249077e+00 -1.5732584208233322e+00 0.0000000000000000e+00  -2.1911674907055567e+00 -1.6614672791349010e+00 0.0000000000000000e+00  -1.8881180636114654e+00 -1.5665797245747142e+00 0.0000000000000000e+00  -2.2119880126368137e+00 -1.6180485039182659e+00 0.0000000000000000e+00  -1.9479713881618759e+00 -1.5943627023027034e+00 0.0000000000000000e+00  -2.2092626943054805e+00 -1.5813657617240973e+00 0.0000000000000000e+00  -1.9604411793066714e+00 -1.5923882911290961e+00 0.0000000000000000e+00  -2.1928050526207192e+00 -1.5268914496369164e+00 0.0000000000000000e+00  -1.9501225007573755e+00 -1.5581420542708926e+00 0.0000000000000000e+00  -2.1549315241551512e+00 -1.4583273270452315e+00 0.0000000000000000e+00  -1.9266182517679549e+00 -1.5212674351121547e+00 0.0000000000000000e+00  -2.1080223860302474e+00 -1.3899530869396204e+00 0.0000000000000000e+00  -1.8820406159762302e+00 -1.4660846165259007e+00 0.0000000000000000e+00  -2.0625808118022473e+00 -1.2912370841407428e+00 0.0000000000000000e+00  -1.8288548745922548e+00 -1.3650052462701836e+00 0.0000000000000000e+00  -2.0031523194838874e+00 -1.2074262094679487e+00 0.0000000000000000e+00  -1.7773845834110795e+00 -1.3019296238506579e+00 0.0000000000000000e+00  -1.9417268815953397e+00 -1.0641365642808616e+00 0.0000000000000000e+00  -1.7121295629696531e+00 -1.1615301857178308e+00 0.0000000000000000e+00  -1.8712359987714051e+00 -9.7441925664858975e-01 0.0000000000000000e+00  -1.6449726590652867e+00 -1.0852670414205285e+00 0.0000000000000000e+00  -1.7897819816352183e+00 -7.2402680332491820e-01 0.0000000000000000e+00  -1.5689842547547066e+00 -8.5139311916282290e-01 0.0000000000000000e+00  -1.6833605847734188e+00 -6.7374340575232838e-01 0.0000000000000000e+00  -1.4818301949573647e+00 -8.3827353966619911e-01 0.0000000000000000e+00  -1.5518696728588548e+00 -1.8825104456461281e-01 0.0000000000000000e+00  -1.3701468090462525e+00 -3.9081541925023167e-01 0.0000000000000000e+00  -1.3785288350914522e+00 -2.9439010354265105e-01 0.0000000000000000e+00  -1.2327347446938184e+00 -5.5901288286103146e-01 0.0000000000000000e+00  -1.1018909903106744e+00 6.3833911172309021e-01 0.0000000000000000e+00  -1.0545745117234371e+00 2.1756769932208164e-01 0.0000000000000000e+00  -6.3491562626428966e-01 7.9414384210598665e-01 0.0000000000000000e+00  -7.7112088922721256e-01 8.9946310013903033e-02 0.0000000000000000e+00  4.6817142541730222e-01 2.8945923922858713e-01 0.0000000000000000e+00  -3.0142722025252972e-01 -1.3730623200279213e+00 0.0000000000000000e+00  -3.1265835460620930e+00 -2.0560878165102872e+00 0.0000000000000000e+00  -2.9414715462742729e+00 -2.6063544964135836e+00 0.0000000000000000e+00  -3.2838286758604780e+00 -1.8625317289733050e+00 0.0000000000000000e+00  -3.4798346703664289e+00 -1.9437046950871995e+00 0.0000000000000000e+00  -3.6604419591153103e+00 -1.7356742317722056e+00 0.0000000000000000e+00  -3.7343374055252352e+00 -1.5304203867624060e+00 0.0000000000000000e+00  -3.7067654327894393e+00 -1.0532800565167875e+00 0.0000000000000000e+00  -3.7164687506933163e+00 -6.7558861854117658e-01 0.0000000000000000e+00  -3.6489581089599530e+00 -1.3980912280710764e-01 0.0000000000000000e+00  -3.5212316663972185e+00 4.7278418834020119e-01 0.0000000000000000e+00  -3.6892238583752190e+00 7.0127373664609560e-01 0.0000000000000000e+00  -3.6633085820086215e+00 1.2918846214553976e+00 0.0000000000000000e+00  -6.1563511330424632e+00 -1.8070179548547058e+00 0.0000000000000000e+00  -7.3280308333903141e+00 -2.8566692751298728e+00 0.0000000000000000e+00  -7.6647818176654043e+00 -2.6626533436060007e+00 0.0000000000000000e+00  -7.6620135969559886e+00 -1.9852088247410520e+00 0.0000000000000000e+00  -7.4641343303914987e+00 -1.0604181574431186e+00 0.0000000000000000e+00  -7.1928870323891916e+00 -1.6655104615693175e-01 0.0000000000000000e+00  -6.8463274181804374e+00 7.6549729083384910e-01 0.0000000000000000e+00  -6.4159293174118144e+00 1.7034805691582233e+00 0.0000000000000000e+00  -5.8895408628734067e+00 2.6829034803674410e+00 0.0000000000000000e+00  -5.2562348853211596e+00 3.6968295980697232e+00 0.0000000000000000e+00  -4.5202916310192780e+00 4.8923399524092410e+00 0.0000000000000000e+00  -3.7144298566107983e+00 5.9121866322123937e+00 0.0000000000000000e+00  -2.8785593770600912e+00 7.1734528666704955e+00 0.0000000000000000e+00  -2.0629358912988414e+00 7.8198544975806268e+00 0.0000000000000000e+00  -1.3326910449715264e+00 8.6298824751711170e+00 0.0000000000000000e+00  -7.2674707604558542e-01 7.9637682836707837e+00 0.0000000000000000e+00  -3.0245931894474148e-01 7.4368991691886883e+00 0.0000000000000000e+00  -4.8362862832969998e-02 3.7424656043527924e+00 0.0000000000000000e+00  -2.4887529750030604e-03 -1.5921602743632034e-03 0.0000000000000000e+00  -5.5061249161765594e-02 -9.1854829482729148e+00 0.0000000000000000e+00  -2.4475841602458739e-03 1.2963792580727713e-03 0.0000000000000000e+00  -2.0800641337857265e-01 -1.1643550759739535e+01 0.0000000000000000e+00  1.3191195423732314e+00 -8.7373911501765260e+00 0.0000000000000000e+00  -2.3432532441030612e-01 -1.0197240527807381e+01 0.0000000000000000e+00  -1.6868414883105720e-01 -7.7496699371471847e+00 0.0000000000000000e+00  -7.0940319596171320e-01 -6.5986319307935357e+00 0.0000000000000000e+00  -8.4417274237390982e-01 -4.8175666745718306e+00 0.0000000000000000e+00  -1.0572901988830825e+00 -3.5947890275445955e+00 0.0000000000000000e+00  -1.1666920566477814e+00 -2.6180459616974057e+00 0.0000000000000000e+00  -1.2943886754036220e+00 -2.0806614699800532e+00 0.0000000000000000e+00  -1.3306001908907101e+00 -1.5877463228144184e+00 0.0000000000000000e+00  -1.4219464275792271e+00 -1.4043282013728560e+00 0.0000000000000000e+00  -1.5450467399902601e+00 -1.4079632006109788e+00 0.0000000000000000e+00  -1.6487755522710916e+00 -1.4431380767195319e+00 0.0000000000000000e+00  -1.7253451570248586e+00 -1.5097401518534828e+00 0.0000000000000000e+00  -1.7767735143121792e+00 -1.5785452580132482e+00 0.0000000000000000e+00  -1.7816767198505259e+00 -1.5777450035704130e+00 0.0000000000000000e+00  -1.7647636749490312e+00 -1.5600594126536576e+00 0.0000000000000000e+00  -1.7354837663963265e+00 -1.5363428405378317e+00 0.0000000000000000e+00  -1.6855695907817192e+00 -1.4478089862547077e+00 0.0000000000000000e+00  -1.6275113680896447e+00 -1.3818704111438729e+00 0.0000000000000000e+00  -1.5715184102060291e+00 -1.2621806857860005e+00 0.0000000000000000e+00  -1.5018288384252065e+00 -1.1885829172182014e+00 0.0000000000000000e+00  -1.4303842212727695e+00 -9.6801209630172724e-01 0.0000000000000000e+00  -1.3500819023235759e+00 -9.7151698593353730e-01 0.0000000000000000e+00  -1.2586492072286155e+00 -5.6119899585022515e-01 0.0000000000000000e+00  -1.1424557080733935e+00 -7.6740106018009568e-01 0.0000000000000000e+00  -1.0008301536794211e+00 -5.3019504570278299e-02 0.0000000000000000e+00  -8.1788633709737946e-01 -3.3693695147159708e-01 0.0000000000000000e+00  -5.3037134455975066e-01 -2.0812836777419230e+00 0.0000000000000000e+00  -2.2584001124167812e+00 -1.7801624721687745e+00 0.0000000000000000e+00  -2.0857221614601928e+00 -2.3448077039089474e+00 0.0000000000000000e+00  -2.4405533523193137e+00 -1.6299323046192173e+00 0.0000000000000000e+00  -2.5923346939623868e+00 -1.6538495032745428e+00 0.0000000000000000e+00  -2.7817251618645029e+00 -1.4702909940718816e+00 0.0000000000000000e+00  -2.9537249156248793e+00 -1.4261510238697270e+00 0.0000000000000000e+00  -3.0174331377418722e+00 -1.1018338903307454e+00 0.0000000000000000e+00  -2.9788705522451147e+00 -6.6895347045549758e-01 0.0000000000000000e+00  -2.9767954665051759e+00 -2.4879467091085292e-01 0.0000000000000000e+00  -2.8978209414519789e+00 2.7462051483529354e-01 0.0000000000000000e+00  -2.7607777745386026e+00 9.4854358996644406e-01 0.0000000000000000e+00  -2.9222371297459029e+00 1.2484097009862036e+00 0.0000000000000000e+00  -2.8856993047276225e+00 1.9197365439239766e+00 0.0000000000000000e+00  -5.3570113349810562e+00 -1.1136991636511724e+00 0.0000000000000000e+00  -6.5092550504266145e+00 -2.1630470191875597e+00 0.0000000000000000e+00  -6.8367301478877813e+00 -1.9913805165923859e+00 0.0000000000000000e+00  -6.8304296052412639e+00 -1.3560297510782644e+00 0.0000000000000000e+00  -6.6328715690443900e+00 -5.6946414930843625e-01 0.0000000000000000e+00  -6.3648007722367153e+00 2.5218084575640454e-01 0.0000000000000000e+00  -6.0252660430437626e+00 1.0668144113250591e+00 0.0000000000000000e+00  -5.6051571911967271e+00 1.9060876694823252e+00 0.0000000000000000e+00  -5.0934559134809589e+00 2.7648566689231107e+00 0.0000000000000000e+00  -4.4825090640929428e+00 3.8104418395319404e+00 0.0000000000000000e+00  -3.7757133529594862e+00 4.7360027774011622e+00 0.0000000000000000e+00  -3.0115920578620448e+00 5.9570107659845375e+00 0.0000000000000000e+00  -2.2281680530550214e+00 6.6515819228609034e+00 0.0000000000000000e+00  -1.4860810515916694e+00 7.5914693839664471e+00 0.0000000000000000e+00  -8.4096761513061757e-01 7.1487920627513191e+00 0.0000000000000000e+00  -3.5763759532970746e-01 6.8718585696304340e+00 0.0000000000000000e+00  -5.5372888777381071e-02 3.5245117007159044e+00 0.0000000000000000e+00  -5.2169709457362155e-03 -2.2756699858567445e-03 0.0000000000000000e+00  -6.4343081541370528e-02 -8.9400448948851121e+00 0.0000000000000000e+00  -5.1800770345181747e-03 1.8527854117033620e-03 0.0000000000000000e+00  -3.4697187617013736e-01 -1.1369283143360219e+01 0.0000000000000000e+00  -5.0413151573580028e-01 -1.1091833921404350e+01 0.0000000000000000e+00  1.1110342261668791e+00 -7.9415312391139965e+00 0.0000000000000000e+00  -3.4858997001827019e-01 -7.8966756343960425e+00 0.0000000000000000e+00  -2.1747021845122502e-01 -5.8324929797408833e+00 0.0000000000000000e+00  -7.0564433322995290e-01 -4.6459045932778329e+00 0.0000000000000000e+00  -7.9975758682881282e-01 -3.3039271853725216e+00 0.0000000000000000e+00  -9.7765253644120498e-01 -2.4768851152191913e+00 0.0000000000000000e+00  -1.0587933359560711e+00 -1.9092540149757804e+00 0.0000000000000000e+00  -1.1612763045752512e+00 -1.5506129897362442e+00 0.0000000000000000e+00  -1.1759173826807046e+00 -1.2829183286388006e+00 0.0000000000000000e+00  -1.2482792698810865e+00 -1.2367679240763303e+00 0.0000000000000000e+00  -1.3543782469611787e+00 -1.2995907732666920e+00 0.0000000000000000e+00  -1.4431827699054403e+00 -1.4053875636837780e+00 0.0000000000000000e+00  -1.5070831460501337e+00 -1.5103065988987947e+00 0.0000000000000000e+00  -1.5476186616440557e+00 -1.5780230944303977e+00 0.0000000000000000e+00  -1.5433251858804575e+00 -1.5920842960101171e+00 0.0000000000000000e+00  -1.5186563173388896e+00 -1.5859412684886096e+00 0.0000000000000000e+00  -1.4826563860032436e+00 -1.5277500079281561e+00 0.0000000000000000e+00  -1.4268129850518614e+00 -1.4735820361155931e+00 0.0000000000000000e+00  -1.3634347786789174e+00 -1.3504973050388043e+00 0.0000000000000000e+00  -1.3023618530579424e+00 -1.2972464559662265e+00 0.0000000000000000e+00  -1.2277688274895917e+00 -1.0794309177840871e+00 0.0000000000000000e+00  -1.1513074596392996e+00 -1.0960405559368342e+00 0.0000000000000000e+00  -1.0660196712015997e+00 -7.0291645569897909e-01 0.0000000000000000e+00  -9.6912108531706231e-01 -9.4570696594299464e-01 0.0000000000000000e+00  -8.4788062986704382e-01 -2.7068875118723146e-01 0.0000000000000000e+00  -7.0007981833756139e-01 -6.1469012732350570e-01 0.0000000000000000e+00  -5.1320377711058773e-01 -2.5182622770052809e+00 0.0000000000000000e+00  -1.6218505047796334e+00 -1.5235529934804481e+00 0.0000000000000000e+00  -1.4525120743193081e+00 -2.0873375654386104e+00 0.0000000000000000e+00  -1.7906156647609868e+00 -1.3612334657492364e+00 0.0000000000000000e+00  -1.9653327974546220e+00 -1.4326061673707495e+00 0.0000000000000000e+00  -2.1074785324538556e+00 -1.1943269146675342e+00 0.0000000000000000e+00  -2.2845197798618058e+00 -1.1780408118218471e+00 0.0000000000000000e+00  -2.4417838308966311e+00 -1.0181009798325851e+00 0.0000000000000000e+00  -2.4882840067110119e+00 -7.3975046885651063e-01 0.0000000000000000e+00  -2.4308428622146798e+00 -2.6543815289055567e-01 0.0000000000000000e+00  -2.4096382049921745e+00 1.4301828455187976e-01 0.0000000000000000e+00  -2.3131906179515234e+00 7.3273644935278648e-01 0.0000000000000000e+00  -2.1618480561733926e+00 1.4818692039624739e+00 0.0000000000000000e+00  -2.3104573079383068e+00 1.8513032860050782e+00 0.0000000000000000e+00  -2.2500309292146237e+00 2.5664897382663447e+00 0.0000000000000000e+00  -4.6806473284820687e+00 -4.6184009114096075e-01 0.0000000000000000e+00  -5.7983904924140859e+00 -1.5150137973587978e+00 0.0000000000000000e+00  -6.1059600038701234e+00 -1.3752900001536870e+00 0.0000000000000000e+00  -6.0863830445021012e+00 -8.7132039580618581e-01 0.0000000000000000e+00  -5.8809657365008894e+00 -1.5457220009416564e-01 0.0000000000000000e+00  -5.6065642140805902e+00 5.5558527687145642e-01 0.0000000000000000e+00  -5.2631193455298764e+00 1.2754735376866475e+00 0.0000000000000000e+00  -4.8423844256622210e+00 2.0002370573151129e+00 0.0000000000000000e+00  -4.3348673117474581e+00 2.9012247845044548e+00 0.0000000000000000e+00  -3.7344567849880210e+00 3.6924032776210289e+00 0.0000000000000000e+00  -3.0516682901316514e+00 4.8326985156701285e+00 0.0000000000000000e+00  -2.3230144562501227e+00 5.5198064842019550e+00 0.0000000000000000e+00  -1.6012730328940128e+00 6.5253926695611062e+00 0.0000000000000000e+00  -9.3732075846101182e-01 6.2731410684078011e+00 0.0000000000000000e+00  -4.1975761640436327e-01 6.2209603923045611e+00 0.0000000000000000e+00  -7.2963456758483439e-02 3.2580229338299160e+