<?xml version="1.0"?>
<VTKFile type="UnstructuredGrid"  version="0.1"  >
<UnstructuredGrid>
<Piece  NumberOfPoints="1933" NumberOfCells="3640">
<Points>
<DataArray  type="Float64"  NumberOfComponents="3"  format="ascii">-0.293548360721539 -0.003060081039548006 0  4.70645168646106 -0.00297340514165403 0  4.706321633677431 7.497026692400691 0  -0.2936784203809214 7.496940007956574 0  9.706451773972468 -0.002886793441424368 0  9.706321716831731 7.497113299262502 0  14.70645193607105 -0.002800211930500624 0  14.70632183660606 7.497199873495338 0  19.70645219461539 -0.002713609898834427 0  19.70632199643789 7.497286468900799 0  24.70645256032779 -0.002626930052795703 0  24.70632219554459 7.49737314336955 0  29.70645303508776 -0.002540112439914544 0  29.70632242857459 7.497459956684525 0  34.70645361381682 -0.002453095572831897 0  34.70632268533649 7.497546969968233 0  39.70645428566758 -0.002365816221153982 0  39.70632295051373 7.497634246068523 0  44.70645503455181 -0.002278208536172705 0  44.70632320324231 7.49772185047314 0  49.70645583910081 -0.002190202802556969 0  49.70632341645623 7.497809852547691 0  54.70645667212548 -0.002101723926489108 0  54.70632355592277 7.497898327017429 0  59.70645749959606 -0.002012689669339678 0  59.70632357889204 7.497987355690413 0  64.70645827910911 -0.001923008572333075 0  64.70632343226293 7.498077029472229 0  69.70645895773983 -0.001832577465846367 0  69.70632305013824 7.498167450765655 0  74.70645946910531 -0.001741278401644453 0  74.70632235058699 7.498258736391374 0  79.70645972933852 -0.001648974774984423 0  79.70632123135957 7.498351021216254 0  84.7064596315068 -0.001555506303119131 0  84.70631956420847 7.498444462735701 0  89.70645903770607 -0.00146068238119775 0  89.70631718733671 7.498539246925418 0  94.70645776759193 -0.001364273125888446 0  94.70631389535133 7.498635595741381 0  99.70645558125435 -0.001265997119293909 0  99.7063094259609 7.4987337766616 0  104.7064521528806 -0.001165504469478446 0  104.7063034426073 7.498834114519736 0  109.7064470289916 -0.001062353346804363 0  109.706295512509 7.498937005311979 0  114.7064395602517 -0.0009559778359954481 0  114.7062850807589 7.499042930068234 0  119.7064287870763 -0.0008456454257325399 0  119.7062714443938 7.499152462937678 0  124.7064132431594 -0.0007304056897395766 0  124.7062537384464 7.499266258517092 0  129.7063906114336 -0.0006090432095112786 0  129.7062309645565 7.499384983297872 0  134.7063571126241 -0.0004800833967001941 0  134.7062021334286 7.499509113670046 0  139.7063064065761 -0.0003420082669999694 0  139.7061666788396 7.499638440380956 0  144.7062275979327 -0.0001941881793346976 0  144.7061254816956 7.499770990176384 0  149.706101541364 -4.029343614480585e-05 0  149.7060832326603 7.499901052266194 0  159.7061073738533 1.214396730209137e-18 0  164.7061235893665 -3.055183536103397e-05 0  164.7061118418831 7.499957375615204 0  159.7060983247516 7.499972283077065 0  169.70615258413 -2.910299893366228e-05 0  169.7061250825666 7.499965239709124 0  174.7061845375545 -5.743462677178758e-06 0  174.7061393474043 7.499991551358984 0  179.7062153426562 3.311988921550057e-05 0  179.7061542295541 7.500031853252374 0  184.7062434253576 8.31529813983287e-05 0  184.7061690726814 7.500082605496045 0  189.7062683446143 0.0001413524691274687 0  189.7061833515723 7.500141167516396 0  194.7062901514616 0.0002056044910919641 0  194.7061967297771 7.500205601368134 0  199.7063090926636 0.0002743986336473077 0  199.706209027994 7.500274484615975 0  204.706325475231 0.000346638496048197 0  204.7062201776557 7.500346765660146 0  209.706339606657 0.0004215153454444247 0  209.7062301813343 7.500421658880251 0  214.7063517706509 0.0004984232206575842 0  214.7062390839174 7.500498570373468 0  219.7063622192364 0.0005769012672849141 0  219.7062469532078 7.500577045644273 0  224.7063711721334 0.000656594022400399 0  224.7062538674956 7.50065673261858 0  229.7063788191566 0.0007372236247429287 0  229.7062599079331 7.500737355261032 0  234.7063853236575 0.0008185700430617124 0  234.7062651540821 7.500818694537551 0  239.706390826135 0.0009004567772067571 0  239.7062696815013 7.500900574505351 0  244.7063954476658 0.0009827403608248886 0  244.7062735606294 7.500982852025866 0  249.7063992930322 0.001065302558840854 0  249.706276856472 7.501065409078856 0  254.7064024535547 0.001148044522161095 0  254.7062796287912 7.501148146984105 0  259.7064050096574 0.001230882409878544 0  259.7062819325878 7.50123098206288 0  264.7064070332444 0.001313744163123841 0  264.7062838187592 7.501313842432743 0  269.7064085899264 0.001396567246260566 0  269.7062853348417 7.501396665751562 0  274.7064097411708 0.001479297283237452 0  274.7062865257657 7.501479397827943 0  279.7064105463853 0.001561887628474693 0  279.7062874345651 7.501561992109587 0  284.7064110649231 0.001644300040626021 0  284.7062881029689 7.50164441015828 0  289.7064113578471 0.001726506792378074 0  289.7062885717897 7.50172662332485 0  294.7064114891047 0.001808494762924749 0  294.7062888810609 7.501808615945994 0  299.7064115252481 0.001890272298146665 0  299.7062890699272 7.501890390477281 0  304.7064115319132 0.0019718796852063 0  304.7062891766328 7.501971975028743 0  309.7064115632728 0.002053402958175965 0  309.7062892397348 7.502053433942758 0  4.706191473213504 14.99702688519507 0  -0.2938085763168561 14.99694022197304 0  9.706191527913148 14.99711345265374 0  14.70619158777313 14.99719998815593 0  19.7061916480528 14.99728655035793 0  24.70619170106755 14.99737319699248 0  29.7061917362621 14.99745998613901 0  34.70619173972321 14.99754697691226 0  39.70619169352061 14.99763423021098 0  44.70619157496519 14.99772180965642 0  49.70619135576838 14.9978097827231 0  54.70619100105504 14.9978982220524 0  59.70619046817288 14.99798720695705 0  64.70618970524556 14.99807682514533 0  69.7061886494139 14.99816717471047 0  74.70618722472652 14.99825836644236 0  79.70618533965676 14.99835052651646 0  84.70618288428241 14.99844379959066 0  89.70617972727368 14.99853835226729 0  94.70617571306204 14.99863437670392 0  99.70617065998016 14.99873209378562 0  104.7061643609462 14.9988317545123 0  109.7061565896047 14.99893363676377 0  114.7061471171247 14.999038031755 0  119.7061357484419 14.99914520921697 0  124.7061223919146 14.99925534092717 0  129.706107182495 14.9993683463235 0  134.7060906821344 14.99948359943628 0  139.7060741709797 14.99959940481227 0  144.7060599881121 14.9997121248547 0  149.7060517018221 14.99981484569523 0  164.7060771887823 14.99992397311726 0  159.7060700158065 14.9999081219749 0  169.7060816854743 14.99994851915105 0  174.7060858385205 14.9999835508792 0  179.7060905284314 15.00002834609561 0  184.7060958876012 15.00008138303746 0  189.7061017489899 15.00014108010618 0  194.7061078679532 15.00020605195229 0  199.706114016356 15.00027516475521 0  204.7061200140544 15.00034751800207 0  209.7061257326082 15.00042240530863 0  214.7061310883826 15.00049927432545 0  219.7061360328857 15.00057769226897 0  224.7061405435898 15.00065731829543 0  229.7061446163305 15.00073788205586 0  234.7061482594517 15.00081916728037 0  239.70615148948 15.00090099927025 0  244.7061543280342 15.00098323536558 0  249.7061567996814 15.00106575766785 0  254.7061589304869 15.00114846747967 0  259.7061607470682 15.00123128107415 0  264.7061622759967 15.00131412652181 0  269.706163543437 15.0013969413965 0  274.7061645749401 15.00147967125471 0  279.7061653953232 15.00156226884225 0  284.7061660286402 15.0016446940265 0  289.7061664982444 15.00172691447179 0  294.7061668271149 15.00180890704797 0  299.7061670387331 15.00189065984726 0  304.7061671591493 15.00197217440897 0  309.7061672213538 15.00205346722296 0  4.706061375435294 22.49702719566285 0  -0.2939386683706275 22.49694063382408 0  9.706061407425643 22.49711367001409 0  14.70606142035883 22.4972001231713 0  19.70606140550137 22.49728661363883 0  24.70606135250162 22.49737319668899 0  29.70606124920054 22.49745992686668 0  34.70606108120752 22.49754685942111 0  39.70606083134437 22.49763405132007 0  44.70606047903654 22.49772156215822 0  49.70605999968858 22.49780945508891 0  54.70605936405092 22.49789779782435 0  59.70605853758621 22.49798666371626 0  64.70605747985481 22.49807613291183 0  69.70605614396722 22.49816629356158 0  74.70605447620559 22.49825724302638 0  79.70605241598641 22.49834908897236 0  84.70604989646677 22.4984419501383 0  89.70604684628196 22.49853595637385 0  94.70604319318961 22.49863124722452 0  99.70603887081337 22.4987279677888 0  104.7060338302601 22.49882625965875 0  109.7060280591206 22.49892624327274 0  114.7060216111477 22.49902798570628 0  119.7060146503664 22.4991314445734 0  124.7060075126327 22.49923637438616 0  129.7060007837972 22.49934217759621 0  134.7059953831348 22.49944768286365 0  139.7059926180212 22.49955084974802 0  144.7059941351951 22.49964846186607 0  149.7060016394124 22.49973605349162 0  164.7060197098032 22.49988486927752 0  159.7060174387186 22.49984684369079 0  169.7060196816562 22.49992521295228 0  174.7060186826334 22.49997049436935 0  179.7060176678529 22.50002159344077 0  184.7060171360104 22.50007837160383 0  189.706017257503 22.50014022058893 0  194.706018014671 22.50020638433068 0  199.7060193016578 22.50027611939787 0  204.7060209840651 22.50034876221543 0  209.7060229303085 22.50042374844641 0  214.7060250257016 22.50050061026918 0  219.7060271769614 22.50057896492918 0  224.7060293118842 22.50065850103372 0  229.7060313768992 22.50073896544816 0  234.7060333339511 22.50082015185964 0  239.7060351574234 22.50090189124098 0  244.7060368314091 22.50098404409488 0  249.7060383474211 22.5010664942366 0  254.7060397025404 22.50114914385914 0  259.7060408979339 22.50123190965289 0  264.7060419376995 22.50131471979158 0  269.7060428279577 22.50139751163822 0  274.7060435761647 22.50148023005625 0  279.7060441906159 22.50156282622967 0  284.7060446801693 22.50164525689211 0  289.7060450542581 22.50172748382285 0  294.7060453233574 22.50180947336519 0  299.706045500141 22.50189
[...]
<PointData  Vectors="v"> 
<DataArray  type="Float64"  Name="v"  NumberOfComponents="3" format="ascii">-3.6600937175249380e+00 1.6119671029952962e+00 0.0000000000000000e+00  -3.5145384992210151e+00 1.8427278401434564e+00 0.0000000000000000e+00  -2.8974604755412496e+00 1.6244014908597142e+00 0.0000000000000000e+00  -3.0045312099469741e+00 1.4521025822461293e+00 0.0000000000000000e+00  -3.2700005810516957e+00 2.3570143995438890e+00 0.0000000000000000e+00  -2.7518413071768029e+00 1.9906273385847719e+00 0.0000000000000000e+00  -2.9644766266614382e+00 3.0887074215106809e+00 0.0000000000000000e+00  -2.5076057548713151e+00 2.6309212507121558e+00 0.0000000000000000e+00  -2.6062166420390374e+00 3.8002816385129945e+00 0.0000000000000000e+00  -2.2026078708252630e+00 3.2639279190609849e+00 0.0000000000000000e+00  -2.2001070911123661e+00 4.6415038378865301e+00 0.0000000000000000e+00  -1.8452043426089364e+00 4.0338804522707887e+00 0.0000000000000000e+00  -1.8043250055163116e+00 5.3976381481204072e+00 0.0000000000000000e+00  -1.4407708606270713e+00 4.8058315087306900e+00 0.0000000000000000e+00  -1.6322767247911276e+00 5.8192570441902882e+00 0.0000000000000000e+00  -1.0471925526615022e+00 5.5639590396040450e+00 0.0000000000000000e+00  -1.1326839099280712e+00 6.6827346823132521e+00 0.0000000000000000e+00  -8.7803355195688393e-01 5.9368233643467150e+00 0.0000000000000000e+00  -3.0271741224502815e+00 3.9543590663515937e+00 0.0000000000000000e+00  -3.8249653942037143e-01 6.8002062976795878e+00 0.0000000000000000e+00  1.3452245222803951e+00 1.0501239879962412e+01 0.0000000000000000e+00  -2.2819424320784645e+00 3.9476763964934167e+00 0.0000000000000000e+00  -2.9116716618587841e-02 8.1976171755380491e+00 0.0000000000000000e+00  2.0856287777738189e+00 1.0264724870646717e+01 0.0000000000000000e+00  -3.1635658939871869e-01 7.5288228755070605e+00 0.0000000000000000e+00  7.0476319399286991e-01 7.9675606206215841e+00 0.0000000000000000e+00  1.9564553601526005e-02 7.8361713382599776e+00 0.0000000000000000e+00  4.0849792942267699e-01 7.3421355150579410e+00 0.0000000000000000e+00  8.0890289333334287e-01 8.8212443923535524e+00 0.0000000000000000e+00  7.3333642160479096e-01 7.6495035258102320e+00 0.0000000000000000e+00  1.8665606682043978e+00 1.0149667760522235e+01 0.0000000000000000e+00  1.5083323359431700e+00 8.5768491018789934e+00 0.0000000000000000e+00  3.1365588817524515e+00 1.1678815198630149e+01 0.0000000000000000e+00  2.5494893145592843e+00 9.7904911993775290e+00 0.0000000000000000e+00  4.5742934370873378e+00 1.3369235777682087e+01 0.0000000000000000e+00  3.8006260286107039e+00 1.1231749768709745e+01 0.0000000000000000e+00  6.1349412519608544e+00 1.5036273972700396e+01 0.0000000000000000e+00  5.2155013517299560e+00 1.2716389119207555e+01 0.0000000000000000e+00  7.7828250996944046e+00 1.6673642026218577e+01 0.0000000000000000e+00  6.7509255974266873e+00 1.4226896828336457e+01 0.0000000000000000e+00  9.4776078630528513e+00 1.8197861865336943e+01 0.0000000000000000e+00  8.3697844008722768e+00 1.5683250943526703e+01 0.0000000000000000e+00  1.1152409430189381e+01 1.9507241636044029e+01 0.0000000000000000e+00  1.0031732981222586e+01 1.7026419498364753e+01 0.0000000000000000e+00  1.2744982810493914e+01 2.0418942920271594e+01 0.0000000000000000e+00  1.1668643906014818e+01 1.8064251424779311e+01 0.0000000000000000e+00  1.4202854211584434e+01 2.1032467872909145e+01 0.0000000000000000e+00  1.3221630028058371e+01 1.8886189134689570e+01 0.0000000000000000e+00  1.5452913822114770e+01 2.0832004067497575e+01 0.0000000000000000e+00  1.4630222403974512e+01 1.8996473179284635e+01 0.0000000000000000e+00  1.6476831904989098e+01 2.0155828285413136e+01 0.0000000000000000e+00  1.5833652839789384e+01 1.8671918053907280e+01 0.0000000000000000e+00  1.7227295759989222e+01 1.8272370543775732e+01 0.0000000000000000e+00  1.6794779434923754e+01 1.7190539669947825e+01 0.0000000000000000e+00  1.7742161324665020e+01 1.5448781706883056e+01 0.0000000000000000e+00  1.7492934797671126e+01 1.4742847355117839e+01 0.0000000000000000e+00  1.8011293432119444e+01 1.1404795093894331e+01 0.0000000000000000e+00  1.7928434467134352e+01 1.1046610259785126e+01 0.0000000000000000e+00  1.8136910031081506e+01 4.7642810414109178e+00 0.0000000000000000e+00  1.8141641809642916e+01 4.6603195458429054e+00 0.0000000000000000e+00  1.8163558467453576e+01 -3.2713810532516874e-05 0.0000000000000000e+00  1.8163235003056705e+01 -3.7069191230635761e-04 0.0000000000000000e+00  1.8163563200113053e+01 2.4785713477188262e-19 0.0000000000000000e+00  1.3886269492189985e+01 -1.1536122975492690e+01 0.0000000000000000e+00  1.8132910210561253e+01 -5.1554861375951484e+00 0.0000000000000000e+00  1.8163249643730911e+01 2.9279541472002903e-04 0.0000000000000000e+00  1.2624638998246970e+01 -2.0106229147379782e+01 0.0000000000000000e+00  1.3905303565721207e+01 -1.8282924301879095e+01 0.0000000000000000e+00  1.0751904365638859e+01 -2.3969805044984597e+01 0.0000000000000000e+00  1.2702347010638713e+01 -2.1197162919862020e+01 0.0000000000000000e+00  9.6680606050551283e+00 -2.4789920400088707e+01 0.0000000000000000e+00  1.0884257612634206e+01 -2.3212181138100615e+01 0.0000000000000000e+00  8.4450569450710908e+00 -2.4343676970177842e+01 0.0000000000000000e+00  9.8494578347547037e+00 -2.2548921333388517e+01 0.0000000000000000e+00  7.4353493248500548e+00 -2.2823619623544161e+01 0.0000000000000000e+00  8.6721519474800264e+00 -2.1349383616348131e+01 0.0000000000000000e+00  6.4870180944433491e+00 -2.1040258702238013e+01 0.0000000000000000e+00  7.7069972006337757e+00 -1.9653306691183271e+01 0.0000000000000000e+00  5.6351324230223110e+00 -1.9030177454994273e+01 0.0000000000000000e+00  6.7993039001541247e+00 -1.7788428823253941e+01 0.0000000000000000e+00  4.7469378524131125e+00 -1.7217098791396982e+01 0.0000000000000000e+00  5.9861590763130135e+00 -1.5917811950988307e+01 0.0000000000000000e+00  4.0375064504484159e+00 -1.5480330403595701e+01 0.0000000000000000e+00  5.1352545260502840e+00 -1.4448046409699518e+01 0.0000000000000000e+00  3.4060051540654501e+00 -1.3966111807474181e+01 0.0000000000000000e+00  4.4609804116946403e+00 -1.3049589389602922e+01 0.0000000000000000e+00  2.7533690491309484e+00 -1.2751809441720050e+01 0.0000000000000000e+00  3.8631301857393106e+00 -1.1802327630623688e+01 0.0000000000000000e+00  2.1585741680787258e+00 -1.1692776123694026e+01 0.0000000000000000e+00  3.2431381611085870e+00 -1.0828755963460107e+01 0.0000000000000000e+00  1.6213938453951531e+00 -1.0770716272599341e+01 0.0000000000000000e+00  2.6794872804338645e+00 -9.9924669872360514e+00 0.0000000000000000e+00  1.1398709521543460e+00 -9.9267787491359094e+00 0.0000000000000000e+00  2.1723439031892524e+00 -9.2309929240079569e+00 0.0000000000000000e+00  7.2345088289070469e-01 -9.1233770284135272e+00 0.0000000000000000e+00  1.7200464138902321e+00 -8.5244288217269517e+00 0.0000000000000000e+00  3.6711879911894907e-01 -8.3654687560481431e+00 0.0000000000000000e+00  1.3318541852494927e+00 -7.8561052977094707e+00 0.0000000000000000e+00  5.5391197242431689e-02 -7.6242281019488960e+00 0.0000000000000000e+00  1.0029483654188649e+00 -7.1811558821500459e+00 0.0000000000000000e+00  -2.0846433815200741e-01 -6.8991574706333445e+00 0.0000000000000000e+00  7.1813077504181499e-01 -6.5272962126442184e+00 0.0000000000000000e+00  -4.2937655367586386e-01 -6.1839433172073432e+00 0.0000000000000000e+00  4.8047014482860545e-01 -5.8762191322183792e+00 0.0000000000000000e+00  -6.1417481062944823e-01 -5.4796697034740527e+00 0.0000000000000000e+00  2.8536499198511683e-01 -5.2255934603468086e+00 0.0000000000000000e+00  -7.6346712077647239e-01 -4.7586558206815797e+00 0.0000000000000000e+00  1.2582436314690951e-01 -4.5577028070146737e+00 0.0000000000000000e+00  -8.7046157222481557e-01 -4.0800823142634792e+00 0.0000000000000000e+00  1.7272608705395640e-03 -3.9420030281915777e+00 0.0000000000000000e+00  -9.4518574553041190e-01 -3.3261110046092872e+00 0.0000000000000000e+00  -8.0951550707534931e-02 -3.2368030646105881e+00 0.0000000000000000e+00  -9.7364417677619408e-01 -2.6957279962671543e+00 0.0000000000000000e+00  -1.3058716782080315e-01 -2.6745622722151743e+00 0.0000000000000000e+00  -9.6018784533769763e-01 -1.8779690404595240e+00 0.0000000000000000e+00  -1.3588680267407041e-01 -1.9213336580484428e+00 0.0000000000000000e+00  -8.9580109063932800e-01 -1.3969453888758521e+00 0.0000000000000000e+00  -9.6650507431896959e-02 -1.5135399311963900e+00 0.0000000000000000e+00  -7.6612371555499703e-01 -4.2921980427449741e-01 0.0000000000000000e+00  -1.1338811420525105e-02 -6.4867224590024108e-01 0.0000000000000000e+00  -5.2199654803076767e-01 5.0853849750876104e-02 0.0000000000000000e+00  1.4752220252701376e-01 -3.3131882639990951e-01 0.0000000000000000e+00  5.9337100153798158e-02 2.8487026285734635e-01 0.0000000000000000e+00  4.0332235161510038e-01 -6.2059437510819104e-01 0.0000000000000000e+00  -2.0114457313212459e+00 1.4627887497210930e+00 0.0000000000000000e+00  -2.1192450016016466e+00 1.2926758503340412e+00 0.0000000000000000e+00  -1.9026940824300085e+00 1.7708680346448702e+00 0.0000000000000000e+00  -1.7548365125529894e+00 2.2633770738837056e+00 0.0000000000000000e+00  -1.5084154087844184e+00 2.8053293859116528e+00 0.0000000000000000e+00  -1.2015251026035150e+00 3.4966006962583154e+00 0.0000000000000000e+00  -8.4249379375043765e-01 4.1987159691946996e+00 0.0000000000000000e+00  -4.3730356881108096e-01 4.9738789101829637e+00 0.0000000000000000e+00  -4.4320474842250365e-02 5.6836069068458652e+00 0.0000000000000000e+00  1.2312021448152793e-01 6.0590903604265449e+00 0.0000000000000000e+00  6.1440875336252065e-01 6.8009048365965761e+00 0.0000000000000000e+00  -1.2902914300388151e+00 3.7133807250834678e+00 0.0000000000000000e+00  3.0780318024888218e+00 1.0038207178777771e+01 0.0000000000000000e+00  1.6967762476036088e+00 7.7907183046938533e+00 0.0000000000000000e+00  1.3933190552135706e+00 7.1673467138395717e+00 0.0000000000000000e+00  1.7073803767738376e+00 7.4240239977570086e+00 0.0000000000000000e+00  2.4659587638844473e+00 8.2405624549511138e+00 0.0000000000000000e+00  3.4864154510752376e+00 9.3683086193945488e+00 0.0000000000000000e+00  4.7132256759323967e+00 1.0611472503790118e+01 0.0000000000000000e+00  6.0982632670082619e+00 1.1944292899530284e+01 0.0000000000000000e+00  7.5983003526914228e+00 1.3276821153809331e+01 0.0000000000000000e+00  9.1772302797718073e+00 1.4561967241409478e+01 0.0000000000000000e+00  1.0790974236264070e+01 1.5639742500907598e+01 0.0000000000000000e+00  1.2373007718407232e+01 1.6593567726030088e+01 0.0000000000000000e+00  1.3862216147895719e+01 1.6923430012129156e+01 0.0000000000000000e+00  1.5198978120645414e+01 1.6918952812755158e+01 0.0000000000000000e+00  1.6316422482520860e+01 1.5794139959704911e+01 0.0000000000000000e+00  1.7188774492031349e+01 1.3771346927449505e+01 0.0000000000000000e+00  1.7771181148810950e+01 1.0436787315308763e+01 0.0000000000000000e+00  1.8104105082974570e+01 4.4536026764661951e+00 0.0000000000000000e+00  1.8162460753233074e+01 -7.0458501549485635e-04 0.0000000000000000e+00  1.8092155578545086e+01 -4.9595084881191633e+00 0.0000000000000000e+00  1.8162478955569057e+01 5.7391993685373629e-04 0.0000000000000000e+00  1.7901129679992668e+01 -1.1960118978870327e+01 0.0000000000000000e+00  1.3744037944407292e+01 -1.9450186946884845e+01 0.0000000000000000e+00  1.2627418036154118e+01 -2.0527493014529409e+01 0.0000000000000000e+00  1.0877329329205573e+01 -2.1036813988301486e+01 0.0000000000000000e+00  9.9060591329178092e+00 -1.9613149315366812e+01 0.0000000000000000e+00  8.7804490872366827e+00 -1.8238702878833898e+01 0.0000000000000000e+00  7.8659495370947301e+00 -1.6453075119782753e+01 0.0000000000000000e+00  7.0018943099004183e+00 -1.4722645327869184e+01 0.0000000000000000e+00  6.2291759651045000e+00 -1.3195273362303061e+01 0.0000000000000000e+00  5.4161132039911566e+00 -1.2059784800267034e+01 0.0000000000000000e+00  4.7771917866308469e+00 -1.0925326096095150e+01 0.0000000000000000e+00  4.2122688038461380e+00 -9.9184265618901044e+00 0.0000000000000000e+00  3.6239916207385212e+00 -9.1651363257047986e+00 0.0000000000000000e+00  3.0901245277982916e+00 -8.4872346200285698e+00 0.0000000000000000e+00  2.6110332453126373e+00 -7.8625325402816522e+00 0.0000000000000000e+00  2.1856300571104308e+00 -7.2893829262048211e+00 0.0000000000000000e+00  1.8229813406880730e+00 -6.7025176969828157e+00 0.0000000000000000e+00  1.5183993993159433e+00 -6.1144540491129682e+00 0.0000000000000000e+00  1.2571041779596639e+00 -5.5335455511829474e+00 0.0000000000000000e+00  1.0421351746761158e+00 -4.9461404457912463e+00 0.0000000000000000e+00  8.6893679106188670e-01 -4.3315645808830032e+00 0.0000000000000000e+00  7.3092301408077309e-01 -3.7683997589097600e+00 0.0000000000000000e+00  6.2771603254369301e-01 -3.1255048880603402e+00 0.0000000000000000e+00  5.6575588718423164e-01 -2.6118957661591318e+00 0.0000000000000000e+00  5.3611840154934198e-01 -1.9263721511487297e+00 0.0000000000000000e+00  5.5126146161708967e-01 -1.5826173621527042e+00 0.0000000000000000e+00  6.0918834415922063e-01 -7.9109506687977460e-01 0.0000000000000000e+00  7.1513393955057203e-01 -5.7694117558237723e-01 0.0000000000000000e+00  8.9134128163670701e-01 -1.0199927417628780e+00 0.0000000000000000e+00  -7.0256485989658968e-01 1.2988438450778848e+00 0.0000000000000000e+00  -7.9454712737747335e-01 1.1581485726469245e+00 0.0000000000000000e+00  -5.9105168445409506e-01 1.6039409631059098e+00 0.0000000000000000e+00  -4.7604881771161395e-01 2.0376403864173627e+00 0.0000000000000000e+00  -3.2190490917093606e-01 2.4312642993264175e+00 0.0000000000000000e+00  -6.8443281168615602e-02 3.0318495594684287e+00 0.0000000000000000e+00  2.4556167424754019e-01 3.6564857529216623e+00 0.0000000000000000e+00  6.1059829075839955e-01 4.3629587337086466e+00 0.0000000000000000e+00  1.0207197366772014e+00 5.0926301536837251e+00 0.0000000000000000e+00  1.4163923127384122e+00 5.8090491033979577e+00 0.0000000000000000e+00  1.5824115103417826e+00 6.0679186126304137e+00 0.0000000000000000e+00  2.0683898123454747e+00 6.5747519609246456e+00 0.0000000000000000e+00  1.6327283431229858e-01 3.4801724221980144e+00 0.0000000000000000e+00  4.5444277640009538e+00 9.8549275787595008e+00 0.0000000000000000e+00  3.1739330706332236e+00 7.6257469847792665e+00 0.0000000000000000e+00  2.8684476760061752e+00 6.9622385711586015e+00 0.0000000000000000e+00  3.1707669259705984e+00 7.1180383937468834e+00 0.0000000000000000e+00  3.9095827152643294e+00 7.8588771828692643e+00 0.0000000000000000e+00  4.9031550322771471e+00 8.7981332425336252e+00 0.0000000000000000e+00  6.0946895789903426e+00 9.8989046226036077e+00 0.0000000000000000e+00  7.4369389225609090e+00 1.1065780790992884e+01 0.0000000000000000e+00  8.8856894464459693e+00 1.2240976737559754e+01 0.0000000000000000e+00  1.0401037611281415e+01 1.3272874721318187e+01 0.0000000000000000e+00  1.1940658107269789e+01 1.4288440788525840e+01 0.0000000000000000e+00  1.3431618730588964e+01 1.4763632132741584e+01 0.0000000000000000e+00  1.4816200824945327e+01 1.5009490503459759e+01 0.0000000000000000e+00  1.6023071133096167e+01 1.4213972049129961e+01 0.0000000000000000e+00  1.6999161609064576e+01 1.2602361458745117e+01 0.0000000000000000e+00  1.7688086008231060e+01 9.6695053555688073e+00 0.0000000000000000e+00  1.8095461646479304e+01 4.1693867459459240e+00 0.0000000000000000e+00  1.8161253008783468e+01 -1.0064961570455345e-03 0.0000000000000000e+00  1.8071574505644790e+01 -4.6144258240376477e+00 0.0000000000000000e+00  1.8161269290625818e+01 8.1979719874488463e-04 0.0000000000000000e+00  1.7669856860865526e+01 -1.1610155375117246e+01 0.0000000000000000e+00  1.7468599123669936e+01 -1.3303804381329050e+01 0.0000000000000000e+00  1.3435189457489612e+01 -1.8961119134048342e+01 0.0000000000000000e+00  1.2457188394106563e+01 -1.8491587320498610e+01 0.0000000000000000e+00  1.0815279294470869e+01 -1.8233352793886240e+01 0.0000000000000000e+00  9.9373212983423027e+00 -1.6609388288905123e+01 0.0000000000000000e+00  8.8898475795084675e+00 -1.5137940697558275e+01 0.0000000000000000e+00  8.0460312211078833e+00 -1.3475383634436405e+01 0.0000000000000000e+00  7.2430204769366568e+00 -1.2081010616070049e+01 0.0000000000000000e+00  6.5267381034366050e+00 -1.0880955351398031e+01 0.0000000000000000e+00  5.7650976018240083e+00 -1.0005583588288120e+01 0.0000000000000000e+00  5.1740704550686214e+00 -9.1069109727940241e+00 0.0000000000000000e+00  4.6544495569521249e+00 -8.3168298537493630e+00 0.0000000000000000e+00  4.1089316662689210e+00 -7.7186563025762718e+00 0.0000000000000000e+00  3.6150384612741622e+00 -7.1741051265572526e+00 0.0000000000000000e+00  3.1736530379065995e+00 -6.6797754277192603e+00 0.0000000000000000e+00  2.7836719707050257e+00 -6.1856524879214829e+00 0.0000000000000000e+00  2.4543749208574419e+00 -5.6831843745930408e+00 0.0000000000000000e+00  2.1814415605981088e+00 -5.1661482838439934e+00 0.0000000000000000e+00  1.9503629347175913e+00 -4.6472228744362347e+00 0.0000000000000000e+00  1.7642353795911778e+00 -4.0946315225112846e+00 0.0000000000000000e+00  1.6190714667295609e+00 -3.5833052496175943e+00 0.0000000000000000e+00  1.5080118732519241e+00 -2.9926470320964360e+00 0.0000000000000000e+00  1.4315008097428503e+00 -2.5395291023002575e+00 0.0000000000000000e+00  1.3949373571477846e+00 -1.9036528588833781e+00 0.0000000000000000e+00  1.3913800978153059e+00 -1.6238765715721812e+00 0.0000000000000000e+00  1.4296994546195554e+00 -9.0093385232319512e-01 0.0000000000000000e+00  1.5145820632124574e+00 -7.5025172656276395e-01 0.0000000000000000e+00  1.6374061246865284e+00 -1.3086268095877989e+00 0.0000000000000000e+00  5.0244665791784315e-01 1.1576703473022543e+00 0.0000000000000000e+00  4.3070797007038958e-01 1.0552601128047336e+00 0.0000000000000000e+00  5.9958476743842959e-01 1.4308869439048781e+00 0.0000000000000000e+00  7.2058292429673565e-01 1.8574306610311671e+00 0.0000000000000000e+00  8.4698379874636887e-01 2.1913056975885890e+00 0.0000000000000000e+00  1.0142833612437498e+00 2.6422705962573150e+00 0.0000000000000000e+00  1.2816066600989970e+00 3.1755058868163921e+00 0.0000000000000000e+00  1.6098648767919828e+00 3.8060759768026147e+00 0.0000000000000000e+00  1.9883607683792734e+00 4.4694584310372996e+00 0.0000000000000000e+00  2.4094169026239172e+00 5.2098198064058705e+00 0.0000000000000000e+00  2.8116871012428595e+00 5.8178285417985824e+00 0.0000000000000000e+00  2.9792392462411734e+00 5.8467354699652647e+00 0.0000000000000000e+00  3.4652798935316711e+00 6.3321904759914363e+00 0.0000000000000000e+00  1.5747535800462804e+00 3.2605933658703310e+00 0.0000000000000000e+00  5.9922250029267357e+00 9.6574682844171615e+00 0.0000000000000000e+00  4.6523836192356214e+00 7.4110476618392251e+00 0.0000000000000000e+00  4.3591568737125197e+00 6.6639945300810117e+00 0.0000000000000000e+00  4.6615693733480166e+00 6.7589328129236979e+00 0.0000000000000000e+00  5.3883975114239178e+00 7.3212638761482358e+00 0.0000000000000000e+00  6.3620406092657387e+00 8.1326552484528047e+00 0.0000000000000000e+00  7.5246191798959456e+00 9.0794901140988067e+00 0.0000000000000000e+00  8.8278195463398657e+00 1.0103023182783661e+01 0.0000000000000000e+00  1.0225911476712765e+01 1.1043823625913445e+01 0.0000000000000000e+00  1.1677804877273338e+01 1.2037759330388285e+01 0.0000000000000000e+00  1.3133061797354548e+01 1.2594321318996126e+01 0.0000000000000000e+00  1.4522869933847169e+01 1.3027614271749329e+01 0.0000000000000000e+00  1.5772919422970743e+01 1.2501882035631985e+01 0.0000000000000000e+00  1.6827139647590329e+01 1.1290072221694800e+01 0.0000000000000000e+00  1.7594159246122206e+01 8.7583307820944434e+00 0.0000000000000000e+00  1.8073776758136457e+01 3.8136910735139140e+00 0.0000000000000000e+00  1.8159659599750594e+01 -1.2745086686854407e-03 0.0000000000000000e+00  1.8048157576614550e+01 -4.1783995828875602e+00 0.0000000000000000e+00  1.8159674403251778e+01 1.0367794916665866e-03 0.0000000000000000e+00  1.7543827079296502e+01 -1.0836067787611563e+01 0.