<?xml version="1.0"?>
<VTKFile type="UnstructuredGrid"  version="0.1"  >
<UnstructuredGrid>
<Piece  NumberOfPoints="1933" NumberOfCells="3640">
<Points>
<DataArray  type="Float64"  NumberOfComponents="3"  format="ascii">-0.0002731744553280957 0.002064221387654476 0  4.99972681987609 0.001991164834520125 0  4.999836457624089 7.50199118262855 0  -0.0001635565791250904 7.502064202539344 0  9.999726796464994 0.00191807328324007 0  9.999836494835545 7.50191810875457 0  14.99972677392595 0.001844889078594531 0  14.99983657230997 7.501844933251878 0  19.99972678248102 0.001771577807020577 0  19.9998367093849 7.501771626427969 0  24.99972685647759 0.001698121042889767 0  24.99983692780925 7.501698172314608 0  29.99972703138155 0.001624511316560391 0  29.99983725143837 7.501624564779277 0  34.99972734297308 0.001550748679699232 0  34.99983770602193 7.50155080463104 0  39.99972782763593 0.00147683846817909 0  39.99983831924344 7.501476897667312 0  44.99972852319618 0.001402789959680367 0  44.99983912100715 7.501402853488337 0  49.99972947005463 0.001328615706895982 0  49.99984014392827 7.501328684921347 0  54.99973071250715 0.001254331401171499 0  54.99984142398595 7.501254407941653 0  59.99973230022892 0.00117995618330238 0  59.99984300131214 7.501180042025624 0  64.99973428994596 0.001105513370248837 0  64.99984492110072 7.501105610915897 0  69.99973674734706 0.001031031613301434 0  69.99984723463176 7.501031143822884 0  74.99973974932001 0.0009565465505919899 0  74.99985000040856 7.500956677133553 0  79.99974338662261 0.0008821030719698 0  79.99985328540235 7.500882256754792 0  84.99974776713989 0.000807758386966011 0  84.99985716638712 7.50080794129463 0  89.9997530199304 0.0007335861916313808 0  89.99986173131587 7.500733806393517 0  94.99975930034039 0.0006596823920546997 0  94.99986708063817 7.500659950684043 0  99.99976679656326 0.0005861731042684829 0  99.99987332835073 7.500586504117857 0  104.99977573816 0.0005132260899417801 0  104.9998806023944 7.500513639816964 0  109.9997864072176 0.0004410675508228405 0  109.9998890436879 7.500441591287602 0  114.9997991529719 0.0003700075734218736 0  114.999898802562 7.500370677953133 0  119.9998144107234 0.0003004800456408244 0  119.9999100304996 7.500301343795782 0  124.9998327253301 0.0002331076930761065 0  124.9999228638568 7.500234216871495 0  129.99985477745 0.0001688123776531678 0  129.9999373948065 7.500170202166299 0  134.9998814043282 0.0001090099930337718 0  134.9999536243041 7.500110627399998 0  139.9999135892874 5.596839127588522e-05 0  139.9999713970278 7.500057471929013 0  144.9999523455792 1.348149772209253e-05 0  144.9999903452339 7.500013727882584 0  149.9999982783838 -1.189348402817014e-05 0  150.0000099758471 7.499984013151076 0  160 3.686317947845659e-19 0  164.9999132945133 -9.493516279341926e-05 0  164.9999838107917 7.499894066295903 0  160.0000129038304 7.499972429302397 0  169.9998563103438 -0.0001885586082252601 0  169.9999542063252 7.499805812249699 0  174.9998170516119 -0.0002810013448505985 0  174.9999282180762 7.499715721141146 0  179.9997890504809 -0.0003718080884701238 0  179.9999065429416 7.499626156971601 0  184.9997685363455 -0.0004608493293613465 0  184.9998888534371 7.499537834212243 0  189.9997531998734 -0.0005482099792317711 0  189.999874557285 7.499450908859552 0  194.999741567886 -0.0006340548157502399 0  194.9998630548134 7.499365336685607 0  199.9997326638182 -0.0007185606250320135 0  199.9998538201972 7.499281007019584 0  204.9997258161218 -0.0008018901240141253 0  204.9998464175223 7.499197794902978 0  209.9997205470791 -0.0008841850517428836 0  209.9998404938605 7.499115580661136 0  214.9997165065068 -0.0009655667051499557 0  214.9998357659183 7.499034256142192 0  219.9997134310634 -0.001046138766590393 0  219.9998320065236 7.498953725656603 0  224.9997111184772 -0.001125990407593326 0  224.9998290329784 7.498873905004005 0  229.9997094106843 -0.001205199004243697 0  229.9998266976524 7.498794719977026 0  234.9997081824302 -0.001283832333094849 0  234.999824880599 7.49871610487135 0  239.9997073333178 -0.001361950301690388 0  239.9998234838225 7.498638001170154 0  244.9997067820995 -0.001439606314583321 0  244.9998224268322 7.498560356426467 0  249.9997064624667 -0.001516848373290884 0  249.9998216431846 7.49848312331555 0  254.9997063198783 -0.001593719992714457 0  254.9998210777837 7.498406258815137 0  259.9997063091238 -0.001670261000326975 0  259.999820684755 7.498329723471256 0  264.9997063924329 -0.001746508271781972 0  264.9998204257756 7.49825348071096 0  269.9997065379989 -0.001822496447783792 0  269.9998202687615 7.498177496167742 0  274.9997067188575 -0.001898258670534289 0  274.9998201868457 7.498101736990167 0  279.9997069120811 -0.001973827370552762 0  279.9998201576091 7.498026171111169 0  284.9997070983171 -0.002049235119412819 0  284.9998201625194 7.497950766468653 0  289.9997072617389 -0.002124515525839562 0  289.9998201865614 7.497875490195553 0  294.999707390555 -0.002199704055894856 0  294.9998202180141 7.497800307851686 0  299.9997074783089 -0.002274838412583738 0  299.9998202483317 7.497725182868256 0  304.9997075262732 -0.002349957470085639 0  304.9998202720817 7.497650076521013 0  309.9997075472402 -0.002425095976898598 0  309.9998202870111 7.497574948825707 0  4.999945925702646 15.00199124698683 0  -5.409595133187839e-05 15.00206416400198 0  9.999945980654848 15.00191822469188 0  14.99994608770985 15.00184507348555 0  19.99994626244262 15.0017717779098 0  24.99994651974518 15.00169833002959 0  29.99994687513061 15.00162472818235 0  34.99994734534848 15.00155097568723 0  39.99994794868926 15.0014770798206 0  44.99994870517639 15.00140305116283 0  49.99994963673829 15.00132890333149 0  54.99995076739012 15.00125465308948 0  59.99995212342524 15.00118032082216 0  64.9999537335965 15.00110593139871 0  69.99995562925244 15.00103151546271 0  74.99995784437817 15.00095711123678 0  79.99996041546534 15.00088276697661 0  84.99996338110503 15.00080854427873 0  89.99996678114587 15.00073452254282 0  94.9999706551925 15.00066080502551 0  99.99997504012788 15.0005875271162 0  104.9999799662296 15.00051486773584 0  109.9999854513413 15.00044306511799 0  114.9999914925168 15.00037243865639 0  119.9999980547423 15.00030341885716 0  125.0000050571312 15.00023658725953 0  130.0000123591184 15.0001727261537 0  135.0000197540157 15.00011287031359 0  140.0000269867365 15.0000583292936 0  145.0000338268352 15.00001057747728 0  150.0000402327816 14.9999706825577 0  165.0000370205854 14.99986530116186 0  160.0000438186894 14.99993469157332 0  170.0000268523004 14.99978666050482 0  175.0000150479111 14.99970319849561 0  180.0000031652177 14.99961787276176 0  184.999992080202 14.9995322340864 0  189.9999821811476 14.99944702642468 0  194.9999735741922 14.99936257450495 0  199.9999662188189 14.99927899266384 0  204.9999600068956 14.99919629259542 0  209.9999548059114 14.99911443812641 0  214.999950481289 14.99903337275115 0  219.9999469069963 14.99895303325163 0  224.9999439698564 14.99887335624542 0  229.9999415706034 14.9987942811636 0  234.999939623361 14.99871575144347 0  239.9999380544366 14.99863771484115 0  244.9999368008939 14.99856012331817 0  249.9999358091382 14.99848293272638 0  254.9999350336122 14.99840610239827 0  259.999934435646 14.99832959469005 0  264.9999339824643 14.99825337449451 0  269.9999336463447 14.99817740872584 0  274.9999334039031 14.99810166577229 0  279.9999332354877 14.99802611491103 0  284.999933124653 14.99795072568302 0  289.9999330576662 14.99787546722959 0  294.9999330230256 14.99780030758892 0  299.9999330109364 14.99772521290597 0  304.9999330127399 14.99765014631953 0  309.9999330203167 14.99757506564147 0  5.000055109714951 22.50199142741818 0  5.508558778916095e-05 22.50206420520352 0  10.0000551632781 22.50191848127829 0  15.00005526403418 22.50184537029028 0  20.0000554245417 22.50177209666153 0  25.00005565479387 22.50169866364766 0  30.00005596383458 22.50162507654305 0  35.00005636067186 22.50155134299612 0  40.00005685473614 22.50147747307013 0  45.00005745605598 22.50140347929776 0  50.00005817525975 22.50132937686964 0  55.00005902345588 22.50125518403621 0  60.00006001200805 22.50118092277931 0  65.00006115219432 22.50110661980752 0  70.00006245471477 22.50103230794143 0  75.00006392899512 22.50095802798104 0  80.00006558221116 22.50088383118052 0  85.0000674179385 22.50080978250363 0  90.0000694343118 22.50073596488985 0  95.00007162156459 22.50066248483084 0  100.0000739588233 22.50058947962878 0  105.0000764100845 22.5005171267586 0  110.000078919448 22.50044565572673 0  115.000081406 22.50037536256918 0  120.0000837593683 22.50030662636518 0  125.0000858380683 22.50023992523326 0  130.0000874744448 22.50017584497513 0  135.0000884920594 22.50011506447719 0  140.000088742284 22.50005828421316 0  145.000088161517 22.50000603355736 0  150.000086825249 22.49995825914566 0  165.0000941122268 22.49983435109797 0  160.0000896643112 22.49989961274091 0  170.0000952308525 22.49976180435894 0  175.0000936663693 22.49968425591599 0  180.0000903083035 22.49960373615359 0  185.0000859721099 22.49952172485065 0  190.0000812619774 22.49943917358078 0  195.0000765739171 22.49935664935813 0  200.0000721430758 22.49927446934001 0  205.000068093252 22.49919279717258 0  210.000064476187 22.49911170523614 0  215.0000612994613 22.49903121300105 0  220.0000585451401 22.49895131008843 0  225.0000561817533 22.49887196993919 0  230.0000541717434 22.49879315783624 0  235.0000524759522 22.49871483556483 0  240.0000510562138 22.49863696407824 0  245.0000498767668 22.49855950497703 0  250.0000489049375 22.49848242127901 0  255.0000481113933 22.49840567775885 0  260.000047470136 22.49832924102284 0  265.0000469583568 22.49825307941443 0  270.0000465562086 22.49817716280814 0  275.0000462465358 22.49810146232554 0  280.0000460145669 22.49802594999415 0  285.0000458475743 22.49795059836114 0  290.0000457344787 22.49787538006195 0  295.000045665378 22.49780026731942 0  300.0000456309589 22.4977252312846
[...]
<PointData  Vectors="v"> 
<DataArray  type="Float64"  Name="v"  NumberOfComponents="3" format="ascii">1.5803769179311551e+00 -5.7314196525230372e+00 0.0000000000000000e+00  1.1460973124514862e+00 -5.5699206596772743e+00 0.0000000000000000e+00  8.4503770694333036e-01 -4.9186568343344623e+00 0.0000000000000000e+00  1.1769844763140427e+00 -5.2341062688777757e+00 0.0000000000000000e+00  5.6631628966896996e-01 -6.2450025167269327e+00 0.0000000000000000e+00  4.1096497608944743e-01 -5.3762180489765141e+00 0.0000000000000000e+00  -6.2733940048642495e-03 -7.3287375016734515e+00 0.0000000000000000e+00  -1.6787228083813363e-01 -6.4711572713576997e+00 0.0000000000000000e+00  -5.6355278218518046e-01 -7.9609658626611131e+00 0.0000000000000000e+00  -7.3889485002129529e-01 -7.1271346317140978e+00 0.0000000000000000e+00  -1.2353827247856410e+00 -9.0207369697977775e+00 0.0000000000000000e+00  -1.2939351342463070e+00 -8.0158483415908854e+00 0.0000000000000000e+00  -1.8130568954589816e+00 -9.7066156685305636e+00 0.0000000000000000e+00  -1.9624350213855304e+00 -8.8435274471185217e+00 0.0000000000000000e+00  -1.9682673096458532e+00 -9.8046929416506803e+00 0.0000000000000000e+00  -2.5359517291075266e+00 -9.5763036723788595e+00 0.0000000000000000e+00  -2.9467799744890391e+00 -1.1015471919233811e+01 0.0000000000000000e+00  -2.6861121099887351e+00 -9.5530633279618087e+00 0.0000000000000000e+00  1.4366455302910106e-01 -6.1380482759703199e+00 0.0000000000000000e+00  -3.6582761153918790e+00 -1.0779512739294477e+01 0.0000000000000000e+00  -9.4322521868270606e+00 -2.0000954633822481e+01 0.0000000000000000e+00  -5.6046353274733018e-01 -5.6448269981937287e+00 0.0000000000000000e+00  -8.3850736666335894e+00 -1.7480754540319083e+01 0.0000000000000000e+00  -1.0128780365805099e+01 -1.9059282259719680e+01 0.0000000000000000e+00  -8.2551604092446897e+00 -1.6251878216140483e+01 0.0000000000000000e+00  -9.0722955210329062e+00 -1.6456619800626644e+01 0.0000000000000000e+00  -8.7909435797451287e+00 -1.6029609242651727e+01 0.0000000000000000e+00  -8.9307329881786330e+00 -1.5237908482195001e+01 0.0000000000000000e+00  -9.8597847654664523e+00 -1.6618083211979446e+01 0.0000000000000000e+00  -9.4527498650528106e+00 -1.5029182775655492e+01 0.0000000000000000e+00  -1.1286073453897252e+01 -1.7681055536250515e+01 0.0000000000000000e+00  -1.0504667659313482e+01 -1.5557525412057213e+01 0.0000000000000000e+00  -1.2977337339328919e+01 -1.9002408437250185e+01 0.0000000000000000e+00  -1.1911783940972891e+01 -1.6484179530454345e+01 0.0000000000000000e+00  -1.4850026311433565e+01 -2.0595363770444102e+01 0.0000000000000000e+00  -1.3581598199726757e+01 -1.7807301927778290e+01 0.0000000000000000e+00  -1.6820521398253341e+01 -2.2082456361394499e+01 0.0000000000000000e+00  -1.5429212987983215e+01 -1.9149413893815577e+01 0.0000000000000000e+00  -1.8819360181861324e+01 -2.3480541729552986e+01 0.0000000000000000e+00  -1.7372466054299601e+01 -2.0508330873566923e+01 0.0000000000000000e+00  -2.0782319498709956e+01 -2.4637612097736142e+01 0.0000000000000000e+00  -1.9340888085544140e+01 -2.1721238736967120e+01 0.0000000000000000e+00  -2.2633804672073271e+01 -2.5468743759839935e+01 0.0000000000000000e+00  -2.1270305599957130e+01 -2.2722511997124109e+01 0.0000000000000000e+00  -2.4313239015821615e+01 -2.5581532699347822e+01 0.0000000000000000e+00  -2.3084240309468669e+01 -2.3095367519274170e+01 0.0000000000000000e+00  -2.5779783184557928e+01 -2.5516410291899664e+01 0.0000000000000000e+00  -2.4725098046132164e+01 -2.3354420185351795e+01 0.0000000000000000e+00  -2.6984718880958965e+01 -2.4064596159671009e+01 0.0000000000000000e+00  -2.6145551355097016e+01 -2.2293637572722435e+01 0.0000000000000000e+00  -2.7930344524458157e+01 -2.2614564124498560e+01 0.0000000000000000e+00  -2.7307154574950346e+01 -2.1242070449682000e+01 0.0000000000000000e+00  -2.8598969298843155e+01 -1.9174399320094778e+01 0.0000000000000000e+00  -2.8197063781593343e+01 -1.8210081821250721e+01 0.0000000000000000e+00  -2.9041265827588905e+01 -1.5785158875087127e+01 0.0000000000000000e+00  -2.8819327797548528e+01 -1.5177738655096597e+01 0.0000000000000000e+00  -2.9266265357593756e+01 -1.0264624948348523e+01 0.0000000000000000e+00  -2.9194376260784875e+01 -9.9654018897966576e+00 0.0000000000000000e+00  -2.9368187710389630e+01 -3.7085360492380604e+00 0.0000000000000000e+00  -2.9372131106698252e+01 -3.6244215338405170e+00 0.0000000000000000e+00  -2.9389262614337145e+01 -6.1501387312474459e-12 0.0000000000000000e+00  -2.9389474446003380e+01 -2.1072658609310396e-04 0.0000000000000000e+00  -2.9389262614623835e+01 1.1439726117463685e-19 0.0000000000000000e+00  -2.1018906401694643e+01 1.1503349167004023e+01 0.0000000000000000e+00  -2.9366975851309107e+01 -1.0144792097752866e+00 0.0000000000000000e+00  -2.9389472734666310e+01 2.1399717117624213e-04 0.0000000000000000e+00  -2.0625039886790763e+01 2.0691383857409004e+01 0.0000000000000000e+00  -2.1047794413382178e+01 2.0168236380909519e+01 0.0000000000000000e+00  -1.7602332464533994e+01 2.7677030941516303e+01 0.0000000000000000e+00  -2.0713493692712259e+01 2.3184554135690220e+01 0.0000000000000000e+00  -1.6451804850617481e+01 2.9102392466841799e+01 0.0000000000000000e+00  -1.7748234362996413e+01 2.7427825094165041e+01 0.0000000000000000e+00  -1.4657867078545776e+01 3.0543527325387824e+01 0.0000000000000000e+00  -1.6651249228804716e+01 2.7897583097473433e+01 0.0000000000000000e+00  -1.3284994403594457e+01 2.9736906701682983e+01 0.0000000000000000e+00  -1.4908444143128136e+01 2.7723336982273015e+01 0.0000000000000000e+00  -1.1898761734381512e+01 2.8684143359924366e+01 0.0000000000000000e+00  -1.3586148667658360e+01 2.6646791052993727e+01 0.0000000000000000e+00  -1.0682741002165697e+01 2.6791735746338851e+01 0.0000000000000000e+00  -1.2247577442449028e+01 2.5010331741571623e+01 0.0000000000000000e+00  -9.3131540956553138e+00 2.4949247847314123e+01 0.0000000000000000e+00  -1.1077804899343642e+01 2.2935175980457473e+01 0.0000000000000000e+00  -8.2841514303906028e+00 2.2737803808332121e+01 0.0000000000000000e+00  -9.7534485113982274e+00 2.1233757532169076e+01 0.0000000000000000e+00  -7.4099351155938935e+00 2.0654997311155537e+01 0.0000000000000000e+00  -8.7680679926506695e+00 1.9382305879574083e+01 0.0000000000000000e+00  -6.4802253350395764e+00 1.8857850565860133e+01 0.0000000000000000e+00  -7.9363145755068309e+00 1.7500989029004565e+01 0.0000000000000000e+00  -5.6141099893967610e+00 1.7214650880619402e+01 0.0000000000000000e+00  -7.0483192171009366e+00 1.5952148408575242e+01 0.0000000000000000e+00  -4.8138218507885586e+00 1.5769637699215780e+01 0.0000000000000000e+00  -6.2227344324176288e+00 1.4605362392436787e+01 0.0000000000000000e+00  -4.0555821011784916e+00 1.4447229619586047e+01 0.0000000000000000e+00  -5.4620684521303806e+00 1.3345184988456605e+01 0.0000000000000000e+00  -3.3791222580751539e+00 1.3183724330033590e+01 0.0000000000000000e+00  -4.7427607994195258e+00 1.2203640324216083e+01 0.0000000000000000e+00  -2.7861496218810498e+00 1.2011666748212127e+01 0.0000000000000000e+00  -4.1043757100057556e+00 1.1156301271579194e+01 0.0000000000000000e+00  -2.2439356569778051e+00 1.0880648516607639e+01 0.0000000000000000e+00  -3.5487305550322428e+00 1.0100860812665450e+01 0.0000000000000000e+00  -1.7701447559826609e+00 9.7756301564655139e+00 0.0000000000000000e+00  -3.0433510048625738e+00 9.0978731912494109e+00 0.0000000000000000e+00  -1.3673068050071824e+00 8.7169265973721153e+00 0.0000000000000000e+00  -2.6056646707323567e+00 8.1453122390135366e+00 0.0000000000000000e+00  -1.0089203253849115e+00 7.6609963920602375e+00 0.0000000000000000e+00  -2.2385535945754622e+00 7.1554581925852521e+00 0.0000000000000000e+00  -7.0599403737967659e-01 6.6374762234393359e+00 0.0000000000000000e+00  -1.9152066047051093e+00 6.2150141175402007e+00 0.0000000000000000e+00  -4.6243797002074777e-01 5.6290566248631313e+00 0.0000000000000000e+00  -1.6473131678542186e+00 5.2948672754999686e+00 0.0000000000000000e+00  -2.6015091143319563e-01 4.6593082311641574e+00 0.0000000000000000e+00  -1.4376026735884009e+00 4.3875400254491064e+00 0.0000000000000000e+00  -1.0774285630341549e-01 3.6894092744508313e+00 0.0000000000000000e+00  -1.2702067773530297e+00 3.4907159256716853e+00 0.0000000000000000e+00  1.8870534013180457e-03 2.8515766386192176e+00 0.0000000000000000e+00  -1.1500073122996453e+00 2.7193033104835247e+00 0.0000000000000000e+00  7.0984634347213485e-02 1.9668558658746400e+00 0.0000000000000000e+00  -1.0761644521323317e+00 1.8909804315240868e+00 0.0000000000000000e+00  1.3771400031142730e-01 1.3337096571880738e+00 0.0000000000000000e+00  -1.0361059197031381e+00 1.2681449998351879e+00 0.0000000000000000e+00  2.0949447303450550e-01 7.1221794711851505e-01 0.0000000000000000e+00  -1.0097733557153210e+00 6.2667831342001490e-01 0.0000000000000000e+00  3.7233245934756887e-01 -1.7140597756965903e-01 0.0000000000000000e+00  -9.5415939122075444e-01 -3.6940599242660765e-01 0.0000000000000000e+00  1.2589911123110425e-01 -4.4198563848284866e+00 0.0000000000000000e+00  4.8540967908836091e-01 -4.6968132996765108e+00 0.0000000000000000e+00  -2.0730409020876736e-01 -4.7243354192484039e+00 0.0000000000000000e+00  -6.4244729688972091e-01 -5.6027195962328333e+00 0.0000000000000000e+00  -1.2215416688167513e+00 -6.2709525958565067e+00 0.0000000000000000e+00  -1.7917777082425930e+00 -7.1840795382349949e+00 0.0000000000000000e+00  -2.3449556494527264e+00 -7.8426462282144751e+00 0.0000000000000000e+00  -3.0100517516939158e+00 -8.7190202931570440e+00 0.0000000000000000e+00  -3.5782358356528672e+00 -9.3313749100022605e+00 0.0000000000000000e+00  -3.7214651745820553e+00 -9.3265716344073049e+00 0.0000000000000000e+00  -4.6842018820187246e+00 -1.0298184985617906e+01 0.0000000000000000e+00  -1.5758692720594831e+00 -4.7113757590391439e+00 0.0000000000000000e+00  -1.1138026807008337e+01 -1.8044752336191916e+01 0.0000000000000000e+00  -1.0074412156347757e+01 -1.5457614287414039e+01 0.0000000000000000e+00  -9.9199920271119986e+00 -1.4254845400497246e+01 0.0000000000000000e+00  -1.0425291208065410e+01 -1.3992713091485333e+01 0.0000000000000000e+00  -1.1454764790873709e+01 -1.4389185025214530e+01 0.0000000000000000e+00  -1.2834614681710919e+01 -1.5320081570519333e+01 0.0000000000000000e+00  -1.4473047606579474e+01 -1.6399562875077283e+01 0.0000000000000000e+00  -1.6283667646077820e+01 -1.7618251125416990e+01 0.0000000000000000e+00  -1.8184373981681240e+01 -1.8794868404036169e+01 0.0000000000000000e+00  -2.0105816992413839e+01 -1.9860413955824047e+01 0.0000000000000000e+00  -2.1980946316059214e+01 -2.0408682132027984e+01 0.0000000000000000e+00  -2.3734852853190826e+01 -2.0932158838173013e+01 0.0000000000000000e+00  -2.5308530391045526e+01 -2.0204120324023673e+01 0.0000000000000000e+00  -2.6655798856924456e+01 -1.9550508642561770e+01 0.0000000000000000e+00  -2.7733543890031097e+01 -1.6919396278956910e+01 0.0000000000000000e+00  -2.8539028741666748e+01 -1.4312269835977055e+01 0.0000000000000000e+00  -2.9057001496315412e+01 -9.4427854360284762e+00 0.0000000000000000e+00  -2.9341483269370904e+01 -3.4524301351946396e+00 0.0000000000000000e+00  -2.9389987353609460e+01 -4.0238304631972581e-04 0.0000000000000000e+00  -2.9328823494264054e+01 -1.1741692437714051e+00 0.0000000000000000e+00  -2.9389984138270652e+01 4.3344851113754913e-04 0.0000000000000000e+00  -2.9172602490741863e+01 7.7092929399109709e+00 0.0000000000000000e+00  -2.0918191528077724e+01 2.2735363111110839e+01 0.0000000000000000e+00  -2.0664779723750584e+01 2.3022089695029287e+01 0.0000000000000000e+00  -1.7767811905785056e+01 2.6293220553489238e+01 0.0000000000000000e+00  -1.6736693963735817e+01 2.5141738164480675e+01 0.0000000000000000e+00  -1.5050272031670781e+01 2.4698898806881047e+01 0.0000000000000000e+00  -1.3783636700404507e+01 2.3032429677078948e+01 0.0000000000000000e+00  -1.2494981649515349e+01 2.1208953196011997e+01 0.0000000000000000e+00  -1.1372332812801323e+01 1.9274868475662338e+01 0.0000000000000000e+00  -1.0092925116710065e+01 1.7930294267149591e+01 0.0000000000000000e+00  -9.1504671152748234e+00 1.6277865582784951e+01 0.0000000000000000e+00  -8.3596277755402486e+00 1.4644602621312849e+01 0.0000000000000000e+00  -7.5115818791520450e+00 1.3390249575460532e+01 0.0000000000000000e+00  -6.7244063791168704e+00 1.2226449150524219e+01 0.0000000000000000e+00  -6.0006990701812271e+00 1.1146584007273793e+01 0.0000000000000000e+00  -5.3173345562307777e+00 1.0219775812136060e+01 0.0000000000000000e+00  -4.7136821510155746e+00 9.2876648052377853e+00 0.0000000000000000e+00  -4.1916147297940896e+00 8.3596767633660747e+00 0.0000000000000000e+00  -3.7189549396792736e+00 7.5081057060188012e+00 0.0000000000000000e+00  -3.3131102375002173e+00 6.6234107620866896e+00 0.0000000000000000e+00  -2.9769201465596797e+00 5.7485291737130408e+00 0.0000000000000000e+00  -2.6839668731605966e+00 4.9107312510769807e+00 0.0000000000000000e+00  -2.4455857503018583e+00 4.0909076015327948e+00 0.0000000000000000e+00  -2.2650814416197234e+00 3.2561725177952043e+00 0.0000000000000000e+00  -2.1257630825882456e+00 2.5571508751728298e+00 0.0000000000000000e+00  -2.0341254070881627e+00 1.7944823053134213e+00 0.0000000000000000e+00  -1.9863120277483044e+00 1.2280908937433264e+00 0.0000000000000000e+00  -1.9748481904419837e+00 5.9733998711728642e-01 0.0000000000000000e+00  -1.9725194399282944e+00 -4.3110354948962137e-01 0.0000000000000000e+00  -1.1237457872902636e+00 -3.8786474263301840e+00 0.0000000000000000e+00  -8.0224551753224838e-01 -4.2175541440941506e+00 0.0000000000000000e+00  -1.4863226631961490e+00 -4.2216205082714735e+00 0.0000000000000000e+00  -1.8241884071395771e+00 -4.9477614965048886e+00 0.0000000000000000e+00  -2.2628777173254644e+00 -5.4006581563889480e+00 0.0000000000000000e+00  -2.8447641409323898e+00 -6.3281588803990205e+00 0.0000000000000000e+00  -3.4163203985233381e+00 -7.0141117041566847e+00 0.0000000000000000e+00  -3.9682276140907269e+00 -7.7242312648828877e+00 0.0000000000000000e+00  -4.6295232996768432e+00 -8.4843827977548525e+00 0.0000000000000000e+00  -5.1905983702868870e+00 -9.1200681218500499e+00 0.0000000000000000e+00  -5.3222063214407864e+00 -8.8652019831062336e+00 0.0000000000000000e+00  -6.2698071510841888e+00 -9.3850615342464785e+00 0.0000000000000000e+00  -3.1501783875199894e+00 -3.7061408108788885e+00 0.0000000000000000e+00  -1.2711375396412132e+01 -1.7054929745538420e+01 0.0000000000000000e+00  -1.1645742458510563e+01 -1.4497075580799407e+01 0.0000000000000000e+00  -1.1478767501173374e+01 -1.3251794676209149e+01 0.0000000000000000e+00  -1.1961535603219920e+01 -1.2868599020102749e+01 0.0000000000000000e+00  -1.2959358015331633e+01 -1.3280780098415738e+01 0.0000000000000000e+00  -1.4298882390803817e+01 -1.3978936526090374e+01 0.0000000000000000e+00  -1.5887264331035063e+01 -1.4945512693372837e+01 0.0000000000000000e+00  -1.7638941118990523e+01 -1.5994247652871932e+01 0.0000000000000000e+00  -1.9471352782890396e+01 -1.7037041731910506e+01 0.0000000000000000e+00  -2.1312271139718732e+01 -1.7660995045128338e+01 0.0000000000000000e+00  -2.3096622664339332e+01 -1.8378645536460514e+01 0.0000000000000000e+00  -2.4744891020084982e+01 -1.7926000770821446e+01 0.0000000000000000e+00  -2.6201738703784557e+01 -1.7629252970549697e+01 0.0000000000000000e+00  -2.7412341509938191e+01 -1.5401076489994139e+01 0.0000000000000000e+00  -2.8346509997664675e+01 -1.3235801269267458e+01 0.0000000000000000e+00  -2.8977783369746632e+01 -8.7663360964410995e+00 0.0000000000000000e+00  -2.9334550057353720e+01 -3.2105023598086424e+00 0.0000000000000000e+00  -2.9390789116840590e+01 -5.7642124293359796e-04 0.0000000000000000e+00  -2.9304828228695687e+01 -1.4870416134226856e+00 0.0000000000000000e+00  -2.9390786170942590e+01 6.2799548118625404e-04 0.0000000000000000e+00  -2.8937348053428863e+01 7.4174176855379912e+00 0.0000000000000000e+00  -2.8768892565452337e+01 1.0434934101113944e+01 0.0000000000000000e+00  -2.0626579455255420e+01 2.2743193359417475e+01 0.0000000000000000e+00  -2.0503663822315005e+01 2.2028657961893444e+01 0.0000000000000000e+00  -1.7716278199779868e+01 2.3674859765275688e+01 0.0000000000000000e+00  -1.6783600224830440e+01 2.2234407674213593e+01 0.0000000000000000e+00  -1.5182955614814926e+01 2.1195227258983735e+01 0.0000000000000000e+00  -1.3995464246349050e+01 1.9331980929258794e+01 0.0000000000000000e+00  -1.2777310671176181e+01 1.7643225494606909e+01 0.0000000000000000e+00  -1.1720750690970757e+01 1.6059943279483555e+01 0.0000000000000000e+00  -1.0502966630846940e+01 1.4911058749142603e+01 0.0000000000000000e+00  -9.6190098698872131e+00 1.3502895588206364e+01 0.0000000000000000e+00  -8.8844601699629315e+00 1.2161314704828051e+01 0.0000000000000000e+00  -8.0906698249544959e+00 1.1087314693962536e+01 0.0000000000000000e+00  -7.3554985412003617e+00 1.0100996160468084e+01 0.0000000000000000e+00  -6.6819015406830591e+00 9.2332084462457367e+00 0.0000000000000000e+00  -6.0466512172447624e+00 8.4193935195223357e+00 0.0000000000000000e+00  -5.4892035855718175e+00 7.6123241414035965e+00 0.0000000000000000e+00  -5.0116208903652995e+00 6.8337642477279132e+00 0.0000000000000000e+00  -4.5819216153966869e+00 6.0481018464801410e+00 0.0000000000000000e+00  -4.2174211306673124e+00 5.2769118395651100e+00 0.0000000000000000e+00  -3.9215089570835411e+00 4.5026509263743089e+00 0.0000000000000000e+00  -3.6672641624489928e+00 3.7646040135273409e+00 0.0000000000000000e+00  -3.4670579628401601e+00 3.0146362103306132e+00 0.0000000000000000e+00  -3.3226594929022815e+00 2.3787780046359499e+00 0.0000000000000000e+00  -3.2200692187228905e+00 1.6830226287572536e+00 0.0000000000000000e+00  -3.1608855704757084e+00 1.1882742454326880e+00 0.0000000000000000e+00  -3.1505049180304447e+00 6.0010639467582705e-01 0.0000000000000000e+00  -3.1624164831363029e+00 -4.0093297983954546e-01 0.0000000000000000e+00  -2.4369076335150024e+00 -3.3935723699043030e+00 0.0000000000000000e+00  -2.1515237654513739e+00 -3.7935949272589906e+00 0.0000000000000000e+00  -2.7628532943291031e+00 -3.6728994830337864e+00 0.0000000000000000e+00  -3.1333527090368971e+00 -4.4349105767434764e+00 0.0000000000000000e+00  -3.4800154577640887e+00 -4.7365787271886957e+00 0.0000000000000000e+00  -3.9276496813892998e+00 -5.4500336983246216e+00 0.0000000000000000e+00  -4.5172248838322293e+00 -6.1524662049049299e+00 0.0000000000000000e+00  -5.0946387855050190e+00 -6.8942281662518381e+00 0.0000000000000000e+00  -5.6494444974434748e+00 -7.4930446886408468e+00 0.0000000000000000e+00  -6.3093069344952033e+00 -8.2823347964610328e+00 0.0000000000000000e+00  -6.8635802073259189e+00 -8.6762583701728442e+00 0.0000000000000000e+00  -6.9833587686962701e+00 -7.9739253356484436e+00 0.0000000000000000e+00  -7.9182103445506753e+00 -8.3896475780808757e+00 0.0000000000000000e+00  -4.7983059985003154e+00 -2.7041302565715664e+00 0.0000000000000000e+00  -1.4377577412329391e+01 -1.6083578753424529e+01 0.0000000000000000e+00  -1.3327048201744418e+01 -1.3501736764240421e+01 0.0000000000000000e+00  -1.3160004168889051e+01 -1.2153284474162257e+01 0.0000000000000000e+00  -1.3629651754940831e+01 -1.1802960058193419e+01 0.0000000000000000e+00  -1.4600216696333717e+01 -1.1996145243558702e+01 0.0000000000000000e+00  -1.5901166602212960e+01 -1.2598973566855284e+01 0.0000000000000000e+00  -1.7438788067336230e+01 -1.3411058167278950e+01 0.0000000000000000e+00  -1.9126658865944453e+01 -1.4342458399582352e+01 0.0000000000000000e+00  -2.0881282989494842e+01 -1.4963604033614212e+01 0.0000000000000000e+00  -2.2630076372640112e+01 -1.5780627703578887e+01 0.0000000000000000e+00  -2.4301914836917327e+01 -1.5540347353558968e+01 0.0000000000000000e+00  -2.5821997439132161e+01 -1.5554327125292250e+01 0.0000000000000000e+00  -2.7122819629171079e+01 -1.3696964015464973e+01 0.0000000000000000e+00  -2.8164574525024676e+01 -1.1988142927131296e+01 0.0000000000000000e+00  -2.8887976902529381e+01 -7.9429297294072789e+00 0.0000000000000000e+00  -2.9317099197964151e+01 -2.9014567317930275e+00 0.0000000000000000e+00  -2.9391849863