<?xml version="1.0"?>
<VTKFile type="UnstructuredGrid"  version="0.1"  >
<UnstructuredGrid>
<Piece  NumberOfPoints="1933" NumberOfCells="3640">
<Points>
<DataArray  type="Float64"  NumberOfComponents="3"  format="ascii">-0.2935534275312667 -0.002885140569515724 0  4.70644660919046 -0.002799255140790981 0  4.706317736582905 7.497200813215316 0  -0.2936822999219054 7.497114931344506 0  9.706446681734969 -0.002713409279501356 0  9.706317789043741 7.497286650483943 0  14.70644681123879 -0.002627560984011716 0  14.70631785846738 7.497372490778248 0  19.70644700611547 -0.002541661831590067 0  19.7063179421395 7.497458383586332 0  24.70644726507238 -0.002455662734952816 0  24.70631803342259 7.49754437777479 0  29.70644757968274 -0.002369515572073899 0  29.70631812156456 7.497630520966488 0  34.70644793603803 -0.002283173114695373 0  34.70631819154263 7.497716859900148 0  39.70644831556609 -0.00219658827008578 0  39.70631822382749 7.497803441246259 0  44.70644869519104 -0.002109713062330103 0  44.70631819397523 7.497890312612464 0  49.70644904697667 -0.002022497519110098 0  49.70631807198622 7.497977523623756 0  54.70644933733313 -0.001934888509524315 0  54.70631782138297 7.498065127045802 0  59.70644952580921 -0.001846828519411706 0  59.70631739795731 7.498153179964931 0  64.7064495634387 -0.001758254317168284 0  64.7063167481174 7.498241745065484 0  69.7064493905483 -0.001669095437517616 0  69.70631580674055 7.498330892064739 0  74.70644893387154 -0.001579272383145426 0  74.70631449439564 7.498420699384165 0  79.70644810271142 -0.001488694407232774 0  79.70631271374815 7.498511256156164 0  84.70644678375531 -0.001397256686840615 0  84.70631034489107 7.498602664687579 0  89.70644483390727 -0.001304836620324716 0  89.70630723926071 7.498695043519216 0  94.70644207012452 -0.001211288873872985 0  94.70630321170371 7.498788531217315 0  99.70643825457955 -0.001116438659554601 0  99.70629803018836 7.498883290964011 0  104.7064330723275 -0.00102007256502121 0  104.7062914026776 7.498979515778084 0  109.7064260966267 -0.0009219261454737825 0  109.7062829609899 7.499077433562478 0  114.7064167334273 -0.0008216676647899287 0  114.706272242519 7.499177309640836 0  119.7064041299763 -0.0007188784959131036 0  119.7062586733971 7.499279440929324 0  124.7063870205962 -0.0006130345454893768 0  124.7062415631435 7.499384128133326 0  129.7063634611754 -0.0005035044185908862 0  129.706220135215 7.499491595757916 0  134.706330365191 -0.0003896118781014855 0  134.7061936485695 7.499601795424429 0  139.7062826849434 -0.0002709000225247703 0  139.7061617285475 7.499713961275102 0  144.7062119575146 -0.0001480024518356747 0  144.7061251519074 7.499825674943215 0  149.7061036955102 -2.54115502131814e-05 0  149.7060875835663 7.499931111151114 0  159.7061073738538 1.426753980836114e-18 0  164.7061439622826 3.891044041220863e-06 0  164.7061149524197 7.49999780551885 0  159.7060964179682 7.499985994575958 0  169.7061817607812 3.1604370953992e-05 0  169.7061332802054 7.500028955301454 0  174.7062167541256 7.536392931158492e-05 0  174.7061513274666 7.500074277241482 0  179.7062477064019 0.0001302173355992469 0  179.7061686136555 7.500129852442652 0  184.7062745154002 0.0001928971232383353 0  184.7061847447922 7.500192862774029 0  189.7062975076727 0.0002611955398636703 0  189.7061994970449 7.500261306570651 0  194.7063171376178 0.0003335894140715315 0  194.7062127889824 7.500333757942292 0  199.7063338638291 0.0004090066086150703 0  199.706224635222 7.500409191358892 0  204.7063481031374 0.0004866777654531885 0  204.7062351073226 7.500486859936705 0  209.7063602179493 0.00056604069410566 0  209.7062443062948 7.500566212321955 0  214.7063705170959 0.0006466776787755568 0  214.7062523449649 7.500646835984855 0  219.7063792615128 0.000728273613848595 0  219.7062593373971 7.500728418254636 0  224.7063866710658 0.0008105874986116508 0  224.7062653929639 7.500810719228578 0  229.7063929310818 0.0008934326391297129 0  229.7062706133445 7.500893552667716 0  234.7063981981037 0.0009766626294934601 0  234.7062750913024 7.50097677231998 0  239.7064026047973 0.001060161246349723 0  239.7062789105123 7.501060261984295 0  244.7064062640945 0.001143835050791677 0  244.7062821459785 7.501143928197319 0  249.7064092726912 0.0012276079082079 0  249.7062848647758 7.501227694796397 0  254.7064117140386 0.001311416905150564 0  254.7062871269491 7.501311498858638 0  259.7064136609327 0.001395209320968339 0  259.7062889864675 7.501395287683303 0  264.706415177815 0.001478940437144539 0  264.7062904921833 7.501479016603066 0  269.7064163228465 0.001562572062522753 0  269.7062916887568 7.501562647499257 0  274.7064171498359 0.001646071734467583 0  274.7062926175025 7.501646147970561 0  279.7064177100268 0.001729412637730937 0  279.7062933171391 7.50172949117342 0  284.7064180537378 0.001812574376012205 0  284.7062938243809 7.501812656421701 0  289.7064182317075 0.001895544845684684 0  289.7062941743355 7.501895630705273 0  294.7064182958349 0.001978323596880618 0  294.7062944006561 7.501978411353988 0  299.7064182985984 0.002060927181204775 0  299.7062945354867 7.502061010116695 0  304.7064182897012 0.00214339685696396 0  304.7062946094576 7.502143458924477 0  309.7064183069805 0.002225807674736444 0  309.7062946525861 7.50222581771682 0  4.706188828266747 14.99720094175741 0  -0.2938112027161847 14.99711510453235 0  9.706188854048486 14.99728673455271 0  14.70618886945468 14.99737253835673 0  19.70618886656506 14.99745840245229 0  24.70618883537647 14.99754437337222 0  29.70618876349674 14.99763049620361 0  34.70618863560025 14.99771681545518 0  39.70618843283904 14.99780337589529 0  44.70618813222237 14.99789022342924 0  49.70618770592865 14.997977406013 0  54.70618712050432 14.9980649745974 0  59.7061863359078 14.9981529841084 0  64.70618530436414 14.99824149447845 0  69.7061839689995 14.99833057174777 0  74.70618226224155 14.99842028925082 0  79.70618010399031 14.99851072888703 0  84.70617739962107 14.9986019824348 0  89.70617403797415 14.99869415278406 0  94.70616988968015 14.99878735479099 0  99.70616480650907 14.99888171512067 0  104.7061586230501 14.99897736979369 0  109.7061511630672 14.99907445692465 0  114.7061422545958 14.99917309987623 0  119.7061317604716 14.99927337198771 0  124.7061196346047 14.99937522702914 0  129.7061060182189 14.99947836821891 0  134.7060913914023 14.99958201253626 0  139.7060767845306 14.99968449057442 0  144.706064007928 14.99978262595067 0  149.7060557212582 14.99987092088863 0  164.7060737984375 14.99998124568934 0  159.7060665323561 14.99994963494234 0  169.7060800900971 15.00002198981132 0  174.7060865856062 15.00007189341296 0  179.7060934971034 15.0001295967143 0  184.7061006780501 15.00019353867201 0  189.7061078958944 15.00026233651912 0  194.7061149391844 15.00033486937492 0  199.7061216497308 15.00041026161131 0  204.706127923921 15.00048783937383 0  209.7061337033717 15.00056708622716 0  214.7061389635553 15.00064760572648 0  219.706143703655 15.00072909205835 0  224.7061479385482 15.00081130773671 0  229.7061516928733 15.00089406687835 0  234.7061549968342 15.00097722270212 0  239.706157883331 15.00106065816712 0  244.7061603860667 15.00114427893251 0  249.7061625383534 15.00122800804314 0  254.7061643724017 15.00131178191365 0  259.7061659189393 15.0013955473121 0  264.7061672070439 15.00147925913784 0  269.706168264112 15.00156287886216 0  274.7061691159003 15.00164637355655 0  279.7061697866071 15.00172971547752 0  284.7061702989948 15.00181288220997 0  289.7061706745716 15.0018958573832 0  294.7061709339731 15.0019786319539 0  299.7061710977705 15.00206120597417 0  304.7061711882006 15.0021435906042 0  309.7061712326563 15.00222580990234 0  4.706060046322793 22.49720112853507 0  -0.2939399796078445 22.49711540738767 0  9.706060055149008 22.49728682885912 0  14.70606003647773 22.49737255822239 0  19.70605998019791 22.49745836092967 0  24.70605987565737 22.49754427855326 0  29.70605971107364 22.49763035156223 0  34.70605947295994 22.49771662031618 0  39.7060591455766 22.49780312580792 0  44.70605871042108 22.49788991032452 0  49.70605814575541 22.49797701808562 0  54.70605742616255 22.4980644958703 0  59.7060565221328 22.49815239362462 0  64.70605539970006 22.49824076502915 0  69.70605402017358 22.49832966798776 0  74.70605234005706 22.4984191649696 0  79.70605031130778 22.49850932308208 0  84.70604788218961 22.49860021365998 0  89.70604499912019 22.49869191099944 0  94.70604161013046 22.49878448960258 0  99.70603767086723 22.4988780188656 0  104.7060331544846 22.4989725534431 0  109.7060280672769 22.49906811642195 0  114.7060224723894 22.49916467079177 0  119.7060165240913 22.49926207242622 0  124.7060105141935 22.49935999514216 0  129.7060049287706 22.49945781665375 0  134.706000504826 22.49955445732455 0  139.7059982592527 22.49964818178866 0  144.7059994337125 22.49973643082037 0  149.706005266637 22.49981590019202 0  164.7060147868472 22.49996114455719 0  159.7060144729692 22.49991440258678 0  169.7060143980209 22.50001178697292 0  174.7060140836466 22.50006758167543 0  179.706014283178 22.50012858586192 0  184.7060151282551 22.50019427034878 0  189.7060165707743 22.50026391056704 0  194.7060184835211 22.50033678187611 0  199.7060207199942 22.50041223987182 0  204.706023144351 22.50048974291362 0  209.7060256434305 22.50056884889809 0  214.706028129252 22.50064920240153 0  219.7060305370492 22.50073051967496 0  224.7060328216222 22.50081257461845 0  229.7060349534009 22.50089518679525 0  234.7060369148554 22.5009782116297 0  239.7060386974721 22.50106153257597 0  244.7060402993241 22.5011450549397 0  249.7060417231727 22.50122870104012 0  254.7060429750169 22.5013124064441 0  259.7060440629915 22.50139611705774 0  264.7060449965443 22.5014797869093 0  269.7060457858244 22.50156337649969 0  274.7060464412416 22.50164685162673 0  279.7060469731836 22.50173018260616 0  284.7060473919033 22.50181334381171 0  289.7060477076432 22.50189631342735 0  294.7060479311239 22.50197907323341 0  299.7060480745881 22.502061608108
[...]
<PointData  Vectors="v"> 
<DataArray  type="Float64"  Name="v"  NumberOfComponents="3" format="ascii">-3.6598194950936240e+00 1.6120380754229731e+00 0.0000000000000000e+00  -3.5142906668873262e+00 1.8417772883228205e+00 0.0000000000000000e+00  -2.8971842358449496e+00 1.6234905032993534e+00 0.0000000000000000e+00  -3.0042693100835463e+00 1.4521519995773022e+00 0.0000000000000000e+00  -3.2698357298642526e+00 2.3556847129142580e+00 0.0000000000000000e+00  -2.7515914463415041e+00 1.9894221768531510e+00 0.0000000000000000e+00  -2.9643879755221736e+00 3.0874656444460324e+00 0.0000000000000000e+00  -2.5074388655965785e+00 2.6297938783630532e+00 0.0000000000000000e+00  -2.6061885087407344e+00 3.7988265516555857e+00 0.0000000000000000e+00  -2.2025172000265725e+00 3.2625637221357531e+00 0.0000000000000000e+00  -2.2001712227769996e+00 4.6399818382394233e+00 0.0000000000000000e+00  -1.8451741943451314e+00 4.0324969950176701e+00 0.0000000000000000e+00  -1.8044388557940276e+00 5.3960042711985992e+00 0.0000000000000000e+00  -1.4408330008052275e+00 4.8042723332907746e+00 0.0000000000000000e+00  -1.6323718836070533e+00 5.8177008792692186e+00 0.0000000000000000e+00  -1.0473044290018330e+00 5.5623748607114196e+00 0.0000000000000000e+00  -1.1328165884564059e+00 6.6811146869791216e+00 0.0000000000000000e+00  -8.7812676175133220e-01 5.9352598062732769e+00 0.0000000000000000e+00  -3.0273873412492707e+00 3.9526603370481195e+00 0.0000000000000000e+00  -3.8262728888788627e-01 6.7986274839022407e+00 0.0000000000000000e+00  1.3452185840980513e+00 1.0499869471512250e+01 0.0000000000000000e+00  -2.2821537984039395e+00 3.9459969834660069e+00 0.0000000000000000e+00  -2.9120871792397345e-02 8.1961956338240185e+00 0.0000000000000000e+00  2.0856247194685524e+00 1.0263299787882534e+01 0.0000000000000000e+00  -3.1635960458357593e-01 7.5273502659816716e+00 0.0000000000000000e+00  7.0476083794234246e-01 7.9660859400223751e+00 0.0000000000000000e+00  1.9562343406601099e-02 7.8346739840224187e+00 0.0000000000000000e+00  4.0849667065723222e-01 7.3406369460881065e+00 0.0000000000000000e+00  8.0890127490662100e-01 8.8197026766052709e+00 0.0000000000000000e+00  7.3333594522799128e-01 7.6479612325010891e+00 0.0000000000000000e+00  1.8665594572716908e+00 1.0148113030164117e+01 0.0000000000000000e+00  1.5083324446588111e+00 8.5752943073540404e+00 0.0000000000000000e+00  3.1365578794131888e+00 1.1677274436920307e+01 0.0000000000000000e+00  2.5494898377155186e+00 9.7889509022775805e+00 0.0000000000000000e+00  4.5742924431353122e+00 1.3367690116760309e+01 0.0000000000000000e+00  3.8006268201274147e+00 1.1230205153226967e+01 0.0000000000000000e+00  6.1349399703618515e+00 1.5034734057455564e+01 0.0000000000000000e+00  5.2155022041987484e+00 1.2714850904960628e+01 0.0000000000000000e+00  7.7828232388772447e+00 1.6672130794910931e+01 0.0000000000000000e+00  6.7509262968075845e+00 1.4225388004603232e+01 0.0000000000000000e+00  9.4776051419080325e+00 1.8196312238190927e+01 0.0000000000000000e+00  8.3697847121494213e+00 1.5681704389293005e+01 0.0000000000000000e+00  1.1152405660808663e+01 1.9505677498598246e+01 0.0000000000000000e+00  1.0031732703527886e+01 1.7024858857833330e+01 0.0000000000000000e+00  1.2744977895364432e+01 2.0417307760703501e+01 0.0000000000000000e+00  1.1668642850305197e+01 1.8062619729166787e+01 0.0000000000000000e+00  1.4202848592437336e+01 2.1030762833377555e+01 0.0000000000000000e+00  1.3221628364537457e+01 1.8884486755393446e+01 0.0000000000000000e+00  1.5452907775947736e+01 2.0830060255290721e+01 0.0000000000000000e+00  1.4630220096470108e+01 1.8994530054565416e+01 0.0000000000000000e+00  1.6476826947780410e+01 2.0153806686292640e+01 0.0000000000000000e+00  1.5833650686003701e+01 1.8669893577403691e+01 0.0000000000000000e+00  1.7227292512775588e+01 1.8269858483945718e+01 0.0000000000000000e+00  1.6794777609213511e+01 1.7188019573737417e+01 0.0000000000000000e+00  1.7742161525755435e+01 1.5446104535203583e+01 0.0000000000000000e+00  1.7492934069054897e+01 1.4740155337594654e+01 0.0000000000000000e+00  1.8011298323655261e+01 1.1401566859896828e+01 0.0000000000000000e+00  1.7928435410599423e+01 1.1043360173746365e+01 0.0000000000000000e+00  1.8136911332272554e+01 4.7598195408338713e+00 0.0000000000000000e+00  1.8141641683297816e+01 4.6558433213458086e+00 0.0000000000000000e+00  1.8163558466854525e+01 -3.2714343174184896e-05 0.0000000000000000e+00  1.8163235001752781e+01 -3.7069307921909375e-04 0.0000000000000000e+00  1.8163563200135638e+01 1.4570150495174819e-19 0.0000000000000000e+00  1.3886103898694760e+01 -1.1530556568431843e+01 0.0000000000000000e+00  1.8132911402292567e+01 -5.1496233168013941e+00 0.0000000000000000e+00  1.8163249643193478e+01 2.9279540143064447e-04 0.0000000000000000e+00  1.2624455505197155e+01 -2.0106266030202416e+01 0.0000000000000000e+00  1.3905149743654649e+01 -1.8282894375811249e+01 0.0000000000000000e+00  1.0751852021733702e+01 -2.3970173250335655e+01 0.0000000000000000e+00  1.2702159642829811e+01 -2.1197705422978114e+01 0.0000000000000000e+00  9.6679108606982460e+00 -2.4791711554142367e+01 0.0000000000000000e+00  1.0884195470354960e+01 -2.3213819343049057e+01 0.0000000000000000e+00  8.4448958243638739e+00 -2.4345713421865035e+01 0.0000000000000000e+00  9.8492940318985642e+00 -2.2550938094729027e+01 0.0000000000000000e+00  7.4351460702069829e+00 -2.2825954645221035e+01 0.0000000000000000e+00  8.6719744433662580e+00 -2.1351656414189538e+01 0.0000000000000000e+00  6.4867764963456693e+00 -2.1042747422009068e+01 0.0000000000000000e+00  7.7067767278144554e+00 -1.9655739316807121e+01 0.0000000000000000e+00  5.6348368482377111e+00 -1.9032673012604196e+01 0.0000000000000000e+00  6.7990445635449115e+00 -1.7790845156663099e+01 0.0000000000000000e+00  4.7465889333146576e+00 -1.7219528627524507e+01 0.0000000000000000e+00  5.9858456754339793e+00 -1.5920162813461396e+01 0.0000000000000000e+00  4.0371301889366862e+00 -1.5482671671713003e+01 0.0000000000000000e+00  5.1348879374361935e+00 -1.4450347682783585e+01 0.0000000000000000e+00  3.4056586960735165e+00 -1.3968255434555145e+01 0.0000000000000000e+00  4.4605866978951161e+00 -1.3051778430167913e+01 0.0000000000000000e+00  2.7530430546325135e+00 -1.2753777876717626e+01 0.0000000000000000e+00  3.8627664626546698e+00 -1.1804327053020415e+01 0.0000000000000000e+00  2.1582630009568691e+00 -1.1694587809009700e+01 0.0000000000000000e+00  3.2427950720170258e+00 -1.0830590073653337e+01 0.0000000000000000e+00  1.6210930515309470e+00 -1.0772401835883588e+01 0.0000000000000000e+00  2.6791591949140026e+00 -9.9941682329074109e+00 0.0000000000000000e+00  1.1395788845692947e+00 -9.9283330036807484e+00 0.0000000000000000e+00  2.1720263528974075e+00 -9.2325603801915701e+00 0.0000000000000000e+00  7.2316402262187707e-01 -9.1248180465708248e+00 0.0000000000000000e+00  1.7197377572022770e+00 -8.5258777846668234e+00 0.0000000000000000e+00  3.6683837861061463e-01 -8.3668167896393388e+00 0.0000000000000000e+00  1.3315509139678194e+00 -7.8574631387759934e+00 0.0000000000000000e+00  5.5118778479056191e-02 -7.6254727232110602e+00 0.0000000000000000e+00  1.0026517050836339e+00 -7.1824126691057444e+00 0.0000000000000000e+00  -2.0872688101849635e-01 -6.9003075221677719e+00 0.0000000000000000e+00  7.1784229673845812e-01 -6.5284612548855687e+00 0.0000000000000000e+00  -4.2962530455081166e-01 -6.1850103715317939e+00 0.0000000000000000e+00  4.8019172389205755e-01 -5.8773070636448121e+00 0.0000000000000000e+00  -6.1440702621178789e-01 -5.4806412903221196e+00 0.0000000000000000e+00  2.8510054712579247e-01 -5.2265900444924416e+00 0.0000000000000000e+00  -7.6367820620189708e-01 -4.7595406551825512e+00 0.0000000000000000e+00  1.2557663398516000e-01 -4.5586195443644817e+00 0.0000000000000000e+00  -8.7064934451126508e-01 -4.0808794471176535e+00 0.0000000000000000e+00  1.5008591391831908e-03 -3.9428353314835007e+00 0.0000000000000000e+00  -9.4534359543908453e-01 -3.3268222070347031e+00 0.0000000000000000e+00  -8.1154468122815085e-02 -3.2375593776811327e+00 0.0000000000000000e+00  -9.7377310667025008e-01 -2.6963410850934753e+00 0.0000000000000000e+00  -1.3075994622255180e-01 -2.6752189326907598e+00 0.0000000000000000e+00  -9.6027731973042874e-01 -1.8785109820598471e+00 0.0000000000000000e+00  -1.3603050937308550e-01 -1.9219350362670413e+00 0.0000000000000000e+00  -8.9585716554804229e-01 -1.3973651819145556e+00 0.0000000000000000e+00  -9.6754497836553585e-02 -1.5140099701247840e+00 0.0000000000000000e+00  -7.6613347985508617e-01 -4.2959898512350880e-01 0.0000000000000000e+00  -1.1409310054300785e-02 -6.4912120416485342e-01 0.0000000000000000e+00  -5.2193056980246177e-01 5.0687178689513085e-02 0.0000000000000000e+00  1.4749834269356496e-01 -3.3159924355870879e-01 0.0000000000000000e+00  5.9278058439359294e-02 2.8486339179347048e-01 0.0000000000000000e+00  4.0337445505927277e-01 -6.2041396227822831e-01 0.0000000000000000e+00  -2.0111814202002853e+00 1.4618561729794477e+00 0.0000000000000000e+00  -2.1189946607558365e+00 1.2927042291519810e+00 0.0000000000000000e+00  -1.9024154161145841e+00 1.7697024106898911e+00 0.0000000000000000e+00  -1.7545842098327635e+00 2.2623742122271282e+00 0.0000000000000000e+00  -1.5082460933385620e+00 2.8040795882843961e+00 0.0000000000000000e+00  -1.2014320059554127e+00 3.4953081349807058e+00 0.0000000000000000e+00  -8.4246124081109353e-01 4.1972953521894993e+00 0.0000000000000000e+00  -4.3736331902128323e-01 4.9723694579751854e+00 0.0000000000000000e+00  -4.4429986791586225e-02 5.6820153423807573e+00 0.0000000000000000e+00  1.2302934705359013e-01 6.0575680284996656e+00 0.0000000000000000e+00  6.1428030353371554e-01 6.7993451145770356e+00 0.0000000000000000e+00  -1.2905006447869543e+00 3.7116471497711143e+00 0.0000000000000000e+00  3.0780300348030680e+00 1.0036728732914275e+01 0.0000000000000000e+00  1.6967760717558087e+00 7.7892175809968345e+00 0.0000000000000000e+00  1.3933199039456092e+00 7.1658032029728593e+00 0.0000000000000000e+00  1.7073819606385530e+00 7.4224686856341666e+00 0.0000000000000000e+00  2.4659609067703876e+00 8.2390221809779423e+00 0.0000000000000000e+00  3.4864180310159272e+00 9.3667645625558968e+00 0.0000000000000000e+00  4.7132285394630653e+00 1.0609935408865967e+01 0.0000000000000000e+00  6.0982662791853439e+00 1.1942785809236565e+01 0.0000000000000000e+00  7.5983033388632153e+00 1.3275276950360334e+01 0.0000000000000000e+00  9.1772330712491925e+00 1.4560409491548127e+01 0.0000000000000000e+00  1.0790976613463918e+01 1.5638113939063672e+01 0.0000000000000000e+00  1.2373009698020647e+01 1.6591868232503970e+01 0.0000000000000000e+00  1.3862217492773404e+01 1.6921488845969101e+01 0.0000000000000000e+00  1.5198979165331357e+01 1.6916928334238868e+01 0.0000000000000000e+00  1.6316423074285350e+01 1.5791617242203351e+01 0.0000000000000000e+00  1.7188774965029047e+01 1.3768649223670959e+01 0.0000000000000000e+00  1.7771181715408723e+01 1.0433529179775560e+01 0.0000000000000000e+00  1.8104104989690370e+01 4.4491222294176014e+00 0.0000000000000000e+00  1.8162460747196363e+01 -7.0458701761161552e-04 0.0000000000000000e+00  1.8092156712201263e+01 -4.9536406290577215e+00 0.0000000000000000e+00  1.8162478951000999e+01 5.7391965878912589e-04 0.0000000000000000e+00  1.7901133724287789e+01 -1.1959810446231025e+01 0.0000000000000000e+00  1.3743877607371038e+01 -1.9450668767135252e+01 0.0000000000000000e+00  1.2627221112112316e+01 -2.0529309370927180e+01 0.0000000000000000e+00  1.0877254714205369e+01 -2.1038677307254769e+01 0.0000000000000000e+00  9.9058815176030102e+00 -1.9615401540287731e+01 0.0000000000000000e+00  8.7802572605377591e+00 -1.8241072386242742e+01 0.0000000000000000e+00  7.8657145097488872e+00 -1.6455434686695313e+01 0.0000000000000000e+00  7.0016204874069699e+00 -1.4724916581522795e+01 0.0000000000000000e+00  6.2288483965975745e+00 -1.3197495625614724e+01 0.0000000000000000e+00  5.4157327443418630e+00 -1.2061933927767829e+01 0.0000000000000000e+00  4.7767844783236209e+00 -1.0927371112465426e+01 0.0000000000000000e+00  4.2118917558220046e+00 -9.9202919232242355e+00 0.0000000000000000e+00  3.6236354590122439e+00 -9.1668602829954455e+00 0.0000000000000000e+00  3.0897835928623820e+00 -8.4888180567768270e+00 0.0000000000000000e+00  2.6107030641841367e+00 -7.8639950120841702e+00 0.0000000000000000e+00  2.1853089916412531e+00 -7.2907490144942564e+00 0.0000000000000000e+00  1.8226658656637080e+00 -6.7037845902192679e+00 0.0000000000000000e+00  1.5180907436024313e+00 -6.1156315542475763e+00 0.0000000000000000e+00  1.2568039085857254e+00 -5.5346487631386232e+00 0.0000000000000000e+00  1.0418451622584062e+00 -4.9471581910548332e+00 0.0000000000000000e+00  8.6866094518076797e-01 -4.3325065958388214e+00 0.0000000000000000e+00  7.3066408723661647e-01 -3.7692642364961761e+00 0.0000000000000000e+00  6.2747860346961415e-01 -3.1262966391986509e+00 0.0000000000000000e+00  5.6554215408270359e-01 -2.6125977948546648e+00 0.0000000000000000e+00  5.3593495033608163e-01 -1.9270173566892768e+00 0.0000000000000000e+00  5.5110732578099819e-01 -1.5831470745981779e+00 0.0000000000000000e+00  6.0907400382961485e-01 -7.9159451522922153e-01 0.0000000000000000e+00  7.1505337224582355e-01 -5.7729160042151939e-01 0.0000000000000000e+00  8.9130762580381195e-01 -1.0199262292006881e+00 0.0000000000000000e+00  -7.0231292767215592e-01 1.2978901620471146e+00 0.0000000000000000e+00  -7.9431833381331585e-01 1.1581420794203250e+00 0.0000000000000000e+00  -5.9078575912147380e-01 1.6027536922103198e+00 0.0000000000000000e+00  -4.7576851519049101e-01 2.0366770184854572e+00 0.0000000000000000e+00  -3.2165098421595617e-01 2.4301389791212427e+00 0.0000000000000000e+00  -6.8272342197146965e-02 3.0306713767280127e+00 0.0000000000000000e+00  2.4565637167129062e-01 3.6551560215918268e+00 0.0000000000000000e+00  6.1063242560220998e-01 4.3615878394737839e+00 0.0000000000000000e+00  1.0206615364848783e+00 5.0911133185945587e+00 0.0000000000000000e+00  1.4162843245458301e+00 5.8074987563322402e+00 0.0000000000000000e+00  1.5823221042305260e+00 6.0664153788901407e+00 0.0000000000000000e+00  2.0682627379528813e+00 6.5731378935945868e+00 0.0000000000000000e+00  1.6306484987337072e-01 3.4783857951632982e+00 0.0000000000000000e+00  4.5444273964097848e+00 9.8534229363848667e+00 0.0000000000000000e+00  3.1739341261539926e+00 7.6242012282450879e+00 0.0000000000000000e+00  2.8684496340556760e+00 6.9606819700962905e+00 0.0000000000000000e+00  3.1707695205581059e+00 7.1164975164113793e+00 0.0000000000000000e+00  3.9095858262125138e+00 7.8573330215503336e+00 0.0000000000000000e+00  4.9031585239140520e+00 8.7965965021561310e+00 0.0000000000000000e+00  6.0946933550881628e+00 9.8973983341375131e+00 0.0000000000000000e+00  7.4369428739890493e+00 1.1064237846262049e+01 0.0000000000000000e+00  8.8856934405614219e+00 1.2239420657716476e+01 0.0000000000000000e+00  1.0401041445789620e+01 1.3271248117858812e+01 0.0000000000000000e+00  1.1940661719298113e+01 1.4286743200024867e+01 0.0000000000000000e+00  1.3431621818694303e+01 1.4761692484200925e+01 0.0000000000000000e+00  1.4816203428154189e+01 1.5007466501066309e+01 0.0000000000000000e+00  1.6023072989026069e+01 1.4211448534695659e+01 0.0000000000000000e+00  1.6999162771400457e+01 1.2599661484055112e+01 0.0000000000000000e+00  1.7688086599024498e+01 9.6662440293588272e+00 0.0000000000000000e+00  1.8095461623456568e+01 4.1649047687489018e+00 0.0000000000000000e+00  1.8161252995254735e+01 -1.0064987990121442e-03 0.0000000000000000e+00  1.8071574320454040e+01 -4.6085575879812399e+00 0.0000000000000000e+00  1.8161269279023330e+01 8.1979694820252726e-04 0.0000000000000000e+00  1.7669858592798430e+01 -1.1609846413408036e+01 0.0000000000000000e+00  1.7468601574354622e+01 -1.3304016415490661e+01 0.0000000000000000e+00  1.3435024835530285e+01 -1.8962876801036444e+01 0.0000000000000000e+00  1.2456985812084453e+01 -1.8493629796648548e+01 0.0000000000000000e+00  1.0815198060282373e+01 -1.8235450948559340e+01 0.0000000000000000e+00  9.9371368740229098e+00 -1.6611736707605495e+01 0.0000000000000000e+00  8.8896488428091320e+00 -1.5140236618162369e+01 0.0000000000000000e+00  8.0457894716532437e+00 -1.3477597810868263e+01 0.0000000000000000e+00  7.2427403090977940e+00 -1.2083153197206231e+01 0.0000000000000000e+00  6.5264045856261159e+00 -1.0883025618849278e+01 0.0000000000000000e+00  5.7647115354754428e+00 -1.0007588916568531e+01 0.0000000000000000e+00  5.1736578918123906e+00 -9.1088222192079620e+00 0.0000000000000000e+00  4.6540676001085703e+00 -8.3185854174179923e+00 0.0000000000000000e+00  4.1085709020135850e+00 -7.7202628274501963e+00 0.0000000000000000e+00  3.6146932200641952e+00 -7.1755839627991600e+00 0.0000000000000000e+00  3.1733188453011043e+00 -6.6811554120121439e+00 0.0000000000000000e+00  2.7833471671803811e+00 -6.1869280127557493e+00 0.0000000000000000e+00  2.4540559811662255e+00 -5.6843723636514936e+00 0.0000000000000000e+00  2.1811297066148589e+00 -5.1672643303773667e+00 0.0000000000000000e+00  1.9500597263240271e+00 -4.6482562630922359e+00 0.0000000000000000e+00  1.7639426752187706e+00 -4.0955950529462983e+00 0.0000000000000000e+00  1.6187931882139677e+00 -3.5841953458865645e+00 0.0000000000000000e+00  1.5077507355002611e+00 -2.9934712921818960e+00 0.0000000000000000e+00  1.4312614353009088e+00 -2.5402668813561498e+00 0.0000000000000000e+00  1.3947218671685537e+00 -1.9043437456500152e+00 0.0000000000000000e+00  1.3911951863286605e+00 -1.6244503808912043e+00 0.0000000000000000e+00  1.4295439736796018e+00 -9.0149327151928993e-01 0.0000000000000000e+00  1.5144667160111416e+00 -7.5065284540373567e-01 0.0000000000000000e+00  1.6373248350246963e+00 -1.3086305796282698e+00 0.0000000000000000e+00  5.0267612624969849e-01 1.1566818118591815e+00 0.0000000000000000e+00  4.3092463871834946e-01 1.0552342672198658e+00 0.0000000000000000e+00  5.9983740233751037e-01 1.4296785901254052e+00 0.0000000000000000e+00  7.2084957637465197e-01 1.8564456743132569e+00 0.0000000000000000e+00  8.4726481570868883e-01 2.1902199055899234e+00 0.0000000000000000e+00  1.0145380035354985e+00 2.6412169344531264e+00 0.0000000000000000e+00  1.2817782932301383e+00 3.1742905834761577e+00 0.0000000000000000e+00  1.6099602504754502e+00 3.8047960270159122e+00 0.0000000000000000e+00  1.9883955483264828e+00 4.4680802205608341e+00 0.0000000000000000e+00  2.4093593209681408e+00 5.2083442567158142e+00 0.0000000000000000e+00  2.8115796770156276e+00 5.8162973531646962e+00 0.0000000000000000e+00  2.9791503115610336e+00 5.8451779608275736e+00 0.0000000000000000e+00  3.4651532495009669e+00 6.3305233899663751e+00 0.0000000000000000e+00  1.5745458655861810e+00 3.2587806994114721e+00 0.0000000000000000e+00  5.9922250635695917e+00 9.6559187082417175e+00 0.0000000000000000e+00  4.6523849114437699e+00 7.4094888968920820e+00 0.0000000000000000e+00  4.3591589260194796e+00 6.6624524129368359e+00 0.0000000000000000e+00  4.6615719771899498e+00 6.7573880383558027e+00 0.0000000000000000e+00  5.3884005397133938e+00 7.3197269403758698e+00 0.0000000000000000e+00  6.3620439753071114e+00 8.1311491143262291e+00 0.0000000000000000e+00  7.5246228030604936e+00 9.0779476251034268e+00 0.0000000000000000e+00  8.8278233417959839e+00 1.0101467824775277e+01 0.0000000000000000e+00  1.0225915281676640e+01 1.1042197944677236e+01 0.0000000000000000e+00  1.1677808599095739e+01 1.2036062673943052e+01 0.0000000000000000e+00  1.3133065155005378e+01 1.2592382438614003e+01 0.0000000000000000e+00  1.4522872827528683e+01 1.3025590508479979e+01 0.0000000000000000e+00  1.5772921561456762e+01 1.2499358145565928e+01 0.0000000000000000e+00  1.6827140971049928e+01 1.1287371206567364e+01 0.0000000000000000e+00  1.7594159795823028e+01 8.7550680021953866e+00 0.0000000000000000e+00  1.8073776757212492e+01 3.8092084499347063e+00 0.0000000000000000e+00  1.8159659577000863e+01 -1.2745117291984218e-03 0.0000000000000000e+00  1.8048157487622280e+01 -4.1725299964157569e+00 0.0000000000000000e+00  1.8159674382717149e+01 1.0367792955114279e-03 0.0000000000000000e+00  1.7543827351479823e+01 -1.0835758841506561e+01 0.