<?xml version="1.0"?>
<VTKFile type="UnstructuredGrid"  version="0.1"  >
<UnstructuredGrid>
<Piece  NumberOfPoints="1933" NumberOfCells="3640">
<Points>
<DataArray  type="Float64"  NumberOfComponents="3"  format="ascii">-0.4752675244356132 -0.002137002665245871 0  4.524732499132528 -0.002071247017317793 0  4.524633828394133 7.497928792215872 0  -0.4753661916103692 7.497863045128264 0  9.524732548438628 -0.002005510394791717 0  9.524633854535823 7.497994520349673 0  14.52473263366416 -0.001939756264559628 0  14.524633884481 7.498060267896204 0  19.52473275492379 -0.001873948001721725 0  19.52463391316826 7.49812607134007 0  24.52473290544678 -0.001808051286828173 0  24.52463393261539 7.498191964437803 0  29.52473307370725 -0.001742034281843192 0  29.52463393184304 7.498257978481199 0  34.52473324459481 -0.001675867009423538 0  34.52463389680648 7.498324143006723 0  39.52473339986987 -0.00160952050781138 0  39.52463381023417 7.498390486628059 0  44.52473351810843 -0.001542965979185752 0  44.52463365131641 7.498457037852309 0  49.52473357426916 -0.001476173999823959 0  49.52463339521277 7.498523825833295 0  54.52473353895162 -0.001409113797678004 0  54.52463301235623 7.498590881059628 0  59.52473337736365 -0.0013417525770264 0  59.52463246752762 7.498658235994744 0  64.52473304797424 -0.001274054858585031 0  64.52463171866103 7.498725925694614 0  69.52473250078546 -0.001205981796660064 0  69.52463071532375 7.498793988432467 0  74.52473167511251 -0.001137490427442077 0  74.52462939678904 7.498862466362016 0  79.52473049669355 -0.001068532791319214 0  79.52462768958861 7.498931406251366 0  84.52472887385825 -0.000999054854836901 0  84.52462550439542 7.499000860317917 0  89.52472669232995 -0.000928995133152023 0  89.52462273203733 7.499070887182659 0  94.52472380799087 -0.0008582828818887202 0  94.52461923840482 7.499141552925855 0  99.52472003651678 -0.0007868356949871462 0  99.52461485798699 7.499212932130376 0  104.5247151380682 -0.0007145563374291419 0  104.5246093858275 7.499285108569128 0  109.5247087939632 -0.000641328731946109 0  109.5246025679456 7.499358174667031 0  114.5247005700209 -0.0005670134043178584 0  114.5245940910143 7.499432227705316 0  119.5246898572914 -0.0004914438817931088 0  119.524583573917 7.499507358221029 0  124.5246757737846 -0.0004144288250648697 0  124.5245705679904 7.499583620718851 0  129.5246569982044 -0.0003357733322064802 0  129.524554581816 7.499660965694765 0  134.524631484571 -0.0002553553300716627 0  134.5245351652048 7.499739089321324 0  139.5245959686953 -0.0001733518375157022 0  139.524512124357 7.499817112618089 0  144.5245451146932 -9.086922999328642e-05 0  144.5244860106482 7.499892920587915 0  149.5244700496156 -1.169044874394659e-05 0  149.5244591492845 7.499961871019511 0  159.5244717418524 3.664592784002143e-19 0  164.5245096888104 1.949446203296903e-05 0  164.5244790213125 7.500017633409263 0  159.5244622053021 7.499995407350694 0  169.5245430239268 5.345194683945547e-05 0  169.5244956424794 7.500052860030528 0  174.5245714284442 9.691147292150798e-05 0  174.5245114026446 7.500096858912207 0  179.5245953351564 0.0001467587656079479 0  179.5245259072382 7.500146914941936 0  184.5246153759607 0.0002010024091360161 0  184.5245389824819 7.500201224115036 0  189.5246321716235 0.0002583352013418597 0  189.5245506025897 7.500258563246401 0  194.5246462647722 0.0003178754691093389 0  194.5245608283406 7.500318087463934 0  199.5246581086722 0.000379013010912507 0  199.5245697645855 7.500379202269369 0  204.5246680753798 0.0004413154793338249 0  204.5245775338265 7.500441481704491 0  209.5246764688457 0.0005044701235535261 0  209.524584261009 7.500504615361717 0  214.5246835377076 0.0005682466048176713 0  214.5245900654209 7.500568373540795 0  219.5246894861872 0.0006324726377064888 0  219.524595056855 7.500632583920069 0  224.5246944828957 0.0006970176176970867 0  224.5245993342068 7.500697115628226 0  229.5246986678114 0.0007617813429553445 0  229.5246029854078 7.500761868150679 0  234.5247021577894 0.000826686067873722 0  234.5246060880468 7.500826763454286 0  239.5247050509322 0.0008916707921542206 0  239.5246087103146 7.500891740299735 0  244.5247074300989 0.0009566870898928727 0  244.5246109120658 7.500956750074826 0  249.5247093657573 0.001021696029709294 0  249.5246127458906 7.501021753712013 0  254.524710918349 0.001086665893205798 0  254.5246142581473 7.501086719402264 0  259.5247121402853 0.001151570502114366 0  259.5246154899201 7.501151620916711 0  264.5247130776755 0.001216388036723146 0  264.5246164779018 7.501216436417381 0  269.524713771848 0.001281100283629997 0  269.5246172551875 7.501281147691048 0  274.5247142607263 0.001345692299240885 0  274.5246178519727 7.501345739784378 0  279.524714580067 0.001410152524145843 0  279.5246182961462 7.501410201059232 0  284.5247147645485 0.001474473438536674 0  284.5246186137472 7.501474523727393 0  289.5247148486102 0.001538652913611384 0  289.5246188292687 7.501538704963856 0  294.5247148668127 0.001602696482303745 0  294.5246189657823 7.501602748730161 0  299.5247148532401 0.00166662078243578 0  299.524619044914 7.501666668449024 0  304.5247148389678 0.001730458236215628 0  304.524619086842 7.501730490646112 0  309.5247148456841 0.001794261881907137 0  309.5246191108384 7.501794259729479 0  4.524535164293916 14.99792886153463 0  -0.4754648509381357 14.99786316040719 0  9.524535170527054 14.99799455260196 0  14.52453516127051 14.99806027277187 0  19.52453512884178 14.99812605595025 0  24.52453506434347 14.99819193303841 0  29.52453495724308 14.99825793295815 0  34.52453479492192 14.9983240834055 0  39.52453456225101 14.99839041153749 0  44.52453424116754 14.99845694461646 0  49.52453381021456 14.99852371060601 0  54.52453324400965 14.99859073871533 0  59.52453251261809 14.99865805989409 0  64.52453158081252 14.99872570728204 0  69.52453040720798 14.9987937166137 0  74.52452894327325 14.99886212656856 0  79.52452713223757 14.9989309790372 0  84.52452490795068 14.99900031923482 0  89.52452219382381 14.99907019552372 0  94.52451890210739 14.99914065867344 0  99.52451493399074 14.99921176004265 0  104.5245101813998 14.99928354771702 0  109.5245045320276 14.99935605881792 0  114.5244978801747 14.99942930473485 0  119.5244901475285 14.99950324349096 0  124.5244813200274 14.99957772922217 0  129.5244715088451 14.99965242226618 0  134.524461043105 14.99972663505731 0  139.5244505931312 14.99979908379629 0  144.5244412911969 14.99986753380802 0  149.524434731007 14.99992843432048 0  164.5244442959434 15.0000131342553 0  159.5244386074699 14.99998125840273 0  169.5244500786996 15.00005225081987 0  174.5244562737526 15.00009775148329 0  179.5244627206743 15.00014829141888 0  184.5244691743654 15.00020265885347 0  189.5244754262629 15.00025989127003 0  194.5244813311047 15.00031925734237 0  199.52448680189 15.00038021006997 0  204.5244917964494 15.00044234154138 0  209.5244963040481 15.00050534659166 0  214.5245003345524 15.00056899549565 0  219.5245039104499 15.00063311399473 0  224.5245070612824 15.00069756881186 0  229.5245098199177 15.00076225713729 0  234.5245122201408 15.00082709895171 0  239.5245142951628 15.00089203137643 0  244.5245160767498 15.0009570044824 0  249.5245175947679 15.00102197816322 0  254.5245188769952 15.00108691980001 0  259.5245199491031 15.00115180253229 0  264.5245208347358 15.00121660401131 0  269.5245215556442 15.00128130555849 0  274.5245221318382 15.00134589168691 0  279.5245225817448 15.00141034997066 0  284.5245229223744 15.00147467126605 0  289.5245231695172 15.00153885029496 0  294.5245233380642 15.00160288658858 0  299.5245234426026 15.00166678574835 0  304.5245234985931 15.00173056091288 0  309.5245235246653 15.00179423428521 0  4.524436629019602 22.49792894777823 0  -0.4755633826068934 22.49786334403483 0  9.524436624830589 22.49799456711874 0  14.52443659524887 22.49806023302708 0  19.52443653176167 22.49812597323238 0  24.52443642594677 22.49819181358536 0  29.5244362688237 22.49825777890097 0  34.52443605033628 22.49832389351564 0  39.52443575893086 22.49839018172828 0  44.52443538120844 22.49845666818798 0  49.52443490163216 22.49852337824088 0  54.52443430227513 22.49859033822786 0  59.52443356260762 22.49865757571676 0  64.52443265933759 22.49872511964558 0  69.52443156633936 22.49879300033778 0  74.52443025473707 22.49886124932976 0  79.52442869325009 22.49892989890872 0  84.52442684897362 22.49899898119532 0  89.52442468885975 22.49906852649723 0  94.52442218230036 22.49913856048753 0  99.5244193053979 22.4992090994841 0  104.5244160477528 22.49928014267233 0  109.5244124228709 22.49935165945441 0  114.524408483514 22.49942356916292 0  119.5244043432754 22.49949570916116 0  124.5244002048705 22.4995677861486 0  129.5243963931929 22.49963930534113 0  134.524393385554 22.49970947601867 0  139.5243918208233 22.4997771069154 0  144.5243924529444 22.49984054699183 0  149.5243960006128 22.49989782705006 0  164.5243984121322 22.50000699884821 0  159.5243991104166 22.49996700881053 0  169.5243979676983 22.50005079903923 0  174.5243980955181 22.50009868570953 0  179.5243988757756 22.50015029468588 0  184.5244002290084 22.50020502778673 0  189.5244020116896 22.50026227160867 0  194.5244040730125 22.5003214845367 0  199.524406280943 22.50038221919549 0  204.524408530647 22.50044411804339 0  209.5244107443026 22.50050689997603 0  214.5244128673935 22.50057034559218 0  219.5244148640687 22.50063428399247 0  224.5244167127414 22.50069858188862 0  229.5244184023543 22.50076313496597 0  234.5244199294029 22.50082786116489 0  239.5244212956453 22.5008926955031 0  244.5244225063869 22.5009575861007 0  249.5244235692151 22.50102249113526 0  254.5244244930824 22.5010873765159 0  259.5244252876437 22.50115221411942 0  264.5244259627883 22.50121698047213 0  269.5244265283094 22.50128165579445 0  274.5244269936898 22.50134622334609 0  279.5244273679827 22.50141066902314 0  284.5244276598086 22.50147498115789 0  289.5244278775056 22.50153915045578 0  294.5244280295192 22.50160316996277 0  299.524428125
[...]
<PointData  Vectors="v"> 
<DataArray  type="Float64"  Name="v"  NumberOfComponents="3" format="ascii">-4.3404165798517891e+00 -3.1230379282272613e+00 0.0000000000000000e+00  -4.5393045102890373e+00 -2.5926681394063138e+00 0.0000000000000000e+00  -3.8416793840438830e+00 -2.2944971045044227e+00 0.0000000000000000e+00  -3.6830354310903046e+00 -2.8845035830704258e+00 0.0000000000000000e+00  -4.7237867425648536e+00 -2.4372604066366144e+00 0.0000000000000000e+00  -4.0402415100723559e+00 -2.1607226899035124e+00 0.0000000000000000e+00  -4.8023551134351274e+00 -2.3366414638197757e+00 0.0000000000000000e+00  -4.2242580969736689e+00 -2.2192436850852379e+00 0.0000000000000000e+00  -4.7801897159877749e+00 -1.8185245803165597e+00 0.0000000000000000e+00  -4.3021209367908080e+00 -1.8521575780440565e+00 0.0000000000000000e+00  -4.7952945587430067e+00 -1.5173799750517709e+00 0.0000000000000000e+00  -4.2790953428982075e+00 -1.4950394780452083e+00 0.0000000000000000e+00  -4.7328010809415835e+00 -9.8037798324416459e-01 0.0000000000000000e+00  -4.2935875853733130e+00 -1.0744911907264545e+00 0.0000000000000000e+00  -4.6094738110342250e+00 -3.9575108781895302e-01 0.0000000000000000e+00  -4.2305007181262493e+00 -5.8068824416929554e-01 0.0000000000000000e+00  -4.7798276695221755e+00 -2.0979927931260398e-01 0.0000000000000000e+00  -4.1068009990953707e+00 4.6058610263176251e-02 0.0000000000000000e+00  -4.7553795122003102e+00 2.5260544949111591e-01 0.0000000000000000e+00  -4.2773673585482985e+00 2.1644423230357521e-01 0.0000000000000000e+00  -7.2551076868050943e+00 -3.0157237323554611e+00 0.0000000000000000e+00  -4.2535769693457768e+00 7.3511865661185083e-01 0.0000000000000000e+00  -8.4319526180439617e+00 -4.2233258752203886e+00 0.0000000000000000e+00  -6.7535260209415284e+00 -2.4569707312009545e+00 0.0000000000000000e+00  -8.7668950161896522e+00 -4.0768349273602471e+00 0.0000000000000000e+00  -7.9316222566047694e+00 -3.5716365537905745e+00 0.0000000000000000e+00  -8.7591703091620552e+00 -3.3573509128653454e+00 0.0000000000000000e+00  -8.2695168586449395e+00 -3.3649911623923745e+00 0.0000000000000000e+00  -8.5508199556507662e+00 -2.3521226445054726e+00 0.0000000000000000e+00  -8.2659561693584269e+00 -2.6591096621986603e+00 0.0000000000000000e+00  -8.2657601597917481e+00 -1.2657134768061491e+00 0.0000000000000000e+00  -8.0638894155998084e+00 -1.6870017574006868e+00 0.0000000000000000e+00  -7.9020982501508170e+00 -1.1279352717369752e-01 0.0000000000000000e+00  -7.7863586385146588e+00 -6.4986182541054849e-01 0.0000000000000000e+00  -7.4484537762510863e+00 1.0293734119251701e+00 0.0000000000000000e+00  -7.4317643167728002e+00 3.5900039681221174e-01 0.0000000000000000e+00  -6.8937438083607852e+00 2.2396099657025950e+00 0.0000000000000000e+00  -6.9900385929805235e+00 1.4191020347454708e+00 0.0000000000000000e+00  -6.2262305845882935e+00 3.4909767310332840e+00 0.0000000000000000e+00  -6.4489011598857084e+00 2.5043802605190333e+00 0.0000000000000000e+00  -5.4469593182143932e+00 4.7999636580471323e+00 0.0000000000000000e+00  -5.7979379001877547e+00 3.6477214156901563e+00 0.0000000000000000e+00  -4.5885528731397383e+00 6.0874284698940642e+00 0.0000000000000000e+00  -5.0382540399479900e+00 4.8197135532092856e+00 0.0000000000000000e+00  -3.6911611606920927e+00 7.4495029536815371e+00 0.0000000000000000e+00  -4.2036157193705108e+00 6.1257961537262720e+00 0.0000000000000000e+00  -2.7988288788080196e+00 8.5071296777382059e+00 0.0000000000000000e+00  -3.3316945692246911e+00 7.1964453238734940e+00 0.0000000000000000e+00  -1.9811639493354114e+00 9.6335277953614256e+00 0.0000000000000000e+00  -2.4730324458932103e+00 8.4345837358515432e+00 0.0000000000000000e+00  -1.2700754368893206e+00 9.9893436254946746e+00 0.0000000000000000e+00  -1.6874721757557314e+00 8.9608218527697492e+00 0.0000000000000000e+00  -7.2447510638201706e-01 1.0379823789522993e+01 0.0000000000000000e+00  -1.0223096699436971e+00 9.5936503561759086e+00 0.0000000000000000e+00  -3.3372339532377865e-01 9.1997387691834511e+00 0.0000000000000000e+00  -5.1498610046426485e-01 8.6648128746377093e+00 0.0000000000000000e+00  -1.2329024645236000e-01 8.1749130344156917e+00 0.0000000000000000e+00  -1.8545020688581246e-01 7.8944092600435916e+00 0.0000000000000000e+00  -2.2037432025822437e-02 3.9796751865373756e+00 0.0000000000000000e+00  -1.8313489771140678e-02 3.8954647448627213e+00 0.0000000000000000e+00  -1.0696633057845824e-05 -7.3884243023580317e-05 0.0000000000000000e+00  -7.4072235071150278e-04 -8.3733994398624116e-04 0.0000000000000000e+00  8.6580208635660082e-13 3.7037021444829643e-19 0.0000000000000000e+00  1.4486552174539342e+00 -7.1370109483014552e+00 0.0000000000000000e+00  -2.7285911145586692e-02 -9.3294521146155116e+00 0.0000000000000000e+00  -7.0761804449691616e-04 6.6112606364826824e-04 0.0000000000000000e+00  -1.9929297936626675e-01 -1.1843305266913051e+01 0.0000000000000000e+00  1.4503619060285573e+00 -9.4158170908291261e+00 0.0000000000000000e+00  -2.0607900563355880e-01 -1.1108418895543334e+01 0.0000000000000000e+00  -1.6212427057795187e-01 -1.1115862994834378e+01 0.0000000000000000e+00  -8.0988408066504347e-01 -1.1017320498835378e+01 0.0000000000000000e+00  -1.3791024026149667e-01 -1.0138158816913029e+01 0.0000000000000000e+00  -9.9477958977844527e-01 -8.8546346402900653e+00 0.0000000000000000e+00  -7.1588421687369697e-01 -8.5967153109515628e+00 0.0000000000000000e+00  -1.2558488273238857e+00 -7.2032397042178289e+00 0.0000000000000000e+00  -8.7794097189134346e-01 -6.8311319225495266e+00 0.0000000000000000e+00  -1.4041485113253778e+00 -5.3710234368611562e+00 0.0000000000000000e+00  -1.1174959294524065e+00 -5.1640686611926041e+00 0.0000000000000000e+00  -1.5667003805286928e+00 -4.0110764882404064e+00 0.0000000000000000e+00  -1.2476924296362513e+00 -3.7829464385030009e+00 0.0000000000000000e+00  -1.6344132611823974e+00 -2.9195819107809600e+00 0.0000000000000000e+00  -1.3938068819757370e+00 -2.8310632099226241e+00 0.0000000000000000e+00  -1.7533650232313640e+00 -2.3205014899331506e+00 0.0000000000000000e+00  -1.4464210830128899e+00 -2.1541104623091241e+00 0.0000000000000000e+00  -1.9007427354555990e+00 -1.9523369214926163e+00 0.0000000000000000e+00  -1.5521206460715324e+00 -1.7423034802288015e+00 0.0000000000000000e+00  -2.0268978028443110e+00 -1.7839194433011203e+00 0.0000000000000000e+00  -1.6875193451654895e+00 -1.6046337323653783e+00 0.0000000000000000e+00  -2.1230786447018359e+00 -1.7128458823792994e+00 0.0000000000000000e+00  -1.8025768598550427e+00 -1.5774581833076522e+00 0.0000000000000000e+00  -2.1918933377397112e+00 -1.6653571867034715e+00 0.0000000000000000e+00  -1.8889041298787308e+00 -1.5704879285269475e+00 0.0000000000000000e+00  -2.2127062943007134e+00 -1.6216287000629270e+00 0.0000000000000000e+00  -1.9487446965155253e+00 -1.5979548345135144e+00 0.0000000000000000e+00  -2.2099800904939380e+00 -1.5846752841662985e+00 0.0000000000000000e+00  -1.9612060627805308e+00 -1.5956997648663911e+00 0.0000000000000000e+00  -2.1935135816991940e+00 -1.5299775695920488e+00 0.0000000000000000e+00  -1.9508856777819890e+00 -1.5612421346720080e+00 0.0000000000000000e+00  -2.1556283486465384e+00 -1.4611577374304292e+00 0.0000000000000000e+00  -1.9273717396745669e+00 -1.5241160931309938e+00 0.0000000000000000e+00  -2.1087013343524199e+00 -1.3925505241458334e+00 0.0000000000000000e+00  -1.8827815880513592e+00 -1.4687095563102175e+00 0.0000000000000000e+00  -2.0632288019684215e+00 -1.2936319700049155e+00 0.0000000000000000e+00  -1.8295771981904514e+00 -1.3674472687283372e+00 0.0000000000000000e+00  -2.0037633203264611e+00 -1.2095876147841655e+00 0.0000000000000000e+00  -1.7780751527559286e+00 -1.3041471956451434e+00 0.0000000000000000e+00  -1.9422884025051517e+00 -1.0660888221678440e+00 0.0000000000000000e+00  -1.7127824043908184e+00 -1.1635573753532009e+00 0.0000000000000000e+00  -1.8717399875844798e+00 -9.7616714680932359e-01 0.0000000000000000e+00  -1.6455752337440681e+00 -1.0871018898940155e+00 0.0000000000000000e+00  -1.7902126212568579e+00 -7.2557186363279524e-01 0.0000000000000000e+00  -1.5695286209793331e+00 -8.5304896184741130e-01 0.0000000000000000e+00  -1.6837189724574395e+00 -6.7506774699327543e-01 0.0000000000000000e+00  -1.4823003729088360e+00 -8.3970687022492907e-01 0.0000000000000000e+00  -1.5521284584214572e+00 -1.8941279497505267e-01 0.0000000000000000e+00  -1.3705441918565169e+00 -3.9212747428193523e-01 0.0000000000000000e+00  -1.3787010065666379e+00 -2.9528482287987073e-01 0.0000000000000000e+00  -1.2330315202776740e+00 -5.6003800613466981e-01 0.0000000000000000e+00  -1.1019483940711099e+00 6.3754085071964461e-01 0.0000000000000000e+00  -1.0547843893103712e+00 2.1659603815365805e-01 0.0000000000000000e+00  -6.3477642490148201e-01 7.9381454992344957e-01 0.0000000000000000e+00  -7.7121474335389673e-01 8.9321501207475743e-02 0.0000000000000000e+00  4.6804996488152822e-01 2.8943899726409617e-01 0.0000000000000000e+00  -3.0132350471669178e-01 -1.3726925448103979e+00 0.0000000000000000e+00  -3.1271945820325775e+00 -2.0573146974754897e+00 0.0000000000000000e+00  -2.9421485437664994e+00 -2.6052639647765505e+00 0.0000000000000000e+00  -3.2843596717291219e+00 -1.8642619645922303e+00 0.0000000000000000e+00  -3.4803591829504561e+00 -1.9449358007825515e+00 0.0000000000000000e+00  -3.6611067361292058e+00 -1.7374834367799150e+00 0.0000000000000000e+00  -3.7351139678136467e+00 -1.5322446706920319e+00 0.0000000000000000e+00  -3.7075973251067578e+00 -1.0553479741335119e+00 0.0000000000000000e+00  -3.7174591978364893e+00 -6.7782455510357054e-01 0.0000000000000000e+00  -3.6500049405780199e+00 -1.4222353755259340e-01 0.0000000000000000e+00  -3.5221527163206989e+00 4.7058137981742582e-01 0.0000000000000000e+00  -3.6901719508531170e+00 6.9899598683835373e-01 0.0000000000000000e+00  -3.6643758501006238e+00 1.2892244023829227e+00 0.0000000000000000e+00  -6.1569460873230009e+00 -1.8091729627027875e+00 0.0000000000000000e+00  -7.3285402415068610e+00 -2.8588401786489053e+00 0.0000000000000000e+00  -7.6652117901772314e+00 -2.6649066210682770e+00 0.0000000000000000e+00  -7.6623707536080481e+00 -1.9874849529556520e+00 0.0000000000000000e+00  -7.4644258315709600e+00 -1.0626643538308251e+00 0.0000000000000000e+00  -7.1931206200110847e+00 -1.6883192544198841e-01 0.0000000000000000e+00  -6.8465107573540465e+00 7.6319947755025652e-01 0.0000000000000000e+00  -6.4160699292394954e+00 1.7012133849970903e+00 0.0000000000000000e+00  -5.8896459987579179e+00 2.6804967928983920e+00 0.0000000000000000e+00  -5.2563113205573462e+00 3.6943350136407465e+00 0.0000000000000000e+00  -4.5203452307675134e+00 4.8896328366977819e+00 0.0000000000000000e+00  -3.7144663847912742e+00 5.9092467813517349e+00 0.0000000000000000e+00  -2.8785827573341520e+00 7.1699114890272373e+00 0.0000000000000000e+00  -2.0629506840283685e+00 7.8160656011466783e+00 0.0000000000000000e+00  -1.3326988429630064e+00 8.6249265012363239e+00 0.0000000000000000e+00  -7.2675168484779873e-01 7.9583384898174510e+00 0.0000000000000000e+00  -3.0246018611510811e-01 7.4302650399400214e+00 0.0000000000000000e+00  -4.8363248883965045e-02 3.7329468953825793e+00 0.0000000000000000e+00  -2.4887823581857880e-03 -1.5921698003734551e-03 0.0000000000000000e+00  -5.5056894310840813e-02 -9.1720712439399907e+00 0.0000000000000000e+00  -2.4476062424946443e-03 1.2963774533275658e-03 0.0000000000000000e+00  -2.0800978503491094e-01 -1.1643088010305425e+01 0.0000000000000000e+00  1.3189987814912769e+00 -8.7379309026992438e+00 0.0000000000000000e+00  -2.3463709404119196e-01 -1.0201173142935454e+01 0.0000000000000000e+00  -1.6867676428565573e-01 -7.7535367359958620e+00 0.0000000000000000e+00  -7.0969544657993466e-01 -6.6035517290054431e+00 0.0000000000000000e+00  -8.4448872559007238e-01 -4.8227674896832680e+00 0.0000000000000000e+00  -1.0577326149682342e+00 -3.6000281352319954e+00 0.0000000000000000e+00  -1.1672371196219871e+00 -2.6231230769735401e+00 0.0000000000000000e+00  -1.2950716331932051e+00 -2.0856693435188380e+00 0.0000000000000000e+00  -1.3314172984350277e+00 -1.5926104343230880e+00 0.0000000000000000e+00  -1.4228448597449703e+00 -1.4089777261552270e+00 0.0000000000000000e+00  -1.5458880823567567e+00 -1.4122053579865579e+00 0.0000000000000000e+00  -1.6495878905945833e+00 -1.4470737462283207e+00 0.0000000000000000e+00  -1.7261384656395105e+00 -1.5133516805032066e+00 0.0000000000000000e+00  -1.7775532235610476e+00 -1.5818697358484803e+00 0.0000000000000000e+00  -1.7824472075323299e+00 -1.5808480641821798e+00 0.0000000000000000e+00  -1.7655316680314779e+00 -1.5629230317000460e+00 0.0000000000000000e+00  -1.7362413055936774e+00 -1.5389870029633723e+00 0.0000000000000000e+00  -1.6863138979380561e+00 -1.4502794581716862e+00 0.0000000000000000e+00  -1.6282362933628853e+00 -1.3841360402117953e+00 0.0000000000000000e+00  -1.5722109193777631e+00 -1.2642649455385446e+00 0.0000000000000000e+00  -1.5024829139034275e+00 -1.1904935730822992e+00 0.0000000000000000e+00  -1.4309874462121106e+00 -9.6975576350905079e-01 0.0000000000000000e+00  -1.3506261768623447e+00 -9.7306193314285550e-01 0.0000000000000000e+00  -1.2591188529840065e+00 -5.6262088415439693e-01 0.0000000000000000e+00  -1.1428516706999923e+00 -7.6857727054518987e-01 0.0000000000000000e+00  -1.0011253160158591e+00 -5.4122399281874040e-02 0.0000000000000000e+00  -8.1809355780158011e-01 -3.3773594943932245e-01 0.0000000000000000e+00  -5.3046137204136001e-01 -2.0812099049881940e+00 0.0000000000000000e+00  -2.2590529707743361e+00 -1.7814882486590475e+00 0.0000000000000000e+00  -2.0864727765753757e+00 -2.3438638419002098e+00 0.0000000000000000e+00  -2.4411404679833146e+00 -1.6317826891979192e+00 0.0000000000000000e+00  -2.5928420026160741e+00 -1.6550905249098053e+00 0.0000000000000000e+00  -2.7822261096816225e+00 -1.4718897347384656e+00 0.0000000000000000e+00  -2.9543665158941725e+00 -1.4278074665723361e+00 0.0000000000000000e+00  -3.0181868792990949e+00 -1.1038183842180445e+00 0.0000000000000000e+00  -2.9796801360703165e+00 -6.7095116377488861e-01 0.0000000000000000e+00  -2.9777641537643946e+00 -2.5112392180895271e-01 0.0000000000000000e+00  -2.8988466500902592e+00 2.7222974197032573e-01 0.0000000000000000e+00  -2.7616783661069837e+00 9.4630678518670275e-01 0.0000000000000000e+00  -2.9231654950725146e+00 1.2459290055814654e+00 0.0000000000000000e+00  -2.8867476041921112e+00 1.9168697098277747e+00 0.0000000000000000e+00  -5.3575884400017584e+00 -1.1159996322225187e+00 0.0000000000000000e+00  -6.5097476821118505e+00 -2.1654191970247116e+00 0.0000000000000000e+00  -6.8371443576706703e+00 -1.9937649152878609e+00 0.0000000000000000e+00  -6.8307720166591377e+00 -1.3583730200662480e+00 0.0000000000000000e+00  -6.6331494146963532e+00 -5.7183041517869138e-01 0.0000000000000000e+00  -6.3650217325625249e+00 2.4980933768290350e-01 0.0000000000000000e+00  -6.0254378318739601e+00 1.0644849817421849e+00 0.0000000000000000e+00  -5.6052872798560101e+00 1.9036299030268988e+00 0.0000000000000000e+00  -5.0935515281010888e+00 2.7623215110860579e+00 0.0000000000000000e+00  -4.4825767016871483e+00 3.8077036482956359e+00 0.0000000000000000e+00  -3.7757592513725839e+00 4.7330403372020164e+00 0.0000000000000000e+00  -3.0116211473046426e+00 5.9534533598685080e+00 0.0000000000000000e+00  -2.2281855032904625e+00 6.6477821379046240e+00 0.0000000000000000e+00  -1.4860899851224358e+00 7.5865046896134709e+00 0.0000000000000000e+00  -8.4097202988013386e-01 7.1433556401958835e+00 0.0000000000000000e+00  -3.5763892590934765e-01 6.8652167509138531e+00 0.0000000000000000e+00  -5.5373303061723403e-02 3.5149891749790045e+00 0.0000000000000000e+00  -5.2170367836063989e-03 -2.2756825002898471e-03 0.0000000000000000e+00  -6.4344566405802994e-02 -8.9266320650293700e+00 0.0000000000000000e+00  -5.1801332902790985e-03 1.8527835287744734e-03 0.0000000000000000e+00  -3.4697228948353948e-01 -1.1368805179516492e+01 0.0000000000000000e+00  -5.0414199517544989e-01 -1.1092220451330856e+01 0.0000000000000000e+00  1.1109083036370062e+00 -7.9451645601205394e+00 0.0000000000000000e+00  -3.4891010598007621e-01 -7.9010300459377074e+00 0.0000000000000000e+00  -2.1746949642702201e-01 -5.8369655177112056e+00 0.0000000000000000e+00  -7.0594269657354491e-01 -4.6510753166269172e+00 0.0000000000000000e+00  -8.0007789755484238e-01 -3.3089801695487275e+00 0.0000000000000000e+00  -9.7809757420453436e-01 -2.4818112078650008e+00 0.0000000000000000e+00  -1.0593392721534187e+00 -1.9140567561481492e+00 0.0000000000000000e+00  -1.1619587800173365e+00 -1.5552775738885525e+00 0.0000000000000000e+00  -1.1767325749238708e+00 -1.2874467995017056e+00 0.0000000000000000e+00  -1.2491745211526921e+00 -1.2410962601048767e+00 0.0000000000000000e+00  -1.3552152735555443e+00 -1.3035704853786449e+00 0.0000000000000000e+00  -1.4439896684363782e+00 -1.4090281688138901e+00 0.0000000000000000e+00  -1.5078699482258380e+00 -1.5136520341099289e+00 0.0000000000000000e+00  -1.5483908577373307e+00 -1.5811406649584192e+00 0.0000000000000000e+00  -1.5440871661835969e+00 -1.5949523548638305e+00 0.0000000000000000e+00  -1.5194148411289030e+00 -1.5886018025512252e+00 0.0000000000000000e+00  -1.4834035560095780e+00 -1.5302410695657485e+00 0.0000000000000000e+00  -1.4275460100455464e+00 -1.4758774364116358e+00 0.0000000000000000e+00  -1.3641475927285094e+00 -1.3526309081409591e+00 0.0000000000000000e+00  -1.3030413804343390e+00 -1.2992154192544385e+00 0.0000000000000000e+00  -1.2284091889552822e+00 -1.0812516139668680e+00 0.0000000000000000e+00  -1.1518960664701492e+00 -1.0976744798408595e+00 0.0000000000000000e+00  -1.0665487581168793e+00 -7.0445114234390838e-01 0.0000000000000000e+00  -9.6957448626307052e-01 -9.4699405230351474e-01 0.0000000000000000e+00  -8.4826005361798928e-01 -2.7194392421862484e-01 0.0000000000000000e+00  -7.0035719447081979e-01 -6.1562122309732104e-01 0.0000000000000000e+00  -5.1339201744877483e-01 -2.5183638552120429e+00 0.0000000000000000e+00  -1.6225682082435966e+00 -1.5250252572324992e+00 0.0000000000000000e+00  -1.4532977971408330e+00 -2.0864957028628726e+00 0.0000000000000000e+00  -1.7912358534039974e+00 -1.3631824824078178e+00 0.0000000000000000e+00  -1.9658875394311583e+00 -1.4339669198297447e+00 0.0000000000000000e+00  -2.1079536812575603e+00 -1.1959349991837078e+00 0.0000000000000000e+00  -2.2849890919287015e+00 -1.1794860615682150e+00 0.0000000000000000e+00  -2.4423943326994504e+00 -1.0199167462012555e+00 0.0000000000000000e+00  -2.4890073846416971e+00 -7.4166369725970616e-01 0.0000000000000000e+00  -2.4316228927526691e+00 -2.6752798398705135e-01 0.0000000000000000e+00  -2.4105782857698981e+00 1.4071396836301883e-01 0.0000000000000000e+00  -2.3141887189202648e+00 7.3031309223068741e-01 0.0000000000000000e+00  -2.1627221090517659e+00 1.4794309500922529e+00 0.0000000000000000e+00  -2.3113603108671783e+00 1.8486175679069392e+00 0.0000000000000000e+00  -2.2510551089303568e+00 2.5634790576030286e+00 0.0000000000000000e+00  -4.6812019493991155e+00 -4.6434008740965593e-01 0.0000000000000000e+00  -5.7988622019139893e+00 -1.5175153160814112e+00 0.0000000000000000e+00  -6.1063548082335171e+00 -1.3777397342095721e+00 0.0000000000000000e+00  -6.0867076325193574e+00 -8.7378193782805957e-01 0.0000000000000000e+00  -5.8812273008583373e+00 -1.5702735843849816e-01 0.0000000000000000e+00  -5.6067704766313993e+00 5.5318382495778573e-01 0.0000000000000000e+00  -5.2632779942305126e+00 1.2729550494592929e+00 0.0000000000000000e+00  -4.8425029351991578e+00 1.9976520924898362e+00 0.0000000000000000e+00  -4.3349526943833565e+00 2.8984468507078653e+00 0.0000000000000000e+00  -3.7345157948350054e+00 3.6894102049213364e+00 0.0000000000000000e+00  -3.0517066056857685e+00 4.8291180232369211e+00 0.0000000000000000e+00  -2.3230377238231767e+00 5.5159901288676840e+00 0.0000000000000000e+00  -1.6012855524963618e+00 6.5204155024895050e+00 0.0000000000000000e+00  -9.3732674425196461e-01 6.2676962057340209e+00 0.0000000000000000e+00  -4.1975986755303479e-01 6.2143117657984561e+00 0.0000000000000000e+00  -7.2964025464460527e-02 3.2484976318272696e+0