<?xml version="1.0"?>
<VTKFile type="UnstructuredGrid"  version="0.1"  >
<UnstructuredGrid>
<Piece  NumberOfPoints="1933" NumberOfCells="3640">
<Points>
<DataArray  type="Float64"  NumberOfComponents="3"  format="ascii">0.4754588078077955 0.0002587051230252275 0  5.475458826788974 0.0002388502503847219 0  5.475488636586425 7.500238914515723 0  0.4754885969657651 7.50025873331371 0  10.47545884964062 0.0002189340293708513 0  10.47548871024406 7.500219011404674 0  15.47545890904839 0.0001989224630428645 0  15.47548883660662 7.500199003954863 0  20.47545904188621 0.0001788098395547023 0  20.47548903420526 7.500178892057098 0  25.47545928330098 0.0001586075533359179 0  25.47548932165927 7.500158689535622 0  30.47545966519498 0.0001383378405862951 0  30.47548971724412 7.500138419711126 0  35.4754602164321 0.0001180302548436346 0  35.47549023857604 7.500118112622181 0  40.47546096366297 9.771982888891629e-05 0  40.4754909025084 7.500097803519983 0  45.4754619323106 7.744634001321561e-05 0  45.47549172517587 7.50007753228915 0  50.47546314753833 5.725434712140439e-05 0  50.47549272210242 7.500057343558933 0  55.47546463513898 3.719382158007441e-05 0  55.47549390829926 7.500037287369343 0  60.47546642233372 1.732129626354152e-05 0  60.47549529829158 7.500017420335634 0  65.47546853848273 -2.298466367350958e-06 0  65.47549690601241 7.499997807319887 0  70.4754710157041 -2.159022003210326e-05 0  70.47549874449493 7.499978523677821 0  75.47547388938509 -4.046525841646645e-05 0  75.47550082527107 7.49995965821077 0  80.47547719853381 -5.881749762442514e-05 0  80.47550315734523 7.49994131702747 0  85.47548098587015 -7.651828466025698e-05 0  85.47550574555358 7.499923628615639 0  90.47548529744964 -9.340943544895557e-05 0  90.47550858803086 7.499906750553033 0  95.47549018144626 -0.0001092937601285216 0  95.47551167238461 7.499890878463716 0  100.4754956853819 -0.0001239219575380569 0  100.4755149700175 7.499876258059241 0  105.4755018504812 -0.0001369741816599956 0  105.4755184278567 7.499863201397678 0  110.4755087006521 -0.0001480336923765863 0  110.47552195661 7.499852108803505 0  115.4755162213414 -0.0001565486568454189 0  115.4755254147847 7.499843498075385 0  120.4755243191602 -0.0001617762159791658 0  120.4755285885834 7.499838042249582 0  125.4755327447042 -0.000162700371991113 0  125.4755311707237 7.499836615257145 0  130.4755409444494 -0.0001579128347987717 0  130.4755327491741 7.499840338954258 0  135.4755477750441 -0.0001454475175623034 0  135.475532836574 7.499850610409509 0  140.4755509480642 -0.0001225818201879307 0  140.4755310184451 7.499869057863915 0  145.4755459356608 -8.573928315123662e-05 0  145.4755274120418 7.499897333193936 0  150.4755237360708 -3.124024679066397e-05 0  150.4755239199284 7.499936736718522 0  160.4755282581475 1.262684079204831e-18 0  165.4754618599069 -9.607033727629559e-05 0  165.4755163134021 7.499888663607984 0  160.4755350001497 7.499963365514244 0  170.4754271538916 -0.0001753589102380082 0  170.4754971865022 7.499817043560208 0  175.4754090794319 -0.0002428233411342222 0  175.4754817083252 7.499753035926267 0  180.4754000806181 -0.0003012270080814031 0  180.4754702550545 7.499696405874533 0  185.4753961546647 -0.0003526072634712044 0  185.4754622161137 7.499645996748701 0  190.4753951088505 -0.000398527199115107 0  190.4754568222151 7.499600629027741 0  195.4753957091749 -0.0004401759464538832 0  195.4754533920932 7.499559303638891 0  200.4753972430543 -0.0004784524276793453 0  200.4754513858658 7.499521221888176 0  205.4753992882634 -0.0005140374376305283 0  205.4754503956119 7.499485757557157 0  210.4754015882504 -0.0005474507795320445 0  210.4754501197437 7.499452421212458 0  215.47540398348 -0.0005790940872660098 0  215.4754503372541 7.499420828457928 0  220.4754063727909 -0.0006092820003669038 0  220.4754508865204 7.499390674646687 0  225.4754086911172 -0.0006382646029459801 0  225.4754516491723 7.499361715624326 0  230.4754108963095 -0.0006662435708987035 0  230.4754525382658 7.499333753325657 0  235.4754129611347 -0.0006933838704415257 0  235.4754534897621 7.499306625045744 0  240.4754148682907 -0.0007198223280600245 0  240.4754544564318 7.499280195418383 0  245.4754166072425 -0.0007456739943871795 0  245.4754554034997 7.499254350369143 0  250.4754181721792 -0.0007710369400133314 0  250.4754563055331 7.499228992507631 0  255.4754195607072 -0.0007959959229417082 0  255.4754571442242 7.499204037575844 0  260.4754207730311 -0.0008206252297572246 0  260.4754579068078 7.499179411681959 0  265.4754218115052 -0.0008449908952004581 0  265.4754585849531 7.499155049132511 0  270.4754226804587 -0.0008691524321386163 0  270.4754591740045 7.499130890740243 0  275.4754233862855 -0.0008931641432690401 0  275.475459672474 7.499106882539 0  280.4754239377643 -0.0009170760251153913 0  280.4754600817303 7.499082974888872 0  285.4754243466393 -0.0009409341994732019 0  285.4754604058095 7.499059122013416 0  290.475424628434 -0.0009647806954303608 0  290.4754606512913 7.499035282084955 0  295.4754248034681 -0.0009886522194066218 0  295.4754608271837 7.499011418072949 0  300.4754248978616 -0.001012577224830231 0  300.4754609447788 7.498987499699924 0  305.475424943939 -0.001036570010853922 0  305.4754610176027 7.498963507000414 0  310.4754249784981 -0.001060619580840021 0  310.4754610620628 7.498939436128286 0  5.475518246651314 15.00023906512397 0  0.4755182027098384 15.00025880432778 0  10.47551832210821 15.00021918813673 0  15.47551844547343 15.00019918335576 0  20.47551862805598 15.00017906541554 0  25.47551887916101 15.00015885506729 0  30.47551920726189 15.000138578708 0  35.47551962030149 15.00011826759627 0  40.47552012563845 15.00009795733065 0  45.47552072985474 15.00007768774515 0  50.47552143849627 15.00005750323703 0  55.47552225574974 15.00003745351309 0  60.47552318402752 15.00001759475438 0  65.47552422341708 14.99999799122747 0  70.47552537093752 14.99997871740501 0  75.47552661953969 14.99995986069821 0  80.47552795677313 14.99994152494739 0  85.47552936304486 14.9999238348645 0  90.4755308094049 14.99990694166905 0  95.47553225484874 14.99989103019152 0  100.4755336432512 14.99987632770218 0  105.4755349003417 14.99986311458225 0  110.4755359316975 14.99985173652585 0  115.4755366238319 14.99984261691663 0  120.4755368524045 14.99983626571522 0  125.4755365048451 14.99983327638029 0  130.4755355296098 14.99983429271905 0  135.4755340303593 14.99983990885701 0  140.4755324267324 14.99985042935395 0  145.4755316892403 14.9998653412641 0  150.4755335724089 14.9998821475858 0  165.4755443756922 14.99984740784928 0  160.4755469435764 14.99989881579904 0  170.4755375924319 14.99979234803723 0  175.4755292734474 14.99973835081671 0  180.4755211856078 14.99968757977193 0  185.4755141383874 14.99964060120496 0  190.4755083769067 14.99959726567867 0  195.475503867677 14.99955716470497 0  200.4755004607524 14.9995198356774 0  205.4754979726634 14.99948484442653 0  210.4754962250646 14.99945181232697 0  215.475495060284 14.9994204197813 0  220.4754943455363 14.99939040066673 0  225.4754939720098 14.99936153417447 0  230.4754938519705 14.99933363669224 0  235.4754939153921 14.99930655467454 0  240.4754941067668 14.99928015871051 0  245.4754943823442 14.99925433871026 0  250.4754947078508 14.9992290000405 0  255.4754950566525 14.99920406043117 0  260.4754954082968 14.99917944749986 0  265.475495747365 14.99915509677138 0  270.475496062571 14.99913095010458 0  275.4754963460452 14.99910695446856 0  280.4754965927574 14.99908306103893 0  285.4754968000482 14.99905922460949 0  290.4754969672388 14.99903540332758 0  295.4754970953719 14.99901155874621 0  300.4754971871812 14.99898765609282 0  305.4754972475881 14.99896366435999 0  310.475497285272 14.99893955501349 0  5.47554763898437 22.50023937345205 0  0.4755475956455035 22.50025903983562 0  10.47554770229577 22.50021951829359 0  15.47554779757285 22.50019950920363 0  20.47554793156287 22.5001793761403 0  25.47554810800224 22.50015914842216 0  30.4755483289337 22.50013885680425 0  35.47554859529779 22.50011853445017 0  40.47554890706348 22.50009821748257 0  45.475549263087 22.50007794547919 0  50.47554966081081 22.50005776209857 0  55.47555009585245 22.50003771592736 0  60.47555056150161 22.50001786160454 0  65.47555104812609 22.49999826126716 0  70.47555154247965 22.49997898636487 0  75.47555202691697 22.49996011989702 0  80.47555247853579 22.4999417591279 0  85.47555286831424 22.49992401882345 0  90.47555316038459 22.49990703501172 0  95.47555331171654 22.49989096916864 0  100.4755532726947 22.49987601251953 0  105.4755529894103 22.49986238973742 0  110.4755524089788 22.49985036055556 0  115.4755514898703 22.49984021645092 0  120.4755502200125 22.49983226722076 0  125.4755486460272 22.49982680846168 0  130.4755469165253 22.49982405515678 0  135.475545338977 22.49982401880231 0  140.475544439237 22.49982629811192 0  145.4755449879314 22.49982975719614 0  150.4755479084128 22.4998321250708 0  165.4755641243427 22.49980138865225 0  160.4755593540472 22.4998381330411 0  170.4755648908821 22.49975946249031 0  175.4755628808804 22.49971564446792 0  180.4755593390306 22.49967212593496 0  185.4755552132853 22.49963011128027 0  190.4755511051218 22.49959011679407 0  195.4755473437076 22.49955225570825 0  200.4755440766445 22.49951643362773 0  205.4755413421666 22.49948246439092 0  210.4755391183785 22.49945013290436 0  215.4755373541101 22.49941922655928 0  220.4755359870875 22.49938954924557 0  225.4755349539988 22.49936092622649 0  230.4755341956335 22.49933320449424 0  235.475533659157 22.49930625108674 0  240.4755332987912 22.49927995064743 0  245.4755330756587 22.49925420285733 0  250.4755329572258 22.49922892002499 0  255.4755329165955 22.49920402494492 0  260.4755329317647 22.49917944905063 0  265.4755329849248 22.49915513085054 0  270.4755330618156 22.4991310146219 0  275.4755331511523 22.49910704933424 0  280.4755332441165 22.49908318777216 0  285.4755333339222 22.49905938581795 0  290.4755334154762 22.49903560182523 0  295.4755334851
[...]
<PointData  Vectors="v"> 
<DataArray  type="Float64"  Name="v"  NumberOfComponents="3" format="ascii">3.3600380572659758e+00 6.6674614871575439e+00 0.0000000000000000e+00  3.8275334597813253e+00 6.0404704447706408e+00 0.0000000000000000e+00  3.3157658753867705e+00 5.3394926133995293e+00 0.0000000000000000e+00  2.9519350101380297e+00 6.1215353074231329e+00 0.0000000000000000e+00  4.3707254296811158e+00 6.3035464127397027e+00 0.0000000000000000e+00  3.7827975092470605e+00 5.4894785241020152e+00 0.0000000000000000e+00  4.8035519584966941e+00 6.8725844812944210e+00 0.0000000000000000e+00  4.3249338114278855e+00 6.2245828090846249e+00 0.0000000000000000e+00  5.1261257129015299e+00 6.7461081802329437e+00 0.0000000000000000e+00  4.7560932513109666e+00 6.2639120747993084e+00 0.0000000000000000e+00  5.5568351834350604e+00 7.1002019022142751e+00 0.0000000000000000e+00  5.0764187716112597e+00 6.4561968780193499e+00 0.0000000000000000e+00  5.8516856563257287e+00 6.9876784698017556e+00 0.0000000000000000e+00  5.5044612254976402e+00 6.5478791078582681e+00 0.0000000000000000e+00  5.8242555739868065e+00 6.4633424418874839e+00 0.0000000000000000e+00  5.7961479947161010e+00 6.5071769989302997e+00 0.0000000000000000e+00  6.5997424201973969e+00 7.0262430288303106e+00 0.0000000000000000e+00  5.7652262638277705e+00 5.8659666469634244e+00 0.0000000000000000e+00  4.6655482238390222e+00 3.5493850050394506e+00 0.0000000000000000e+00  6.5370014888453678e+00 6.4539157777618499e+00 0.0000000000000000e+00  1.3082837696619697e+01 1.5384721779815013e+01 0.0000000000000000e+00  4.5989156281825920e+00 2.7618600622462992e+00 0.0000000000000000e+00  1.3612557257197176e+01 1.5034837853201694e+01 0.0000000000000000e+00  1.3011734702567995e+01 1.4244041591660615e+01 0.0000000000000000e+00  1.3867366094780131e+01 1.4129098848160124e+01 0.0000000000000000e+00  1.3536955487491122e+01 1.3750240828970668e+01 0.0000000000000000e+00  1.4190940187072151e+01 1.3272422702940492e+01 0.0000000000000000e+00  1.3787516708192127e+01 1.2790523941027217e+01 0.0000000000000000e+00  1.4643327640330991e+01 1.2631147450310909e+01 0.0000000000000000e+00  1.4106746274535986e+01 1.1955887125697281e+01 0.0000000000000000e+00  1.5239896550548364e+01 1.2201804130875232e+01 0.0000000000000000e+00  1.4554958382734062e+01 1.1310445007622230e+01 0.0000000000000000e+00  1.5921605954472385e+01 1.1865510872321146e+01 0.0000000000000000e+00  1.5147208473869970e+01 1.0846016047773375e+01 0.0000000000000000e+00  1.6625438417559593e+01 1.1707861091755216e+01 0.0000000000000000e+00  1.5824727809306433e+01 1.0654927257695144e+01 0.0000000000000000e+00  1.7288637692554836e+01 1.1416657502672283e+01 0.0000000000000000e+00  1.6524985093060327e+01 1.0424278944518285e+01 0.0000000000000000e+00  1.7856537834581985e+01 1.1029183686479575e+01 0.0000000000000000e+00  1.7184921177920533e+01 1.0178707473273102e+01 0.0000000000000000e+00  1.8290498034469305e+01 1.0435380128321208e+01 0.0000000000000000e+00  1.7750574442875340e+01 9.7850757981936312e+00 0.0000000000000000e+00  1.8576422335559741e+01 9.6615106027516848e+00 0.0000000000000000e+00  1.8183393127101812e+01 9.2318497265718236e+00 0.0000000000000000e+00  1.8717030845545654e+01 8.3693345917681654e+00 0.0000000000000000e+00  1.8469884544869451e+01 8.1564111189707695e+00 0.0000000000000000e+00  1.8731120146734469e+01 7.2715131489955400e+00 0.0000000000000000e+00  1.8612118064730510e+01 7.2459318066484029e+00 0.0000000000000000e+00  1.8658209855938104e+01 5.2486935214624904e+00 0.0000000000000000e+00  1.8631407590464111e+01 5.3530550534673784e+00 0.0000000000000000e+00  1.8531602767609730e+01 3.9967096325510831e+00 0.0000000000000000e+00  1.8563812110551236e+01 4.1769282209657828e+00 0.0000000000000000e+00  1.8399316195440445e+01 1.4818614729799191e+00 0.0000000000000000e+00  1.8448722064610688e+01 1.6720033313321729e+00 0.0000000000000000e+00  1.8281982827925269e+01 5.6765789699578406e-01 0.0000000000000000e+00  1.8326047592284848e+01 7.2713749211389755e-01 0.0000000000000000e+00  1.8210703115704270e+01 -1.8180719077673171e+00 0.0000000000000000e+00  1.8228396373122834e+01 -1.7225526208609294e+00 0.0000000000000000e+00  1.8172538294644127e+01 -1.6692968971134470e+00 0.0000000000000000e+00  1.8171210129909806e+01 -1.6371577514632989e+00 0.0000000000000000e+00  1.8163563197056462e+01 6.6989534594059786e-11 0.0000000000000000e+00  1.8164429344719665e+01 8.6011204168284631e-04 0.0000000000000000e+00  1.8163563200136092e+01 -4.5347894881556104e-19 0.0000000000000000e+00  1.1542775138077314e+01 8.3118071916282749e-03 0.0000000000000000e+00  1.8177148540339676e+01 9.9356863495647438e+00 0.0000000000000000e+00  1.8164421974349214e+01 -8.7385347416928767e-04 0.0000000000000000e+00  1.2947618166269189e+01 -9.4286752899878989e-01 0.0000000000000000e+00  1.1559097543111514e+01 -3.0473783756200188e+00 0.0000000000000000e+00  1.1085653094582689e+01 -5.9965981169019411e+00 0.0000000000000000e+00  1.2965238003846562e+01 -3.2116212541486178e+00 0.0000000000000000e+00  1.0978919991515360e+01 -6.9629577420955338e+00 0.0000000000000000e+00  1.1107763202624678e+01 -6.8079383468173660e+00 0.0000000000000000e+00  1.0055013078253793e+01 -1.0016131661807275e+01 0.0000000000000000e+00  1.1008281024472454e+01 -8.6385970027192993e+00 0.0000000000000000e+00  9.4677506609844144e+00 -1.1167876472142460e+01 0.0000000000000000e+00  1.0093122070741336e+01 -1.0295756738755827e+01 0.0000000000000000e+00  8.7593422269243817e+00 -1.2349158302935226e+01 0.0000000000000000e+00  9.5156031436913668e+00 -1.1297009869363656e+01 0.0000000000000000e+00  8.1704888520429293e+00 -1.2539517810299055e+01 0.0000000000000000e+00  8.8185424061630524e+00 -1.1666905856424190e+01 0.0000000000000000e+00  7.3918377393541324e+00 -1.2492620627692608e+01 0.0000000000000000e+00  8.2418337104308801e+00 -1.1336522425383620e+01 0.0000000000000000e+00  6.8748578010033441e+00 -1.1725261127092764e+01 0.0000000000000000e+00  7.4760414054081199e+00 -1.0962169415350012e+01 0.0000000000000000e+00  6.4817610912641994e+00 -1.0806885539906210e+01 0.0000000000000000e+00  6.9727756380553894e+00 -1.0230111305690942e+01 0.0000000000000000e+00  6.0331888282043185e+00 -9.8651858229577289e+00 0.0000000000000000e+00  6.5939473204327710e+00 -9.2057025905344432e+00 0.0000000000000000e+00  5.5939596057174361e+00 -8.9212255910077705e+00 0.0000000000000000e+00  6.1600630945460706e+00 -8.2761790486139724e+00 0.0000000000000000e+00  5.1680827159217513e+00 -8.0760413421210515e+00 0.0000000000000000e+00  5.7360349958484056e+00 -7.4512325370604282e+00 0.0000000000000000e+00  4.7201907601381512e+00 -7.3028797669462069e+00 0.0000000000000000e+00  5.3256755573159946e+00 -6.6453324382775891e+00 0.0000000000000000e+00  4.2993223482072853e+00 -6.5592661743293776e+00 0.0000000000000000e+00  4.8934970848507877e+00 -5.9424254242956360e+00 0.0000000000000000e+00  3.9163199725083717e+00 -5.8898459074967571e+00 0.0000000000000000e+00  4.4885702701389567e+00 -5.3298564641260713e+00 0.0000000000000000e+00  3.5432627492273334e+00 -5.2599386657144764e+00 0.0000000000000000e+00  4.1215928884025201e+00 -4.7149541701181130e+00 0.0000000000000000e+00  3.2034515932863243e+00 -4.6458496755343202e+00 0.0000000000000000e+00  3.7645986071489452e+00 -4.1507228954028852e+00 0.0000000000000000e+00  2.9089451660212435e+00 -4.0906633079741672e+00 0.0000000000000000e+00  3.4408273060047794e+00 -3.6634777391723512e+00 0.0000000000000000e+00  2.6279103598905955e+00 -3.5223529521412047e+00 0.0000000000000000e+00  3.1623738033839839e+00 -3.1152485516198927e+00 0.0000000000000000e+00  2.3791325622420438e+00 -3.0335039549316849e+00 0.0000000000000000e+00  2.8971701964254222e+00 -2.6748190734885275e+00 0.0000000000000000e+00  2.1579814926876022e+00 -2.5004094047959642e+00 0.0000000000000000e+00  2.6643141019441110e+00 -2.1828251573837845e+00 0.0000000000000000e+00  1.9513323407322527e+00 -2.1519004437243154e+00 0.0000000000000000e+00  2.4585853684964731e+00 -1.8563138447065399e+00 0.0000000000000000e+00  1.7505642567016872e+00 -1.6032253102927434e+00 0.0000000000000000e+00  2.2678009536098185e+00 -1.3156708043657110e+00 0.0000000000000000e+00  1.5511009019703683e+00 -1.5712662682069261e+00 0.0000000000000000e+00  2.0816810551946965e+00 -1.2866269117878641e+00 0.0000000000000000e+00  1.3348858552836107e+00 -9.1896416980596929e-01 0.0000000000000000e+00  1.8984131517496825e+00 -6.0719710527046455e-01 0.0000000000000000e+00  1.0167864029316840e+00 -1.4605217283138576e+00 0.0000000000000000e+00  1.6953320503609230e+00 -9.9889219309464017e-01 0.0000000000000000e+00  5.0497999170665897e-01 -1.2334539622507543e+00 0.0000000000000000e+00  1.3953812764799780e+00 -4.7568281761591763e-01 0.0000000000000000e+00  -6.9790945773299484e-01 -1.8339409321862735e-01 0.0000000000000000e+00  8.9083892694265077e-01 1.6002421489583227e+00 0.0000000000000000e+00  3.0457652824285177e+00 4.7940038395282283e+00 0.0000000000000000e+00  2.6384951335241595e+00 5.5101954537359594e+00 0.0000000000000000e+00  3.4088836787419634e+00 4.7898330694758817e+00 0.0000000000000000e+00  3.8740075842105273e+00 5.4129636578593683e+00 0.0000000000000000e+00  4.4130407651810568e+00 5.6195028310325856e+00 0.0000000000000000e+00  4.8398542883814493e+00 5.9788522032367197e+00 0.0000000000000000e+00  5.1545414944225225e+00 5.9095528173879792e+00 0.0000000000000000e+00  5.5758490702006593e+00 6.0739931624825676e+00 0.0000000000000000e+00  5.8598745015294869e+00 5.9172922265391632e+00 0.0000000000000000e+00  5.8205162732454090e+00 5.3012163269186656e+00 0.0000000000000000e+00  6.5839215864135090e+00 5.6737074509730450e+00 0.0000000000000000e+00  4.6373352061896966e+00 1.6309137892229313e+00 0.0000000000000000e+00  1.3038969732819483e+01 1.2969275992421348e+01 0.0000000000000000e+00  1.3553282371274097e+01 1.2419966536072723e+01 0.0000000000000000e+00  1.3794673541834353e+01 1.1482881112306563e+01 0.0000000000000000e+00  1.4104291035106652e+01 1.0643573833161124e+01 0.0000000000000000e+00  1.4542754890742859e+01 9.9638131052474179e+00 0.0000000000000000e+00  1.5124377803514305e+01 9.6453665710603413e+00 0.0000000000000000e+00  1.5790489728731446e+01 9.3804966462523112e+00 0.0000000000000000e+00  1.6479168718768562e+01 9.1955468275495100e+00 0.0000000000000000e+00  1.7127524737835973e+01 8.9435647308357265e+00 0.0000000000000000e+00  1.7681773447195432e+01 8.5882320713521683e+00 0.0000000000000000e+00  1.8104764439587257e+01 7.7320056372108370e+00 0.0000000000000000e+00  1.8382912735376845e+01 7.0359990755694612e+00 0.0000000000000000e+00  1.8519679309293092e+01 5.3262527588033981e+00 0.0000000000000000e+00  1.8536761229065668e+01 4.2761712940073204e+00 0.0000000000000000e+00  1.8472669648108869e+01 1.8429716621575072e+00 0.0000000000000000e+00  1.8364609592016567e+01 8.9865914484024023e-01 0.0000000000000000e+00  1.8260534104561753e+01 -1.5814761447586299e+00 0.0000000000000000e+00  1.8182348819520964e+01 -1.5810221976422882e+00 0.0000000000000000e+00  1.8166525150469354e+01 1.6410108423537285e-03 0.0000000000000000e+00  1.8181392901837093e+01 9.8769205464917089e+00 0.0000000000000000e+00  1.8166511483987730e+01 -1.7683839188248601e-03 0.0000000000000000e+00  1.8237894267401554e+01 6.8784961259031263e+00 0.0000000000000000e+00  1.1610499743907301e+01 -5.3122859578932706e+00 0.0000000000000000e+00  1.3007756724231516e+01 -4.0209989298545734e+00 0.0000000000000000e+00  1.1150738263474564e+01 -8.4909828655445594e+00 0.0000000000000000e+00  1.1054992059865551e+01 -8.9276499010447932e+00 0.0000000000000000e+00  1.0147415006130295e+01 -1.0434674069360398e+01 0.0000000000000000e+00  9.5779782922175780e+00 -1.0627463098263675e+01 0.0000000000000000e+00  8.8910735804227485e+00 -1.0477824539526949e+01 0.0000000000000000e+00  8.3252110812837561e+00 -9.8200992467642525e+00 0.0000000000000000e+00  7.5709353518695774e+00 -9.4824818670272357e+00 0.0000000000000000e+00  7.0799280543754168e+00 -8.6451869294172052e+00 0.0000000000000000e+00  6.7140342009214322e+00 -7.6331434264736266e+00 0.0000000000000000e+00  6.2934868825560857e+00 -6.8235028776349216e+00 0.0000000000000000e+00  5.8834232503477812e+00 -6.0384046145172654e+00 0.0000000000000000e+00  5.4874826671013359e+00 -5.3028408852711975e+00 0.0000000000000000e+00  5.0699544392668061e+00 -4.7313574327514356e+00 0.0000000000000000e+00  4.6799005675897236e+00 -4.1734871315286233e+00 0.0000000000000000e+00  4.3279012721298269e+00 -3.6241268749399786e+00 0.0000000000000000e+00  3.9857944586305702e+00 -3.1867422383347734e+00 0.0000000000000000e+00  3.6768306528964239e+00 -2.7063461337697530e+00 0.0000000000000000e+00  3.4129664334991006e+00 -2.2857060385710959e+00 0.0000000000000000e+00  3.1621139368392659e+00 -1.8419072078310759e+00 0.0000000000000000e+00  2.9432115825842091e+00 -1.5561723502437577e+00 0.0000000000000000e+00  2.7512199333371488e+00 -1.0372159009458344e+00 0.0000000000000000e+00  2.5735137151340290e+00 -1.0158052486517819e+00 0.0000000000000000e+00  2.4005346365105193e+00 -3.3884715136920368e-01 0.0000000000000000e+00  2.2291464663162057e+00 -7.0330250607875100e-01 0.0000000000000000e+00  2.0389519452380549e+00 -3.0333766553325748e-02 0.0000000000000000e+00  1.7497657888987166e+00 2.3472989135511764e+00 0.0000000000000000e+00  2.9500014244423576e+00 4.1836647826022464e+00 0.0000000000000000e+00  2.5787103487639884e+00 4.9526042820478828e+00 0.0000000000000000e+00  3.3561980656481913e+00 4.2466360549630267e+00 0.0000000000000000e+00  3.7167278814159492e+00 4.7180409189601615e+00 0.0000000000000000e+00  4.1774349789362581e+00 4.8154583477164614e+00 0.0000000000000000e+00  4.7095824259090460e+00 5.3448495889098950e+00 0.0000000000000000e+00  5.1270287258458884e+00 5.4454805595396500e+00 0.0000000000000000e+00  5.4299395431671975e+00 5.4517102187780431e+00 0.0000000000000000e+00  5.8371222112492260e+00 5.5022413235437675e+00 0.0000000000000000e+00  6.1052902236453042e+00 5.3720048985979538e+00 0.0000000000000000e+00  6.0494368677719876e+00 4.5401783440524426e+00 0.0000000000000000e+00  6.7969615146921605e+00 4.5625049569197884e+00 0.0000000000000000e+00  4.8327734318927957e+00 3.8205531779762186e-01 0.0000000000000000e+00  1.3212085495926839e+01 1.1664306374760299e+01 0.0000000000000000e+00  1.3705716251039103e+01 1.1132916664405613e+01 0.0000000000000000e+00  1.3930073323180938e+01 1.0191714306561991e+01 0.0000000000000000e+00  1.4222235215604568e+01 9.3195107233253580e+00 0.0000000000000000e+00  1.4641458170709956e+01 8.7877902179873839e+00 0.0000000000000000e+00  1.5201338300983091e+01 8.3976617761930168e+00 0.0000000000000000e+00  1.5843543250505881e+01 8.1802591152559909e+00 0.0000000000000000e+00  1.6506085020901779e+01 7.9894034446240845e+00 0.0000000000000000e+00  1.7126921951406416e+01 7.7751766090200052e+00 0.0000000000000000e+00  1.7653769559487021e+01 7.1156575678068315e+00 0.0000000000000000e+00  1.8049802522492300e+01 6.6339503973194338e+00 0.0000000000000000e+00  1.8304417790301613e+01 5.1346691178756716e+00 0.0000000000000000e+00  1.8421421332140124e+01 4.2569757863573052e+00 0.0000000000000000e+00  1.8427596760719730e+01 1.9429462953960592e+00 0.0000000000000000e+00  1.8359896901020313e+01 1.0482770233954892e+00 0.0000000000000000e+00  1.8266803017155961e+01 -1.4345719440256224e+00 0.0000000000000000e+00  1.8185124132063013e+01 -1.5126630989184915e+00 0.0000000000000000e+00  1.8169797036155920e+01 2.3476913345937414e-03 0.0000000000000000e+00  1.8175875630155204e+01 9.8247280166323225e+00 0.0000000000000000e+00  1.8169784463283971e+01 -2.5586298608704311e-03 0.0000000000000000e+00  1.8231519869871587e+01 6.7845629065167365e+00 0.0000000000000000e+00  1.8284626568689671e+01 4.6426851451567162e+00 0.0000000000000000e+00  1.1638461699353245e+01 -6.1049912055704381e+00 0.0000000000000000e+00  1.3022540534636283e+01 -5.7068069411095461e+00 0.0000000000000000e+00  1.1167751494721180e+01 -8.7884123533668141e+00 0.0000000000000000e+00  1.1080294595305961e+01 -9.0830533207501674e+00 0.0000000000000000e+00  1.0185064864787458e+01 -9.7832825359420017e+00 0.0000000000000000e+00  9.6293140861137108e+00 -9.4591517136567642e+00 0.0000000000000000e+00  8.9577195962762524e+00 -8.9835258835812777e+00 0.0000000000000000e+00  8.4074911203790883e+00 -8.3640215400329190e+00 0.0000000000000000e+00  7.6697310210410610e+00 -7.9220534812851824e+00 0.0000000000000000e+00  7.1958966653175915e+00 -7.0983977254635393e+00 0.0000000000000000e+00  6.8477929727932283e+00 -6.2073007362807129e+00 0.0000000000000000e+00  6.4458543454379384e+00 -5.4385402962398333e+00 0.0000000000000000e+00  6.0552632244160476e+00 -4.7247343379478872e+00 0.0000000000000000e+00  5.6794017532577428e+00 -4.1212135922767743e+00 0.0000000000000000e+00  5.2824138044101403e+00 -3.6047468290402120e+00 0.0000000000000000e+00  4.9131612853809914e+00 -3.1125441206586069e+00 0.0000000000000000e+00  4.5819366826747858e+00 -2.6899252750196365e+00 0.0000000000000000e+00  4.2604521013976617e+00 -2.2589549022980084e+00 0.0000000000000000e+00  3.9717218705061881e+00 -1.9057729949352822e+00 0.0000000000000000e+00  3.7276718669570674e+00 -1.4808745393682092e+00 0.0000000000000000e+00  3.4958407340810549e+00 -1.2428912636931508e+00 0.0000000000000000e+00  3.2955154587369719e+00 -7.6321847856956848e-01 0.0000000000000000e+00  3.1208568717801728e+00 -7.6358908155173455e-01 0.0000000000000000e+00  2.9603826395411739e+00 -9.1430402016227194e-02 0.0000000000000000e+00  2.8024204910212256e+00 -4.6070007219653530e-01 0.0000000000000000e+00  2.6479892914017693e+00 2.4596005242544888e-01 0.0000000000000000e+00  2.4683003561684811e+00 2.7659672033088616e+00 0.0000000000000000e+00  3.1251975913098011e+00 3.6274170445613967e+00 0.0000000000000000e+00  2.7795103039202744e+00 4.4331843893452305e+00 0.0000000000000000e+00  3.4953135773414918e+00 3.6388812836766182e+00 0.0000000000000000e+00  3.8989642551763799e+00 4.1799359895357675e+00 0.0000000000000000e+00  4.2553025286165003e+00 4.1287898475909497e+00 0.0000000000000000e+00  4.7091850147015784e+00 4.5532388948237408e+00 0.0000000000000000e+00  5.2313528148928645e+00 4.8284766106235573e+00 0.0000000000000000e+00  5.6352110219482228e+00 5.0089740022265641e+00 0.0000000000000000e+00  5.9210370538675985e+00 4.9053704354398224e+00 0.0000000000000000e+00  6.3082044802722166e+00 4.9852937286609400e+00 0.0000000000000000e+00  6.5546996915715248e+00 4.6394644215044121e+00 0.0000000000000000e+00  6.4772426011024669e+00 3.4562904767807994e+00 0.0000000000000000e+00  7.2040389793665884e+00 3.3446733078873621e+00 0.0000000000000000e+00  5.2157934008477014e+00 -8.8387929769043916e-01 0.0000000000000000e+00  1.3565583890964700e+01 1.0412334940433084e+01 0.0000000000000000e+00  1.4034051534011326e+01 9.8697565096055140e+00 0.0000000000000000e+00  1.4238462242509765e+01 8.8965662833709143e+00 0.0000000000000000e+00  1.4509238070326589e+01 8.1761669590515478e+00 0.0000000000000000e+00  1.4903758393332913e+01 7.5788543921690348e+00 0.0000000000000000e+00  1.5433468607074813e+01 7.2411300097855023e+00 0.0000000000000000e+00  1.6040394021659232e+01 7.0234129652861217e+00 0.0000000000000000e+00  1.6662877385432399e+01 6.8743587625724736e+00 0.0000000000000000e+00  1.7239829882958496e+01 6.3577119972562981e+00 0.0000000000000000e+00  1.7720275916000951e+01 6.0718098468216057e+00 0.0000000000000000e+00  1.8070793411991772e+01 4.7844954651418892e+00 0.0000000000000000e+00  1.8281648490481530e+01 4.1063100135211084e+00 0.0000000000000000e+00  1.8363926523309502e+01 1.9557574413899583e+00 0.0000000000000000e+00  1.8343877617772357e+01 1.1527672766144648e+00 0.0000000000000000e+00  1.8273488789584196e+01 -1.2926336459701382e+00 0.0000000000000000e+00  1.8191997107277210e+01 -1.4372444271556861e+00 0.0000000000000000e+00  1.8174118385980492e+01 2.9769704158085731e-03 0.0000000000000000e+00  1.8176364844827177e+01 9.8044109041413510e+00 0.0000000000000000e+00  1.8174106389418537e+01 -3.2573786591518195e-03 0.0000000000000000e+00  1.8190005961077453e+01 6.7022964431659346e+00 0.0000000000000000e+00  1.8236017497199231e+01 4.5673277