<?xml version="1.0"?>
<VTKFile type="UnstructuredGrid"  version="0.1"  >
<UnstructuredGrid>
<Piece  NumberOfPoints="1933" NumberOfCells="3640">
<Points>
<DataArray  type="Float64"  NumberOfComponents="3"  format="ascii">0.2940435321397087 -0.001864388440926624 0  5.294043592653308 -0.001828579471229191 0  5.293989887931876 7.498171577601266 0  0.293989795239674 7.498135714875294 0  10.29404368688765 -0.001792897155732138 0  10.29399004627927 7.498207273824113 0  15.29404388234909 -0.001757362345380537 0  15.29399030030307 7.498242808950961 0  20.29404424330758 -0.00172194670791408 0  20.29399067697116 7.498278220920735 0  25.29404482390884 -0.001686594689208085 0  25.29399120042172 7.498313568924986 0  30.29404566783042 -0.001651234563597674 0  30.29399189116241 7.498348926003923 0  35.29404680992548 -0.001615783862518242 0  35.29399276547826 7.498384375010763 0  40.2940482781884 -0.001580151619660057 0  40.2939938351067 7.498420006933351 0  45.29405009546529 -0.001544238675386348 0  45.29399510701164 7.498455920823513 0  50.29405228073818 -0.001507936685627373 0  50.29399658307239 7.498492224879057 0  55.29405484995556 -0.001471126144974144 0  55.29399825953967 7.498529038446066 0  60.29405781640513 -0.001433673525182788 0  60.29400012611835 7.498566494870259 0  65.29406119061245 -0.001395427482063314 0  65.29400216452595 7.498604745251834 0  70.29406497968759 -0.001356213956606014 0  70.29400434634135 7.4986439632694 0  75.29406918597262 -0.001315829862167185 0  75.29400662988768 7.498684351355194 0  80.29407380470769 -0.001274034882822012 0  80.29400895578397 7.498726148642614 0  85.2940788202415 -0.001230540678628724 0  85.29401124065809 7.498769641283296 0  90.29408419995949 -0.001184996461042273 0  90.29401336829177 7.498815175961591 0  95.29408988452518 -0.001136969408099036 0  95.29401517719371 7.49886317772626 0  100.2940957719644 -0.001085917651379436 0  100.2940164432839 7.498914173599379 0  105.2941016912329 -0.001031152474366071 0  105.2940168560665 7.498968823733865 0  110.2941073573746 -0.0009717847906005173 0  110.2940159866844 7.499027961929898 0  115.2941122938625 -0.000906648859833782 0  115.2940132472179 7.499092646463924 0  120.2941156954115 -0.0008341938173384755 0  120.2940078441101 7.499164218920669 0  125.2941161813457 -0.0007523323452752512 0  125.293998738382 7.499244359632574 0  130.2941113455435 -0.0006582408032679068 0  130.2939846494336 7.499335106082657 0  135.2940969249683 -0.0005481336735702069 0  135.2939641954696 7.499438750962235 0  140.2940652462419 -0.0004171491795145648 0  140.2939363906982 7.499557439043921 0  145.2940022794675 -0.0002599304097180592 0  145.2939020074641 7.49969215132769 0  150.2938818571996 -7.439656955945152e-05 0  150.2938670087597 7.49984096489053 0  160.2938926261446 8.712232773188333e-19 0  165.2938150349543 -0.0001521379172284902 0  165.293880752049 7.499818712850967 0  160.2938963098028 7.499932342272073 0  170.2937895348198 -0.0002586662330680025 0  170.2938646643189 7.499726933917673 0  175.2937886901582 -0.0003331310460788124 0  175.2938542882003 7.499659266769651 0  180.2937992593331 -0.0003838960679597314 0  180.2938497951118 7.499611959925639 0  185.2938146578838 -0.0004169134288274808 0  185.2938498719276 7.499580791418646 0  190.293831590879 -0.0004365276909582888 0  190.2938530921384 7.499562195180494 0  195.2938484284204 -0.0004459197437370823 0  195.2938582880587 7.499553376609969 0  200.2938643929546 -0.0004474284561449445 0  200.2938645994013 7.499552197853413 0  205.2938791450013 -0.0004427884360279869 0  205.2938714262818 7.499557031667653 0  210.2938925694631 -0.0004333015102670199 0  210.2938783652372 7.499566634668557 0  215.2939046644322 -0.0004199581414631916 0  215.2938851529964 7.499580048783814 0  220.2939154829454 -0.0004035227830455891 0  220.2938916233778 7.499596527863392 0  225.2939251023845 -0.0003845939864015342 0  225.293897676224 7.499615483925965 0  230.2939336084681 -0.000363647057887962 0  230.2939032557396 7.499636447919618 0  235.2939410870339 -0.0003410646822974359 0  235.2939083356645 7.499659040963326 0  240.293947620034 -0.0003171592068449614 0  240.2939129092505 7.499682953097987 0  245.2939532838456 -0.0002921890881790084 0  245.293916982558 7.499707927426574 0  250.2939581488745 -0.0002663711972217681 0  250.2939205700337 7.499733748151435 0  255.2939622799138 -0.0002398901315995921 0  255.2939236916634 7.499760231468744 0  260.2939657369678 -0.0002129053135000444 0  260.2939263712092 7.499787218601305 0  265.2939685764122 -0.0001855563891370324 0  265.293928635205 7.49981457048462 0  270.2939708524207 -0.0001579672498484239 0  270.2939305124878 7.499842163799079 0  275.2939726186601 -0.000130248830234998 0  275.293932034079 7.499869888189111 0  280.293973930259 -0.0001025006754199816 0  280.2939332332874 7.499897644649029 0  285.2939748460432 -7.481107490827027e-05 0  285.2939341459013 7.499925345204653 0  290.2939754309155 -4.725529209994228e-05 0  290.2939348103154 7.499952914194751 0  295.2939757580726 -1.989101783847805e-05 0  295.2939352674881 7.499980291666617 0  300.2939759101506 7.250427212956295e-06 0  300.293935560686 7.500007439639037 0  305.2939759772462 3.417943084787893e-05 0  305.2939357354253 7.500034352223876 0  310.2939760470312 6.097275935408337e-05 0  310.2939358412259 7.500061070923428 0  5.293935842663213 14.99817191641 0  0.2939357474815023 14.9981359635554 0  10.29393598313192 14.99820761926647 0  15.29393619050898 14.99824313062553 0  20.29393647635608 14.99827851136576 0  25.29393684752793 14.99831382971861 0  30.2939373077799 14.99834916157706 0  35.29393785782406 14.99838458998108 0  40.29393849479114 14.99842020499773 0  45.29393921144791 14.99845610429454 0  50.29393999525248 14.99849239443023 0  55.29394082721573 14.99852919284139 0  60.29394168049118 14.99856663053553 0  65.29394251859284 14.99860485555425 0  70.29394329312585 14.99864403733025 0  75.29394394090984 14.99868437212462 0  80.29394438037598 14.99872608979101 0  85.29394450715515 14.99876946216228 0  90.29394418886942 14.99881481337068 0  95.29394325937729 14.99886253233614 0  100.2939415131879 14.99891308737457 0  105.2939387017283 14.99896704214652 0  110.2939345348873 14.99902507051796 0  115.2939286944208 14.9990879644386 0  120.2939208710679 14.99915662200007 0  125.2939108454942 14.99923198948962 0  130.2938986444712 14.99931490663468 0  135.2938848149884 14.99940576090538 0  140.293870857163 14.9995037839218 0  145.2938597999654 14.99960569786563 0  150.2938566640478 14.99970311955006 0  165.293893932162 14.9997378681333 0  160.2938919304324 14.99979611652766 0  170.2938881026594 14.99968103597222 0  175.2938799302364 14.99963342833312 0  180.2938724632451 14.99959740664151 0  185.2938668908468 14.99957258885203 0  190.2938634193484 14.99955759149528 0  195.2938618224987 14.99955083151016 0  200.2938617295822 14.99955084177738 0  205.2938627604401 14.99955636821468 0  210.2938645802838 14.99956637687206 0  215.2938669154993 14.99958002857828 0  220.29386955211 14.99959664562035 0  225.2938723276975 14.99961568003065 0  230.2938751218203 14.99963668656538 0  235.2938778470996 14.99965930078878 0  240.2938804416918 14.99968322170662 0  245.2938828632651 14.9997081981433 0  250.2938850843304 14.99973401809216 0  255.2938870886848 14.99976050039419 0  260.2938888687524 14.99978748824506 0  265.2938904235917 14.99981484415979 0  270.2938917574242 14.99984244613949 0  275.2938928785155 14.99987018487972 0  280.2938937983243 14.99989796194357 0  285.293894530847 14.99992568888656 0  290.2938950921521 14.99995328735493 0  295.2938955002719 14.99998069013791 0  300.2938957757973 15.00000784295016 0  305.2938959440316 15.00003470613389 0  310.2938960402315 15.00006125401864 0  5.293881554171681 22.49817254715527 0  0.2938814638878668 22.49813657013752 0  10.29388166231275 22.49820821293707 0  15.29388179890135 22.49824366060208 0  20.29388196655086 22.49827897115801 0  25.29388216276363 22.49831422239249 0  30.29388238153441 22.4983494934323 0  35.2938826138251 22.4983848670801 0  40.29388284733362 22.49842043129917 0  45.29388306586435 22.49845628055662 0  50.29388324847192 22.49849251736128 0  55.29388336844916 22.49852925415495 0  60.29388339218911 22.49856661564014 0  65.29388327793235 22.49860474160564 0  70.29388297442732 22.49864379030008 0  75.2938824195783 22.49868394239405 0  80.29388153923639 22.49872540553031 0  85.29388024643944 22.49876841937378 0  90.29387844164388 22.49881326088189 0  95.29387601488132 22.49886024914815 0  100.2938728513627 22.49890974848789 0  105.2938688429338 22.49896216721515 0  110.2938639090023 22.49901794744408 0  115.2938580320558 22.49907753771283 0  120.2938513143249 22.49914133458598 0  125.2938440624823 22.49920957097819 0  130.293836903989 22.49928211784396 0  135.293830926605 22.49935815503084 0  140.2938278020346 22.49943566786776 0  145.2938297910268 22.49951077392337 0  150.2938394179797 22.49957709294945 0  165.2938786097077 22.49964620465364 0  160.29387010914 22.49966780449483 0  170.2938798452123 22.4996190969565 0  175.2938765174037 22.49959297113435 0  180.2938710575987 22.49957148681488 0  185.2938651359917 22.49955618356102 0  190.2938597014205 22.49954731334646 0  195.293855191192 22.4995444715225 0  200.2938517299369 22.49954698181695 0  205.2938492723171 22.49955410327508 0  210.2938476932343 22.4995651296727 0  215.29384684019 22.4995794299484 0  220.2938465613018 22.49959645859817 0  225.2938467187235 22.49961575203116 0  230.2938471938122 22.49963691926736 0  235.293847887908 22.49965963112705 0  240.2938487209822 22.49968360982066 0  245.2938496294117 22.49970861969771 0  250.2938505635339 22.49973445936173 0  255.2938514853236 22.49976095510639 0  260.2938523663003 22.49978795553735 0  265.2938531857309 22.4998153272218 0  270.2938539290956 22.4998429512213 0  275.2938545868044 22.49987072038215 0  280.2938551531565 22.4998985372703 0  285.2938556255497 22.49992631262212 0  290.2938560040344 22.49995396411608 0  295.2938562913905 22.499981415102
[...]
<PointData  Vectors="v"> 
<DataArray  type="Float64"  Name="v"  NumberOfComponents="3" format="ascii">1.0979675870843590e+00 7.6633030247893492e+00 0.0000000000000000e+00  1.6554598548074710e+00 7.1801202040210423e+00 0.0000000000000000e+00  1.5250255639624692e+00 6.3441550095137984e+00 0.0000000000000000e+00  1.0950228025629052e+00 7.0185841947793612e+00 0.0000000000000000e+00  2.3498472523998135e+00 7.7615208126175075e+00 0.0000000000000000e+00  2.0820868077832184e+00 6.7209106436464676e+00 0.0000000000000000e+00  2.9715586471022375e+00 8.7827263555518300e+00 0.0000000000000000e+00  2.7752274685849696e+00 7.8516943364453953e+00 0.0000000000000000e+00  3.5156386770059731e+00 9.0961817623422121e+00 0.0000000000000000e+00  3.3949511555201588e+00 8.2823645562558745e+00 0.0000000000000000e+00  4.1974242912850919e+00 9.9702925175326538e+00 0.0000000000000000e+00  3.9362507089793013e+00 8.9506162083257141e+00 0.0000000000000000e+00  4.7369193817973505e+00 1.0325112053800591e+01 0.0000000000000000e+00  4.6143355953613305e+00 9.5194971900421415e+00 0.0000000000000000e+00  4.8158824090066394e+00 1.0061390668318868e+01 0.0000000000000000e+00  5.1493041616911386e+00 9.9473568368298864e+00 0.0000000000000000e+00  5.9001182088438453e+00 1.1157892306604213e+01 0.0000000000000000e+00  5.2229906871943248e+00 9.5366268191826951e+00 0.0000000000000000e+00  2.7954396315023193e+00 5.9952274752830332e+00 0.0000000000000000e+00  6.3010077382029444e+00 1.0658094171180171e+01 0.0000000000000000e+00  1.3914081869908937e+01 2.1875548569126842e+01 0.0000000000000000e+00  3.1893766859222668e+00 5.2035297428867322e+00 0.0000000000000000e+00  1.3594596783230735e+01 2.0102273480685270e+01 0.0000000000000000e+00  1.4300566673051744e+01 2.0588748622088371e+01 0.0000000000000000e+00  1.3671970632814249e+01 1.8783368862179728e+01 0.0000000000000000e+00  1.3972551404680379e+01 1.8675543965237534e+01 0.0000000000000000e+00  1.4203192009154147e+01 1.8116710149912709e+01 0.0000000000000000e+00  1.4040099747895267e+01 1.7329433813199167e+01 0.0000000000000000e+00  1.5143421926029125e+01 1.8084255299650405e+01 0.0000000000000000e+00  1.4560126558010673e+01 1.6684814944771372e+01 0.0000000000000000e+00  1.6393652217173123e+01 1.8475887349707669e+01 0.0000000000000000e+00  1.5487316770140669e+01 1.6612480779138750e+01 0.0000000000000000e+00  1.7860252131974409e+01 1.9084595399904149e+01 0.0000000000000000e+00  1.6723030145544143e+01 1.6898063818108842e+01 0.0000000000000000e+00  1.9452639552425595e+01 1.9971616896122654e+01 0.0000000000000000e+00  1.8173780988010780e+01 1.7597655510574665e+01 0.0000000000000000e+00  2.1080361426586261e+01 2.0710627409007895e+01 0.0000000000000000e+00  1.9748465708674864e+01 1.8284489821906927e+01 0.0000000000000000e+00  2.2666701303427736e+01 2.1335033569441883e+01 0.0000000000000000e+00  2.1357334225301411e+01 1.8972392534362715e+01 0.0000000000000000e+00  2.4148087933308261e+01 2.1683209652738494e+01 0.0000000000000000e+00  2.2923488009602575e+01 1.9478798980207355e+01 0.0000000000000000e+00  2.5469090927981867e+01 2.1718564285863376e+01 0.0000000000000000e+00  2.4383439287491143e+01 1.9755682355794434e+01 0.0000000000000000e+00  2.6593962142696732e+01 2.0989860965695584e+01 0.0000000000000000e+00  2.5681594330039655e+01 1.9321675109550736e+01 0.0000000000000000e+00  2.7509056609168784e+01 2.0271296470123705e+01 0.0000000000000000e+00  2.6783618885887638e+01 1.8919269149268601e+01 0.0000000000000000e+00  2.8208724599538549e+01 1.8124744849956073e+01 0.0000000000000000e+00  2.7673467137971627e+01 1.7094724049068777e+01 0.0000000000000000e+00  2.8714915790165822e+01 1.6455076073253590e+01 0.0000000000000000e+00  2.8349620388151852e+01 1.5718241236510510e+01 0.0000000000000000e+00  2.9046439363046844e+01 1.2776653975618631e+01 0.0000000000000000e+00  2.8828539587043604e+01 1.2298251722291235e+01 0.0000000000000000e+00  2.9247279245645206e+01 1.0117688370078602e+01 0.0000000000000000e+00  2.9137327383216135e+01 9.8409593896442153e+00 0.0000000000000000e+00  2.9342332619073183e+01 5.2338629686173936e+00 0.0000000000000000e+00  2.9308822900295628e+01 5.1080821573059110e+00 0.0000000000000000e+00  2.9381790880162598e+01 1.2788721545689923e+00 0.0000000000000000e+00  2.9383384592512765e+01 1.2468087554261185e+00 0.0000000000000000e+00  2.9389262608394080e+01 -5.2919086179255028e-09 0.0000000000000000e+00  2.9389916189759230e+01 6.8474353793260029e-04 0.0000000000000000e+00  2.9389262614660122e+01 -4.7419386628916885e-19 0.0000000000000000e+00  2.0125337410319098e+01 -7.1260102616987284e+00 0.0000000000000000e+00  2.9383852571811744e+01 6.7441256425806548e+00 0.0000000000000000e+00  2.9389904727928652e+01 -6.5390314092448655e-04 0.0000000000000000e+00  2.0750334472419397e+01 -1.3369799553652605e+01 0.0000000000000000e+00  2.0153326467694239e+01 -1.4347312154362340e+01 0.0000000000000000e+00  1.7730972072993850e+01 -2.0808642041959381e+01 0.0000000000000000e+00  2.0815900839861669e+01 -1.6310154622892011e+01 0.0000000000000000e+00  1.6954341077047168e+01 -2.2281036954175455e+01 0.0000000000000000e+00  1.7834817667560550e+01 -2.1150861267025526e+01 0.0000000000000000e+00  1.5274664728291681e+01 -2.5057630097902081e+01 0.0000000000000000e+00  1.7095754361777196e+01 -2.2571007938816695e+01 0.0000000000000000e+00  1.4063382200117159e+01 -2.5269778094951214e+01 0.0000000000000000e+00  1.5453072420346535e+01 -2.3486546777696677e+01 0.0000000000000000e+00  1.2768936067562768e+01 -2.5348691297273632e+01 0.0000000000000000e+00  1.4279071022284064e+01 -2.3439447239394053e+01 0.0000000000000000e+00  1.1653642643425892e+01 -2.4296813207315257e+01 0.0000000000000000e+00  1.3021087595378770e+01 -2.2656836984532056e+01 0.0000000000000000e+00  1.0326135518029488e+01 -2.3129487550658318e+01 0.0000000000000000e+00  1.1941881136766895e+01 -2.1170501915448384e+01 0.0000000000000000e+00  9.3707173663741727e+00 -2.1288948359963328e+01 0.0000000000000000e+00  1.0650278965633012e+01 -1.9887896239527787e+01 0.0000000000000000e+00  8.5872977099495493e+00 -1.9435004066140610e+01 0.0000000000000000e+00  9.7303042606555508e+00 -1.8291743647981033e+01 0.0000000000000000e+00  7.7353410153634226e+00 -1.7743095315624380e+01 0.0000000000000000e+00  8.9819502435550369e+00 -1.6496756846126246e+01 0.0000000000000000e+00  6.9284901383510684e+00 -1.6144848175731063e+01 0.0000000000000000e+00  8.1648571281986033e+00 -1.4965787007622758e+01 0.0000000000000000e+00  6.1706032371312025e+00 -1.4730002110198294e+01 0.0000000000000000e+00  7.3924563891997872e+00 -1.3624192738586862e+01 0.0000000000000000e+00  5.4251051939488892e+00 -1.3435452949373826e+01 0.0000000000000000e+00  6.6686511050156927e+00 -1.2347877808029752e+01 0.0000000000000000e+00  4.7468676942500974e+00 -1.2195492891561415e+01 0.0000000000000000e+00  5.9569292805696588e+00 -1.1208474770069426e+01 0.0000000000000000e+00  4.1436313488024119e+00 -1.1057821011033285e+01 0.0000000000000000e+00  5.3120799305314392e+00 -1.0183017882249503e+01 0.0000000000000000e+00  3.5779057276907724e+00 -9.9699664513893147e+00 0.0000000000000000e+00  4.7418190794208810e+00 -9.1511356656551950e+00 0.0000000000000000e+00  3.0750091009964193e+00 -8.9079206136203766e+00 0.0000000000000000e+00  4.2087878617966252e+00 -8.1829527421714356e+00 0.0000000000000000e+00  2.6439525174206882e+00 -7.9108566069163126e+00 0.0000000000000000e+00  3.7381209844262422e+00 -7.2934606340230603e+00 0.0000000000000000e+00  2.2486826307612175e+00 -6.9074381580711481e+00 0.0000000000000000e+00  3.3390665637719339e+00 -6.3432728099599611e+00 0.0000000000000000e+00  1.9076091574167351e+00 -5.9731297170643076e+00 0.0000000000000000e+00  2.9752384079370846e+00 -5.4902083189841058e+00 0.0000000000000000e+00  1.6202964947414262e+00 -5.0208060926034763e+00 0.0000000000000000e+00  2.6656575950386134e+00 -4.6178328145762144e+00 0.0000000000000000e+00  1.3674273651137623e+00 -4.2064626172860065e+00 0.0000000000000000e+00  2.4087961219800929e+00 -3.8556234871102091e+00 0.0000000000000000e+00  1.1490241206849650e+00 -3.2683509058953542e+00 0.0000000000000000e+00  2.1872953275139277e+00 -2.9676467108594506e+00 0.0000000000000000e+00  9.5782985031549572e-01 -2.7311217112258075e+00 0.0000000000000000e+00  1.9978564443129143e+00 -2.4732080073436231e+00 0.0000000000000000e+00  7.8135268484168952e-01 -1.7817004062289956e+00 0.0000000000000000e+00  1.8387851639922581e+00 -1.5419122536725671e+00 0.0000000000000000e+00  5.4332708675277619e-01 -1.7252968580667203e+00 0.0000000000000000e+00  1.6883813420920422e+00 -1.3991780914650194e+00 0.0000000000000000e+00  1.8236472111221361e-01 -1.2017471073710271e+00 0.0000000000000000e+00  1.4865324465435097e+00 -6.8011482995012051e-01 0.0000000000000000e+00  -6.6119967415801573e-01 -7.4068601344692703e-03 0.0000000000000000e+00  1.1400346327852346e+00 1.2165608268393540e+00 0.0000000000000000e+00  1.8025637425775827e+00 5.6987946597178718e+00 0.0000000000000000e+00  1.3286950049206225e+00 6.3087577497965475e+00 0.0000000000000000e+00  2.2328860106000357e+00 5.8853937791231798e+00 0.0000000000000000e+00  2.7894185293465887e+00 6.8128193559535388e+00 0.0000000000000000e+00  3.4808111014238228e+00 7.3544245468589926e+00 0.0000000000000000e+00  4.0973552661319559e+00 8.1410798627227887e+00 0.0000000000000000e+00  4.6340243617021484e+00 8.5058151960804338e+00 0.0000000000000000e+00  5.3058409032143770e+00 9.1494262392957406e+00 0.0000000000000000e+00  5.8327807874529496e+00 9.4313723979173378e+00 0.0000000000000000e+00  5.8969680510858895e+00 9.0473709353756639e+00 0.0000000000000000e+00  6.9639908921040865e+00 9.8782773208877170e+00 0.0000000000000000e+00  3.8406150499607925e+00 3.9278356088681323e+00 0.0000000000000000e+00  1.4941083507299608e+01 1.9174040435781556e+01 0.0000000000000000e+00  1.4601918043642952e+01 1.7235996280912602e+01 0.0000000000000000e+00  1.4655850231801871e+01 1.5913775146872620e+01 0.0000000000000000e+00  1.5159603345454418e+01 1.5233121804431361e+01 0.0000000000000000e+00  1.6066898197544859e+01 1.5057961679655442e+01 0.0000000000000000e+00  1.7279188608468672e+01 1.5436438277329575e+01 0.0000000000000000e+00  1.8703497116717660e+01 1.5939810399106467e+01 0.0000000000000000e+00  2.0248161221818577e+01 1.6578515160655702e+01 0.0000000000000000e+00  2.1823578085101893e+01 1.7150041170384895e+01 0.0000000000000000e+00  2.3353648114946765e+01 1.7588959452090275e+01 0.0000000000000000e+00  2.4773981543681881e+01 1.7398852833861614e+01 0.0000000000000000e+00  2.6029872037271595e+01 1.7292436411292385e+01 0.0000000000000000e+00  2.7087020715815374e+01 1.5786735501621063e+01 0.0000000000000000e+00  2.7930257969069459e+01 1.4734127823093488e+01 0.0000000000000000e+00  2.8556786783733131e+01 1.1606238792306035e+01 0.0000000000000000e+00  2.8987855527695856e+01 9.4121140835292216e+00 0.0000000000000000e+00  2.9243721144914073e+01 4.8723158894384762e+00 0.0000000000000000e+00  2.9371273400945217e+01 1.1752298747419236e+00 0.0000000000000000e+00  2.9391483866214600e+01 1.3052586513914602e-03 0.0000000000000000e+00  2.9362810264256634e+01 6.8064993413787400e+00 0.0000000000000000e+00  2.9391462829981638e+01 -1.2860044526904330e-03 0.0000000000000000e+00  2.9301237857634320e+01 -5.1433465282323176e-01 0.0000000000000000e+00  2.0104984340873887e+01 -1.7330985301627408e+01 0.0000000000000000e+00  2.0812033419694437e+01 -1.6704750764788280e+01 0.0000000000000000e+00  1.7873444398713207e+01 -2.1488796224314171e+01 0.0000000000000000e+00  1.7177380437027534e+01 -2.1045519432563445e+01 0.0000000000000000e+00  1.5574233726235883e+01 -2.1702855532698486e+01 0.0000000000000000e+00  1.4439620882942558e+01 -2.0792189784518612e+01 0.0000000000000000e+00  1.3218763444324006e+01 -1.9573230838461960e+01 0.0000000000000000e+00  1.2175388361149293e+01 -1.7971686918639666e+01 0.0000000000000000e+00  1.0918692321380817e+01 -1.6932408377590761e+01 0.0000000000000000e+00  1.0032825964854895e+01 -1.5394180818706259e+01 0.0000000000000000e+00  9.3177576590103754e+00 -1.3760093957074067e+01 0.0000000000000000e+00  8.5336039571624767e+00 -1.2485123906496900e+01 0.0000000000000000e+00  7.7935760503419065e+00 -1.1281266011815967e+01 0.0000000000000000e+00  7.1015278101571848e+00 -1.0159807232406225e+01 0.0000000000000000e+00  6.4210791830915879e+00 -9.2342579899592554e+00 0.0000000000000000e+00  5.8068902167635290e+00 -8.3138440033516865e+00 0.0000000000000000e+00  5.2666410893577673e+00 -7.4011933922393212e+00 0.0000000000000000e+00  4.7630359650610492e+00 -6.6049227330966795e+00 0.0000000000000000e+00  4.3212008030589830e+00 -5.7616322015792392e+00 0.0000000000000000e+00  3.9502756114393485e+00 -4.9613006359819245e+00 0.0000000000000000e+00  3.6141027001528800e+00 -4.1695810356094212e+00 0.0000000000000000e+00  3.3313876637202302e+00 -3.4866442189510036e+00 0.0000000000000000e+00  3.1010664246103485e+00 -2.6504041708812069e+00 0.0000000000000000e+00  2.9050067695780557e+00 -2.2054313857804808e+00 0.0000000000000000e+00  2.7413379010521544e+00 -1.3161789295477337e+00 0.0000000000000000e+00  2.6057049106309833e+00 -1.1915297317145412e+00 0.0000000000000000e+00  2.4809319674613839e+00 -3.8645006087621264e-01 0.0000000000000000e+00  2.3005543600439786e+00 1.7168328979571974e+00 0.0000000000000000e+00  2.5157039777784975e+00 4.9871792134374733e+00 0.0000000000000000e+00  2.0875909143587155e+00 5.6680737172753863e+00 0.0000000000000000e+00  2.9907874786034867e+00 5.2390434487289106e+00 0.0000000000000000e+00  3.4223799389837266e+00 5.9783338535552550e+00 0.0000000000000000e+00  3.9783847959231369e+00 6.3190972021715863e+00 0.0000000000000000e+00  4.6672392591638312e+00 7.2197472081652476e+00 0.0000000000000000e+00  5.2788145939717790e+00 7.7064950468632256e+00 0.0000000000000000e+00  5.8074170835844976e+00 8.1494396472522848e+00 0.0000000000000000e+00  6.4681562545501858e+00 8.6510240400777896e+00 0.0000000000000000e+00  6.9808994952236070e+00 8.9635452601827250e+00 0.0000000000000000e+00  7.0277141041266669e+00 8.2917521004534098e+00 0.0000000000000000e+00  8.0755766328617433e+00 8.6273634676337636e+00 0.0000000000000000e+00  4.9343413017052340e+00 2.5349047548697166e+00 0.0000000000000000e+00  1.6020413128700742e+01 1.7755824943661235e+01 0.0000000000000000e+00  1.5667212804266057e+01 1.5847002797038556e+01 0.0000000000000000e+00  1.5702854941071465e+01 1.4495822852623370e+01 0.0000000000000000e+00  1.6181893767984953e+01 1.3719902497558566e+01 0.0000000000000000e+00  1.7057730498957284e+01 1.3645995309481322e+01 0.0000000000000000e+00  1.8231661461573871e+01 1.3836287575161823e+01 0.0000000000000000e+00  1.9610259065496614e+01 1.4299125114533405e+01 0.0000000000000000e+00  2.1102339333626766e+01 1.4829396146302459e+01 0.0000000000000000e+00  2.2618537685311388e+01 1.5341465964013507e+01 0.0000000000000000e+00  2.4081911804208378e+01 1.5319713933007693e+01 0.0000000000000000e+00  2.5429470635350459e+01 1.5465756832533328e+01 0.0000000000000000e+00  2.6605547926854321e+01 1.4260342110814785e+01 0.0000000000000000e+00  2.7578261754940556e+01 1.3534845775009334e+01 0.0000000000000000e+00  2.8330325536182674e+01 1.0729644922923386e+01 0.0000000000000000e+00  2.8865871917734346e+01 8.8392960260397082e+00 0.0000000000000000e+00  2.9198553308060177e+01 4.5450511760614463e+00 0.0000000000000000e+00  2.9368628072353715e+01 1.0679723490037676e+00 0.0000000000000000e+00  2.9393932709060568e+01 1.8678227068768503e-03 0.0000000000000000e+00  2.9344486466015930e+01 6.9676292011953471e+00 0.0000000000000000e+00  2.9393913973246050e+01 -1.8402629973122164e-03 0.0000000000000000e+00  2.9151839633721458e+01 -3.9194936360326998e-01 0.0000000000000000e+00  2.9080550510017915e+01 -3.5778866916314631e+00 0.0000000000000000e+00  1.9941982145197276e+01 -1.7820532007661960e+01 0.0000000000000000e+00  2.0721528374091790e+01 -1.7131630816796797e+01 0.0000000000000000e+00  1.7852029334325081e+01 -2.0053460667057866e+01 0.0000000000000000e+00  1.7221927746901521e+01 -1.9344396194641959e+01 0.0000000000000000e+00  1.5679420092753213e+01 -1.9135232929033869e+01 0.0000000000000000e+00  1.4602178775847696e+01 -1.7783801424059245e+01 0.0000000000000000e+00  1.3434360604822878e+01 -1.6446545355177548e+01 0.0000000000000000e+00  1.2441501796334769e+01 -1.5085511237824047e+01 0.0000000000000000e+00  1.1233104004369032e+01 -1.4102644647225043e+01 0.0000000000000000e+00  1.0394012943577613e+01 -1.2723762247820929e+01 0.0000000000000000e+00  9.7247353761193391e+00 -1.1344597883611007e+01 0.0000000000000000e+00  8.9856186683456762e+00 -1.0206374362839194e+01 0.0000000000000000e+00  8.2897700848813489e+00 -9.1562136542257928e+00 0.0000000000000000e+00  7.6411062768969344e+00 -8.2473476897398168e+00 0.0000000000000000e+00  7.0030911100197590e+00 -7.4256563043288217e+00 0.0000000000000000e+00  6.4303169769635264e+00 -6.6230611680872213e+00 0.0000000000000000e+00  5.9304037318421656e+00 -5.8810285177853174e+00 0.0000000000000000e+00  5.4660959930620514e+00 -5.1294806474089754e+00 0.0000000000000000e+00  5.0623203972355073e+00 -4.4349073558899272e+00 0.0000000000000000e+00  4.7285356080405778e+00 -3.6941191342528090e+00 0.0000000000000000e+00  4.4280439576288835e+00 -3.0912101877575733e+00 0.0000000000000000e+00  4.1804033197230472e+00 -2.3316286701652831e+00 0.0000000000000000e+00  3.9831145387902334e+00 -1.9391148804562637e+00 0.0000000000000000e+00  3.8204001968633303e+00 -1.0941913529009133e+00 0.0000000000000000e+00  3.6860790395773062e+00 -1.0167341675700814e+00 0.0000000000000000e+00  3.5840542553180788e+00 -2.1718569930726164e-01 0.0000000000000000e+00  3.4802045570598943e+00 1.9572361965782912e+00 0.0000000000000000e+00  3.4356141866599224e+00 4.3437332893203404e+00 0.0000000000000000e+00  3.0456057757615613e+00 5.0851018091246347e+00 0.0000000000000000e+00  3.8657314719714502e+00 4.5243850377871970e+00 0.0000000000000000e+00  4.3441261536127449e+00 5.3288693721959266e+00 0.0000000000000000e+00  4.7785750869317285e+00 5.4840794815255078e+00 0.0000000000000000e+00  5.3358819289790045e+00 6.1872690462090683e+00 0.0000000000000000e+00  6.0233245784886753e+00 6.7921349450470707e+00 0.0000000000000000e+00  6.6301185468373971e+00 7.3624036707517195e+00 0.0000000000000000e+00  7.1499538289577371e+00 7.6688815981637299e+00 0.0000000000000000e+00  7.7974338129200671e+00 8.2064402281397726e+00 0.0000000000000000e+00  8.2925822603859238e+00 8.2363972993775612e+00 0.0000000000000000e+00  8.3187425145349874e+00 7.0712279540426453e+00 0.0000000000000000e+00  9.3459148176255500e+00 7.2596839588140236e+00 0.0000000000000000e+00  6.1896369188167677e+00 1.1333004853747506e+00 0.0000000000000000e+00  1.7268624718808457e+01 1.6381839675056050e+01 0.0000000000000000e+00  1.6909200822375499e+01 1.4451136162354514e+01 0.0000000000000000e+00  1.6932469239611983e+01 1.3016308933053873e+01 0.0000000000000000e+00  1.7390174936512842e+01 1.2354575720150766e+01 0.0000000000000000e+00  1.8233898069844564e+01 1.2104743903204662e+01 0.0000000000000000e+00  1.9365338796421359e+01 1.2268417206751636e+01 0.0000000000000000e+00  2.0690758081519107e+01 1.2635834077422588e+01 0.0000000000000000e+00  2.2118642962707138e+01 1.3119341538921192e+01 0.0000000000000000e+00  2.3559647774503130e+01 1.3184158498648662e+01 0.0000000000000000e+00  2.4937396626094600e+01 1.3512639255977993e+01 0.0000000000000000e+00  2.6187304661683488e+01 1.2569481235401923e+01 0.0000000000000000e+00  2.7257096677440366e+01 1.2159336560779739e+01 0.0000000000000000e+00  2.8111947169248133e+01 9.6843518242800553e+00 0.0000000000000000e+00  2.8743431428349712e+01 8.1327767468257086e+00 0.0000000000000000e+00  2.9147084726660548e+01 4.1238842898233017e+00 0.0000000000000000e+00  2.9361996731308096e+01 9.2359349445655203e-01 0.0000000000000000e+00  2.9397168935199332e+01 2.3695947861542581e-03 0.0000000000000000e+00  2.9330403867137875e+01 7.2168381710383640e+00 0.0000000000000000e+00  2.9397151520927611e+01 -2.3316685904701479e-03 0.0000000000000000e+00  2.9032346581775744e+01 4.2359492453351022e-03 0.0000000000000000e+00  2.8736577148965726e+01 -3.44801918808