<?xml version="1.0"?>
<VTKFile type="UnstructuredGrid"  version="0.1"  >
<UnstructuredGrid>
<Piece  NumberOfPoints="1933" NumberOfCells="3640">
<Points>
<DataArray  type="Float64"  NumberOfComponents="3"  format="ascii">-0.2935584900408399 -0.002710231954312879 0  4.706441536220045 -0.002625135934028846 0  4.706313842196737 7.497374903235673 0  -0.2936861767543552 7.49728982287783 0  9.706441593798026 -0.002540054850763638 0  9.706313863963782 7.497459971971819 0  14.7064416907077 -0.002454938708832462 0  14.70631388303607 7.497545079389354 0  19.70644182191733 -0.00236974137225759 0  19.70631389054727 7.497630270663387 0  24.70644197411897 -0.00228442195970117 0  24.7063138740048 7.497715585636825 0  29.70644212857914 -0.002198944179297171 0  29.70631381725566 7.497801059772724 0  34.70644226255887 -0.002113275061689074 0  34.70631370044544 7.49788672542623 0  39.70644234976075 -0.002027383651663929 0  39.70631349983169 7.497972613090574 0  44.70644236012087 -0.001941239845994244 0  44.70631318739021 7.498058752493412 0  49.70644225913484 -0.00185481341529512 0  49.70631273018722 7.498145173519206 0  54.70644200681154 -0.001768073191519803 0  54.70631208950001 7.498231906974072 0  59.7064415562777 -0.001680986384930563 0  59.70631121966155 7.498318985222657 0  64.70644085200354 -0.001593517991065102 0  64.70631006658861 7.498406442728053 0  69.70643982756624 -0.001505630248984025 0  69.70630856593198 7.498494316522038 0  74.70643840281491 -0.001417282112313698 0  74.70630664075993 7.498582646626825 0  79.70643648022126 -0.00132842869221298 0  79.70630419865161 7.498671476440252 0  84.7064339400911 -0.00123902062565801 0  84.70630112803933 7.498760853080426 0  89.70643063413466 -0.001149003314387089 0  89.70629729359126 7.498850827652994 0  94.70642637660892 -0.001058315974375918 0  94.70629253039168 7.498941455334056 0  99.70642093176578 -0.0009668904480539047 0  99.70628663666663 7.499032795009301 0  104.7064139955247 -0.0008746498032211555 0  104.7062793648972 7.499124907881767 0  109.7064051678772 -0.0007815069807147824 0  109.7062704114987 7.49921785375988 0  114.7063939100529 -0.0006873644247104415 0  114.7062594061617 7.49931168225915 0  119.7063794761219 -0.0005921173941262658 0  119.7062459041088 7.499406413059879 0  124.7063608010239 -0.0004956681312757702 0  124.7062293893399 7.499501992971553 0  129.7063363135854 -0.0003979692696288033 0  129.7062093071229 7.499598204505632 0  134.7063036200088 -0.000299142932466276 0  134.7061851646627 7.499694474502191 0  139.7062589650115 -0.000199793318904473 0  139.706156778863 7.49978948047553 0  144.7061963180655 -0.0001018173007493606 0  144.7061248223448 7.499880358900731 0  149.7061058496992 -1.052936598671348e-05 0  149.7060919343167 7.499961169904153 0  159.7061073738538 6.699293726800505e-19 0  164.7061643361917 3.833523962952389e-05 0  164.7061180631047 7.500038236874238 0  159.7060945109807 7.499999706563298 0  169.7062109390819 9.231422928608206e-05 0  169.706141478326 7.500092673403005 0  174.7062489728261 0.0001564749320058947 0  174.7061633083156 7.500157006721738 0  179.706280072648 0.0002273194967431495 0  179.7061829988141 7.500227856328429 0  184.7063056082385 0.0003026470776403118 0  184.7062004181954 7.50030312584743 0  189.7063266737665 0.0003810455191677341 0  189.7062156440115 7.500381452520253 0  194.7063441270062 0.00046158234127325 0  194.7062288498538 7.500461922511099 0  199.7063586383891 0.0005436236833426263 0  199.7062402442625 7.50054390719486 0  204.7063707345739 0.0006267272298123058 0  204.7062500389262 7.500626964403617 0  209.7063808328841 0.0007105773322009895 0  209.7062584332969 7.50071077704998 0  214.7063892672772 0.0007949445197030654 0  214.706265608143 7.500795113976979 0  219.7063963076034 0.0008796594351398303 0  219.7062717237924 7.500879804338372 0  224.7064021738771 0.0009645955397086334 0  224.7062769207016 7.500964720402604 0  229.7064070469395 0.001049657306555263 0  229.7062813210781 7.501049765726903 0  234.7064110765262 0.001134771954914741 0  234.7062850308896 7.501134866841081 0  239.7064143874717 0.001219883538077948 0  239.7062881419267 7.501219967285643 0  244.7064170845641 0.001304948644465458 0  244.7062907337615 7.50130502327239 0  249.706419256414 0.001389933239840044 0  249.7062928755387 7.50139000049617 0  254.706420978604 0.001474810346334137 0  254.706294627586 7.501474871791372 0  259.7064223163031 0.001559558363505277 0  259.7062960428415 7.501559615435207 0  264.70642332649 0.001644159913160915 0  264.7062971681149 7.501644213975432 0  269.7064240598781 0.001728601148614268 0  269.706298045189 7.501728653516834 0  274.7064245626165 0.001812871520659192 0  274.7062987117641 7.501812923448226 0  279.7064248777859 0.001896964044427669 0  279.706299202242 7.501897016634789 0  284.706425046671 0.001980876168758532 0  284.7062995483258 7.501980930142591 0  289.7064251096864 0.002064611413878197 0  289.7062997794159 7.502064666600697 0  294.7064251066824 0.002148182001127266 0  294.7062999227872 7.502148236332339 0  299.7064250760644 0.00223161268824886 0  299.7063000035818 7.502231660380049 0  304.7064250516045 0.002314945705305251 0  304.7063000448186 7.502314974496485 0  309.7064250548036 0.002398245120207256 0  309.7063000679731 7.50239823421901 0  4.706186184438077 14.99737496752509 0  -0.2938138279971395 14.99728995523792 0  9.706186181301293 14.99745998671699 0  14.70618615225252 14.99754505988419 0  19.70618608619165 14.99763022693639 0  24.7061859707968 14.99771552320682 0  29.70618579183872 14.99780098079038 0  34.70618553257916 14.99788662959001 0  39.70618517325214 14.9979724982437 0  44.70618469056508 14.99805861494093 0  49.70618405716303 14.99814500811915 0  54.7061832410136 14.9982317070387 0  59.70618220468543 14.99831874223877 0  64.70618090450446 14.99840614587598 0  69.7061792895818 14.99849395193744 0  74.70617730072323 14.99858219630214 0  79.70617486925497 14.9986709165933 0  84.70617191584886 14.99876015170957 0  89.70616834951446 14.99884994082814 0  94.70616406708024 14.99894032150317 0  99.70615895375241 14.99903132617904 0  104.7061528857899 14.9991229758958 0  109.7061457370747 14.99921526900111 0  114.7061373925075 14.99930816100295 0  119.7061277728223 14.99940152884523 0  124.7061168774809 14.99949510828505 0  129.7061048539797 14.99958838631288 0  134.706092100547 14.99968042284371 0  139.7060793977962 14.99976957449642 0  144.7060680273092 14.99985312606974 0  149.7060597401456 14.99992699583197 0  164.706070407603 15.00003852014261 0  159.7060630483744 14.99999114914791 0  169.7060784943265 15.00009546322667 0  174.7060873324226 15.00016023968572 0  179.7060964656407 15.00023085211115 0  184.706105468498 15.00030570015195 0  189.7061140429254 15.00038359985901 0  194.7061220106583 15.00046369481328 0  199.7061292834531 15.00054536757535 0  204.7061358342283 15.00062817094701 0  209.7061416746575 15.00071177844066 0  214.7061468393212 15.00079594951524 0  219.7061513750793 15.0008805053269 0  224.7061553342147 15.00096531174691 0  229.7061587701696 15.00105026735753 0  234.706161735009 15.00113529486613 0  239.7061642780072 15.0012203348895 0  244.706166444952 15.00130534140579 0  249.7061682779016 15.00139027840307 0  254.7061698152119 15.00147511740797 0  259.7061710917214 15.00155983568345 0  264.7061721390152 15.00164441495766 0  269.706172985721 15.00172884059936 0  274.7061736578023 15.00181310119497 0  279.706174178839 15.0018971885118 0  284.706174570302 15.00198109785233 0  289.7061748518546 15.00206482881092 0  294.7061750417885 15.00214838643129 0  299.7061751577666 15.00223178272569 0  304.7061752182111 15.00231503847558 0  309.7061752449178 15.00239818530831 0  4.706058716741527 22.49737503061128 0  -0.2939412913134838 22.49729014909805 0  9.70605870240292 22.49745995796694 0  14.70605865212591 22.4975449645969 0  19.70605855442172 22.49763008060652 0  24.70605839833739 22.49771533386829 0  29.70605817246701 22.49780075077553 0  34.70605786422739 22.49788635679825 0  39.70605745931725 22.4979721769545 0  44.7060569413058 22.49805823622371 0  49.70605629131252 22.49814455989178 0  54.70605548775244 22.49823117380476 0  59.70605450614335 22.49831810450301 0  64.70605331899253 22.49840537920046 0  69.70605189580746 22.49849302555408 0  74.70605020331321 22.49858107114126 0  79.70604820600755 22.4986695425104 0  84.70604586726077 22.49875846359197 0  89.70604315127223 22.49884785312803 0  94.70604002634614 22.49893772057658 0  99.70603647015236 22.49902805963054 0  104.7060324778918 22.49911883800553 0  109.7060280745626 22.49920998143492 0  114.7060233327032 22.49930134881957 0  119.7060183968282 22.49939269428875 0  124.7060135147053 22.4994836109583 0  129.706009072637 22.49957345179676 0  134.7060056253608 22.49966122885974 0  139.7060038992945 22.49974551184017 0  144.7060047310332 22.49982439864962 0  149.7060088926939 22.4998957465367 0  164.7060098626792 22.50003742206167 0  159.7060115060569 22.49998196300625 0  169.7060091131386 22.50009836403573 0  174.7060094834071 22.50016467293774 0  179.70601089727 22.50023558322 0  184.7060131193046 22.50031017505442 0  189.7060158828986 22.50038760755652 0  194.7060189512772 22.50046718750011 0  199.7060221372909 22.50054836950139 0  204.7060253036495 22.50063073385022 0  209.7060283556144 22.50071396067399 0  214.7060312319099 22.50079780694516 0  219.706033896286 22.50088208791916 0  224.7060363305459 22.50096666278806 0  229.7060385291208 22.50105142381238 0  234.7060404950067 22.50113628815332 0  239.7060422367931 22.50122119174614 0  244.7060437665332 22.50130608469916 0  249.7060450982368 22.50139092783547 0  254.7060462468219 22.50147569009572 0  259.7060472273906 22.50156034660163 0  264.7060480547421 22.50164487723585 0  269.7060487430527 22.50172926563727 0  274.7060493056878 22.50181349853807 0  279.7060497551261 22.50189756538567 0  284.7060501030163 22.50198145819394 0  289.7060503604108 22.50206517155161 0  294.7060505382744 22.50214870267607 0  299.7060506484205 22.50223205132642 0  304.7
[...]
<PointData  Vectors="v"> 
<DataArray  type="Float64"  Name="v"  NumberOfComponents="3" format="ascii">-3.6614920839061282e+00 1.6140986799168533e+00 0.0000000000000000e+00  -3.5158791307949544e+00 1.8425454772827281e+00 0.0000000000000000e+00  -2.8988472881647658e+00 1.6241325016485753e+00 0.0000000000000000e+00  -3.0060294588317706e+00 1.4540668973855220e+00 0.0000000000000000e+00  -3.2714318834688858e+00 2.3560746526374725e+00 0.0000000000000000e+00  -2.7531703906266540e+00 1.9898237397242511e+00 0.0000000000000000e+00  -2.9659604036186042e+00 3.0881627264070342e+00 0.0000000000000000e+00  -2.5090255500857759e+00 2.6304555330331376e+00 0.0000000000000000e+00  -2.6076856170959162e+00 3.7993488609329389e+00 0.0000000000000000e+00  -2.2040802642751762e+00 3.2629732480744207e+00 0.0000000000000000e+00  -2.2016785169403725e+00 4.6405451537465492e+00 0.0000000000000000e+00  -1.8466620617577696e+00 4.0330758408406133e+00 0.0000000000000000e+00  -1.8058993712244316e+00 5.3964656715579533e+00 0.0000000000000000e+00  -1.4423312218604907e+00 4.8046638149857648e+00 0.0000000000000000e+00  -1.6336653318360337e+00 5.8183894284161246e+00 0.0000000000000000e+00  -1.0487560599425498e+00 5.5628129754122364e+00 0.0000000000000000e+00  -1.1340504329947574e+00 6.6817502862783487e+00 0.0000000000000000e+00  -8.7941154024130641e-01 5.9358063226818993e+00 0.0000000000000000e+00  -3.0285872999151797e+00 3.9532687317768964e+00 0.0000000000000000e+00  -3.8385269846112685e-01 6.7991843321474486e+00 0.0000000000000000e+00  1.3442216720246583e+00 1.0500664816650422e+01 0.0000000000000000e+00  -2.2833456308425206e+00 3.9464898692435066e+00 0.0000000000000000e+00  -2.9974943196413365e-02 8.1970053674730821e+00 0.0000000000000000e+00  2.0846357179861488e+00 1.0263894599123612e+01 0.0000000000000000e+00  -3.1708110439665166e-01 7.5281486661061665e+00 0.0000000000000000e+00  7.0391433310945806e-01 7.9666853348153133e+00 0.0000000000000000e+00  1.8961890489483130e-02 7.8354718847340958e+00 0.0000000000000000e+00  4.0778241794711562e-01 7.3412534956722819e+00 0.0000000000000000e+00  8.0840944178791219e-01 8.8204396362195787e+00 0.0000000000000000e+00  7.3274243305742415e-01 7.6485358102411602e+00 0.0000000000000000e+00  1.8661631020204685e+00 1.0148801310002534e+01 0.0000000000000000e+00  1.5078472441518986e+00 8.5758401556100861e+00 0.0000000000000000e+00  3.1362439655995020e+00 1.1677927838247893e+01 0.0000000000000000e+00  2.5490998153935367e+00 9.7894816682424484e+00 0.0000000000000000e+00  4.5740484686795844e+00 1.3368251733479743e+01 0.0000000000000000e+00  3.8003189928385446e+00 1.1230663175047834e+01 0.0000000000000000e+00  6.1347539782025171e+00 1.5035206049204394e+01 0.0000000000000000e+00  5.2152640471296561e+00 1.2715237443099333e+01 0.0000000000000000e+00  7.7826842899467401e+00 1.6672532504839911e+01 0.0000000000000000e+00  6.7507459380635497e+00 1.4225720950375988e+01 0.0000000000000000e+00  9.4775035229174449e+00 1.8196545073233356e+01 0.0000000000000000e+00  8.3696512703845904e+00 1.5681883273287644e+01 0.0000000000000000e+00  1.1152332834496740e+01 1.9505768992436774e+01 0.0000000000000000e+00  1.0031636538674640e+01 1.7024909346516246e+01 0.0000000000000000e+00  1.2744926606648132e+01 2.0417209443842793e+01 0.0000000000000000e+00  1.1668575420128857e+01 1.8062491109748091e+01 0.0000000000000000e+00  1.4202813385153078e+01 2.1030449953738842e+01 0.0000000000000000e+00  1.3221582701536946e+01 1.8884151631875170e+01 0.0000000000000000e+00  1.5452883989860354e+01 2.0829379031799796e+01 0.0000000000000000e+00  1.4630190234884211e+01 1.8993831988069825e+01 0.0000000000000000e+00  1.6476812256413560e+01 2.0152934793564057e+01 0.0000000000000000e+00  1.5833632525993229e+01 1.8669007084781686e+01 0.0000000000000000e+00  1.7227284515815001e+01 1.8268363694465684e+01 0.0000000000000000e+00  1.6794767436417750e+01 1.7186509498293976e+01 0.0000000000000000e+00  1.7742159848973603e+01 1.5444309048632643e+01 0.0000000000000000e+00  1.7492929698329096e+01 1.4738341001979848e+01 0.0000000000000000e+00  1.8011302632779710e+01 1.1399212130583336e+01 0.0000000000000000e+00  1.7928435211232863e+01 1.1040981842934102e+01 0.0000000000000000e+00  1.8136912537324367e+01 4.7559848919980183e+00 0.0000000000000000e+00  1.8141641460859297e+01 4.6519935549912041e+00 0.0000000000000000e+00  1.8163558466245988e+01 -3.2714777862363021e-05 0.0000000000000000e+00  1.8163235001387587e+01 -3.7069313718274499e-04 0.0000000000000000e+00  1.8163563200134686e+01 2.3198870919219302e-19 0.0000000000000000e+00  1.3886296797932125e+01 -1.1523922169580507e+01 0.0000000000000000e+00  1.8132912580630958e+01 -5.1432308407122429e+00 0.0000000000000000e+00  1.8163249643554384e+01 2.9279450959022985e-04 0.0000000000000000e+00  1.2624457615219040e+01 -2.0106416386159633e+01 0.0000000000000000e+00  1.3905355173312953e+01 -1.8282719280920027e+01 0.0000000000000000e+00  1.0752045380843448e+01 -2.3970170152737396e+01 0.0000000000000000e+00  1.2702159349879203e+01 -2.1197967412737867e+01 0.0000000000000000e+00  9.6678946234207590e+00 -2.4793681239131477e+01 0.0000000000000000e+00  1.0884381267328699e+01 -2.3215468462599148e+01 0.0000000000000000e+00  8.4448644911729325e+00 -2.4347797971490493e+01 0.0000000000000000e+00  9.8492667168421946e+00 -2.2552998045762592e+01 0.0000000000000000e+00  7.4350146057415154e+00 -2.2828530455078898e+01 0.0000000000000000e+00  8.6719304657815997e+00 -2.1354083682197668e+01 0.0000000000000000e+00  6.4865685167220963e+00 -2.1045569576444944e+01 0.0000000000000000e+00  7.7066325399483109e+00 -1.9658448791963270e+01 0.0000000000000000e+00  5.6345340433361857e+00 -1.9035559671035831e+01 0.0000000000000000e+00  6.7988240925101984e+00 -1.7793591994847120e+01 0.0000000000000000e+00  4.7461951651201231e+00 -1.7222394819799359e+01 0.0000000000000000e+00  5.9855310455261028e+00 -1.5922894272197665e+01 0.0000000000000000e+00  4.0366667671342960e+00 -1.5485502438127677e+01 0.0000000000000000e+00  5.1344832488072534e+00 -1.4453075656643724e+01 0.0000000000000000e+00  3.4052017539423765e+00 -1.3970886559473373e+01 0.0000000000000000e+00  4.4601133160114763e+00 -1.3054420646352501e+01 0.0000000000000000e+00  2.7525737143554414e+00 -1.2756229875093503e+01 0.0000000000000000e+00  3.8623004869602884e+00 -1.1806761403986563e+01 0.0000000000000000e+00  2.1577806057656397e+00 -1.1696859890507051e+01 0.0000000000000000e+00  3.2423175995126914e+00 -1.0832843409946101e+01 0.0000000000000000e+00  1.6206009263806245e+00 -1.0774522497887469e+01 0.0000000000000000e+00  2.6786695675062995e+00 -9.9962750685064812e+00 0.0000000000000000e+00  1.1390751724227517e+00 -9.9302728877839446e+00 0.0000000000000000e+00  2.1715278741771211e+00 -9.2344836349028565e+00 0.0000000000000000e+00  7.2264805655916575e-01 -9.1265930758633083e+00 0.0000000000000000e+00  1.7192285655962547e+00 -8.5276352000698061e+00 0.0000000000000000e+00  3.6632028379387899e-01 -8.3684518808102553e+00 0.0000000000000000e+00  1.3310303450893823e+00 -7.8590958092121790e+00 0.0000000000000000e+00  5.4600049437148274e-02 -7.6269425088476961e+00 0.0000000000000000e+00  1.0021298677333175e+00 -7.1838822841970362e+00 0.0000000000000000e+00  -2.0924025427795409e-01 -6.9016275975035670e+00 0.0000000000000000e+00  7.1732068561052520e-01 -6.5297901505081652e+00 0.0000000000000000e+00  -4.3012194317180363e-01 -6.1862008197936689e+00 0.0000000000000000e+00  4.7967631936471938e-01 -5.8785234064809613e+00 0.0000000000000000e+00  -6.1488336315736025e-01 -5.4816865557856609e+00 0.0000000000000000e+00  2.8460272444429968e-01 -5.2276665499609676e+00 0.0000000000000000e+00  -7.6412559259106749e-01 -4.7604577130835484e+00 0.0000000000000000e+00  1.2509994244285155e-01 -4.5595808271600156e+00 0.0000000000000000e+00  -8.7105990923785115e-01 -4.0816838711583756e+00 0.0000000000000000e+00  1.0539643042992979e-03 -3.9436957641942469e+00 0.0000000000000000e+00  -9.4570874739097444e-01 -3.3275069205346530e+00 0.0000000000000000e+00  -8.1563744131169208e-02 -3.2383130219545473e+00 0.0000000000000000e+00  -9.7409154131638098e-01 -2.6969216872249420e+00 0.0000000000000000e+00  -1.3112294895277576e-01 -2.6758703539883104e+00 0.0000000000000000e+00  -9.6053177470551721e-01 -1.8789946397602113e+00 0.0000000000000000e+00  -1.3634604985759369e-01 -1.9225155090835708e+00 0.0000000000000000e+00  -8.9605281994208086e-01 -1.3977442132430651e+00 0.0000000000000000e+00  -9.7005139163582180e-02 -1.5144778591344099e+00 0.0000000000000000e+00  -7.6625260134455564e-01 -4.2989116284306544e-01 0.0000000000000000e+00  -1.1600525707056396e-02 -6.4952912755337489e-01 0.0000000000000000e+00  -5.2190885128354969e-01 5.0610512076056123e-02 0.0000000000000000e+00  1.4738473055549128e-01 -3.3188770924601280e-01 0.0000000000000000e+00  5.9253324847082275e-02 2.8486608556973131e-01 0.0000000000000000e+00  4.0340220173098079e-01 -6.2034268348324495e-01 0.0000000000000000e+00  -2.0129224664794236e+00 1.4623524843155598e+00 0.0000000000000000e+00  -2.1208111408114978e+00 1.2945058420034572e+00 0.0000000000000000e+00  -1.9040594238467916e+00 1.7699778475962848e+00 0.0000000000000000e+00  -1.7561442393352422e+00 2.2630476379428903e+00 0.0000000000000000e+00  -1.5098140867588405e+00 2.8044539083044389e+00 0.0000000000000000e+00  -1.2029766604071490e+00 3.4957744786964335e+00 0.0000000000000000e+00  -8.4393105686444658e-01 4.1977027120535304e+00 0.0000000000000000e+00  -4.3884389973670734e-01 4.9727380642649219e+00 0.0000000000000000e+00  -4.5864452853660705e-02 5.6823118502374985e+00 0.0000000000000000e+00  1.2176121504386474e-01 6.0580363046053174e+00 0.0000000000000000e+00  6.1307095689262880e-01 6.7997867374679144e+00 0.0000000000000000e+00  -1.2916771412671084e+00 3.7119405249990254e+00 0.0000000000000000e+00  3.0770559151401207e+00 1.0037113530380497e+01 0.0000000000000000e+00  1.6959437139311451e+00 7.7896356287810748e+00 0.0000000000000000e+00  1.3926190643261263e+00 7.1661970111086433e+00 0.0000000000000000e+00  1.7068011386123561e+00 7.4228528364662711e+00 0.0000000000000000e+00  2.4654876694442356e+00 8.2394112463215876e+00 0.0000000000000000e+00  3.4860392766621526e+00 9.3671006642040293e+00 0.0000000000000000e+00  4.7129312804369468e+00 1.0610219081717176e+01 0.0000000000000000e+00  6.0980380516926447e+00 1.1943033996578242e+01 0.0000000000000000e+00  7.5981323047005755e+00 1.3275387638187777e+01 0.0000000000000000e+00  9.1771084335864348e+00 1.4560406505177520e+01 0.0000000000000000e+00  1.0790888705173169e+01 1.5637944606350146e+01 0.0000000000000000e+00  1.2372950191373906e+01 1.6591502844759319e+01 0.0000000000000000e+00  1.3862179025047572e+01 1.6920768470854913e+01 0.0000000000000000e+00  1.5198956155893198e+01 1.6916024956287561e+01 0.0000000000000000e+00  1.6316410452873178e+01 1.5790093401677169e+01 0.0000000000000000e+00  1.7188769243670869e+01 1.3766822619385000e+01 0.0000000000000000e+00  1.7771180072731248e+01 1.0431139322375390e+01 0.0000000000000000e+00  1.8104104604695316e+01 4.4452672296661859e+00 0.0000000000000000e+00  1.8162460744411426e+01 -7.0458689758747472e-04 0.0000000000000000e+00  1.8092157581117785e+01 -4.9472426976836630e+00 0.0000000000000000e+00  1.8162478949633076e+01 5.7391764627430801e-04 0.0000000000000000e+00  1.7901137218416903e+01 -1.1959895934037450e+01 0.0000000000000000e+00  1.3744076613239002e+01 -1.9450612272473489e+01 0.0000000000000000e+00  1.2627212127932046e+01 -2.0531228374722556e+01 0.0000000000000000e+00  1.0877429648025698e+01 -2.1040417107288246e+01 0.0000000000000000e+00  9.9058427865674759e+00 -1.9617804250975308e+01 0.0000000000000000e+00  8.7802021355348856e+00 -1.8243633359785168e+01 0.0000000000000000e+00  7.8655597419848293e+00 -1.6458069097700076e+01 0.0000000000000000e+00  7.0013902978435967e+00 -1.4727508769623563e+01 0.0000000000000000e+00  6.2285251661282626e+00 -1.3200089755873108e+01 0.0000000000000000e+00  5.4153205439637304e+00 -1.2064474346636301e+01 0.0000000000000000e+00  4.7763046449818587e+00 -1.0929817648135773e+01 0.0000000000000000e+00  4.2114203733065843e+00 -9.9225287710466485e+00 0.0000000000000000e+00  3.6231535921293547e+00 -9.1689495381864923e+00 0.0000000000000000e+00  3.0892905363965011e+00 -8.4907286521059149e+00 0.0000000000000000e+00  2.6102021013213017e+00 -7.8657369523516678e+00 0.0000000000000000e+00  2.1847982432243516e+00 -7.2923652006953370e+00 0.0000000000000000e+00  1.8221446284099283e+00 -6.7052528960448141e+00 0.0000000000000000e+00  1.5175691101211071e+00 -6.1169613671539382e+00 0.0000000000000000e+00  1.2562833466848808e+00 -5.5358749867901400e+00 0.0000000000000000e+00  1.0413316266079093e+00 -4.9482616298405082e+00 0.0000000000000000e+00  8.6816578096454333e-01 -4.3335001341668544e+00 0.0000000000000000e+00  7.3019083884219038e-01 -3.7701698836818189e+00 0.0000000000000000e+00  6.2703588098100504e-01 -3.1271072620202482e+00 0.0000000000000000e+00  5.6513781075680236e-01 -2.6133190940676330e+00 0.0000000000000000e+00  5.3557754491883158e-01 -1.9276695783824196e+00 0.0000000000000000e+00  5.5079815416803846e-01 -1.5837126743482342e+00 0.0000000000000000e+00  6.0883028864274757e-01 -7.9209219790060870e-01 0.0000000000000000e+00  7.1486988957507058e-01 -5.7769670650188965e-01 0.0000000000000000e+00  8.9120246076351317e-01 -1.0200673412505179e+00 0.0000000000000000e+00  -7.0409354166651117e-01 1.2982732422032943e+00 0.0000000000000000e+00  -7.9620159772181698e-01 1.1597894643301567e+00 0.0000000000000000e+00  -5.9249104021014176e-01 1.6028836040558714e+00 0.0000000000000000e+00  -4.7737699802730349e-01 2.0372246623121013e+00 0.0000000000000000e+00  -3.2317589081029680e-01 2.4305255814716809e+00 0.0000000000000000e+00  -6.9805744728160313e-02 3.0311031923457135e+00 0.0000000000000000e+00  2.4414562436100806e-01 3.6554517179245964e+00 0.0000000000000000e+00  6.0919570433274750e-01 4.3619732992609759e+00 0.0000000000000000e+00  1.0192131148372994e+00 5.0913414196291082e+00 0.0000000000000000e+00  1.4148809833043234e+00 5.8077182353873589e+00 0.0000000000000000e+00  1.5810839210098824e+00 6.0667697506721190e+00 0.0000000000000000e+00  2.0670820590458039e+00 6.5733812144503387e+00 0.0000000000000000e+00  1.6191562895616210e-01 3.4784709083977319e+00 0.0000000000000000e+00  4.5434794314454052e+00 9.8536277283447387e+00 0.0000000000000000e+00  3.1731264111155379e+00 7.6243980193041319e+00 0.0000000000000000e+00  2.8677719129178811e+00 6.9608869150529440e+00 0.0000000000000000e+00  3.1702102606744433e+00 7.1167264647113946e+00 0.0000000000000000e+00  3.9091326227075949e+00 7.8575289976231675e+00 0.0000000000000000e+00  4.9027982451246901e+00 8.7967597717889703e+00 0.0000000000000000e+00  6.0944130502444809e+00 9.8975450540643912e+00 0.0000000000000000e+00  7.4367301098527783e+00 1.1064265019660581e+01 0.0000000000000000e+00  8.8855364371952188e+00 1.2239350511339225e+01 0.0000000000000000e+00  1.0400929370404009e+01 1.3271026051663329e+01 0.0000000000000000e+00  1.1940585095536980e+01 1.4286337558097436e+01 0.0000000000000000e+00  1.3431572013531195e+01 1.4760942103873973e+01 0.0000000000000000e+00  1.4816173397041821e+01 1.5006540982185408e+01 0.0000000000000000e+00  1.6023056543784875e+01 1.4209908550785242e+01 0.0000000000000000e+00  1.6999155144212605e+01 1.2597823143801984e+01 0.0000000000000000e+00  1.7688084001077925e+01 9.6638457530090793e+00 0.0000000000000000e+00  1.8095461200626055e+01 4.1610465947587958e+00 0.0000000000000000e+00  1.8161252988620497e+01 -1.0064983891738088e-03 0.0000000000000000e+00  1.8071573548531148e+01 -4.6021575997820969e+00 0.0000000000000000e+00  1.8161269274268449e+01 8.1979420244528091e-04 0.0000000000000000e+00  1.7669857722238753e+01 -1.1609930937752159e+01 0.0000000000000000e+00  1.7468601278235653e+01 -1.3304230691251741e+01 0.0000000000000000e+00  1.3435218296632918e+01 -1.8964480846180322e+01 0.0000000000000000e+00  1.2456970981548880e+01 -1.8495642010535910e+01 0.0000000000000000e+00  1.0815367298493920e+01 -1.8237534488587439e+01 0.0000000000000000e+00  9.9370934165449079e+00 -1.6614274206161816e+01 0.0000000000000000e+00  8.8895900621115107e+00 -1.5142723645803946e+01 0.0000000000000000e+00  8.0456324426986008e+00 -1.3480078904442886e+01 0.0000000000000000e+00  7.2425094472707343e+00 -1.2085609630338729e+01 0.0000000000000000e+00  6.5260822939372938e+00 -1.0885433984492346e+01 0.0000000000000000e+00  5.7643018244923629e+00 -1.0009935502143007e+01 0.0000000000000000e+00  5.1731820936963624e+00 -9.1110731361414068e+00 0.0000000000000000e+00  4.6536017674176335e+00 -8.3206601029303933e+00 0.0000000000000000e+00  4.1080960299324900e+00 -7.7221577408875834e+00 0.0000000000000000e+00  3.6142085588140289e+00 -7.1773151049696313e+00 0.0000000000000000e+00  3.1728276359599543e+00 -6.6827579409490108e+00 0.0000000000000000e+00  2.7828474656558635e+00 -6.1883815989069912e+00 0.0000000000000000e+00  2.4535470409713982e+00 -5.6857025723970089e+00 0.0000000000000000e+00  2.1806215664696480e+00 -5.1684931217028600e+00 0.0000000000000000e+00  1.9495538026954018e+00 -4.6493711706249883e+00 0.0000000000000000e+00  1.7634448653301025e+00 -4.0966170605414600e+00 0.0000000000000000e+00  1.6183148114748107e+00 -3.5851347173339656e+00 0.0000000000000000e+00  1.5072952523923384e+00 -2.9943285640229269e+00 0.0000000000000000e+00  1.4308374758345974e+00 -2.5410465071225823e+00 0.0000000000000000e+00  1.3943371559699433e+00 -1.9050672019835337e+00 0.0000000000000000e+00  1.3908583923211753e+00 -1.6250889344109181e+00 0.0000000000000000e+00  1.4292561261400809e+00 -9.0209000262856442e-01 0.0000000000000000e+00  1.5142453507154712e+00 -7.5114869934681883e-01 0.0000000000000000e+00  1.6371644162423358e+00 -1.3088896979582658e+00 0.0000000000000000e+00  5.0084516671168788e-01 1.1569108664315539e+00 0.0000000000000000e+00  4.2901276618164791e-01 1.0567600075057275e+00 0.0000000000000000e+00  5.9810895847332901e-01 1.4296956161389351e+00 0.0000000000000000e+00  7.1919612705102065e-01 1.8568484011078255e+00 0.0000000000000000e+00  8.4570761483145163e-01 2.1904815844710299e+00 0.0000000000000000e+00  1.0130636311720220e+00 2.6416621591060032e+00 0.0000000000000000e+00  1.2802944488782833e+00 3.1745531265825231e+00 0.0000000000000000e+00  1.6084978878588714e+00 3.8050714425759371e+00 0.0000000000000000e+00  1.9870058430157000e+00 4.4683270145693896e+00 0.0000000000000000e+00  2.4079563781402915e+00 5.2084973580809706e+00 0.0000000000000000e+00  2.8102200922915572e+00 5.8164051390283200e+00 0.0000000000000000e+00  2.9779539840573737e+00 5.8453364023464136e+00 0.0000000000000000e+00  3.4640124614871084e+00 6.3305608638264861e+00 0.0000000000000000e+00  1.5734343868654974e+00 3.2586884153084053e+00 0.0000000000000000e+00  5.9913129667861638e+00 9.6559048992639056e+00 0.0000000000000000e+00  4.6516107500157702e+00 7.4094995621807431e+00 0.0000000000000000e+00  4.3585124077621193e+00 6.6625049546299717e+00 0.0000000000000000e+00  4.6610415708459003e+00 6.7574267002259312e+00 0.0000000000000000e+00  5.3879737805061021e+00 7.3197528141630821e+00 0.0000000000000000e+00  6.3617077681882925e+00 8.1311780846037038e+00 0.0000000000000000e+00  7.5243642137298785e+00 9.0778758292677626e+00 0.0000000000000000e+00  8.8276299658984509e+00 1.0101316427689389e+01 0.0000000000000000e+00  1.0225775336598465e+01 1.1041910746632658e+01 0.0000000000000000e+00  1.1677711413264701e+01 1.2035606026963464e+01 0.0000000000000000e+00  1.3133001048919299e+01 1.2591593302468420e+01 0.0000000000000000e+00  1.4522833455303951e+01 1.3024636375515895e+01 0.0000000000000000e+00  1.5772899553125463e+01 1.2497797662967884e+01 0.0000000000000000e+00  1.6827130474184255e+01 1.1285519104560233e+01 0.0000000000000000e+00  1.7594155937582240e+01 8.7526610126078488e+00 0.0000000000000000e+00  1.8073776159803881e+01 3.8053472158016195e+00 0.0000000000000000e+00  1.8159659565990431e+01 -1.2745108993750761e-03 0.0000000000000000e+00  1.8048156425207093e+01 -4.1661254100652148e+00 0.0000000000000000e+00  1.8159674373878403e+01 1.0367759213742089e-03 0.0000000000000000e+00  1.7543822713923049e+01 -1.0835839076681944e+01 0.