<?xml version="1.0"?>
<VTKFile type="UnstructuredGrid"  version="0.1"  >
<UnstructuredGrid>
<Piece  NumberOfPoints="1933" NumberOfCells="3640">
<Points>
<DataArray  type="Float64"  NumberOfComponents="3"  format="ascii">-0.4752584074249645 -0.002451878038363063 0  4.524741634978317 -0.002384700131740184 0  4.524640840802211 7.49761539164514 0  -0.4753592108044444 7.4975482005112 0  9.524741711230048 -0.002317585585106907 0  9.524640922197785 7.497682504460701 0  14.52474185513103 -0.002250512253787452 0  14.52464104277982 7.497749572509835 0  19.52474209099717 -0.002183439396113323 0  19.52464120856031 7.497816640041135 0  24.52474243368489 -0.002116317921500885 0  24.52464142209597 7.497883757054217 0  29.52474289021997 -0.00204909469732185 0  29.52464168212874 7.49795097672885 0  34.52474346138644 -0.001981714079992358 0  34.52464198331059 7.498018354492187 0  39.52474414284968 -0.001914118060060259 0  39.52464231595328 7.498085948077117 0  44.52474492576378 -0.001846245668743077 0  44.52464266569127 7.49815381817488 0  49.52474579690946 -0.001778031944937842 0  49.5246430129651 7.498222029472377 0  54.52474673840805 -0.001709406583372966 0  54.52464333224871 7.4982906519855 0  59.52474772702649 -0.00164029228429375 0  59.52464359094829 7.498359762676825 0  64.52474873304735 -0.001570602759503045 0  64.52464374788184 7.498429447400627 0  69.52474971862078 -0.001500240295461483 0  69.52464375122332 7.498499803264122 0  74.52475063545306 -0.001429092716655971 0  74.52464353574656 7.498570941539721 0  79.52475142157724 -0.0013570295191402 0  79.52464301913741 7.498642991317754 0  84.52475199680804 -0.001283896841696206 0  84.52464209705676 7.49871610415528 0  89.52475225621562 -0.001209510793554661 0  89.52464063651369 7.498790460056427 0  94.52475206054049 -0.001133648440993484 0  94.52463846696915 7.498866275203421 0  99.52475122171219 -0.001056035443730521 0  99.52463536844634 7.49894381191226 0  104.5247494803315 -0.0009763289031193686 0  104.5246310558536 7.499023391223379 0  109.5247464695919 -0.0008940934486881734 0  109.5246251589331 7.499105408130518 0  114.5247416558029 -0.0008087680830606755 0  114.52461719822 7.499190348187464 0  119.5247342377238 -0.0007196213407813717 0  119.5246065602309 7.499278800952417 0  124.524722972242 -0.0006256944814813193 0  124.5245924822325 7.499371457937062 0  129.5247058667548 -0.0005257413571900653 0  129.5245740735414 7.499469065216493 0  134.5246796283502 -0.0004182028548206678 0  134.5245504371179 7.499572263553293 0  139.5246386664477 -0.0003013460280733453 0  139.524521034345 7.499681175868395 0  144.5245732667964 -0.0001740033906230011 0  144.5244866040467 7.499794488394566 0  149.5244661721027 -3.84781225610984e-05 0  149.5244513177215 7.499907765073527 0  159.5244717418522 1.26569280906299e-18 0  164.5244730168504 -4.250355996639856e-05 0  164.5244734222298 7.499944858581472 0  159.524465637639 7.499970726255301 0  169.5244905047804 -5.582285688519771e-05 0  169.5244808863284 7.499938170321094 0  174.5245134371056 -4.908401651136716e-05 0  174.5244898378626 7.499947950049057 0  179.5245370786427 -2.801944565031768e-05 0  179.5245000149493 7.499970513507551 0  184.5245594119029 3.459531818013356e-06 0  184.5245107715736 7.500002757515176 0  189.5245796759642 4.261364210941164e-05 0  189.5245215394593 7.500042308846855 0  194.5245976873921 8.749796786925503e-05 0  194.5245319203472 7.500087400928426 0  199.5246135181534 0.0001367134089955957 0  199.5245416700295 7.500136724830611 0  204.524627342623 0.0001892389408030689 0  204.5245506587774 7.500189306105591 0  209.5246393659059 0.0002443180361356647 0  209.5245588343444 7.500244412665662 0  214.5246497914174 0.0003013815146493389 0  214.5245661937253 7.500301488339145 0  219.5246588073364 0.0003599947432736319 0  219.5245727634407 7.500360105520029 0  224.5246665820094 0.0004198210856967081 0  224.5245785864364 7.500419931428792 0  229.5246732634917 0.000480596239087386 0  229.5245837136944 7.500480703917612 0  234.5246789808928 0.0005421099324010245 0  234.5245881990382 7.500542213945967 0  239.5246838464136 0.0006041926672617039 0  239.52459209605 7.500604292739689 0  244.5246879575732 0.0006667059684990995 0  244.5245954563646 7.500666802271362 0  249.524691399394 0.0007295351240146103 0  249.5245983288473 7.500729628129956 0  254.5246942464818 0.0007925837313458902 0  254.5246007593468 7.50079267414339 0  259.5246965649778 0.0008557695958457035 0  259.5246027908045 7.500855858322529 0  264.5246984144238 0.0009190216852306552 0  264.5246044635915 7.500919109842303 0  269.5246998495564 0.0009822779660802596 0  269.5246058159814 7.500982366887318 0  274.5247009220855 0.0010454840506748 0  274.5246068846769 7.501045575282122 0  279.5247016824615 0.001108592684998413 0  279.5246077053358 7.5011086879129 0  284.524702181625 0.001171564228113317 0  284.5246083130205 7.501171665037648 0  289.5247024725987 0.001234368428474309 0  289.5246087424947 7.501234475681021 0  294.5247026116307 0.001296988011136923 0  294.5246090283129 7.501297100416756 0  299.5247026581374 0.001359424843320206 0  299.5246092047034 7.501359535939419 0  304.5247026718713 0.00142170959872405 0  304.5246093055472 7.501421801896456 0  309.5247027039257 0.001483915085292134 0  309.5246093654901 7.501483950620615 0  4.524539923714513 14.99761557662715 0  -0.475460124908913 14.99754838929005 0  9.524539982005715 14.99768266150301 0  14.52454005277187 14.99774969814315 0  19.52454013405397 14.9978167373255 0  24.52454022112819 14.99788383011103 0  29.52454030676865 14.99795102880772 0  34.52454038089916 14.99801838740227 0  39.52454043004291 14.99808596208647 0  44.52454043668025 14.99815381201135 0  49.52454037851398 14.99822200027389 0  54.52454022760321 14.99829059512631 0  59.52453994931441 14.99835967141455 0  64.52453950103816 14.99842931227492 0  69.52453883061634 14.99849961113754 0  74.52453787443628 14.99857067410182 0  79.52453655515968 14.99864262275542 0  84.52453477910176 14.99871559749695 0  89.52453243336851 14.99878976137134 0  94.52452938305323 14.99886530429122 0  99.52452546915946 14.99894244721175 0  104.5245205086069 14.9990214451822 0  109.5245142988756 14.99910258690228 0  114.5245066319084 14.99918618589677 0  119.5244973251752 14.9992725536955 0  124.5244862826227 14.99936193685 0  129.524473604135 14.99945438489649 0  134.5244597661864 14.999549492967 0  139.5244458886787 14.99964593038924 0  144.5244340556289 14.9997406323226 0  149.5244274962396 14.99982749906363 0  164.5244503987518 14.99991004226236 0  159.5244448779095 14.99990653402235 0  169.5244529504528 14.99992000177966 0  174.5244549289247 14.99993873251577 0  179.5244573768362 14.99996603731872 0  184.5244605511815 15.00000077513645 0  189.5244643613244 15.00004162556068 0  194.5244686022599 15.00008738122307 0  199.5244730610833 15.00013703037695 0  204.5244775578678 15.00018975712585 0  209.5244819557749 15.00024491439675 0  214.5244861582766 15.00030199183639 0  219.524490102043 15.00036058664011 0  224.5244937492863 15.0004203794873 0  229.5244970810279 15.00048111553008 0  234.5245000917037 15.0005425896697 0  239.5245027850518 15.00060463524363 0  244.524505171086 15.00066711534865 0  249.5245072639304 15.00072991618057 0  254.5245090803015 15.00079294191898 0  259.5245106384721 15.00085611081263 0  264.5245119575737 15.00091935222102 0  269.5245130571403 15.00098260445022 0  274.5245139568106 15.00104581328646 0  279.5245146761254 15.00110893118456 0  284.5245152344197 15.00117191710931 0  289.5245156508045 15.00123473704563 0  294.5245159443895 15.00129736516837 0  299.5245161349984 15.00135978555102 0  304.5245162449577 15.00142199401439 0  309.5245163029716 15.00148399913793 0  4.524439020815464 22.49761588552316 0  -0.4755610229926704 22.49754876911912 0  9.52443905832776 22.49768289752777 0  14.52443908563994 22.4977498656792 0  19.524439096719 22.49781684326571 0  24.52443908368399 22.497883880798 0  29.5244390368767 22.49795102842743 0  34.52443894461427 22.49801833729183 0  39.52443879275393 22.49808586044492 0  44.52443856416731 22.49815365368958 0  49.52443823817423 22.49822177645269 0  54.52443778994975 22.49829029275477 0  59.52443718991456 22.49835927229394 0  64.52443640312451 22.49842879164821 0  69.52443538869676 22.49849893558529 0  74.52443409935702 22.49856979844674 0  79.52443248125175 22.49864148552577 0  84.52443047428449 22.49871411427049 0  89.52442801340013 22.49878781498531 0  94.52442503149896 22.49886273042189 0  99.52442146504254 22.49893901316272 0  104.5244172639473 22.49901681888142 0  109.5244124080535 22.49909629221371 0  114.5244069332167 22.49917753984787 0  119.5244009705908 22.49926058228134 0  124.5243948021709 22.4993452714672 0  129.5243889324447 22.49943115715217 0  134.524384166806 22.49951728355533 0  139.5243816669843 22.49960191028547 0  144.5243829160479 22.4996822034332 0  149.524389472061 22.49975410312113 0  164.524407273941 22.4998697017273 0  159.5244044492492 22.49984540154561 0  169.5244074787107 22.49989496374273 0  174.5244063741134 22.49992392599648 0  179.5244049685385 22.49995770522503 0  184.5244038432345 22.49999640638078 0  189.5244032479846 22.50003962540876 0  194.5244032291858 22.50008676413441 0  199.5244037279667 22.50013719693648 0  204.5244046420949 22.50019034679255 0  209.524405860586 22.50024571257872 0  214.5244072808531 22.50030287257807 0  219.5244088157148 22.50036147768163 0  224.5244103949772 22.50042124107449 0  229.5244119643806 22.50048192758615 0  234.5244134834743 22.50054334403025 0  239.5244149232302 22.50060533095836 0  244.5244162637896 22.50066775584553 0  249.5244174924925 22.50073050756238 0  254.5244186022377 22.50079349194523 0  259.5244195901387 22.50085662828274 0  264.5244204564531 22.5009198465633 0  269.524421203724 22.50098308535913 0  274.5244218361159 22.50104629024813 0  279.524422358917 22.5011094126894 0  284.5244227782359 22.50117240926311 0  289.5244231009535 22.50123524114622 0  294.5244233350743 22.50129787359814 0  299.5244234906876 22.50136027
[...]
<PointData  Vectors="v"> 
<DataArray  type="Float64"  Name="v"  NumberOfComponents="3" format="ascii">-4.3397440797712887e+00 -3.1243263283021903e+00 0.0000000000000000e+00  -4.5386501511111721e+00 -2.5919515793448418e+00 0.0000000000000000e+00  -3.8410213327651914e+00 -2.2937533817533051e+00 0.0000000000000000e+00  -3.6823022542109785e+00 -2.8856793580727857e+00 0.0000000000000000e+00  -4.7230246663789348e+00 -2.4358624186907303e+00 0.0000000000000000e+00  -4.0396014701688374e+00 -2.1594861833286370e+00 0.0000000000000000e+00  -4.8015112638514772e+00 -2.3355354525529068e+00 0.0000000000000000e+00  -4.2235102459801865e+00 -2.2182602626981085e+00 0.0000000000000000e+00  -4.7793160526416072e+00 -1.8170481160051108e+00 0.0000000000000000e+00  -4.3012913360204381e+00 -1.8507259842021480e+00 0.0000000000000000e+00  -4.7942987968280111e+00 -1.5158480938889107e+00 0.0000000000000000e+00  -4.2782358090331103e+00 -1.4936908164317442e+00 0.0000000000000000e+00  -4.7317688186865539e+00 -9.7864199603465685e-01 0.0000000000000000e+00  -4.2926058922926753e+00 -1.0728101522275706e+00 0.0000000000000000e+00  -4.6085618223103522e+00 -3.9424668242039174e-01 0.0000000000000000e+00  -4.2294823982922765e+00 -5.7900366969110517e-01 0.0000000000000000e+00  -4.7789049097885945e+00 -2.0818576048871412e-01 0.0000000000000000e+00  -4.1059028373875579e+00 4.7655918484723843e-02 0.0000000000000000e+00  -4.7543659275864103e+00 2.5434867758029533e-01 0.0000000000000000e+00  -4.2764582708205205e+00 2.1805100967912824e-01 0.0000000000000000e+00  -7.2544877188455477e+00 -3.0145302498864384e+00 0.0000000000000000e+00  -4.2525769124375534e+00 7.3690441204877410e-01 0.0000000000000000e+00  -8.4314186719570596e+00 -4.2220796963369418e+00 0.0000000000000000e+00  -6.7529193285212283e+00 -2.4555947730454832e+00 0.0000000000000000e+00  -8.7664410412937332e+00 -4.0755221808540556e+00 0.0000000000000000e+00  -7.9311013583817482e+00 -3.5702039122066713e+00 0.0000000000000000e+00  -8.7587896851086438e+00 -3.3560116917556089e+00 0.0000000000000000e+00  -8.2690757254554654e+00 -3.3635424019629321e+00 0.0000000000000000e+00  -8.5505055040498288e+00 -2.3506965444745065e+00 0.0000000000000000e+00  -8.2655881691030668e+00 -2.6575850887177954e+00 0.0000000000000000e+00  -8.2655042136249026e+00 -1.2642466258666265e+00 0.0000000000000000e+00  -8.0635873679042813e+00 -1.6854481109400912e+00 0.0000000000000000e+00  -7.9018931135874659e+00 -1.1132747213524283e-01 0.0000000000000000e+00  -7.7861148750150946e+00 -6.4832074015279806e-01 0.0000000000000000e+00  -7.4482919078747463e+00 1.0308962046334520e+00 0.0000000000000000e+00  -7.4315710921104907e+00 3.6058672398585295e-01 0.0000000000000000e+00  -6.8936179350308899e+00 2.2411757426987955e+00 0.0000000000000000e+00  -6.9898884277643960e+00 1.4207200910463771e+00 0.0000000000000000e+00  -6.2261338576795202e+00 3.4925450997196741e+00 0.0000000000000000e+00  -6.4487867857367354e+00 2.5059902084863652e+00 0.0000000000000000e+00  -5.4468855373741007e+00 4.8016785491153637e+00 0.0000000000000000e+00  -5.7978525556926508e+00 3.6494679955528602e+00 0.0000000000000000e+00  -4.5884964403033965e+00 6.0892434794554759e+00 0.0000000000000000e+00  -5.0381915773554828e+00 4.8215512869858479e+00 0.0000000000000000e+00  -3.6911175522776412e+00 7.4515200199515448e+00 0.0000000000000000e+00  -4.2035709122271143e+00 6.1278281591246131e+00 0.0000000000000000e+00  -2.7987941010551296e+00 8.5093612406680208e+00 0.0000000000000000e+00  -3.3316624628961242e+00 7.1986859199292699e+00 0.0000000000000000e+00  -1.9811363146881154e+00 9.6362778983203690e+00 0.0000000000000000e+00  -2.4730102110783405e+00 8.4373391314966693e+00 0.0000000000000000e+00  -1.2700524965588029e+00 9.9923040887106538e+00 0.0000000000000000e+00  -1.6874561303881275e+00 8.9637867039305608e+00 0.0000000000000000e+00  -7.2445949786181896e-01 1.0383757322621255e+01 0.0000000000000000e+00  -1.0223000146681740e+00 9.5975916897429343e+00 0.0000000000000000e+00  -3.3371187051510942e-01 9.2040657397538279e+00 0.0000000000000000e+00  -5.1497929490479788e-01 8.6691527746978139e+00 0.0000000000000000e+00  -1.2329240022137201e-01 8.1801900229702511e+00 0.0000000000000000e+00  -1.8544960456014342e-01 7.8997131355700567e+00 0.0000000000000000e+00  -2.2039355505657894e-02 3.9874114830571505e+00 0.0000000000000000e+00  -1.8313231762874565e-02 3.9032233704453865e+00 0.0000000000000000e+00  -1.0694133877257868e-05 -7.3882105454798182e-05 0.0000000000000000e+00  -7.4071724951506562e-04 -8.3733550596443076e-04 0.0000000000000000e+00  -2.1548235791081056e-11 4.4071055866842106e-19 0.0000000000000000e+00  1.4486675657735237e+00 -7.1480965461302581e+00 0.0000000000000000e+00  -2.7290073375872727e-02 -9.3405947212235425e+00 0.0000000000000000e+00  -7.0761605621102249e-04 6.6112638693824571e-04 0.0000000000000000e+00  -1.9912006049807904e-01 -1.1843251776790369e+01 0.0000000000000000e+00  1.4504027298852988e+00 -9.4160487082525002e+00 0.0000000000000000e+00  -2.0618545193855506e-01 -1.1108237882534716e+01 0.0000000000000000e+00  -1.6190862774779907e-01 -1.1115257325599245e+01 0.0000000000000000e+00  -8.0973294247058381e-01 -1.1014133975236989e+01 0.0000000000000000e+00  -1.3797345868051916e-01 -1.0135361380197924e+01 0.0000000000000000e+00  -9.9461060539785107e-01 -8.8511161321751040e+00 0.0000000000000000e+00  -7.1568349753309635e-01 -8.5932123129851909e+00 0.0000000000000000e+00  -1.2555676478248445e+00 -7.1990411894451709e+00 0.0000000000000000e+00  -8.7772434259604359e-01 -6.8270949201294666e+00 0.0000000000000000e+00  -1.4037772680402170e+00 -5.3664844334959287e+00 0.0000000000000000e+00  -1.1171674874048334e+00 -5.1596578627569372e+00 0.0000000000000000e+00  -1.5662093528256396e+00 -4.0064811432116159e+00 0.0000000000000000e+00  -1.2472756940796605e+00 -3.7785265185211259e+00 0.0000000000000000e+00  -1.6338063400654599e+00 -2.9150730819007582e+00 0.0000000000000000e+00  -1.3932718733512897e+00 -2.8267250343458774e+00 0.0000000000000000e+00  -1.7526847318151080e+00 -2.3161086793266006e+00 0.0000000000000000e+00  -1.4457716557784941e+00 -2.1498262212258727e+00 0.0000000000000000e+00  -1.9001060692200094e+00 -1.9482955074774662e+00 0.0000000000000000e+00  -1.5513988231241866e+00 -1.7381958100187336e+00 0.0000000000000000e+00  -2.0262795222065977e+00 -1.7801867060948593e+00 0.0000000000000000e+00  -1.6868421312329451e+00 -1.6008729325925370e+00 0.0000000000000000e+00  -2.1224714669047549e+00 -1.7094007109542149e+00 0.0000000000000000e+00  -1.8019188865457298e+00 -1.5739959477854577e+00 0.0000000000000000e+00  -2.1912935838874916e+00 -1.6621442255384529e+00 0.0000000000000000e+00  -1.8882580282645707e+00 -1.5672633837367071e+00 0.0000000000000000e+00  -2.2121103617032163e+00 -1.6186729374116766e+00 0.0000000000000000e+00  -1.9481067950974653e+00 -1.5949928159203541e+00 0.0000000000000000e+00  -2.2093826150097753e+00 -1.5819446515787849e+00 0.0000000000000000e+00  -1.9605727334325120e+00 -1.5929708941771574e+00 0.0000000000000000e+00  -2.1929221597899149e+00 -1.5274326436401751e+00 0.0000000000000000e+00  -1.9502515242660976e+00 -1.5586875465503673e+00 0.0000000000000000e+00  -2.1550451436593492e+00 -1.4588272740775488e+00 0.0000000000000000e+00  -1.9267443587046440e+00 -1.5217726977593489e+00 0.0000000000000000e+00  -2.1081317511161131e+00 -1.3904151361352908e+00 0.0000000000000000e+00  -1.8821631334723523e+00 -1.4665531315438596e+00 0.0000000000000000e+00  -2.0626844368876487e+00 -1.2916655851695464e+00 0.0000000000000000e+00  -1.8289730422091472e+00 -1.3654424439854633e+00 0.0000000000000000e+00  -2.0032490094140463e+00 -1.2078167566526483e+00 0.0000000000000000e+00  -1.7774969108102459e+00 -1.3023306581281751e+00 0.0000000000000000e+00  -1.9418148840756111e+00 -1.0644921391253630e+00 0.0000000000000000e+00  -1.7122348644306549e+00 -1.1618988815634401e+00 0.0000000000000000e+00  -1.8713142880957447e+00 -9.7473973992263419e-01 0.0000000000000000e+00  -1.6450691734528644e+00 -1.0856021759682537e+00 0.0000000000000000e+00  -1.7898480949179194e+00 -7.2431239885882748e-01 0.0000000000000000e+00  -1.5690709749060832e+00 -8.5169707764057956e-01 0.0000000000000000e+00  -1.6834144982096146e+00 -6.7399011923287933e-01 0.0000000000000000e+00  -1.4819046295014013e+00 -8.3853862723016737e-01 0.0000000000000000e+00  -1.5519075703699727e+00 -1.8846740950383986e-01 0.0000000000000000e+00  -1.3702089846048418e+00 -3.9105593247886217e-01 0.0000000000000000e+00  -1.3785526104758485e+00 -2.9455913074924867e-01 0.0000000000000000e+00  -1.2327807654745651e+00 -5.5920314697809237e-01 0.0000000000000000e+00  -1.1018948881457149e+00 6.3819100677649110e-01 0.0000000000000000e+00  -1.0546063943367217e+00 2.1738959329280760e-01 0.0000000000000000e+00  -6.3489172618880507e-01 7.9407725651664474e-01 0.0000000000000000e+00  -7.7113271538262007e-01 8.9837944006888978e-02 0.0000000000000000e+00  4.6815141147383665e-01 2.8945951770272937e-01 0.0000000000000000e+00  -3.0141109289484369e-01 -1.3729962914818890e+00 0.0000000000000000e+00  -3.1264772298634762e+00 -2.0564583752339192e+00 0.0000000000000000e+00  -2.9413711411709458e+00 -2.6063496714874117e+00 0.0000000000000000e+00  -3.2837172831709802e+00 -1.8629983353627617e+00 0.0000000000000000e+00  -3.4797346576804329e+00 -1.9441139398300047e+00 0.0000000000000000e+00  -3.6603743613156574e+00 -1.7361745737831369e+00 0.0000000000000000e+00  -3.7342996236294503e+00 -1.5309410555726231e+00 0.0000000000000000e+00  -3.7067528784628889e+00 -1.0538503769358945e+00 0.0000000000000000e+00  -3.7164923312050546e+00 -6.7619519894465541e-01 0.0000000000000000e+00  -3.6490011789494643e+00 -1.4044636742185587e-01 0.0000000000000000e+00  -3.5212687972316643e+00 4.7217165537339828e-01 0.0000000000000000e+00  -3.6892767766805767e+00 7.0064492329114192e-01 0.0000000000000000e+00  -3.6633893626493923e+00 1.2911928107161579e+00 0.0000000000000000e+00  -6.1563524234372329e+00 -1.8076106815447182e+00 0.0000000000000000e+00  -7.3280318696151419e+00 -2.8572718995237998e+00 0.0000000000000000e+00  -7.6647826887545074e+00 -2.6632729681817073e+00 0.0000000000000000e+00  -7.6620143087490780e+00 -1.9858333741400889e+00 0.0000000000000000e+00  -7.4641348618201615e+00 -1.0610370423177724e+00 0.0000000000000000e+00  -7.1928873823600830e+00 -1.6717109959554888e-01 0.0000000000000000e+00  -6.8463275806120967e+00 7.6488052542903273e-01 0.0000000000000000e+00  -6.4159293101207453e+00 1.7028751031923055e+00 0.0000000000000000e+00  -5.8895407242963529e+00 2.6822845494477576e+00 0.0000000000000000e+00  -5.2562346782372122e+00 3.6962041525839031e+00 0.0000000000000000e+00  -4.5202913802966824e+00 4.8916875196394427e+00 0.0000000000000000e+00  -3.7144296893254172e+00 5.9115026578618464e+00 0.0000000000000000e+00  -2.8785592191358913e+00 7.1726768559407663e+00 0.0000000000000000e+00  -2.0629359173775095e+00 7.8190368604821794e+00 0.0000000000000000e+00  -1.3326910002077330e+00 8.6288742337575339e+00 0.0000000000000000e+00  -7.2674722908625622e-01 7.9626849492069338e+00 0.0000000000000000e+00  -3.0245923291720828e-01 7.4355801659464342e+00 0.0000000000000000e+00  -4.8362901165686728e-02 3.7407124179341733e+00 0.0000000000000000e+00  -2.4887586826805906e-03 -1.5921622482963217e-03 0.0000000000000000e+00  -5.5060411046654045e-02 -9.1832297602588984e+00 0.0000000000000000e+00  -2.4475885344519620e-03 1.2963791275470813e-03 0.0000000000000000e+00  -2.0800688332659789e-01 -1.1643372106878425e+01 0.0000000000000000e+00  1.3190512867033841e+00 -8.7376040636019585e+00 0.0000000000000000e+00  -2.3440844650060672e-01 -1.0197952473956697e+01 0.0000000000000000e+00  -1.6872369111557942e-01 -7.7504255856479229e+00 0.0000000000000000e+00  -7.0947974384948209e-01 -6.5995324312854970e+00 0.0000000000000000e+00  -8.4425768955133651e-01 -4.8185193754679592e+00 0.0000000000000000e+00  -1.0573913538357738e+00 -3.5957367142447962e+00 0.0000000000000000e+00  -1.1668090386090291e+00 -2.6189599168045481e+00 0.0000000000000000e+00  -1.2945266911786295e+00 -2.0815550017152091e+00 0.0000000000000000e+00  -1.3307589751641402e+00 -1.5886104200272830e+00 0.0000000000000000e+00  -1.4221151737185902e+00 -1.4051496596053525e+00 0.0000000000000000e+00  -1.5452038868101536e+00 -1.4087140403445524e+00 0.0000000000000000e+00  -1.6489237201053415e+00 -1.4438311543351872e+00 0.0000000000000000e+00  -1.7254869453368646e+00 -1.5103771191762998e+00 0.0000000000000000e+00  -1.7769106414114491e+00 -1.5791336779930636e+00 0.0000000000000000e+00  -1.7818098972929384e+00 -1.5782943402409280e+00 0.0000000000000000e+00  -1.7648942249323634e+00 -1.5605691003583961e+00 0.0000000000000000e+00  -1.7356113059171501e+00 -1.5368167950169931e+00 0.0000000000000000e+00  -1.6856934541206725e+00 -1.4482527700326588e+00 0.0000000000000000e+00  -1.6276307901404530e+00 -1.3822802585902987e+00 0.0000000000000000e+00  -1.5716319121676163e+00 -1.2625599836168888e+00 0.0000000000000000e+00  -1.5019352252352276e+00 -1.1889312838534920e+00 0.0000000000000000e+00  -1.4304817523689830e+00 -9.6833081650254904e-01 0.0000000000000000e+00  -1.3501695409954702e+00 -9.7180054205833555e-01 0.0000000000000000e+00  -1.2587245150585440e+00 -5.6145799166132870e-01 0.0000000000000000e+00  -1.1425186306016859e+00 -7.6761557094132271e-01 0.0000000000000000e+00  -1.0008769182143580e+00 -5.3218954575322004e-02 0.0000000000000000e+00  -8.1791880862011479e-01 -3.3707541775972649e-01 0.0000000000000000e+00  -5.3038357624092713e-01 -2.0812594888059466e+00 0.0000000000000000e+00  -2.2582990788334487e+00 -1.7805418960130022e+00 0.0000000000000000e+00  -2.0856300837065347e+00 -2.3448163089927592e+00 0.0000000000000000e+00  -2.4404464345208523e+00 -1.6304065576479678e+00 0.0000000000000000e+00  -2.5922227141058873e+00 -1.6542417386274364e+00 0.0000000000000000e+00  -2.7816245423399795e+00 -1.4707427380736910e+00 0.0000000000000000e+00  -2.9536567242216645e+00 -1.4266269856969320e+00 0.0000000000000000e+00  -3.0173947557236516e+00 -1.1023663480475923e+00 0.0000000000000000e+00  -2.9788574056301278e+00 -6.6950583893369442e-01 0.0000000000000000e+00  -2.9768184572242569e+00 -2.4940264770126677e-01 0.0000000000000000e+00  -2.8978634289833813e+00 2.7399912056311682e-01 0.0000000000000000e+00  -2.7608143237828306e+00 9.4793843932609734e-01 0.0000000000000000e+00  -2.9222894704117297e+00 1.2477597288337217e+00 0.0000000000000000e+00  -2.8857795104960569e+00 1.9190238744033981e+00 0.0000000000000000e+00  -5.3570121132868964e+00 -1.1143024964861725e+00 0.0000000000000000e+00  -6.5092556225209250e+00 -2.1636669518187936e+00 0.0000000000000000e+00  -6.8367305853290832e+00 -1.9920052422824399e+00 0.0000000000000000e+00  -6.8304299082500082e+00 -1.3566487628789747e+00 0.0000000000000000e+00  -6.6328717263301824e+00 -5.7008432061613978e-01 0.0000000000000000e+00  -6.3648007695057647e+00 2.5156398723216705e-01 0.0000000000000000e+00  -6.0252658807061170e+00 1.0662089098209691e+00 0.0000000000000000e+00  -5.6051568783086987e+00 1.9054688132142898e+00 0.0000000000000000e+00  -5.0934554855264613e+00 2.7642314543992343e+00 0.0000000000000000e+00  -4.4825085329372909e+00 3.8097898058935198e+00 0.0000000000000000e+00  -3.7757128148430796e+00 4.7353193620595597e+00 0.0000000000000000e+00  -3.0115914895960980e+00 5.9562353317145496e+00 0.0000000000000000e+00  -2.2281676118167861e+00 6.6507648112342030e+00 0.0000000000000000e+00  -1.4860806492431462e+00 7.5904612574514703e+00 0.0000000000000000e+00  -8.4096744488550301e-01 7.1477085720326166e+00 0.0000000000000000e+00  -3.5763748477959290e-01 6.8705387474154067e+00 0.0000000000000000e+00  -5.5372920354966909e-02 3.5227580017705411e+00 0.0000000000000000e+00  -5.2169836967537447e-03 -2.2756726086379459e-03 0.0000000000000000e+00  -6.4343268298229381e-02 -8.9377917654860610e+00 0.0000000000000000e+00  -5.1800880377902425e-03 1.8527853532025352e-03 0.0000000000000000e+00  -3.4697154865030222e-01 -1.1369101936574257e+01 0.0000000000000000e+00  -5.0413287032920373e-01 -1.1091949282541512e+01 0.0000000000000000e+00  1.1109653983193668e+00 -7.9422185124143461e+00 0.0000000000000000e+00  -3.4867430973185642e-01 -7.8974982171132533e+00 0.0000000000000000e+00  -2.1751073440690069e-01 -5.8333383148123215e+00 0.0000000000000000e+00  -7.0572182576888043e-01 -4.6468456415757746e+00 0.0000000000000000e+00  -7.9984322700370525e-01 -3.3048511415045749e+00 0.0000000000000000e+00  -9.7775415151170841e-01 -2.4777758058249622e+00 0.0000000000000000e+00  -1.0589105388562288e+00 -1.9101162457503902e+00 0.0000000000000000e+00  -1.1614143749322197e+00 -1.5514461810058129e+00 0.0000000000000000e+00  -1.1760760415485911e+00 -1.2837249521961787e+00 0.0000000000000000e+00  -1.2484477409471710e+00 -1.2375362009420579e+00 0.0000000000000000e+00  -1.3545349915131990e+00 -1.3002973569667027e+00 0.0000000000000000e+00  -1.4433304086332250e+00 -1.4060341387321995e+00 0.0000000000000000e+00  -1.5072242867956285e+00 -1.5109020556933528e+00 0.0000000000000000e+00  -1.5477550309079846e+00 -1.5785784241460870e+00 0.0000000000000000e+00  -1.5434574945418449e+00 -1.5925979993727695e+00 0.0000000000000000e+00  -1.5187858905010638e+00 -1.5864198141436232e+00 0.0000000000000000e+00  -1.4827828485708243e+00 -1.5281993928184143e+00 0.0000000000000000e+00  -1.4269356657372791e+00 -1.4739986269421079e+00 0.0000000000000000e+00  -1.3635529243793911e+00 -1.3508855700916655e+00 0.0000000000000000e+00  -1.3024739745883966e+00 -1.2976055736324230e+00 0.0000000000000000e+00  -1.2278737516194320e+00 -1.0797630184001559e+00 0.0000000000000000e+00  -1.1514034127229329e+00 -1.0963390140053337e+00 0.0000000000000000e+00  -1.0661056737801879e+00 -7.0319406530643658e-01 0.0000000000000000e+00  -9.6919461023827713e-01 -9.4594008658730255e-01 0.0000000000000000e+00  -8.4794175578541753e-01 -2.7091259522428285e-01 0.0000000000000000e+00  -7.0012460509410979e-01 -6.1485004252171915e-01 0.0000000000000000e+00  -5.1323408219167821e-01 -2.5182683269391415e+00 0.0000000000000000e+00  -1.6217580962766220e+00 -1.5239458336804592e+00 0.0000000000000000e+00  -1.4524247318051042e+00 -2.0873537505011646e+00 0.0000000000000000e+00  -1.7905143274059252e+00 -1.3617165704375773e+00 0.0000000000000000e+00  -1.9652255911174474e+00 -1.4330060355297138e+00 0.0000000000000000e+00  -2.1073662450896360e+00 -1.1947616338042075e+00 0.0000000000000000e+00  -2.2844188676000710e+00 -1.1784681596134465e+00 0.0000000000000000e+00  -2.4417153420143576e+00 -1.0185887118445798e+00 0.0000000000000000e+00  -2.4882453368619801e+00 -7.4026495282837945e-01 0.0000000000000000e+00  -2.4308294316634775e+00 -2.6599189403599954e-01 0.0000000000000000e+00  -2.4096609220965384e+00 1.4242618263807585e-01 0.0000000000000000e+00  -2.3132328347133040e+00 7.3212246303645645e-01 0.0000000000000000e+00  -2.1618843349348347e+00 1.4812429188153498e+00 0.0000000000000000e+00  -2.3105093850467995e+00 1.8506324869241826e+00 0.0000000000000000e+00  -2.2501108823744036e+00 2.5657664891514060e+00 0.0000000000000000e+00  -4.6806479302558479e+00 -4.6246069426860770e-01 0.0000000000000000e+00  -5.7983909398593898e+00 -1.5156387984841402e+00 0.0000000000000000e+00  -6.1059603505143434e+00 -1.3759091619207739e+00 0.0000000000000000e+00  -6.0863832957313315e+00 -8.7194067668366015e-01 0.0000000000000000e+00  -5.8809658676072614e+00 -1.5518917154369494e-01 0.0000000000000000e+00  -5.6065642165130916e+00 5.5497967165427498e-01 0.0000000000000000e+00  -5.2631192146790866e+00 1.2748546089513699e+00 0.0000000000000000e+00  -4.8423841714968789e+00 1.9996118391143829e+00 0.0000000000000000e+00  -4.3348669336192893e+00 2.9005728259009111e+00 0.0000000000000000e+00  -3.7344563469216530e+00 3.6917200371403300e+00 0.0000000000000000e+00  -3.0516677882581535e+00 4.8319232581028926e+00 0.0000000000000000e+00  -2.3230140069089780e+00 5.5189895547867032e+00 0.0000000000000000e+00  -1.6012726354779199e+00 6.5243845040784603e+00 0.0000000000000000e+00  -9.3732053814920591e-01 6.2720574525083235e+00 0.0000000000000000e+00  -4.1975753811302374e-01 6.2196401366785503e+00 0.0000000000000000e+00  -7.2963494764487727e-02 3.2562689971876817e+