<?xml version="1.0"?>
<VTKFile type="UnstructuredGrid"  version="0.1"  >
<UnstructuredGrid>
<Piece  NumberOfPoints="1933" NumberOfCells="3640">
<Points>
<DataArray  type="Float64"  NumberOfComponents="3"  format="ascii">-0.4754168609202422 -0.001506575654887689 0  4.524583196449382 -0.001481891041347791 0  4.524546183285271 7.498518260727243 0  -0.4754539067163674 7.498493521252916 0  9.524583284036074 -0.001457330397613593 0  9.52454633805829 7.498542836405223 0  14.52458346790596 -0.001432919480987497 0  14.52454658791129 7.498567248519155 0  19.52458381224396 -0.001408634926494025 0  19.52454696046913 7.498591530052737 0  24.52458437204376 -0.001384425871953197 0  24.52454748092437 7.498615735579509 0  29.52458519247927 -0.001360224980889523 0  29.52454817125021 7.498639933824125 0  34.52458631039274 -0.001335953956047556 0  34.52454904962203 7.498664203528881 0  39.52458775620229 -0.001311525902797781 0  39.52455013011939 7.498688631658563 0  44.52458955562495 -0.001286845755143733 0  44.52455142254892 7.498713313213058 0  49.524591731027 -0.001261809400173322 0  49.52455293220876 7.498738352198988 0  54.52459430236578 -0.001236301810037998 0  54.52455465945038 7.498763863528211 0  59.52459728771798 -0.001210194285723111 0  59.52455659890245 7.498789975769383 0  64.52460070338284 -0.001183340770281853 0  64.52455873821201 7.498816834803208 0  69.52460456349399 -0.001155573063123486 0  69.52456105612733 7.498844608542684 0  74.52460887901181 -0.001126694634042574 0  74.52456351967949 7.498873492996064 0  79.52461365584334 -0.001096472570571167 0  79.52456608011551 7.498903720089013 0  84.52461889166061 -0.001064626965246257 0  84.52456866710098 7.49893556783953 0  89.52462457066048 -0.001030816720128103 0  89.52457118049226 7.498969373712367 0  94.52463065497177 -0.0009946202560923299 0  94.52457347871537 7.499005552278692 0  99.52463707041744 -0.000955508879664032 0  99.52457536247314 7.4990446186643 0  104.5246436825674 -0.0009128094648235629 0  104.5245765521913 7.49908721962134 0  109.5246502556854 -0.000865651513827583 0  109.524576657584 7.499134174186798 0  114.5246563810185 -0.0008128914742117545 0  114.5245751385697 7.499186525229005 0  119.5246613492008 -0.0007530045847319042 0  119.5245712599894 7.499245600334384 0  124.5246639194638 -0.0006839326796408566 0  124.5245640516956 7.499313072266061 0  129.5246618962601 -0.0006028797919379193 0  129.524552308279 7.499390988742186 0  134.524651343364 -0.0005060717121213108 0  134.524534716002 7.499481695065362 0  139.5246251089997 -0.0003885977752621503 0  139.5245103157782 7.499587481689918 0  144.5245700161948 -0.0002448638931380742 0  144.524479787758 7.49970966553951 0  149.5244613246184 -7.196659820080783e-05 0  149.5244487177258 7.499847003047 0  159.5244717418529 1.153007442063343e-18 0  164.524387306013 -0.0001567034256333906 0  164.5244589580396 7.49981425561094 0  159.5244770991611 7.499932579929502 0  169.5243561426399 -0.000270013867970269 0  169.5244402407091 7.499715585543424 0  174.5243506639146 -0.0003526945402002592 0  174.5244273787013 7.499639656574741 0  179.5243574516537 -0.0004126101441801651 0  179.5244206251308 7.499583187216936 0  184.524369759531 -0.000455399840106338 0  184.5244186937842 7.499542248466141 0  189.5243841578067 -0.0004852083905039185 0  189.5244201560147 7.499513464611018 0  194.5243989087164 -0.0005050857662274426 0  194.524423827575 7.499494168103435 0  199.524413149621 -0.0005172827447122952 0  199.5244288255494 7.499482307803642 0  204.5244264740343 -0.0005234732007139411 0  204.524434525931 7.499476316842292 0  209.5244387138559 -0.0005249161952786663 0  209.52444050198 7.499474994621599 0  214.5244498249527 -0.0005225715359469507 0  214.5244464690696 7.499477413862201 0  219.5244598264532 -0.0005171813759536922 0  219.5244522419669 7.499482850868715 0  224.5244687682948 -0.0005093278454062987 0  224.5244577037943 7.499490734217985 0  229.5244767138178 -0.0004994740332852968 0  229.5244627842193 7.499500607186804 0  234.5244837304856 -0.0004879934508729748 0  234.5244674444092 7.499512100154679 0  239.5244898850638 -0.0004751914959090122 0  239.5244716667665 7.499524910178563 0  244.5244952412945 -0.0004613213106802552 0  244.5244754479914 7.499538785725878 0  249.5244998589958 -0.0004465956591171996 0  249.5244787944417 7.499553515142867 0  254.5245037940146 -0.000431195927554494 0  254.5244817190886 7.499568917863319 0  259.5245070987158 -0.0004152789978551904 0  259.5244842395786 7.499584837668224 0  264.5245098228629 -0.0003989824908792023 0  264.5244863770755 7.499601137529819 0  269.5245120148044 -0.0003824286902694217 0  269.5244881556567 7.499617695743672 0  274.52451372296 -0.0003657272987402187 0  274.5244896020781 7.499634403193958 0  279.5245149976058 -0.0003489770222790114 0  279.5244907457824 7.499651161730505 0  284.5245158929533 -0.0003322657901383939 0  284.5244916190152 7.499667883780187 0  289.5245164694119 -0.0003156691579341547 0  289.5244922569003 7.499684493485324 0  294.5245167957565 -0.0002992460480117473 0  294.5244926973706 7.499700929868313 0  299.5245169503509 -0.0002830303784928214 0  299.5244929809062 7.499717152760522 0  304.5245170195038 -0.000267016286898033 0  304.5244931504688 7.499733152475945 0  309.5245170884046 -0.0002511339883169003 0  309.5244932531814 7.499748964529885 0  4.524508828983671 14.99851859000595 0  -0.4754912641531841 14.9984937542917 0  9.52450896858986 14.99854317729494 0  14.52450917714493 14.99856756933991 0  19.52450946723777 14.99859182239853 0  24.52450984692024 14.99861600046679 0  29.52451032137245 14.99864017544463 0  34.52451089302243 14.99866442651576 0  39.52451156106898 14.99868883993019 0  44.52451232076091 14.99871350948468 0  49.52451316252031 14.99873853772555 0  54.52451407088283 14.99876403785276 0  59.52451502318092 14.99879013633549 0  64.52451598787212 14.99881697630235 0  69.52451692239882 14.99884472183011 0  74.5245177704592 14.99887356331952 0  79.52451845856652 14.99890372420999 0  84.52451889180475 14.99893546934089 0  89.5245189487718 14.998969115294 0  94.52451847591747 14.99900504299787 0  99.5245172819139 14.99904371263196 0  104.5245151335984 14.99908568021085 0  109.5245117566669 14.9991316137128 0  114.5245068472858 14.99918230338464 0  119.5245001058169 14.99923865431481 0  124.5244913117941 14.99930163667573 0  129.5244804702981 14.99937214539261 0  134.5244680712299 14.99945067882991 0  139.5244555025004 14.9995366737408 0  144.5244456060616 14.99962720538946 0  149.5244431386668 14.99971444786402 0  164.5244787315984 14.99973367752617 0  159.5244773654438 14.99979809437902 0  169.5244721780999 14.99966947674173 0  174.5244631598657 14.9996134759864 0  179.5244547757477 14.99956828618504 0  184.5244482699217 14.99953373479081 0  189.5244438902493 14.99950859623287 0  194.5244414372738 14.99949140248058 0  199.5244405552702 14.99948076939877 0  204.5244408707115 14.9994755027943 0  209.5244420499397 14.99947461215815 0  214.524443817073 14.99947729005287 0  219.5244459539185 14.99948288212622 0  224.5244482928515 14.99949085773999 0  229.5244507078447 14.99950078460168 0  234.5244531059306 14.99951230802646 0  239.5244554198914 14.99952513441772 0  244.5244576023545 14.99953901825947 0  249.5244596211747 14.99955375191651 0  254.5244614558923 14.99956915764279 0  259.5244630950613 14.99958508132811 0  264.5244645342335 14.99960138763277 0  269.524465774457 14.9996179562671 0  274.5244668211262 14.99963467926321 0  279.5244676830985 14.99965145916477 0  284.5244683720097 14.99966820812315 0  289.5244689017725 14.99968484792027 0  294.5244692884209 14.9997013108999 0  299.5244695506201 14.99971754158807 0  304.5244697116656 14.99973349820278 0  309.5244698044283 14.9997491517967 0  4.524471214289082 22.49851920868428 0  -0.4755288744431256 22.49849433571995 0  9.524471323002563 22.49854376857261 0  14.52447146356886 22.49856810427714 0  19.52447163974378 22.49859229301285 0  24.52447185016429 22.49861640901597 0  29.52447209003922 22.49864052798357 0  34.52447235169421 22.49866472933062 0  39.52447262439803 22.49868909761108 0  44.52447289378073 22.49871372380416 0  49.5244731410171 22.49873870680051 0  54.52447334184819 22.4987641552477 0  59.52447346547071 22.498790189841 0  64.52447347330181 22.49881694612435 0  69.52447331764201 22.49884457785805 0  74.52447294029884 22.49887326100345 0  79.52447227130963 22.49890319834101 0  84.52447122804031 22.49893462466045 0  89.52446971516073 22.49896781228826 0  94.52446762636428 22.49900307637809 0  99.52446484925962 22.4990407787502 0  104.5244612757066 22.49908132791553 0  109.5244568210407 22.49912517090852 0  114.5244514570968 22.49917276916508 0  119.5244452653869 22.49922454522569 0  124.5244385172557 22.49928077880405 0  129.5244317849461 22.49934141965387 0  134.5244260763047 22.49940577316222 0  139.5244229569784 22.49947201298142 0  144.5244245628254 22.49953651647004 0  149.5244332982365 22.49959321264172 0  164.5244719902575 22.49964251224746 0  159.5244630704736 22.49967149350916 0  169.5244735365605 22.49960738666545 0  174.5244703715462 22.49957258407763 0  179.5244649268785 22.4995418413886 0  184.5244588982619 22.49951680718935 0  189.5244532675075 22.49949783842196 0  194.524448502997 22.49948461903984 0  199.5244447549539 22.49947654326962 0  204.5244419975237 22.49947292465282 0  209.5244401196146 22.4994730985025 0  214.5244389782874 22.49947646522425 0  219.5244384278091 22.499482503114 0  224.5244383339671 22.49949076660035 0  229.52443857995 22.4995008783828 0  234.5244390676735 22.49951251970702 0  239.5244397168339 22.49952542076889 0  244.5244404629779 22.49953935207327 0  249.5244412552695 22.49955411700565 0  254.5244420543169 22.49956954561002 0  259.5244428301842 22.49958548946502 0  264.5244435606676 22.49960181752019 0  269.5244442298089 22.49961841276221 0  274.5244448266448 22.4996351695955 0  279.5244453441808 22.49965199183227 0  284.5244457786006 22.49966879117049 0  289.5244461287999 22.49968548597412 0  294.5244463964099 22.4997020
[...]
<PointData  Vectors="v"> 
<DataArray  type="Float64"  Name="v"  NumberOfComponents="3" format="ascii">-3.3627227310136649e+00 -6.6674081649997321e+00 0.0000000000000000e+00  -3.8300089998410236e+00 -6.0334123842455680e+00 0.0000000000000000e+00  -3.3184452868722536e+00 -5.3327428930692156e+00 0.0000000000000000e+00  -2.9545313862963982e+00 -6.1213478580136629e+00 0.0000000000000000e+00  -4.3726085408509920e+00 -6.2938660796706278e+00 0.0000000000000000e+00  -3.7852774128627638e+00 -5.4806990793561985e+00 0.0000000000000000e+00  -4.8048839613638670e+00 -6.8634716662156459e+00 0.0000000000000000e+00  -4.3268270859671514e+00 -6.2163133775630941e+00 0.0000000000000000e+00  -5.1270149084550960e+00 -6.7354464779190968e+00 0.0000000000000000e+00  -4.7574286661806449e+00 -6.2539170137933873e+00 0.0000000000000000e+00  -5.5570781400475422e+00 -7.0890893147962970e+00 0.0000000000000000e+00  -5.0773151232199805e+00 -6.4460665282303484e+00 0.0000000000000000e+00  -5.8515171289724419e+00 -6.9756682492166870e+00 0.0000000000000000e+00  -5.5047078112790224e+00 -6.5364886924469392e+00 0.0000000000000000e+00  -5.8242359218174968e+00 -6.4519340649512262e+00 0.0000000000000000e+00  -5.7959836606574981e+00 -6.4955361613810361e+00 0.0000000000000000e+00  -6.5993288986583352e+00 -7.0141676398418760e+00 0.0000000000000000e+00  -5.7652089111114657e+00 -5.8545036828602086e+00 0.0000000000000000e+00  -4.6645988588231235e+00 -3.5368968844485065e+00 0.0000000000000000e+00  -6.5365901823365373e+00 -6.4421424961979579e+00 0.0000000000000000e+00  -1.3083644411918122e+01 -1.5374673820126942e+01 0.0000000000000000e+00  -4.5979651954941598e+00 -2.7495106234477866e+00 0.0000000000000000e+00  -1.3613396381792223e+01 -1.5024462302995465e+01 0.0000000000000000e+00  -1.3012535467863888e+01 -1.4233619387308153e+01 0.0000000000000000e+00  -1.3868138197460441e+01 -1.4118266600549163e+01 0.0000000000000000e+00  -1.3537786195174775e+01 -1.3739497148315731e+01 0.0000000000000000e+00  -1.4191635186308449e+01 -1.3261311105701010e+01 0.0000000000000000e+00  -1.3788279099550230e+01 -1.2779518063345728e+01 0.0000000000000000e+00  -1.4643951616444369e+01 -1.2619626485518676e+01 0.0000000000000000e+00  -1.4107431106366981e+01 -1.1944468644357155e+01 0.0000000000000000e+00  -1.5240467732447685e+01 -1.2190125025528816e+01 0.0000000000000000e+00  -1.4555571444791426e+01 -1.1298847249361547e+01 0.0000000000000000e+00  -1.5922137079305758e+01 -1.1853889376182495e+01 0.0000000000000000e+00  -1.5147767448939565e+01 -1.0834459810095691e+01 0.0000000000000000e+00  -1.6625940263867047e+01 -1.1696187197275586e+01 0.0000000000000000e+00  -1.5825247428082619e+01 -1.0643306212726907e+01 0.0000000000000000e+00  -1.7289115291860934e+01 -1.1405017163795817e+01 0.0000000000000000e+00  -1.6525473526006287e+01 -1.0412681323998576e+01 0.0000000000000000e+00  -1.7856993791149982e+01 -1.1017757895330018e+01 0.0000000000000000e+00  -1.7185384660943534e+01 -1.0167317696212875e+01 0.0000000000000000e+00  -1.8290930359920953e+01 -1.0423688135864509e+01 0.0000000000000000e+00  -1.7751014828369648e+01 -9.7734178302368555e+00 0.0000000000000000e+00  -1.8576829287981379e+01 -9.6497305536571698e+00 0.0000000000000000e+00  -1.8183809006124374e+01 -9.2201019296111895e+00 0.0000000000000000e+00  -1.8717405589934113e+01 -8.3570318526463883e+00 0.0000000000000000e+00  -1.8470270501858430e+01 -8.1441417156814531e+00 0.0000000000000000e+00  -1.8731461880311887e+01 -7.2587147537625576e+00 0.0000000000000000e+00  -1.8612474138900495e+01 -7.2331701784659250e+00 0.0000000000000000e+00  -1.8658507195468200e+01 -5.2341235962594448e+00 0.0000000000000000e+00  -1.8631722209685652e+01 -5.3385279688313423e+00 0.0000000000000000e+00  -1.8531859233832634e+01 -3.9815519996406845e+00 0.0000000000000000e+00  -1.8564088110558014e+01 -4.1618188762486623e+00 0.0000000000000000e+00  -1.8399518672932789e+01 -1.4631386022866126e+00 0.0000000000000000e+00  -1.8448947383045208e+01 -1.6533404884021916e+00 0.0000000000000000e+00  -1.8282135836050600e+01 -5.4764837757410723e-01 0.0000000000000000e+00  -1.8326226795357204e+01 -7.0719714508361342e-01 0.0000000000000000e+00  -1.8210800278283401e+01 1.8416870640652505e+00 0.0000000000000000e+00  -1.8228519325190735e+01 1.7460906607251838e+00 0.0000000000000000e+00  -1.8172580363170589e+01 1.7018966803553930e+00 0.0000000000000000e+00  -1.8171281298362668e+01 1.6696737111118105e+00 0.0000000000000000e+00  -1.8163571102172288e+01 -5.4630052437796608e-05 0.0000000000000000e+00  -1.8164444429594660e+01 -9.6813775941400324e-04 0.0000000000000000e+00  -1.8163563200227227e+01 5.2603900793031734e-19 0.0000000000000000e+00  -1.1541696100565261e+01 -4.7547107717827455e-02 0.0000000000000000e+00  -1.8177128351552664e+01 -9.9765427346656210e+00 0.0000000000000000e+00  -1.8164414096523338e+01 8.2215274318341925e-04 0.0000000000000000e+00  -1.2946046240327226e+01 9.4365961720423308e-01 0.0000000000000000e+00  -1.1557754941951568e+01 3.0474441704439457e+00 0.0000000000000000e+00  -1.1085071675007104e+01 5.9984208406868591e+00 0.0000000000000000e+00  -1.2963423778959271e+01 3.2150912250599406e+00 0.0000000000000000e+00  -1.0977458452612650e+01 6.9753902006260047e+00 0.0000000000000000e+00  -1.1106963019569429e+01 6.8190794924054190e+00 0.0000000000000000e+00  -1.0053508777697163e+01 1.0029968986840011e+01 0.0000000000000000e+00  -1.1006585765269413e+01 8.6524673644535763e+00 0.0000000000000000e+00  -9.4658970501887048e+00 1.1183978351168880e+01 0.0000000000000000e+00  -1.0091409874969740e+01 1.0311375109786932e+01 0.0000000000000000e+00  -8.7572462203169223e+00 1.2366247954501834e+01 0.0000000000000000e+00  -9.5135451712038215e+00 1.1313778335929042e+01 0.0000000000000000e+00  -8.1680134281349162e+00 1.2556689387424317e+01 0.0000000000000000e+00  -8.8162566455556455e+00 1.1683523701231964e+01 0.0000000000000000e+00  -7.3890269763303467e+00 1.2509271487930121e+01 0.0000000000000000e+00  -8.2391778466925878e+00 1.1352682947527466e+01 0.0000000000000000e+00  -6.8718833820526646e+00 1.1741293580689508e+01 0.0000000000000000e+00  -7.4730562596811039e+00 1.0977948215578477e+01 0.0000000000000000e+00  -6.4790377890598263e+00 1.0821509232590278e+01 0.0000000000000000e+00  -6.9696268877420273e+00 1.0245098541574338e+01 0.0000000000000000e+00  -6.0306456213337514e+00 9.8785769705779760e+00 0.0000000000000000e+00  -6.5910517345925941e+00 9.2193515239258055e+00 0.0000000000000000e+00  -5.5915609344319162e+00 8.9335103913371636e+00 0.0000000000000000e+00  -6.1573478239521098e+00 8.2886685224700276e+00 0.0000000000000000e+00  -5.1657872862835967e+00 8.0874455933796838e+00 0.0000000000000000e+00  -5.7334628547761151e+00 7.4627818254043081e+00 0.0000000000000000e+00  -4.7179904881640313e+00 7.3133687268462522e+00 0.0000000000000000e+00  -5.3232063675823733e+00 6.6559564786116292e+00 0.0000000000000000e+00  -4.2971888597216443e+00 6.5689763631893268e+00 0.0000000000000000e+00  -4.8911222805357539e+00 5.9522286416728472e+00 0.0000000000000000e+00  -3.9142574499138738e+00 5.8989188978513951e+00 0.0000000000000000e+00  -4.4862605730025722e+00 5.3390300166606615e+00 0.0000000000000000e+00  -3.5412829720126600e+00 5.2683052891701578e+00 0.0000000000000000e+00  -4.1193535106050705e+00 4.7234399299572480e+00 0.0000000000000000e+00  -3.2015655365970774e+00 4.6535772638443680e+00 0.0000000000000000e+00  -3.7624411324716758e+00 4.1585861636605168e+00 0.0000000000000000e+00  -2.9071751050168393e+00 4.0978303106478817e+00 0.0000000000000000e+00  -3.4387618321086522e+00 3.6708146163259121e+00 0.0000000000000000e+00  -2.6262755718324788e+00 3.5288800263526565e+00 0.0000000000000000e+00  -3.1604242027706402e+00 3.1219741678547961e+00 0.0000000000000000e+00  -2.3776620492908682e+00 3.0394469034983858e+00 0.0000000000000000e+00  -2.8953540772699791e+00 2.6810054291037964e+00 0.0000000000000000e+00  -2.1566851729916614e+00 2.5057753227465662e+00 0.0000000000000000e+00  -2.6626621980860041e+00 2.1884482918643315e+00 0.0000000000000000e+00  -1.9502558252016233e+00 2.1566825964704193e+00 0.0000000000000000e+00  -2.4571047605271428e+00 1.8614253218328014e+00 0.0000000000000000e+00  -1.7496954823327129e+00 1.6073738788545331e+00 0.0000000000000000e+00  -2.2665425570817659e+00 1.3201267148840381e+00 0.0000000000000000e+00  -1.5505094546176188e+00 1.5749221258193327e+00 0.0000000000000000e+00  -2.0806232868604067e+00 1.2907049756085380e+00 0.0000000000000000e+00  -1.3345315445273009e+00 9.2182105972303041e-01 0.0000000000000000e+00  -1.8976411296386673e+00 6.1040395765658029e-01 0.0000000000000000e+00  -1.0167351968639737e+00 1.4631145472742986e+00 0.0000000000000000e+00  -1.6947830476420087e+00 1.0019592787758214e+00 0.0000000000000000e+00  -5.0546902408697181e-01 1.2345662019329333e+00 0.0000000000000000e+00  -1.3951492854065415e+00 4.7761254873200942e-01 0.0000000000000000e+00  6.9832037289873206e-01 1.8347338219351611e-01 0.0000000000000000e+00  -8.9117171550871221e-01 -1.6015129665909844e+00 0.0000000000000000e+00  -3.0483264363630842e+00 -4.7871183550592891e+00 0.0000000000000000e+00  -2.6409768078789164e+00 -5.5098792453499215e+00 0.0000000000000000e+00  -3.4115374674374510e+00 -4.7813603830750280e+00 0.0000000000000000e+00  -3.8764675765725003e+00 -5.4055935720185708e+00 0.0000000000000000e+00  -4.4149073272916919e+00 -5.6103497433903495e+00 0.0000000000000000e+00  -4.8411666431634472e+00 -5.9693872778423742e+00 0.0000000000000000e+00  -5.1554110994980071e+00 -5.8991434692371412e+00 0.0000000000000000e+00  -5.5760692983471696e+00 -6.0629710855600774e+00 0.0000000000000000e+00  -5.8596818048433157e+00 -5.9055961628769698e+00 0.0000000000000000e+00  -5.8204701935328336e+00 -5.2900544612872631e+00 0.0000000000000000e+00  -6.5834783196773614e+00 -5.6620732144881352e+00 0.0000000000000000e+00  -4.6363479765622850e+00 -1.6181854581232316e+00 0.0000000000000000e+00  -1.3039730088021193e+01 -1.2958485856409069e+01 0.0000000000000000e+00  -1.3554070658759700e+01 -1.2409049304919355e+01 0.0000000000000000e+00  -1.3795392981311306e+01 -1.1471568837518848e+01 0.0000000000000000e+00  -1.4104931873977662e+01 -1.0632078791110102e+01 0.0000000000000000e+00  -1.4543322563450872e+01 -9.9523385889065992e+00 0.0000000000000000e+00  -1.5124891866760690e+01 -9.6338115420126158e+00 0.0000000000000000e+00  -1.5790962012525325e+01 -9.3689525439486516e+00 0.0000000000000000e+00  -1.6479608610250811e+01 -9.1842007396534591e+00 0.0000000000000000e+00  -1.7127937721187784e+01 -8.9319446379242944e+00 0.0000000000000000e+00  -1.7682161512635954e+01 -8.5765202434031131e+00 0.0000000000000000e+00  -1.8105122789181348e+01 -7.7197715643556792e+00 0.0000000000000000e+00  -1.8383242527350042e+01 -7.0232743256489902e+00 0.0000000000000000e+00  -1.8519969877561589e+01 -5.3117673507394612e+00 0.0000000000000000e+00  -1.8537014964166104e+01 -4.2611083828553866e+00 0.0000000000000000e+00  -1.8472873778226148e+01 -1.8243621178699070e+00 0.0000000000000000e+00  -1.8364770795521981e+01 -8.7878082767483368e-01 0.0000000000000000e+00  -1.8260639193888057e+01 1.6049460978531256e+00 0.0000000000000000e+00  -1.8182407154861657e+01 1.6134591399606835e+00 0.0000000000000000e+00  -1.8166536111550570e+01 -1.8422294853617505e-03 0.0000000000000000e+00  -1.8181351109105290e+01 -9.9179054055838769e+00 0.0000000000000000e+00  -1.8166494989173927e+01 1.6137865183432915e-03 0.0000000000000000e+00  -1.8237747804772251e+01 -6.8800605624673166e+00 0.0000000000000000e+00  -1.1609032664799672e+01 5.3150276760562623e+00 0.0000000000000000e+00  -1.3005839189475704e+01 4.0337705260988770e+00 0.0000000000000000e+00  -1.1149823395121270e+01 8.5035542950323091e+00 0.0000000000000000e+00  -1.1053204055395637e+01 8.9432964768268839e+00 0.0000000000000000e+00  -1.0145613959524962e+01 1.0450957253711429e+01 0.0000000000000000e+00  -9.5758451134439344e+00 1.0643760182095093e+01 0.0000000000000000e+00  -8.8887218818127938e+00 1.0493433241736556e+01 0.0000000000000000e+00  -8.3224954784543872e+00 9.8353893675675863e+00 0.0000000000000000e+00  -7.5678912262474718e+00 9.4972172135538511e+00 0.0000000000000000e+00  -7.0767229367065143e+00 8.6592011460853993e+00 0.0000000000000000e+00  -6.7110830065045191e+00 7.6458920048314107e+00 0.0000000000000000e+00  -6.2907151461732740e+00 6.8352578008207621e+00 0.0000000000000000e+00  -5.8807948429713193e+00 6.0491744615846228e+00 0.0000000000000000e+00  -5.4849569091613661e+00 5.3127797333641746e+00 0.0000000000000000e+00  -5.0675218472958763e+00 4.7406243677915398e+00 0.0000000000000000e+00  -4.6775328456956382e+00 4.1820736984023057e+00 0.0000000000000000e+00  -4.3256034078793011e+00 3.6321094001238485e+00 0.0000000000000000e+00  -3.9835771275860368e+00 3.1942147906275662e+00 0.0000000000000000e+00  -3.6747055125406418e+00 2.7132415412927240e+00 0.0000000000000000e+00  -3.4109556530442648e+00 2.2920907584883290e+00 0.0000000000000000e+00  -3.1602368314183615e+00 1.8477734828573162e+00 0.0000000000000000e+00  -2.9414960052844474e+00 1.5615407042130538e+00 0.0000000000000000e+00  -2.7496782613291391e+00 1.0420007138173402e+00 0.0000000000000000e+00  -2.5721872796375269e+00 1.0201901730070806e+00 0.0000000000000000e+00  -2.3994174179045911e+00 3.4247563138673082e-01 0.0000000000000000e+00  -2.2283009310194144e+00 7.0671895062089807e-01 0.0000000000000000e+00  -2.0383434808778520e+00 3.2737022203801987e-02 0.0000000000000000e+00  -1.7494989357411972e+00 -2.3477529038328244e+00 0.0000000000000000e+00  -2.9524612348493320e+00 -4.1766480214179840e+00 0.0000000000000000e+00  -2.5810279942802050e+00 -4.9520611772228333e+00 0.0000000000000000e+00  -3.3587468607390711e+00 -4.2380251135052660e+00 0.0000000000000000e+00  -3.7193749490539347e+00 -4.7109751940406630e+00 0.0000000000000000e+00  -4.1798814645351614e+00 -4.8072024738415280e+00 0.0000000000000000e+00  -4.7114390072104282e+00 -5.3362246694402531e+00 0.0000000000000000e+00  -5.1283273099713291e+00 -5.4357349042716612e+00 0.0000000000000000e+00  -5.4307956310139405e+00 -5.4416677355318557e+00 0.0000000000000000e+00  -5.8373266804532475e+00 -5.4911627899073370e+00 0.0000000000000000e+00  -6.1050811639713629e+00 -5.3606089067471343e+00 0.0000000000000000e+00  -6.0493710281668438e+00 -4.5291541161478861e+00 0.0000000000000000e+00  -6.7964936970529513e+00 -4.5504921381904024e+00 0.0000000000000000e+00  -4.8317591839724345e+00 -3.6895536826104719e-01 0.0000000000000000e+00  -1.3212814658955166e+01 -1.1653343722220084e+01 0.0000000000000000e+00  -1.3706471519914055e+01 -1.1121693098168738e+01 0.0000000000000000e+00  -1.3930758704148975e+01 -1.0180325643891452e+01 0.0000000000000000e+00  -1.4222840702000537e+01 -9.3081393997999999e+00 0.0000000000000000e+00  -1.4641990987241670e+01 -8.7763176012160979e+00 0.0000000000000000e+00  -1.5201815024042455e+01 -8.3861848254173630e+00 0.0000000000000000e+00  -1.5843976765701665e+01 -8.1689683329048624e+00 0.0000000000000000e+00  -1.6506483635555988e+01 -7.9778292772600139e+00 0.0000000000000000e+00  -1.7127291207830581e+01 -7.7635055144519010e+00 0.0000000000000000e+00  -1.7654107907954256e+01 -7.1034633652229076e+00 0.0000000000000000e+00  -1.8050111476499293e+01 -6.6212650135774931e+00 0.0000000000000000e+00  -1.8304687555651331e+01 -5.1202254072722333e+00 0.0000000000000000e+00  -1.8421655610427038e+01 -4.2419591073633791e+00 0.0000000000000000e+00  -1.8427780908395206e+01 -1.9243868707521863e+00 0.0000000000000000e+00  -1.8360039526044762e+01 -1.0284552946955252e+00 0.0000000000000000e+00  -1.8266889325236598e+01 1.4579798531647479e+00 0.0000000000000000e+00  -1.8185167214448644e+01 1.5450288702570256e+00 0.0000000000000000e+00  -1.8169800978899481e+01 -2.6338080292372993e-03 0.0000000000000000e+00  -1.8175846368545681e+01 -9.8658426029480495e+00 0.0000000000000000e+00  -1.8169764215905818e+01 2.3072219543005374e-03 0.0000000000000000e+00  -1.8231392446919958e+01 -6.7862381189047678e+00 0.0000000000000000e+00  -1.8284408518137834e+01 -4.6415824194688220e+00 0.0000000000000000e+00  -1.1636938841591654e+01 6.1170385354390167e+00 0.0000000000000000e+00  -1.3020558972124352e+01 5.7210026417071491e+00 0.0000000000000000e+00  -1.1166792185277240e+01 8.8027615389524989e+00 0.0000000000000000e+00  -1.1078466398094690e+01 9.0993646025062169e+00 0.0000000000000000e+00  -1.0183236879790410e+01 9.7990965514696171e+00 0.0000000000000000e+00  -9.6271631772492707e+00 9.4744423069911914e+00 0.0000000000000000e+00  -8.9553566453087470e+00 8.9982671521936570e+00 0.0000000000000000e+00  -8.4047654403612153e+00 8.3782705581292305e+00 0.0000000000000000e+00  -7.6666798588898244e+00 7.9358182985833920e+00 0.0000000000000000e+00  -7.1926856824579888e+00 7.1115138716056343e+00 0.0000000000000000e+00  -6.8448353911716229e+00 6.2193166763110517e+00 0.0000000000000000e+00  -6.4430766956200873e+00 5.4495174999796188e+00 0.0000000000000000e+00  -6.0526288618397164e+00 4.7348205351878283e+00 0.0000000000000000e+00  -5.6768690598631562e+00 4.1306175242123402e+00 0.0000000000000000e+00  -5.2799742554211475e+00 3.6134280319648626e+00 0.0000000000000000e+00  -4.9107863333788364e+00 3.1206286065938085e+00 0.0000000000000000e+00  -4.5796303778538814e+00 2.6975181387303726e+00 0.0000000000000000e+00  -4.2582266489787548e+00 2.2659869771286809e+00 0.0000000000000000e+00  -3.9695871999074921e+00 1.9123284256636592e+00 0.0000000000000000e+00  -3.7256518267876664e+00 1.4869400553773173e+00 0.0000000000000000e+00  -3.4939517363088233e+00 1.2485035718195112e+00 0.0000000000000000e+00  -3.2937906402291595e+00 7.6826096379950104e-01 0.0000000000000000e+00  -3.1192989916795133e+00 7.6830363269159230e-01 0.0000000000000000e+00  -2.9590486121791937e+00 9.5366480911631177e-02 0.0000000000000000e+00  -2.8012815692562874e+00 4.6453877763288975e-01 0.0000000000000000e+00  -2.6471361435507803e+00 -2.4320671286049333e-01 0.0000000000000000e+00  -2.4677087980443635e+00 -2.7659471383663119e+00 0.0000000000000000e+00  -3.1274870447185124e+00 -3.6201707258250377e+00 0.0000000000000000e+00  -2.7817282463654185e+00 -4.4325164438783364e+00 0.0000000000000000e+00  -3.4977546130651609e+00 -3.6301364303585624e+00 0.0000000000000000e+00  -3.9014998824305924e+00 -4.1727294714733638e+00 0.0000000000000000e+00  -4.2579296921676475e+00 -4.1208358903894888e+00 0.0000000000000000e+00  -4.7116152027507097e+00 -4.5455088789349540e+00 0.0000000000000000e+00  -5.2331894742508949e+00 -4.8195689267096675e+00 0.0000000000000000e+00  -5.6364900208543975e+00 -4.9995933223369020e+00 0.0000000000000000e+00  -5.9218714312856484e+00 -4.8952697913257097e+00 0.0000000000000000e+00  -6.3083867629716428e+00 -4.9745137441663791e+00 0.0000000000000000e+00  -6.5544651159441534e+00 -4.6282042633613534e+00 0.0000000000000000e+00  -6.4771466566389426e+00 -3.4448851729738403e+00 0.0000000000000000e+00  -7.2035393669951917e+00 -3.3322888291681565e+00 0.0000000000000000e+00  -5.2147460414729911e+00 8.9715415282942124e-01 0.0000000000000000e+00  -1.3566275484553460e+01 -1.0401066455644891e+01 0.0000000000000000e+00  -1.4034767216717173e+01 -9.8584554064761889e+00 0.0000000000000000e+00  -1.4239107380995160e+01 -8.8852999698576429e+00 0.0000000000000000e+00  -1.4509804724252627e+01 -8.1647963443471152e+00 0.0000000000000000e+00  -1.4904251148033065e+01 -7.5674595679643337e+00 0.0000000000000000e+00  -1.5433904649461654e+01 -7.2299064447529675e+00 0.0000000000000000e+00  -1.6040785060832018e+01 -7.0118949623971156e+00 0.0000000000000000e+00  -1.6663231762135588e+01 -6.8627354841264516e+00 0.0000000000000000e+00  -1.7240149106127330e+01 -6.3455609436582074e+00 0.0000000000000000e+00  -1.7720564771474269e+01 -6.0591673480699226e+00 0.0000000000000000e+00  -1.8071041976438373e+01 -4.7700948320621146e+00 0.0000000000000000e+00  -1.8281861911085763e+01 -4.0913386745260913e+00 0.0000000000000000e+00  -1.8364089719063116e+01 -1.9372468048946425e+00 0.0000000000000000e+00  -1.8344000179451324e+01 -1.1329988705229443e+00 0.0000000000000000e+00  -1.8273554353478676e+01 1.3159848618139740e+00 0.0000000000000000e+00  -1.8192022500072529e+01 1.4695463043880030e+00 0.0000000000000000e+00  -1.8174