<?xml version="1.0"?>
<VTKFile type="UnstructuredGrid"  version="0.1"  >
<UnstructuredGrid>
<Piece  NumberOfPoints="1933" NumberOfCells="3640">
<Points>
<DataArray  type="Float64"  NumberOfComponents="3"  format="ascii">0.4754638729234823 8.37584007392163e-05 0  5.475463902382257 6.469420506918268e-05 0  5.4754925316921 7.50006478768161 0  0.4754924745009498 7.500083803698674 0  10.47546394021706 4.554403067884554e-05 0  10.47549263605945 7.500045654371079 0  15.47546403223526 2.62658871840243e-05 0  15.47549281278821 7.500026381066823 0  20.47546422875582 6.856349869414002e-06 0  20.47549308656137 7.500006971973117 0  25.47546457694074 -1.266498065301464e-05 0  25.47549348185328 7.499987449938226 0  30.47546511899883 -3.226403787473932e-05 0  30.47549402234015 7.499967850442881 0  35.47546589262426 -5.189700926354151e-05 0  35.47549473046989 7.499948217909407 0  40.47546693219263 -7.151272445754184e-05 0  40.4754956273088 7.499928603766369 0  45.47546827011497 -9.105353343200734e-05 0  45.47549673257186 7.499909065778486 0  50.4754699381224 -0.0001104551343119669 0  50.47549806471697 7.499889668315656 0  55.47547196840893 -0.0001296455928423703 0  55.47549964100046 7.499870483377538 0  60.47547439461741 -0.0001485436516943612 0  60.4755014774062 7.499851592301192 0  65.4754772526713 -0.0001670563212369168 0  65.47550358835836 7.49983308817008 0  70.47548058143754 -0.0001850756508317838 0  70.47550598611619 7.49981507902555 0  75.47548442318734 -0.0002024744832191426 0  75.47550867971219 7.499797692068368 0  80.47548882375946 -0.0002191008765389701 0  80.47551167323648 7.499781079141969 0  85.47549383225416 -0.0002347707179324297 0  85.47551496318543 7.499765423922936 0  90.47549949991964 -0.0002492578200463541 0  90.47551853446163 7.499750951424292 0  95.47550587762872 -0.0002622804434118553 0  95.47552235443399 7.499737940660242 0  100.4755130108217 -0.000273482656798609 0  100.4755263642472 7.499726741638684 0  105.4755209298566 -0.000282408134484406 0  105.4755304663096 7.499717798233025 0  110.4755296319048 -0.0002884627513679302 0  110.4755345067313 7.499711678861401 0  115.4755390471296 -0.0002908604952304687 0  115.4755382517224 7.499709117028979 0  120.4755489753132 -0.0002885446222550701 0  120.4755413583944 7.499711063004844 0  125.4755589664271 -0.0002800728005647445 0  125.4755433449831 7.499718744610514 0  130.4755680939981 -0.0002634527135012326 0  130.475543577644 7.499733725686296 0  135.4755745219313 -0.0002359199156363432 0  135.4755413207643 7.499757928065333 0  140.4755746693526 -0.0001936907071895953 0  140.475535968293 7.499793536586963 0  145.4755615759538 -0.0001319253510801475 0  145.4755277416037 7.499842648229412 0  150.4755215819112 -4.612202501950824e-05 0  150.4755195689442 7.499906677775655 0  160.4755282581472 8.693699604893652e-19 0  165.4754414867377 -0.0001305126178037066 0  165.475513202696 7.499848234179312 0  160.4755369068674 7.499949654213008 0  170.4753979767392 -0.0002360653034047544 0  170.4754889884118 7.499753328650938 0  175.4753768621611 -0.0003239294868541791 0  175.4754697275334 7.499670310944483 0  180.4753677160187 -0.000398322989989615 0  180.4754558699907 7.499598407811176 0  185.4753650636467 -0.0004623497454754958 0  185.4754465428544 7.499535740825491 0  190.4753659447174 -0.000518368424054349 0  190.4754406754469 7.499480491553496 0  195.4753687218607 -0.000568158841045732 0  195.475437331475 7.499431148865551 0  200.4753724706597 -0.0006130581924323319 0  200.4754357771305 7.499386517162136 0  205.4753766590659 -0.0006540743146505757 0  205.4754354643612 7.499345665509166 0  210.4753809756131 -0.0006919735528197507 0  210.4754359931358 7.499307870207319 0  215.4753852356426 -0.0007273457859881816 0  215.4754370745061 7.499272565488122 0  220.4753893290804 -0.0007606514023709616 0  220.4754385005854 7.499239304880606 0  225.4753931907136 -0.0007922549482313071 0  225.4754401219199 7.499207732059609 0  230.4753967828807 -0.0008224492667547663 0  230.4754418310372 7.499177559164044 0  235.4754000851557 -0.0008514729494804098 0  235.4754435506956 7.499148550707374 0  240.4754030880697 -0.0008795230996859172 0  240.4754452255494 7.499120511582009 0  245.4754057892316 -0.000906764795456837 0  245.4754468162567 7.499093278038541 0  250.475408190917 -0.0009333382078646656 0  250.4754482953152 7.499066710829186 0  255.4754102986006 -0.0009593640305877368 0  255.4754496441339 7.499040689938779 0  260.4754121201151 -0.00098494767050567 0  260.4754508509787 7.499015110497586 0  265.4754136652768 -0.001010182502760724 0  265.4754519095634 7.498989879597109 0  270.4754149458644 -0.001035152384761078 0  270.4754528181084 7.49896491382667 0  275.4754159759301 -0.001059933532693231 0  275.4754535787411 7.498940137430036 0  280.4754167724165 -0.001084595773502404 0  280.4754541971454 7.498915481058563 0  285.4754173561025 -0.001109203074135835 0  285.4754546823709 7.498890881183703 0  290.4754177528347 -0.00113381308749481 0  290.475455046703 7.498866280338699 0  295.4754179949819 -0.001158475191085896 0  295.4754553055296 7.498841628499829 0  300.4754181227373 -0.001183226044228756 0  300.4754554771431 7.498816886096312 0  305.4754181843586 -0.001208080917396279 0  305.4754555826829 7.498792029341621 0  310.4754182329788 -0.001233017830613124 0  310.4754556470976 7.498767058792522 0  5.475520889298549 15.00006500256862 0  0.4755208267922398 15.00008391556803 0  10.47552099368964 15.00004590045204 0  15.47552116152401 15.00002662757633 0  20.47552140729042 15.00000720794947 0  25.47552174261282 14.99998767352259 0  30.4755221778017 14.99996806368507 0  35.47552272221259 14.99994842430156 0  40.47552338412211 14.99992880710107 0  45.47552417041421 14.99990926963361 0  50.47552508616813 14.99988987581509 0  55.47552613414948 14.99987069704295 0  60.47552731416035 14.99985181388518 0  65.47552862218727 14.99983331838434 0  70.47553004926461 14.99981531706632 0  75.47553157996495 14.99979793479798 0  80.47553319041189 14.99978131969596 0  85.47553484571608 14.99976564935198 0  90.47553649675862 14.99975113869827 0  95.47553807633753 14.99973804986698 0  100.4755394948921 14.9997267043485 0  105.4755406364832 14.99971749750338 0  110.4755413565714 14.9997109147905 0  115.4755414848064 14.99970754744479 0  120.4755408389512 14.9997081018166 0  125.4755392608862 14.99971338936868 0  130.4755366927959 14.99972427012266 0  135.4755333202 14.99974149524829 0  140.4755298124965 14.99976534325109 0  145.4755276689301 14.99979483996504 0  150.475529552617 14.99982607229602 0  165.4755477656183 14.99979013583924 0  160.47555042676 14.99985730337706 0  170.4755391871757 14.99971887804742 0  175.4755285254834 14.99965000910531 0  180.4755182158235 14.99958633016058 0  185.4755093466209 14.99952844678445 0  190.4755022285123 14.99947601069826 0  195.4754967948144 14.99942834893819 0  200.4754928256308 14.99938474070111 0  205.4754900609558 14.99934452515686 0  210.475488252383 14.99930713373011 0  215.47548718313 14.99927209091853 0  220.4754866727331 14.9992390036293 0  225.4754865749736 14.99920754769621 0  230.475486773313 14.9991774550416 0  235.4754871758634 14.99914850263163 0  240.4754877107425 14.99912050339795 0  245.4754883221148 14.99909329893191 0  250.4754889669612 14.99906675365712 0  255.4754896125014 14.99904075019174 0  260.4754902341725 14.99901518565856 0  265.4754908140487 14.99898996875371 0  270.4754913396117 14.9989650174387 0  275.4754918027862 14.99894025716774 0  280.4754921991599 14.99891561960579 0  285.4754925273651 14.99889104182915 0  290.4754927885674 14.99886646602025 0  295.4754929861533 14.99884183964531 0  300.4754931257664 14.99881711597189 0  305.4754932161408 14.99879225437176 0  310.4754932715537 14.99876721874221 0  5.475548965488348 22.50006543461457 0  0.4755489042565212 22.5000842600996 0  10.47554905198014 22.50004635369052 0  15.47554917887684 22.50002706860173 0  20.47554935430353 22.50000762350589 0  25.47554958229749 22.49998806142166 0  30.47554986452511 22.49996842717993 0  35.47555020102345 22.49994876883401 0  40.47555059032324 22.4999291384816 0  45.47555102920914 22.4999095930081 0  50.47555151226642 22.49989019500589 0  55.47555203128054 22.49987101399492 0  60.47555257451415 22.49985212801991 0  65.47555312586185 22.49983362568472 0  70.47555366387969 22.49981560868586 0  75.47555416070125 22.49979819491458 0  80.47555458088449 22.49978152219403 0  85.47555488030191 22.49976575269428 0  90.47555500530486 22.49975107799701 0  95.47555489259105 22.49973772462143 0  100.4755544705237 22.49972595949481 0  105.4755536631489 22.49971609422704 0  110.4755523988808 22.49970848590166 0  115.4755506267984 22.49970353007964 0  120.4755483445868 22.49970163829581 0  125.4755456429126 22.49970318683823 0  130.4755427701607 22.49970841542271 0  135.4755402160656 22.49971724383705 0  140.4755387969535 22.49972896571638 0  145.4755396885103 22.49974178801285 0  150.4755442803924 22.49975227824669 0  165.4755690465016 22.49972511404577 0  160.4755623191075 22.49977057484118 0  170.4755701735555 22.49967288920335 0  175.4755674787102 22.49961855800883 0  180.4755627223469 22.49956513451161 0  185.4755572194914 22.49951421371172 0  190.4755517901309 22.4994664281902 0  195.4755468729912 22.49942185974706 0  200.4755426563173 22.49938031495475 0  205.4755391797862 22.4993414857134 0  210.4755364030759 22.49930503469359 0  215.4755342483074 22.49927063688724 0  220.4755326246875 22.49923799717788 0  225.4755314418994 22.49920685553561 0  230.4755306167289 22.4991769862548 0  235.4755300758149 22.49914819463615 0  240.4755297562748 22.49912031284199 0  245.4755296052502 22.49909319575055 0  250.4755295789587 22.49906671716666 0  255.4755296415837 22.49904076651115 0  260.4755297641543 22.49901524600196 0  265.4755299235106 22.49899006829316 0  270.4755301013646 22.49896515452422 0  275.4755302834765 22.49894043273038 0  280.4755304589355 22.49891583656464 0  285.4755306195599 22.49889130426925 0  290.4755307594475 22.49886677779323 0  295.475530874766
[...]
<PointData  Vectors="v"> 
<DataArray  type="Float64"  Name="v"  NumberOfComponents="3" format="ascii">3.3597316863527911e+00 6.6674019007475547e+00 0.0000000000000000e+00  3.8272553323617600e+00 6.0414214030875391e+00 0.0000000000000000e+00  3.3154663304885541e+00 5.3404012613667984e+00 0.0000000000000000e+00  2.9516479936553361e+00 6.1214946249349991e+00 0.0000000000000000e+00  4.3705291705718761e+00 6.3048790533987775e+00 0.0000000000000000e+00  3.7825260944093637e+00 5.4906882043253331e+00 0.0000000000000000e+00  4.8034308091982600e+00 6.8738395278721409e+00 0.0000000000000000e+00  4.3247442024588798e+00 6.2257249899750322e+00 0.0000000000000000e+00  5.1260672898808144e+00 6.7475684416379123e+00 0.0000000000000000e+00  4.7559788390488738e+00 6.2652782224304611e+00 0.0000000000000000e+00  5.5568682684856183e+00 7.1017356293493714e+00 0.0000000000000000e+00  5.0763670457549859e+00 6.4575932038831940e+00 0.0000000000000000e+00  5.8517685088849278e+00 6.9893183487962336e+00 0.0000000000000000e+00  5.5045010544138506e+00 6.5494443217191858e+00 0.0000000000000000e+00  5.8243235568473386e+00 6.4649133655962672e+00 0.0000000000000000e+00  5.7962375865526212e+00 6.5087703422247758e+00 0.0000000000000000e+00  6.5998504019142876e+00 7.0278781020954284e+00 0.0000000000000000e+00  5.7653010094181507e+00 5.8675415230740038e+00 0.0000000000000000e+00  4.6657299998736708e+00 3.5510889493154099e+00 0.0000000000000000e+00  6.5371162294433303e+00 6.4555100214266750e+00 0.0000000000000000e+00  1.3082822430872708e+01 1.5386114150992624e+01 0.0000000000000000e+00  4.5991042352293565e+00 2.7635443125643504e+00 0.0000000000000000e+00  1.3612541789152647e+01 1.5036282970332538e+01 0.0000000000000000e+00  1.3011726145323632e+01 1.4245487095648004e+01 0.0000000000000000e+00  1.3867350606044768e+01 1.4130595763474469e+01 0.0000000000000000e+00  1.3536946746783640e+01 1.3751738075138460e+01 0.0000000000000000e+00  1.4190924949885167e+01 1.3273945670967580e+01 0.0000000000000000e+00  1.3787507954432234e+01 1.2792046852869756e+01 0.0000000000000000e+00  1.4643312899265171e+01 1.2632713705174782e+01 0.0000000000000000e+00  1.4106737753376544e+01 1.1957452902294758e+01 0.0000000000000000e+00  1.5239882520258702e+01 1.2203382660302879e+01 0.0000000000000000e+00  1.4554950330494430e+01 1.1312022659014294e+01 0.0000000000000000e+00  1.5921592804838381e+01 1.1867074775499516e+01 0.0000000000000000e+00  1.5147201093365119e+01 1.0847578781152620e+01 0.0000000000000000e+00  1.6625426197627643e+01 1.1709427341363348e+01 0.0000000000000000e+00  1.5824721173058794e+01 1.0656492144971791e+01 0.0000000000000000e+00  1.7288626457203016e+01 1.1418214698651287e+01 0.0000000000000000e+00  1.6524979321256534e+01 1.0425834797945058e+01 0.0000000000000000e+00  1.7856527481865747e+01 1.1030710414899165e+01 0.0000000000000000e+00  1.7184916246220180e+01 1.0180233120908349e+01 0.0000000000000000e+00  1.8290488388897593e+01 1.0436938910246218e+01 0.0000000000000000e+00  1.7750570270478104e+01 9.7866340492271977e+00 0.0000000000000000e+00  1.8576413086992989e+01 9.6630812862026527e+00 0.0000000000000000e+00  1.8183389509419357e+01 9.2334207134506787e+00 0.0000000000000000e+00  1.8717021916362199e+01 8.3709703674453184e+00 0.0000000000000000e+00  1.8469881508622493e+01 8.1580483922945266e+00 0.0000000000000000e+00  1.8731110717491280e+01 7.2732202132597719e+00 0.0000000000000000e+00  1.8612114867081370e+01 7.2476416543592501e+00 0.0000000000000000e+00  1.8658200819808371e+01 5.2506337304867046e+00 0.0000000000000000e+00  1.8631404951636966e+01 5.3549993641235991e+00 0.0000000000000000e+00  1.8531592503686767e+01 3.9987430655272123e+00 0.0000000000000000e+00  1.8563808592462454e+01 4.1789669679961117e+00 0.0000000000000000e+00  1.8399308093515177e+01 1.4843886640907613e+00 0.0000000000000000e+00  1.8448719787031393e+01 1.6745354893749806e+00 0.0000000000000000e+00  1.8281973387056865e+01 5.7036300392915928e-01 0.0000000000000000e+00  1.8326044218510564e+01 7.2984799462856853e-01 0.0000000000000000e+00  1.8210700560837420e+01 -1.8147555872679071e+00 0.0000000000000000e+00  1.8228395538259857e+01 -1.7192376585077742e+00 0.0000000000000000e+00  1.8172538764771147e+01 -1.6648741299704068e+00 0.0000000000000000e+00  1.8171210077158506e+01 -1.6327400062259103e+00 0.0000000000000000e+00  1.8163563195622071e+01 9.8900905903076477e-11 0.0000000000000000e+00  1.8164429340644347e+01 8.6010836173511620e-04 0.0000000000000000e+00  1.8163563200168760e+01 -4.5734517019689077e-19 0.0000000000000000e+00  1.1543002803559091e+01 3.0191890587542825e-03 0.0000000000000000e+00  1.8177151127538995e+01 9.9300388505939985e+00 0.0000000000000000e+00  1.8164421972074734e+01 -8.7385102180328762e-04 0.0000000000000000e+00  1.2947871492728567e+01 -9.4289950476395312e-01 0.0000000000000000e+00  1.1559287839257443e+01 -3.0474486021669147e+00 0.0000000000000000e+00  1.1085794430854619e+01 -5.9960859351364633e+00 0.0000000000000000e+00  1.2965456453149331e+01 -3.2109683583759185e+00 0.0000000000000000e+00  1.0979149247360148e+01 -6.9611186424641058e+00 0.0000000000000000e+00  1.1107874903690597e+01 -6.8062352656101837e+00 0.0000000000000000e+00  1.0055257071954784e+01 -1.0014005924705467e+01 0.0000000000000000e+00  1.1008478928594558e+01 -8.6365058948524513e+00 0.0000000000000000e+00  9.4680310552398890e+00 -1.1165476874962351e+01 0.0000000000000000e+00  1.0093338528366498e+01 -1.0293416626984291e+01 0.0000000000000000e+00  8.7596577541941407e+00 -1.2346612960271017e+01 0.0000000000000000e+00  9.5158569270191631e+00 -1.1294521772492235e+01 0.0000000000000000e+00  8.1708540763960631e+00 -1.2536976987196651e+01 0.0000000000000000e+00  8.8188331824342203e+00 -1.1664441432124223e+01 0.0000000000000000e+00  7.3922531817571304e+00 -1.2490152556234614e+01 0.0000000000000000e+00  8.2421753766145667e+00 -1.1334131280124545e+01 0.0000000000000000e+00  6.8752966934160220e+00 -1.1722892527047110e+01 0.0000000000000000e+00  7.4764342086471078e+00 -1.0959836083023681e+01 0.0000000000000000e+00  6.4821694734181872e+00 -1.0804717372229538e+01 0.0000000000000000e+00  6.9731923009575301e+00 -1.0227897179637839e+01 0.0000000000000000e+00  6.0335739839829747e+00 -9.8631983244829282e+00 0.0000000000000000e+00  6.5943339216087908e+00 -9.2036801765152827e+00 0.0000000000000000e+00  5.5943276743090014e+00 -8.9193978814271997e+00 0.0000000000000000e+00  6.1604268219342329e+00 -8.2743256742806377e+00 0.0000000000000000e+00  5.1684380874767681e+00 -8.0743430312728997e+00 0.0000000000000000e+00  5.7363819077784148e+00 -7.4495152443352479e+00 0.0000000000000000e+00  4.7205352013167587e+00 -7.3013139685567676e+00 0.0000000000000000e+00  5.3260100664147858e+00 -6.6437503895267502e+00 0.0000000000000000e+00  4.2996590947001065e+00 -6.5578150562208428e+00 0.0000000000000000e+00  4.8938209334143412e+00 -5.9409629146386127e+00 0.0000000000000000e+00  3.9166480773438033e+00 -5.8884893105735028e+00 0.0000000000000000e+00  4.4888866570938850e+00 -5.3284870706373706e+00 0.0000000000000000e+00  3.5435805884304337e+00 -5.2586859807600490e+00 0.0000000000000000e+00  4.1219008767466816e+00 -4.7136862622751936e+00 0.0000000000000000e+00  3.2037572732749444e+00 -4.6446921439550515e+00 0.0000000000000000e+00  3.7648965587997201e+00 -4.1495472870244923e+00 0.0000000000000000e+00  2.9092350524013715e+00 -4.0895896942163432e+00 0.0000000000000000e+00  3.4411133006950356e+00 -3.6623805947834387e+00 0.0000000000000000e+00  2.6281816200871764e+00 -3.5213746578565166e+00 0.0000000000000000e+00  3.1626442232669598e+00 -3.1142424632500321e+00 0.0000000000000000e+00  2.3793809043249246e+00 -3.0326127079433767e+00 0.0000000000000000e+00  2.8974221745601971e+00 -2.6738936033197849e+00 0.0000000000000000e+00  2.1582046467912148e+00 -2.4996052499094881e+00 0.0000000000000000e+00  2.6645433652233104e+00 -2.1819833479220421e+00 0.0000000000000000e+00  1.9515241727688661e+00 -2.1511823904707246e+00 0.0000000000000000e+00  2.4587895982595889e+00 -1.8555489794858926e+00 0.0000000000000000e+00  1.7507251553362995e+00 -1.6026029975974323e+00 0.0000000000000000e+00  2.2679740853491017e+00 -1.3150021989303242e+00 0.0000000000000000e+00  1.5512208471856641e+00 -1.5707171218237033e+00 0.0000000000000000e+00  2.0818233389263505e+00 -1.2860165832193768e+00 0.0000000000000000e+00  1.3349696988831339e+00 -9.1853252575614430e-01 0.0000000000000000e+00  1.8985147801820117e+00 -6.0671137806860387e-01 0.0000000000000000e+00  1.0168181456986498e+00 -1.4601402547734197e+00 0.0000000000000000e+00  1.6953975480161616e+00 -9.9843300183728001e-01 0.0000000000000000e+00  5.0493487817903770e-01 -1.2332824461637393e+00 0.0000000000000000e+00  1.3953950656270968e+00 -4.7539622222910294e-01 0.0000000000000000e+00  -6.9785557054669278e-01 -1.8340168494473616e-01 0.0000000000000000e+00  8.9077626668226761e-01 1.6000858163180880e+00 0.0000000000000000e+00  3.0454810340448981e+00 4.7949314202482949e+00 0.0000000000000000e+00  2.6382250837606565e+00 5.5101761862838972e+00 0.0000000000000000e+00  3.4085867788657764e+00 4.7910004534398336e+00 0.0000000000000000e+00  3.8737387426296781e+00 5.4139828783877260e+00 0.0000000000000000e+00  4.4128538218587714e+00 5.6207561255413863e+00 0.0000000000000000e+00  4.8397424932486537e+00 5.9801544210672759e+00 0.0000000000000000e+00  5.1544924341673575e+00 5.9109806367812032e+00 0.0000000000000000e+00  5.5758915552600206e+00 6.0755118528945706e+00 0.0000000000000000e+00  5.8599667732058780e+00 5.9188895674612514e+00 0.0000000000000000e+00  5.8205937012803606e+00 5.3027503416207828e+00 0.0000000000000000e+00  6.5840390447704999e+00 5.6752822843975341e+00 0.0000000000000000e+00  4.6375266790048171e+00 1.6326502259235496e+00 0.0000000000000000e+00  1.3038963734896260e+01 1.2970773678776427e+01 0.0000000000000000e+00  1.3553276185797319e+01 1.2421489883447654e+01 0.0000000000000000e+00  1.3794667328734189e+01 1.1484446931975096e+01 0.0000000000000000e+00  1.4104285039572975e+01 1.0645151094416304e+01 0.0000000000000000e+00  1.4542749340806225e+01 9.9653750361639322e+00 0.0000000000000000e+00  1.5124372795620337e+01 9.6469303343397872e+00 0.0000000000000000e+00  1.5790485408622995e+01 9.3820511954345562e+00 0.0000000000000000e+00  1.6479165118982557e+01 9.1970711979125017e+00 0.0000000000000000e+00  1.7127521847389012e+01 8.9451219790996639e+00 0.0000000000000000e+00  1.7681771153995065e+01 8.5898026065702293e+00 0.0000000000000000e+00  1.8104762838063014e+01 7.7336432629071110e+00 0.0000000000000000e+00  1.8382911273360328e+01 7.0377103558406633e+00 0.0000000000000000e+00  1.8519678503836186e+01 5.3281993650773529e+00 0.0000000000000000e+00  1.8536760025433043e+01 4.2782134776158971e+00 0.0000000000000000e+00  1.8472669213114195e+01 1.8455067580195166e+00 0.0000000000000000e+00  1.8364608497259983e+01 9.0137301838247030e-01 0.0000000000000000e+00  1.8260533892714758e+01 -1.5781613515972202e+00 0.0000000000000000e+00  1.8182348758509189e+01 -1.5766058453482987e+00 0.0000000000000000e+00  1.8166525132225598e+01 1.6410044065376511e-03 0.0000000000000000e+00  1.8181395137202749e+01 9.8712817964331059e+00 0.0000000000000000e+00  1.8166511469854555e+01 -1.7683780378768975e-03 0.0000000000000000e+00  1.8237888374341729e+01 6.8780848901497320e+00 0.0000000000000000e+00  1.1610686565427116e+01 -5.3116705701349938e+00 0.0000000000000000e+00  1.3007973316298893e+01 -4.0191497031607692e+00 0.0000000000000000e+00  1.1150847824902021e+01 -8.4890255063501012e+00 0.0000000000000000e+00  1.1055190090548269e+01 -8.9253430281839297e+00 0.0000000000000000e+00  1.0147632367854394e+01 -1.0432244991146112e+01 0.0000000000000000e+00  9.5782343752291865e+00 -1.0625056025620669e+01 0.0000000000000000e+00  8.8913676526947061e+00 -1.0475510233320868e+01 0.0000000000000000e+00  8.3255567285516658e+00 -9.8178432444087864e+00 0.0000000000000000e+00  7.5713325070921709e+00 -9.4803034432725521e+00 0.0000000000000000e+00  7.0803494584597679e+00 -8.6431189758146960e+00 0.0000000000000000e+00  6.7144258041900393e+00 -7.6312554869567739e+00 0.0000000000000000e+00  6.2938558075912274e+00 -6.8217602213141797e+00 0.0000000000000000e+00  5.8837755850320264e+00 -6.0368038526910084e+00 0.0000000000000000e+00  5.4878227966856281e+00 -5.3013623683564077e+00 0.0000000000000000e+00  5.0702840757707008e+00 -4.7299768729737579e+00 0.0000000000000000e+00  4.6802229268455298e+00 -4.1722066382172862e+00 0.0000000000000000e+00  4.3282154020039973e+00 -3.6229362445526148e+00 0.0000000000000000e+00  3.9860986962381744e+00 -3.1856272108522767e+00 0.0000000000000000e+00  3.6771231015053254e+00 -2.7053166991257318e+00 0.0000000000000000e+00  3.4132434378527954e+00 -2.2847529559790565e+00 0.0000000000000000e+00  3.1623726548693636e+00 -1.8410313503465539e+00 0.0000000000000000e+00  2.9434476910550966e+00 -1.5553700068787757e+00 0.0000000000000000e+00  2.7514311916935297e+00 -1.0365006505056702e+00 0.0000000000000000e+00  2.5736939137349171e+00 -1.0151488078820754e+00 0.0000000000000000e+00  2.4006842521325922e+00 -3.3830040032731423e-01 0.0000000000000000e+00  2.2292553589004096e+00 -7.0278941791494376e-01 0.0000000000000000e+00  2.0390250497937195e+00 -2.9969621778493622e-02 0.0000000000000000e+00  1.7497876516935469e+00 2.3472575766702239e+00 0.0000000000000000e+00  2.9497324079454095e+00 4.1846138163454594e+00 0.0000000000000000e+00  2.5784634903833781e+00 4.9526184284739108e+00 0.0000000000000000e+00  3.3559147196389181e+00 4.2478224008997083e+00 0.0000000000000000e+00  3.7164318036207873e+00 4.7190178590911458e+00 0.0000000000000000e+00  4.1771670519133677e+00 4.8165887003163173e+00 0.0000000000000000e+00  4.7093963410334805e+00 5.3460389667415074e+00 0.0000000000000000e+00  5.1269178364279213e+00 5.4468142938926016e+00 0.0000000000000000e+00  5.4298913736845673e+00 5.4530915282667083e+00 0.0000000000000000e+00  5.8371656064949162e+00 5.5037640352545516e+00 0.0000000000000000e+00  6.1053833995323066e+00 5.3735614209962552e+00 0.0000000000000000e+00  6.0495152561186609e+00 4.5416929441606646e+00 0.0000000000000000e+00  6.7970800001539597e+00 4.5641321959517098e+00 0.0000000000000000e+00  4.8329660622371140e+00 3.8384336252409351e-01 0.0000000000000000e+00  1.3212080227879285e+01 1.1665830213623346e+01 0.0000000000000000e+00  1.3705710766515560e+01 1.1134482992385266e+01 0.0000000000000000e+00  1.3930067806373748e+01 1.0193291683703386e+01 0.0000000000000000e+00  1.4222229910686366e+01 9.3210723342697950e+00 0.0000000000000000e+00  1.4641453210053186e+01 8.7893532440392992e+00 0.0000000000000000e+00  1.5201333848113212e+01 8.3992152778172766e+00 0.0000000000000000e+00  1.5843539367632040e+01 8.1817822694139331e+00 0.0000000000000000e+00  1.6506081749750120e+01 7.9909595102600566e+00 0.0000000000000000e+00  1.7126919251357481e+01 7.7767462229908633e+00 0.0000000000000000e+00  1.7653767557550733e+01 7.1172947003748801e+00 0.0000000000000000e+00  1.8049800867996641e+01 6.6356619165798163e+00 0.0000000000000000e+00  1.8304416856023664e+01 5.1366164488417736e+00 0.0000000000000000e+00  1.8421420425736873e+01 4.2590195521337284e+00 0.0000000000000000e+00  1.8427596483511095e+01 1.9454826068142788e+00 0.0000000000000000e+00  1.8359896406179956e+01 1.0509925048328821e+00 0.0000000000000000e+00  1.8266802867837569e+01 -1.4312572884301278e+00 0.0000000000000000e+00  1.8185124026492478e+01 -1.5082472786682828e+00 0.0000000000000000e+00  1.8169796995427809e+01 2.3476826996843363e-03 0.0000000000000000e+00  1.8175875049012063e+01 9.8190886833192348e+00 0.0000000000000000e+00  1.8169784427854474e+01 -2.5586214949486811e-03 0.0000000000000000e+00  1.8231519429910449e+01 6.7841615177226933e+00 0.0000000000000000e+00  1.8284618639283536e+01 4.6429715734379489e+00 0.0000000000000000e+00  1.1638650439119759e+01 -6.1031808184953054e+00 0.0000000000000000e+00  1.3022757790362432e+01 -5.7046996706103883e+00 0.0000000000000000e+00  1.1167863663069484e+01 -8.7862391290373658e+00 0.0000000000000000e+00  1.1080495532680738e+01 -9.0806568335093854e+00 0.0000000000000000e+00  1.0185286245367774e+01 -9.7809347367659623e+00 0.0000000000000000e+00  9.6295749363644561e+00 -9.4568951985191525e+00 0.0000000000000000e+00  8.9580190218842493e+00 -8.9813473137100033e+00 0.0000000000000000e+00  8.4078423931054651e+00 -8.3619208969864971e+00 0.0000000000000000e+00  7.6701341829500915e+00 -7.9200217510260194e+00 0.0000000000000000e+00  7.1963243257808740e+00 -7.0964647431348444e+00 0.0000000000000000e+00  6.8481909972101063e+00 -6.2055239360675243e+00 0.0000000000000000e+00  6.4462298947664749e+00 -5.4369145547295492e+00 0.0000000000000000e+00  6.0556223629481769e+00 -4.7232374597897255e+00 0.0000000000000000e+00  5.6797488347327914e+00 -4.1198173456920548e+00 0.0000000000000000e+00  5.2827505649389099e+00 -3.6034554731887716e+00 0.0000000000000000e+00  4.9134909292596305e+00 -3.1113411945845515e+00 0.0000000000000000e+00  4.5822582328796981e+00 -2.6887955032978628e+00 0.0000000000000000e+00  4.2607639246860955e+00 -2.2579078537208841e+00 0.0000000000000000e+00  3.9720220339459584e+00 -1.9047968305871921e+00 0.0000000000000000e+00  3.7279567450272699e+00 -1.4799713271170987e+00 0.0000000000000000e+00  3.4961074341305531e+00 -1.2420551334948899e+00 0.0000000000000000e+00  3.2957597474481224e+00 -7.6246600091394345e-01 0.0000000000000000e+00  3.1210763544149502e+00 -7.6288626617164079e-01 0.0000000000000000e+00  2.9605713568388397e+00 -9.0837780461383008e-02 0.0000000000000000e+00  2.8025785635973128e+00 -4.6012625490246517e-01 0.0000000000000000e+00  2.6481070325323355e+00 2.4637787672128048e-01 0.0000000000000000e+00  2.4683827855420137e+00 2.7660031344246332e+00 0.0000000000000000e+00  3.1249515294045973e+00 3.6283995283312604e+00 0.0000000000000000e+00  2.7792765167350795e+00 4.4332171749018565e+00 0.0000000000000000e+00  3.4950452208372194e+00 3.6400891145028198e+00 0.0000000000000000e+00  3.8986814832689887e+00 4.1809319207238937e+00 0.0000000000000000e+00  4.2550071125666085e+00 4.1298779496874598e+00 0.0000000000000000e+00  4.7089176851547796e+00 4.5543053547832884e+00 0.0000000000000000e+00  5.2311673673934207e+00 4.8296975348934605e+00 0.0000000000000000e+00  5.6351007456282662e+00 5.0102612603004317e+00 0.0000000000000000e+00  5.9209895092787050e+00 4.9067558000787486e+00 0.0000000000000000e+00  6.3082484813626678e+00 4.9867756580530660e+00 0.0000000000000000e+00  6.5547935121396135e+00 4.6410015780663638e+00 0.0000000000000000e+00  6.4773217208866409e+00 3.4578575165365852e+00 0.0000000000000000e+00  7.2041582043909740e+00 3.3463522574652620e+00 0.0000000000000000e+00  5.2159868811610135e+00 -8.8206514240718392e-01 0.0000000000000000e+00  1.3565579000631601e+01 1.0413901821272795e+01 0.0000000000000000e+00  1.4034046403266581e+01 9.8713344518315331e+00 0.0000000000000000e+00  1.4238457079552461e+01 8.8981280747201037e+00 0.0000000000000000e+00  1.4509233040508400e+01 8.1777297524375498e+00 0.0000000000000000e+00  1.4903753690194490e+01 7.5804072748853040e+00 0.0000000000000000e+00  1.5433464321818690e+01 7.2426522812835668e+00 0.0000000000000000e+00  1.6040390220824516e+01 7.0249680190617880e+00 0.0000000000000000e+00  1.6662874082999561e+01 6.8759274215064998e+00 0.0000000000000000e+00  1.7239827214373470e+01 6.3593483333624077e+00 0.0000000000000000e+00  1.7720273687852423e+01 6.0735209998133364e+00 0.0000000000000000e+00  1.8070791896129627e+01 4.7864426337609913e+00 0.0000000000000000e+00  1.8281647295054078e+01 4.1083541955230407e+00 0.0000000000000000e+00  1.8363925922514706e+01 1.9582939134810351e+00 0.0000000000000000e+00  1.8343877150262415e+01 1.1554832543114666e+00 0.0000000000000000e+00  1.8273488542173325e+01 -1.2893193110875485e+00 0.0000000000000000e+00  1.8191996951099402e+01 -1.4328289231122424e+00 0.0000000000000000e+00  1.8174118317279746e+01 2.9769602167059751e-03 0.0000000000000000e+00  1.8176364480094385e+01 9.7987726203335512e+00 0.0000000000000000e+00  1.8174106326852790e+01 -3.2573684747186338e-03 0.0000000000000000e+00  1.8190005048316170e+01 6.7018940819073398e+00 0.0000000000000000e+00  1.8236017091953684e+01 4.5676246