<?xml version="1.0"?>
<VTKFile type="UnstructuredGrid"  version="0.1"  >
<UnstructuredGrid>
<Piece  NumberOfPoints="1933" NumberOfCells="3640">
<Points>
<DataArray  type="Float64"  NumberOfComponents="3"  format="ascii">-0.0002620339614450851 0.001679337887804445 0  4.999737983439121 0.001608020832574823 0  4.999845024101839 7.501608102918869 0  -0.0001550287752005164 7.501679356703178 0  9.999737993008893 0.001536614592201239 0  9.999845128892705 7.501536722614015 0  14.99973804223005 0.001465043925575947 0  14.99984531719006 7.501465162238929 0  19.99973819090392 0.001393279450559693 0  19.99984562186567 7.501393401590651 0  24.99973849981131 0.001321320794922635 0  24.99984607754971 7.501321444553736 0  29.99973902709277 0.001249186515561041 0  29.99984671997957 7.501249311747731 0  34.99973982795545 0.001176908033842244 0  34.99984758553476 7.501177035625964 0  39.99974095577853 0.001104526188270204 0  39.99984871116787 7.501104657576094 0  44.99974246376198 0.001032089576524931 0  44.99985013466002 7.501032226534661 0  49.99974440675632 0.0009596541858476136 0  49.99985189508153 7.500959798758411 0  54.99974684314025 0.0008872840259737393 0  54.99985403335129 7.50088743853403 0  59.99974983671733 0.0008150526315547776 0  59.99985659281075 7.500815219726038 0  64.99975345865307 0.0007430454193993014 0  64.99985961973493 7.500743228164309 0  69.99975778948459 0.0006713629904788163 0  69.9998631637019 7.500671564967957 0  74.99976292124482 0.0006001255751213383 0  74.9998672777167 7.500600351002984 0  79.99976895971957 0.0005294789508283276 0  79.99987201794023 7.50052973279306 0  84.99977602683157 0.0004596023389841232 0  84.99987744279983 7.500459890362209 0  89.99978426306411 0.0003907190430204273 0  89.99988361113881 7.500391047709035 0  94.99979382970182 0.0003231109783370588 0  94.99989057888392 7.500323486925152 0  99.99980491036006 0.0002571388472831059 0  99.999898393466 7.500257567414909 0  104.9998177106943 0.0001932706670054396 0  104.9999070848871 7.500193752294922 0  109.9998324539737 0.0001321228862759432 0  109.9999166519555 7.500132644878335 0  114.9998493678132 7.452078621776784e-05 0  114.9999270419531 7.500075039143525 0  119.9998686524949 2.15888011684953e-05 0  119.9999381223688 7.500021988985359 0  124.9998904115116 -2.511240769670688e-05 0  124.9999496457077 7.499974901018629 0  129.9999145050473 -6.337611737323073e-05 0  129.9999612161629 7.499935652593238 0  134.9999402463337 -9.003003717499906e-05 0  134.9999722885407 7.499906725908834 0  139.9999657753282 -0.0001004718761330738 0  139.999982286051 7.499891324836531 0  144.9999867538583 -8.812846599283589e-05 0  144.999991069972 7.499893420738013 0  149.9999935391342 -4.463385987735366e-05 0  150.0000004036274 7.49991788338635 0  160.0000000000006 9.185792513144734e-19 0  164.9998684730134 -0.0001707087159133482 0  164.9999769671702 7.499805120695692 0  160.0000170986793 7.499942263893576 0  169.999792119785 -0.000322113446089866 0  169.9999361701517 7.499665638366188 0  174.9997461725924 -0.0004594357452853468 0  174.9999018596471 7.499533724987129 0  179.9997178471818 -0.0005854201740461978 0  179.9998748948412 7.499410560004355 0  184.9997001347917 -0.000702283730033554 0  184.9998543710789 7.499295269962819 0  189.9996890373468 -0.0008118616138505766 0  189.99983903302 7.499186605228398 0  194.9996821942517 -0.0009156181157669328 0  194.9998277199239 7.499083395035129 0  199.9996781629067 -0.001014694228613615 0  199.9998194793211 7.498984655512994 0  204.9996760301523 -0.001109972163169872 0  204.9998135670024 7.498889591325612 0  209.9996751974584 -0.001202136051805776 0  209.9998094134617 7.498797567411792 0  214.9996752593699 -0.001291721331293095 0  214.9998065859307 7.498708076600169 0  219.9996759329373 -0.001379152331174798 0  219.9998047554549 7.498620711188422 0  224.9996770155653 -0.001464770039592147 0  224.9998036709505 7.498535140200942 0  229.9996783590614 -0.001548852400440724 0  229.9998031396238 7.498451091879948 0  234.9996798531481 -0.001631629165706573 0  234.9998030124802 7.498368340402165 0  239.9996814146593 -0.001713292851585251 0  239.9998031736676 7.498286695820269 0  244.9996829802647 -0.001794006922741085 0  244.9998035326474 7.498205996402853 0  249.999684501444 -0.001873912001481409 0  249.9998040184226 7.498126102739375 0  254.9996859409672 -0.001953130660943758 0  254.9998045752736 7.498046893142191 0  259.9996872704041 -0.002031771193023883 0  259.9998051595942 7.497968260006309 0  264.9996884684015 -0.002109930622062148 0  264.9998057375578 7.497890106886016 0  269.9996895195393 -0.002187697146582996 0  269.9998062834078 7.497812346123526 0  274.999690413703 -0.002265152118329321 0  274.9998067782304 7.497734896929461 0  279.9996911459237 -0.002342371594651709 0  279.9998072091003 7.497657683877735 0  284.9996917167244 -0.002419427406411295 0  284.9998075685141 7.497580635851742 0  289.9996921329905 -0.002496387534740845 0  289.9998078540086 7.497503685578529 0  294.9996924094368 -0.002573315322194937 0  294.9998080678974 7.497426770032965 0  299.9996925705689 -0.002650266524946402 0  299.9998082170368 7.497349832200902 0  304.9996926527097 -0.002727282154423449 0  304.999808312742 7.497272824951651 0  309.9996927045911 -0.002804372796278131 0  309.9998083715511 7.497195717987085 0  4.999951736759799 15.0016083087199 0  -4.832575609609036e-05 15.00167940807683 0  9.999951855385364 15.00153699114842 0  14.99995206028967 15.00146545014116 0  19.99995237404345 15.00139369086176 0  24.9999528166403 15.00132173001503 0  29.99995340763526 15.00124959452174 0  34.99995416688612 15.00117731983437 0  39.99995511470331 15.00110494871644 0  44.99995627177492 15.00103253072368 0  49.9999576590032 15.00096012241482 0  54.99995929727731 15.0008877882724 0  59.99996120714856 15.0008156023333 0  64.99996340834842 15.00074365057413 0  69.99996591905968 15.00067203415602 0  74.99996875483608 15.00060087370439 0  79.99997192703326 15.00053031488331 0  84.99997544059157 15.00046053562538 0  89.99997929098947 15.00039175549873 0  94.99998346019929 15.00032424782433 0  99.99998791154844 15.00025835527631 0  104.9999925836464 15.00019450973049 0  109.9999973840842 15.00013325690301 0  115.0000021848203 15.00007528545973 0  120.0000068234733 15.0000214579626 0  125.0000111189517 14.99997283555697 0  130.0000149168945 14.99993067620039 0  135.0000181906988 14.9998963601589 0  140.0000212347306 14.99987113966462 0  145.0000249817204 14.99985547442324 0  150.0000313889749 14.99984731675377 0  165.0000444782007 14.99973930137021 0  160.0000514814911 14.99984336270976 0  170.0000303603363 14.99962502516528 0  175.0000134017418 14.99950884534635 0  179.9999966307876 14.99939512222696 0  184.9999815371765 14.99928549298906 0  189.9999686533359 14.99918026413044 0  194.9999580123771 14.99907917852515 0  199.9999494198884 14.99898178247091 0  204.9999425993536 14.99888758900431 0  209.9999372641242 14.99879614405976 0  214.9999331495756 14.99870704813979 0  219.9999300247812 14.99861995869198 0  224.9999276942658 14.99853458494774 0  229.9999259953918 14.99845068051466 0  234.9999247941861 14.99836803595617 0  239.999923980931 14.99828647218249 0  244.9999234661018 14.99820583485435 0  249.999923176862 14.99812598974937 0  254.9999230541331 14.99804681895448 0  259.9999230502011 14.99796821773782 0  264.9999231267743 14.99789009196944 0  269.9999232534199 14.99781235598969 0  274.999923406299 14.99773493085436 0  279.9999235671204 14.99765774291741 0  284.9999237222791 14.99758072274157 0  289.9999238621003 14.99750380434552 0  294.9999239802376 14.99742692477659 0  299.999924073297 14.99735002386817 0  304.9999241410093 14.99727304359321 0  309.9999241875694 14.99719592511288 0  5.000058025246107 22.50160876136172 0  5.796173484068357e-05 22.50167968916173 0  10.00005812982418 22.50153751854563 0  15.00005830016036 22.50146600036789 0  20.00005855184472 22.50139424027503 0  25.00005889553272 22.50132227166283 0  30.00005933944057 22.50125013079275 0  35.00005989058904 22.50117785807072 0  40.00006055524478 22.50110549870512 0  45.00006133887923 22.50103310330582 0  50.00006224583546 22.50096072871806 0  55.00006327879198 22.50088843924567 0  60.00006443805333 22.50081630836348 0  65.00006572065736 22.50074442100729 0  70.00006711926964 22.50067287654118 0  75.00006862083083 22.50060179252758 0  80.00007020493008 22.5005313094506 0  85.00007184191188 22.50046159656342 0  90.00007349079463 22.50039285902372 0  95.00007509721534 22.50032534641862 0  100.0000765918557 22.50025936259454 0  105.0000778902154 22.50019527628712 0  110.0000788952538 22.50013353117252 0  115.0000795054001 22.50007465226986 0  120.0000796317497 22.50001924247852 0  125.000079229717 22.49996795743462 0  130.0000783511455 22.49992143734799 0  135.0000772205701 22.49988015934323 0  140.0000763283823 22.49984415272186 0  145.0000765020843 22.49981250111852 0  150.0000788430031 22.49978259589876 0  165.0001049404246 22.49966654531622 0  160.0000961869521 22.49975098286381 0  170.0001068520689 22.49957134157147 0  175.0001037807659 22.49947066419094 0  180.0000977505807 22.49936835353369 0  185.000090384552 22.49926674874042 0  190.0000827676056 22.49916705722953 0  195.0000755367867 22.49906977686391 0  200.0000690166603 22.49897500692671 0  205.0000633341975 22.49888264279696 0  210.0000585005997 22.49879248793376 0  215.0000544646857 22.49870431452752 0  220.0000511457761 22.49861789438466 0  225.0000484529865 22.49853301330097 0  230.0000462959509 22.49844947662409 0  235.0000445903503 22.49836711031768 0  240.0000432603883 22.49828575987689 0  245.000042239544 22.49820528833664 0  250.0000414703952 22.4981255740069 0  255.0000409039857 22.49804650824066 0  260.0000404989875 22.49796799337043 0  265.0000402208184 22.49788994086047 0  270.0000400407691 22.49781226968252 0  275.0000399351823 22.49773490490301 0  280.000039884684 22.49765777646018 0  285.0000398734757 22.49758081809347 0  290.0000398886962 22.49750396634828 0  295.0000399199039 22.49742715
[...]
<PointData  Vectors="v"> 
<DataArray  type="Float64"  Name="v"  NumberOfComponents="3" format="ascii">1.5805325653969124e+00 -5.7323280149186617e+00 0.0000000000000000e+00  1.1462685791295610e+00 -5.5684753523743247e+00 0.0000000000000000e+00  8.4518516638022401e-01 -4.9172350844630710e+00 0.0000000000000000e+00  1.1771957139755156e+00 -5.2349192079723004e+00 0.0000000000000000e+00  5.6664407759775370e-01 -6.2427215393258768e+00 0.0000000000000000e+00  4.1112824322613933e-01 -5.3741715386859576e+00 0.0000000000000000e+00  -5.8128538704119246e-03 -7.3267335505505375e+00 0.0000000000000000e+00  -1.6755236302188542e-01 -6.4693519727948141e+00 0.0000000000000000e+00  -5.6300991513523890e-01 -7.9585022313806935e+00 0.0000000000000000e+00  -7.3844230146374767e-01 -7.1247942454615503e+00 0.0000000000000000e+00  -1.2346635366927112e+00 -9.0181656412188946e+00 0.0000000000000000e+00  -1.2934001684141245e+00 -8.0135410329891865e+00 0.0000000000000000e+00  -1.8122599863533051e+00 -9.7037938042585488e+00 0.0000000000000000e+00  -1.9617237898627931e+00 -8.8408219266174175e+00 0.0000000000000000e+00  -1.9675644290356400e+00 -9.8020974748555254e+00 0.0000000000000000e+00  -2.5351627399018057e+00 -9.5735673306714748e+00 0.0000000000000000e+00  -2.9460275937132319e+00 -1.1012736214796082e+01 0.0000000000000000e+00  -2.6854171577259627e+00 -9.5504013257635556e+00 0.0000000000000000e+00  1.4456333557234385e-01 -6.1351377831432350e+00 0.0000000000000000e+00  -3.6575316137587057e+00 -1.0776825240322330e+01 0.0000000000000000e+00  -9.4318320921061023e+00 -1.9998763740336635e+01 0.0000000000000000e+00  -5.5957280024927158e-01 -5.6419089252287105e+00 0.0000000000000000e+00  -8.3847074566081208e+00 -1.7478470036361426e+01 0.0000000000000000e+00  -1.0128367993685888e+01 -1.9056919036992557e+01 0.0000000000000000e+00  -8.2548459880151075e+00 -1.6249495592807516e+01 0.0000000000000000e+00  -9.0719371273511165e+00 -1.6454160788086252e+01 0.0000000000000000e+00  -8.7906775532916743e+00 -1.6027184725494934e+01 0.0000000000000000e+00  -8.9304263721264530e+00 -1.5235411922169865e+01 0.0000000000000000e+00  -9.8595629925553094e+00 -1.6615559462336233e+01 0.0000000000000000e+00  -9.4524915490085277e+00 -1.5026592426031373e+01 0.0000000000000000e+00  -1.1285891335856899e+01 -1.7678496734688373e+01 0.0000000000000000e+00  -1.0504453448628521e+01 -1.5554906281112096e+01 0.0000000000000000e+00  -1.2977190269267934e+01 -1.8999871653726036e+01 0.0000000000000000e+00  -1.1911609188475552e+01 -1.6481588774431792e+01 0.0000000000000000e+00  -1.4849909708629831e+01 -2.0592793390394018e+01 0.0000000000000000e+00  -1.3581458049888646e+01 -1.7804683669761992e+01 0.0000000000000000e+00  -1.6820431152793088e+01 -2.2079873890016692e+01 0.0000000000000000e+00  -1.5429102966615268e+01 -1.9146789380363611e+01 0.0000000000000000e+00  -1.8819292364141262e+01 -2.3477997381890724e+01 0.0000000000000000e+00  -1.7372381764178449e+01 -2.0505749937667979e+01 0.0000000000000000e+00  -2.0782270548063487e+01 -2.4634942234958022e+01 0.0000000000000000e+00  -1.9340825502698451e+01 -2.1718537481662882e+01 0.0000000000000000e+00  -2.2633771086769588e+01 -2.5465998734932903e+01 0.0000000000000000e+00  -2.1270260943862297e+01 -2.2719741020093608e+01 0.0000000000000000e+00  -2.4313217905621176e+01 -2.5578583968126871e+01 0.0000000000000000e+00  -2.3084210539081262e+01 -2.3092399033039012e+01 0.0000000000000000e+00  -2.5779769982709173e+01 -2.5513236571155918e+01 0.0000000000000000e+00  -2.4725078783663509e+01 -2.3351233953148448e+01 0.0000000000000000e+00  -2.6984712124343670e+01 -2.4060820551199587e+01 0.0000000000000000e+00  -2.6145541173083416e+01 -2.2289858686379741e+01 0.0000000000000000e+00  -2.7930337048070012e+01 -2.2610527284058819e+01 0.0000000000000000e+00  -2.7307147697489533e+01 -2.1238042269143211e+01 0.0000000000000000e+00  -2.8598963101476834e+01 -1.9169186916674789e+01 0.0000000000000000e+00  -2.8197061090893719e+01 -1.8204890835088499e+01 0.0000000000000000e+00  -2.9041251416100895e+01 -1.5779454446635876e+01 0.0000000000000000e+00  -2.8819323167815394e+01 -1.5172072574973621e+01 0.0000000000000000e+00  -2.9266250578527774e+01 -1.0257718311255291e+01 0.0000000000000000e+00  -2.9194372466202779e+01 -9.9585407291937678e+00 0.0000000000000000e+00  -2.9368185477932069e+01 -3.6988029822668733e+00 0.0000000000000000e+00  -2.9372131265069601e+01 -3.6147134748695873e+00 0.0000000000000000e+00  -2.9389262613534040e+01 -2.3080184544432943e-11 0.0000000000000000e+00  -2.9389474443766947e+01 -2.1072457563051024e-04 0.0000000000000000e+00  -2.9389262614609905e+01 7.0128094811489168e-20 0.0000000000000000e+00  -2.1018718535794473e+01 1.1490243401826062e+01 0.0000000000000000e+00  -2.9366976710454722e+01 -1.0277433855166849e+00 0.0000000000000000e+00  -2.9389472733399419e+01 2.1399582967108474e-04 0.0000000000000000e+00  -2.0624635235184048e+01 2.0691395231858564e+01 0.0000000000000000e+00  -2.1047529136535367e+01 2.0168010966027076e+01 0.0000000000000000e+00  -1.7602205007267816e+01 2.7677512566575256e+01 0.0000000000000000e+00  -2.0713049963115903e+01 2.3185538025158401e+01 0.0000000000000000e+00  -1.6451383436930247e+01 2.9106358777521024e+01 0.0000000000000000e+00  -1.7748088003773368e+01 2.7431371436462069e+01 0.0000000000000000e+00  -1.4657412019771611e+01 3.0547990160455292e+01 0.0000000000000000e+00  -1.6650816134345000e+01 2.7902018371232259e+01 0.0000000000000000e+00  -1.3284422070406285e+01 2.9742128374470578e+01 0.0000000000000000e+00  -1.4907987804921282e+01 2.7728387360186726e+01 0.0000000000000000e+00  -1.1898093802846414e+01 2.8689744042174620e+01 0.0000000000000000e+00  -1.3585578263909204e+01 2.6652251499007676e+01 0.0000000000000000e+00  -1.0681945246626370e+01 2.6797371032009377e+01 0.0000000000000000e+00  -1.2246915225909188e+01 2.5015774082875197e+01 0.0000000000000000e+00  -9.3122349195814813e+00 2.4954745583204819e+01 0.0000000000000000e+00  -1.1077016784546711e+01 2.2940488559857123e+01 0.0000000000000000e+00  -8.2831631205665079e+00 2.2743125409465428e+01 0.0000000000000000e+00  -9.7525379876522482e+00 2.1238973414236856e+01 0.0000000000000000e+00  -7.4090125961552413e+00 2.0659878192211863e+01 0.0000000000000000e+00  -8.7670885219573726e+00 1.9387283714360041e+01 0.0000000000000000e+00  -6.4793422076115865e+00 1.8862341801161953e+01 0.0000000000000000e+00  -7.9354012006202668e+00 1.7505538696290511e+01 0.0000000000000000e+00  -5.6132553922271642e+00 1.7218787669115290e+01 0.0000000000000000e+00  -7.0474454444020616e+00 1.5956327633328701e+01 0.0000000000000000e+00  -4.8129887033894292e+00 1.5773489090332632e+01 0.0000000000000000e+00  -6.2218892765124929e+00 1.4609245866814037e+01 0.0000000000000000e+00  -4.0547663463792460e+00 1.4450775383658382e+01 0.0000000000000000e+00  -5.4612448951142278e+00 1.3348756882085446e+01 0.0000000000000000e+00  -3.3783166217351077e+00 1.3187005351060833e+01 0.0000000000000000e+00  -4.7419547367209853e+00 1.2206936523729459e+01 0.0000000000000000e+00  -2.7853602992611881e+00 1.2014730219681603e+01 0.0000000000000000e+00  -4.1035797923620745e+00 1.1159389203414909e+01 0.0000000000000000e+00  -2.2431655587540109e+00 1.0883465485850234e+01 0.0000000000000000e+00  -3.5479510060083017e+00 1.0103706586324845e+01 0.0000000000000000e+00  -1.7693992000201282e+00 9.7782228728178548e+00 0.0000000000000000e+00  -3.0425906935937119e+00 9.1005026393641728e+00 0.0000000000000000e+00  -1.3665972426817117e+00 8.7193240590639469e+00 0.0000000000000000e+00  -2.6049288742759109e+00 8.1477635784472273e+00 0.0000000000000000e+00  -1.0082526630536515e+00 7.6631690208560777e+00 0.0000000000000000e+00  -2.2378537804877059e+00 7.1576935252975877e+00 0.0000000000000000e+00  -7.0537984755247973e-01 6.6394467104205130e+00 0.0000000000000000e+00  -1.9145486378153764e+00 6.2170646498548257e+00 0.0000000000000000e+00  -4.6188425971172764e-01 5.6308280553298253e+00 0.0000000000000000e+00  -1.6467086088035137e+00 5.2967292383342883e+00 0.0000000000000000e+00  -2.5967334405736214e-01 4.6608819722489550e+00 0.0000000000000000e+00  -1.4370585171561308e+00 4.3892277963735511e+00 0.0000000000000000e+00  -1.0734049782268849e-01 3.6907654611713183e+00 0.0000000000000000e+00  -1.2697386836038285e+00 3.4921847278063067e+00 0.0000000000000000e+00  2.1867719825174122e-03 2.8527699220244003e+00 0.0000000000000000e+00  -1.1496142939678022e+00 2.7206504165569938e+00 0.0000000000000000e+00  7.1192934333905306e-02 1.9677804237295251e+00 0.0000000000000000e+00  -1.0758739989570743e+00 1.8920419599078626e+00 0.0000000000000000e+00  1.3779915569779547e-01 1.3345281777860993e+00 0.0000000000000000e+00  -1.0359067175729251e+00 1.2691482302869665e+00 0.0000000000000000e+00  2.0937671074994080e-01 7.1255709560946512e-01 0.0000000000000000e+00  -1.0096972148306727e+00 6.2732188059844529e-01 0.0000000000000000e+00  3.7245478621072442e-01 -1.7139895052259121e-01 0.0000000000000000e+00  -9.5428627874491967e-01 -3.6975919420765913e-01 0.0000000000000000e+00  1.2610491885315314e-01 -4.4183393473600852e+00 0.0000000000000000e+00  4.8566907443746660e-01 -4.6975461780904872e+00 0.0000000000000000e+00  -2.0716183228509483e-01 -4.7223125805940338e+00 0.0000000000000000e+00  -6.4228904263623976e-01 -5.6011488612468421e+00 0.0000000000000000e+00  -1.2212268387485785e+00 -6.2688109821686213e+00 0.0000000000000000e+00  -1.7913300713251203e+00 -7.1818955798374020e+00 0.0000000000000000e+00  -2.3444255716756377e+00 -7.8402048349716926e+00 0.0000000000000000e+00  -3.0093452697464982e+00 -8.7164004112317901e+00 0.0000000000000000e+00  -3.5774515038357593e+00 -9.3285722468582453e+00 0.0000000000000000e+00  -3.7207747321438203e+00 -9.3239578849145861e+00 0.0000000000000000e+00  -4.6834618142422730e+00 -1.0295490992617820e+01 0.0000000000000000e+00  -1.5749832665832941e+00 -4.7082831526567182e+00 0.0000000000000000e+00  -1.1137618196695101e+01 -1.8042215397427189e+01 0.0000000000000000e+00  -1.0074057504159445e+01 -1.5455041907814303e+01 0.0000000000000000e+00  -9.9196890190033180e+00 -1.4252183392731911e+01 0.0000000000000000e+00  -1.0425036302840086e+01 -1.3990027607796982e+01 0.0000000000000000e+00  -1.1454553725346877e+01 -1.4386534118244043e+01 0.0000000000000000e+00  -1.2834442549626166e+01 -1.5317409455637343e+01 0.0000000000000000e+00  -1.4472909668391775e+01 -1.6396890673447817e+01 0.0000000000000000e+00  -1.6283559144104714e+01 -1.7615628441478524e+01 0.0000000000000000e+00  -1.8184290448575435e+01 -1.8792131054336259e+01 0.0000000000000000e+00  -2.0105754221245078e+01 -1.9857612370224714e+01 0.0000000000000000e+00  -2.1980900972634320e+01 -2.0405688833345813e+01 0.0000000000000000e+00  -2.3734820658348706e+01 -2.0928954294173277e+01 0.0000000000000000e+00  -2.5308509586388517e+01 -2.0200330071882963e+01 0.0000000000000000e+00  -2.6655784781910771e+01 -1.9546478067260704e+01 0.0000000000000000e+00  -2.7733536412755555e+01 -1.6914210390495455e+01 0.0000000000000000e+00  -2.8539023569941818e+01 -1.4306618106671884e+01 0.0000000000000000e+00  -2.9056998995199450e+01 -9.4359402966178063e+00 0.0000000000000000e+00  -2.9341483261080196e+01 -3.4427289289866327e+00 0.0000000000000000e+00  -2.9389987343686879e+01 -4.0237951384410259e-04 0.0000000000000000e+00  -2.9328823832887402e+01 -1.1874349847556098e+00 0.0000000000000000e+00  -2.9389984130563064e+01 4.3344529088917345e-04 0.0000000000000000e+00  -2.9172584457576772e+01 7.7088508273674679e+00 0.0000000000000000e+00  -2.0917934990758390e+01 2.2736095801064561e+01 0.0000000000000000e+00  -2.0664353668736013e+01 2.3026122516140951e+01 0.0000000000000000e+00  -1.7767689384612336e+01 2.6297233947264083e+01 0.0000000000000000e+00  -1.6736290826291008e+01 2.5146761147282071e+01 0.0000000000000000e+00  -1.5049847931076366e+01 2.4704189416700213e+01 0.0000000000000000e+00  -1.3783101054942739e+01 2.3037733527847735e+01 0.0000000000000000e+00  -1.2494355501906337e+01 2.1214074410457144e+01 0.0000000000000000e+00  -1.1371581110357884e+01 1.9279899963883938e+01 0.0000000000000000e+00  -1.0092050971469217e+01 1.7935166923938006e+01 0.0000000000000000e+00  -9.1495240572922381e+00 1.6282512513275069e+01 0.0000000000000000e+00  -8.3587506898570609e+00 1.4648840307676341e+01 0.0000000000000000e+00  -7.5107442196060328e+00 1.3394175394154198e+01 0.0000000000000000e+00  -6.7235972627551090e+00 1.2230052968555906e+01 0.0000000000000000e+00  -5.9999114507071409e+00 1.1149906117988992e+01 0.0000000000000000e+00  -5.3165642765326924e+00 1.0222878686134452e+01 0.0000000000000000e+00  -4.7129219191698990e+00 9.2905347912151228e+00 0.0000000000000000e+00  -4.1908707382848327e+00 8.3623347527013436e+00 0.0000000000000000e+00  -3.7182300284401122e+00 7.5105935163634463e+00 0.0000000000000000e+00  -3.3124097224360836e+00 6.6256997098771970e+00 0.0000000000000000e+00  -2.9762554605583391e+00 5.7506421476070644e+00 0.0000000000000000e+00  -2.6833438829694631e+00 4.9126730041035067e+00 0.0000000000000000e+00  -2.4450160170952326e+00 4.0926856574415442e+00 0.0000000000000000e+00  -2.2645719734073739e+00 3.2577551089432490e+00 0.0000000000000000e+00  -2.1253294887076217e+00 2.5586103757364578e+00 0.0000000000000000e+00  -2.0337667877763606e+00 1.7956974442440279e+00 0.0000000000000000e+00  -1.9860557742377745e+00 1.2292309040351828e+00 0.0000000000000000e+00  -1.9746831094563400e+00 5.9816808085514550e-01 0.0000000000000000e+00  -1.9724775183047729e+00 -4.3115249604003447e-01 0.0000000000000000e+00  -1.1234984606635068e+00 -3.8770505769807295e+00 0.0000000000000000e+00  -8.0191620788424434e-01 -4.2181646139862750e+00 0.0000000000000000e+00  -1.4861286485402554e+00 -4.2195026359932992e+00 0.0000000000000000e+00  -1.8240576807564617e+00 -4.9462147067595321e+00 0.0000000000000000e+00  -2.2627309941193241e+00 -5.3987514225071056e+00 0.0000000000000000e+00  -2.8444605512008105e+00 -6.3261740363811629e+00 0.0000000000000000e+00  -3.4158838522524575e+00 -7.0117940532864926e+00 0.0000000000000000e+00  -3.9677083334696679e+00 -7.7218759188661217e+00 0.0000000000000000e+00  -4.6288273516858212e+00 -8.4816970591612861e+00 0.0000000000000000e+00  -5.1898242210878900e+00 -9.1173142771361491e+00 0.0000000000000000e+00  -5.3215258312045464e+00 -8.8625822474490974e+00 0.0000000000000000e+00  -6.2690768374481163e+00 -9.3821942695345868e+00 0.0000000000000000e+00  -3.1493021311080405e+00 -3.7028736085502576e+00 0.0000000000000000e+00  -1.2710975054703011e+01 -1.7052280462946310e+01 0.0000000000000000e+00  -1.1645395853837673e+01 -1.4494338703706838e+01 0.0000000000000000e+00  -1.1478472223165619e+01 -1.3249038467385912e+01 0.0000000000000000e+00  -1.1961288033958629e+01 -1.2865882736540383e+01 0.0000000000000000e+00  -1.2959153625031174e+01 -1.3278048910135400e+01 0.0000000000000000e+00  -1.4298716386372771e+01 -1.3976211737729800e+01 0.0000000000000000e+00  -1.5887131723947819e+01 -1.4942843855937319e+01 0.0000000000000000e+00  -1.7638837108726115e+01 -1.5991470446581218e+01 0.0000000000000000e+00  -1.9471272773981543e+01 -1.7034206379000420e+01 0.0000000000000000e+00  -2.1312211324415834e+01 -1.7657973833976769e+01 0.0000000000000000e+00  -2.3096578770233023e+01 -1.8375419436342266e+01 0.0000000000000000e+00  -2.4744860734341966e+01 -1.7922194934249728e+01 0.0000000000000000e+00  -2.6201718026526962e+01 -1.7625214012825651e+01 0.0000000000000000e+00  -2.7412329352548717e+01 -1.5395887569792295e+01 0.0000000000000000e+00  -2.8346503061393797e+01 -1.3230152758925330e+01 0.0000000000000000e+00  -2.8977780513157700e+01 -8.7594955991295773e+00 0.0000000000000000e+00  -2.9334549788657910e+01 -3.2008030633072773e+00 0.0000000000000000e+00  -2.9390789094682248e+01 -5.7641647759882242e-04 0.0000000000000000e+00  -2.9304827439801407e+01 -1.5003070928469555e+00 0.0000000000000000e+00  -2.9390786151643368e+01 6.2799088011092840e-04 0.0000000000000000e+00  -2.8937341531396847e+01 7.4169614381273457e+00 0.0000000000000000e+00  -2.8768873024352722e+01 1.0435414339840735e+01 0.0000000000000000e+00  -2.0626332659424069e+01 2.2746972524356483e+01 0.0000000000000000e+00  -2.0503248953265892e+01 2.2033150650855092e+01 0.0000000000000000e+00  -1.7716171715892035e+01 2.3679462291351445e+01 0.0000000000000000e+00  -1.6783214076674092e+01 2.2239671323951686e+01 0.0000000000000000e+00  -1.5182550372987096e+01 2.1200362994926138e+01 0.0000000000000000e+00  -1.3994948215914620e+01 1.9336965152085789e+01 0.0000000000000000e+00  -1.2776704263853889e+01 1.7648066812607979e+01 0.0000000000000000e+00  -1.1720018395184772e+01 1.6064632060384422e+01 0.0000000000000000e+00  -1.0502111828718322e+01 1.4915600952093989e+01 0.0000000000000000e+00  -9.6180858960387337e+00 1.3507230808588895e+01 0.0000000000000000e+00  -8.8836018049368448e+00 1.2165299012192406e+01 0.0000000000000000e+00  -8.0898506615572128e+00 1.1090960780583696e+01 0.0000000000000000e+00  -7.3547076827565085e+00 1.0104350053792839e+01 0.0000000000000000e+00  -6.6811318953230510e+00 9.2363370336520489e+00 0.0000000000000000e+00  -6.0458987017364318e+00 8.4222782247193528e+00 0.0000000000000000e+00  -5.4884608851439722e+00 7.6150061066491626e+00 0.0000000000000000e+00  -5.0108941705777497e+00 6.8362803513350228e+00 0.0000000000000000e+00  -4.5812137646491351e+00 6.0504270150132129e+00 0.0000000000000000e+00  -4.2167374339702066e+00 5.2790781822833637e+00 0.0000000000000000e+00  -3.9208608534233615e+00 4.5046548851430268e+00 0.0000000000000000e+00  -3.6666575242961508e+00 3.7664616367845576e+00 0.0000000000000000e+00  -3.4665043723516646e+00 3.0163088881257325e+00 0.0000000000000000e+00  -3.3221659091415132e+00 2.3803511206935917e+00 0.0000000000000000e+00  -3.2196513535071305e+00 1.6843500291201434e+00 0.0000000000000000e+00  -3.1605424258155872e+00 1.1895677585145119e+00 0.0000000000000000e+00  -3.1502640240776496e+00 6.0107122504691635e-01 0.0000000000000000e+00  -3.1622668448056817e+00 -4.0079746891060886e-01 0.0000000000000000e+00  -2.4365991596477303e+00 -3.3918531897443867e+00 0.0000000000000000e+00  -2.1511606401270043e+00 -3.7941240160906129e+00 0.0000000000000000e+00  -2.7626264938732175e+00 -3.6707019178908373e+00 0.0000000000000000e+00  -3.1331789078940488e+00 -4.4332689616330034e+00 0.0000000000000000e+00  -3.4799048753529966e+00 -4.7346962319925829e+00 0.0000000000000000e+00  -3.9275227105589567e+00 -5.4482841018482375e+00 0.0000000000000000e+00  -4.5169407724698907e+00 -6.1503481257050847e+00 0.0000000000000000e+00  -5.0942212674991207e+00 -6.8919970964535340e+00 0.0000000000000000e+00  -5.6489438009955188e+00 -7.4906240867563181e+00 0.0000000000000000e+00  -6.3086290072805102e+00 -8.2796985526376741e+00 0.0000000000000000e+00  -6.8628235930954453e+00 -8.6734993263108926e+00 0.0000000000000000e+00  -6.9826954193973041e+00 -7.9711331370307938e+00 0.0000000000000000e+00  -7.9174965089180116e+00 -8.3866067390951269e+00 0.0000000000000000e+00  -4.7974459266085461e+00 -2.7007513022924869e+00 0.0000000000000000e+00  -1.4377191439361228e+01 -1.6080765888710907e+01 0.0000000000000000e+00  -1.3326715483150952e+01 -1.3498906678988762e+01 0.0000000000000000e+00  -1.3159722179924429e+01 -1.2150498581657791e+01 0.0000000000000000e+00  -1.3629416618372488e+01 -1.1800164799924271e+01 0.0000000000000000e+00  -1.4600023956341442e+01 -1.1993362915875187e+01 0.0000000000000000e+00  -1.5901011251595941e+01 -1.2596253996107968e+01 0.0000000000000000e+00  -1.7438665087561965e+01 -1.3408237033763150e+01 0.0000000000000000e+00  -1.9126563365049709e+01 -1.4339585852736136e+01 0.0000000000000000e+00  -2.0881210688187320e+01 -1.4960552031822033e+01 0.0000000000000000e+00  -2.2630022804954610e+01 -1.5777377275817908e+01 0.0000000000000000e+00  -2.4301877065211745e+01 -1.5536523020479828e+01 0.0000000000000000e+00  -2.5821971697667511e+01 -1.5550276096644591e+01 0.0000000000000000e+00  -2.7122803966392670e+01 -1.3691767693493846e+01 0.0000000000000000e+00  -2.8164566010096824e+01 -1.1982492043994446e+01 0.0000000000000000e+00  -2.8887973501396164e+01 -7.9360889488430528e+00 0.0000000000000000e+00  -2.9317098730330432e+01 -2.8917573988665120e+00 0.0000000000000000e+00  -2.9391849826