<?xml version="1.0"?>
<VTKFile type="UnstructuredGrid"  version="0.1"  >
<UnstructuredGrid>
<Piece  NumberOfPoints="1933" NumberOfCells="3640">
<Points>
<DataArray  type="Float64"  NumberOfComponents="3"  format="ascii">-0.2939874850758784 0.0001618693294342638 0  4.706012557536071 0.0001331239161498265 0  4.706055722092225 7.50013325755024 0  -0.2939443597213974 7.500161934896164 0  9.706012612170701 0.0001042567852228254 0  9.706055870674009 7.500104414203613 0  14.70601274366471 7.520880329749558e-05 0  14.70605612162313 7.500075373030028 0  19.70601302316973 4.597533554909325e-05 0  19.70605650982295 7.500046140187667 0  24.70601351735174 1.65842425136121e-05 0  24.70605706986874 7.500016748128023 0  29.70601428588869 -1.291622338603685e-05 0  29.70605783524659 7.499987247101501 0  34.70601538212253 -4.246407895796092e-05 0  34.70605883773859 7.499957699953254 0  39.70601685477694 -7.198696772398744e-05 0  39.70606010721866 7.499928179406758 0  44.70601874989762 -0.0001014033779149234 0  44.70606167170917 7.499898767140286 0  49.70602111269447 -0.0001306223710158007 0  49.70606355752668 7.499869554195596 0  54.70602398918729 -0.0001595421616930729 0  54.70606578937486 7.499840642460647 0  59.70602742763452 -0.0001880476853812795 0  59.7060683902582 7.499812147126582 0  64.70603147975191 -0.0002160071378586954 0  64.70607138109068 7.499784200148788 0  69.70603620170338 -0.0002432673386690787 0  69.7060747798544 7.499756954860217 0  74.70604165481787 -0.0002696476315252399 0  74.70607860011175 7.499730592010198 0  79.70604790590332 -0.0002949318646203941 0  79.70608284858683 7.499705327651995 0  84.70605502691537 -0.0003188577616400142 0  84.70608752141709 7.499681423496368 0  89.70606309350835 -0.0003411026576144666 0  89.70609259847865 7.499659200610485 0  94.70607218161668 -0.0003612640689940009 0  94.70609803493846 7.49963905769559 0  99.70608236047701 -0.0003788327973175845 0  99.70610374886496 7.49962149564217 0  104.7060936791695 -0.0003931550845337515 0  104.7061096033481 7.499607150630135 0  109.7061061411818 -0.0004033785356719589 0  109.7061153813422 7.499596838609514 0  114.7061196566492 -0.0004083738339860352 0  114.7061207517602 7.499591614228104 0  119.706133952523 -0.0004066204615770625 0  119.7061252273524 7.499592846233197 0  124.7061484027807 -0.0003960398974856441 0  124.7061281213896 7.499602306800737 0  129.7061617054753 -0.0003737561668286643 0  129.7061285274244 7.49962225902667 0  134.7061712642206 -0.0003357706623195703 0  134.7061253889406 7.49965549476503 0  139.7061719934475 -0.0002765963411099815 0  139.7061178267601 7.499705209974416 0  144.7061539748102 -0.0001891893807357418 0  144.7061061336748 7.499774525683169 0  149.7060976818613 -6.695595414327129e-05 0  149.7060944673172 7.499865702084083 0  159.706107373855 8.408246330347618e-19 0  164.705982123563 -0.0001887917605719087 0  164.7060866445756 7.499780710042895 0  159.7061206681468 7.499928471551359 0  169.7059193569052 -0.0003420217388118167 0  169.7060519494142 7.499642672579302 0  174.7058889917036 -0.0004698076365713455 0  174.7060243806885 7.499521858587973 0  179.7058759439736 -0.0005781498677931442 0  179.7060045844021 7.499417114511176 0  184.7058722818707 -0.0006715116858018759 0  184.7059913048467 7.499325721523542 0  189.7058737144278 -0.0007532987993072089 0  189.7059829990091 7.499245049580884 0  194.7058778689451 -0.0008260855570029449 0  194.7059783164646 7.499172912035305 0  199.7058834071492 -0.0008918075931037559 0  199.7059761987096 7.499107578111918 0  204.7058895601621 -0.0009519242299522515 0  204.7059758555127 7.499047699910751 0  209.705895879146 -0.001007545140315719 0  209.7059767105712 7.498992229600029 0  214.7059020991332 -0.001059524313325135 0  214.7059783481566 7.498940348172084 0  219.7059080631799 -0.001108528030699061 0  219.7059804696919 7.498891409544402 0  224.7059136792001 -0.001155083602122995 0  224.7059828610005 7.498844898342004 0  229.7059188948343 -0.001199614348926021 0  229.7059853684917 7.498800398477109 0  234.7059236824808 -0.001242464907937735 0  234.7059878821494 7.49875756982117 0  239.705928030196 -0.001283919744519011 0  239.70599032347 7.498716130806145 0  244.7059319360808 -0.001324216881958753 0  244.7059926369388 7.498675845337109 0  249.7059354048004 -0.001363558230093748 0  249.7059947840127 7.498636512843419 0  254.7059384454713 -0.001402117463635919 0  254.7059967388888 7.498597960633454 0  259.7059410704601 -0.001440046101519365 0  259.705998485545 7.498560037965362 0  264.7059432948526 -0.001477478227240007 0  264.7060000157075 7.498522611429213 0  269.7059451364401 -0.001514534132368911 0  269.7060013275004 7.498485561376578 0  274.7059466161724 -0.001551323033951326 0  274.7060024245848 7.498448779250587 0  279.7059477590613 -0.001587944885661069 0  279.7060033156575 7.498412165781541 0  284.7059485955395 -0.001624491142460156 0  284.7060040141798 7.498375630137176 0  289.705949163241 -0.001661044105282328 0  289.7060045381934 7.498339090270853 0  294.7059495090788 -0.001697674094722143 0  294.7060049101287 7.498302474911818 0  299.7059496910917 -0.001734433059621759 0  299.7060051565209 7.498265727897675 0  304.7059497787466 -0.001771342127805933 0  304.7060053079272 7.498228815839185 0  309.7059498482645 -0.001808368892068176 0  309.7060054003157 7.498191740414244 0  4.706098502418308 15.00013356309088 0  -0.2939015868773844 15.00016209511819 0  9.706098650864215 15.00010476360079 0  14.70609888887739 15.00007572292106 0  19.70609923687839 15.00004647520649 0  24.70609971124733 15.00001706576383 0  29.7061003265208 14.99998755035695 0  34.70610109590076 14.99995799386403 0  39.70610203108023 14.99992846943466 0  44.70610314180002 14.9998990584523 0  49.70610443526557 14.99986985133271 0  54.70610591542414 14.99984094913529 0  59.70610758204084 14.99981246599368 0  64.70610942948298 14.9997845324281 0  69.70611144509665 14.99975729967167 0  74.70611360704578 14.99973094522086 0  79.70611588146248 14.99970567990627 0  84.70611821876372 14.99968175687145 0  89.70612054901817 14.99965948293492 0  94.70612277637913 14.99963923285977 0  99.70612477287906 14.99962146699237 0  104.7061263725352 14.99960675238614 0  109.706127367957 14.99959578655145 0  114.7061275140278 14.99958942066187 0  119.7061265474096 14.9995886740281 0  124.7061242375654 14.99959472132972 0  129.706120495335 14.99960881370754 0  134.7061155776239 14.9996320557644 0  139.7061104330555 14.99966488622365 0  144.7061072019401 14.99970595731502 0  149.7061097057327 14.99974969270099 0  164.7061378797731 14.99969656962365 0  159.706141270381 14.99979440954574 0  169.7061258224011 14.99959278099138 0  174.7061107029384 14.99949245043479 0  179.7060960506284 14.9993996190693 0  184.7060834439613 14.99931515880622 0  189.7060733370283 14.99923856525241 0  194.7060656379082 14.99916886482943 0  199.7060600324436 14.999105014553 0  204.7060561478515 14.99904605806936 0  209.7060536276401 14.99899117253288 0  214.7060521606888 14.99893966990456 0  219.7060514881184 14.99889098157063 0  224.7060514003466 14.99884463883768 0  229.706051730519 14.99880025433792 0  234.7060523472573 14.99875750602008 0  239.7060531479547 14.9987161239841 0  244.7060540530646 14.9986758798831 0  249.7060550014388 14.99863657846854 0  254.7060559466093 14.99859805086149 0  259.7060568538749 14.99856014919986 0  264.7060576980232 14.99852274238746 0  269.7060584615628 14.99848571274861 0  274.7060591333317 14.99844895346014 0  279.7060597073842 14.99841236669577 0  284.7060601820972 14.99837586246965 0  289.7060605594419 14.99833935819535 0  294.706060844541 14.99830277894313 0  299.7060610457262 14.99826605818978 0  304.7060611757518 14.9982291382675 0  309.7060612553338 14.99819196812965 0  4.706140885783697 22.50013417582089 0  -0.2938592016657842 22.50016258492238 0  9.706141008754654 22.50010540581524 0  14.70614118852252 22.50007634768689 0  19.70614143645006 22.50004706404354 0  24.70614175812954 22.50001761580583 0  29.70614215580542 22.49998806640601 0  34.70614262941664 22.49995848380337 0  39.70614317676274 22.49992894166726 0  44.70614379315628 22.49989952045163 0  49.7061444707707 22.49987030872076 0  54.70614519777704 22.49984140490771 0  59.70614595730378 22.49981291961257 0  64.70614672621738 22.49978497852979 0  69.70614747371896 22.49975772609635 0  74.70614815977062 22.49973132996369 0  79.7061487334132 22.49970598639348 0  84.70614913113286 22.49968192664557 0  89.70614927560173 22.4996594243268 0  94.70614907540323 22.4996388034426 0  99.70614842680858 22.49962044642695 0  104.7061472193859 22.49960480053525 0  109.7061453482681 22.49959237934303 0  114.706142737309 22.49958375319674 0  119.7061393789519 22.49957951754399 0  124.7061353977676 22.49958022013174 0  129.7061311434631 22.49958621616886 0  134.7061273115617 22.49959740505192 0  139.7061250673596 22.49961278861523 0  144.7061260958596 22.49962980262035 0  149.7061323964647 22.49964350470286 0  164.7061700443412 22.49960236400713 0  159.7061598231403 22.49966868780755 0  169.7061720627112 22.4995261845183 0  174.7061684788924 22.4994469203781 0  179.7061618591968 22.49936894565438 0  184.706154117178 22.49929457180642 0  189.7061464466391 22.49922471554944 0  194.7061394880803 22.49915949612387 0  199.7061335184952 22.49909863427071 0  204.7061285990756 22.49904168464418 0  209.7061246745957 22.49898815954237 0  214.7061216349626 22.4989375891121 0  219.7061193509867 22.49888954682437 0  224.7061176938392 22.49884365701406 0  229.7061165447083 22.49879959377907 0  234.7061157988231 22.49875707616996 0  239.7061153663949 22.49871586217782 0  244.7061151719862 22.49867574271916 0  249.7061151531582 22.49863653613774 0  254.7061152588805 22.49859808340143 0  259.7061154479247 22.49856024401306 0  264.7061156873763 22.49852289258674 0  269.7061159512891 22.49848591602035 0  274.706116219496 22.49844921119272 0  279.7061164765841 22.49841268311382 0  284.706116711031 22.498376243437 0  289.7061169145659 22.49833980918543 0  294.706117081872 22.4
[...]
<PointData  Vectors="v"> 
<DataArray  type="Float64"  Name="v"  NumberOfComponents="3" format="ascii">-1.1012130388742520e+00 -7.6635510288408204e+00 0.0000000000000000e+00  -1.6584106905935603e+00 -7.1707942665603213e+00 0.0000000000000000e+00  -1.5283080697272409e+00 -6.3352533860789535e+00 0.0000000000000000e+00  -1.0982107802904515e+00 -7.0186607727472481e+00 0.0000000000000000e+00  -2.3520207521879772e+00 -7.7485947814863998e+00 0.0000000000000000e+00  -2.0850999817564153e+00 -6.7091838226854623e+00 0.0000000000000000e+00  -2.9730133701070720e+00 -8.7705511521529598e+00 0.0000000000000000e+00  -2.7774795242511763e+00 -7.8406477964280716e+00 0.0000000000000000e+00  -3.5164855324035753e+00 -9.0819737955090112e+00 0.0000000000000000e+00  -3.3964672378591683e+00 -8.2690855376894614e+00 0.0000000000000000e+00  -4.1974200791678307e+00 -9.9554628705708659e+00 0.0000000000000000e+00  -3.9371695287488699e+00 -8.9371091357780301e+00 0.0000000000000000e+00  -4.7363897236023753e+00 -1.0309168801773087e+01 0.0000000000000000e+00  -4.6143946011769286e+00 -9.5043611584320935e+00 0.0000000000000000e+00  -4.8154845624553406e+00 -1.0046181658985828e+01 0.0000000000000000e+00  -5.1488401321573321e+00 -9.9319285001286666e+00 0.0000000000000000e+00  -5.8992744302259386e+00 -1.1141935548081399e+01 0.0000000000000000e+00  -5.2226543643855683e+00 -9.5214073139118955e+00 0.0000000000000000e+00  -2.7934107422587249e+00 -5.9782843001034713e+00 0.0000000000000000e+00  -6.3002266570441030e+00 -1.0642595392839315e+01 0.0000000000000000e+00  -1.3915317782005369e+01 -2.1862708486762628e+01 0.0000000000000000e+00  -3.1874015068412862e+00 -5.1868183831847139e+00 0.0000000000000000e+00  -1.3595532929915223e+01 -2.0088602705921581e+01 0.0000000000000000e+00  -1.4301844494833526e+01 -2.0575427109326760e+01 0.0000000000000000e+00  -1.3672694887249355e+01 -1.8768988239648728e+01 0.0000000000000000e+00  -1.3973525622164439e+01 -1.8661413102327259e+01 0.0000000000000000e+00  -1.4203780920222886e+01 -1.8101966801102250e+01 0.0000000000000000e+00  -1.4040861635405584e+01 -1.7314868630255486e+01 0.0000000000000000e+00  -1.5143934407019772e+01 -1.8069045585574745e+01 0.0000000000000000e+00  -1.4560754240064112e+01 -1.6669736509582066e+01 0.0000000000000000e+00  -1.6394123823034999e+01 -1.8460550058726714e+01 0.0000000000000000e+00  -1.5487867375037137e+01 -1.6597250805902050e+01 0.0000000000000000e+00  -1.7860703405106392e+01 -1.9069410544508038e+01 0.0000000000000000e+00  -1.6723537364812653e+01 -1.6882973056462571e+01 0.0000000000000000e+00  -1.9453087613302504e+01 -1.9956447327895720e+01 0.0000000000000000e+00  -1.8174271378938155e+01 -1.7582572103023729e+01 0.0000000000000000e+00  -2.1080806668284094e+01 -2.0695578022765382e+01 0.0000000000000000e+00  -1.9748947674069409e+01 -1.8269521860721078e+01 0.0000000000000000e+00  -2.2667143589022793e+01 -2.1320329018017599e+01 0.0000000000000000e+00  -2.1357812692609532e+01 -1.8957764704795064e+01 0.0000000000000000e+00  -2.4148522212978172e+01 -2.1668238586030228e+01 0.0000000000000000e+00  -2.2923960839878305e+01 -1.9463897951549157e+01 0.0000000000000000e+00  -2.5469511036745367e+01 -2.1703540186396538e+01 0.0000000000000000e+00  -2.4383902733230386e+01 -1.9740719773125505e+01 0.0000000000000000e+00  -2.6594349150527876e+01 -2.0974227746016147e+01 0.0000000000000000e+00  -2.5682030190865916e+01 -1.9306092708084314e+01 0.0000000000000000e+00  -2.7509418676923772e+01 -2.0255060960141389e+01 0.0000000000000000e+00  -2.6784031884482655e+01 -1.8903067321576152e+01 0.0000000000000000e+00  -2.8209026848910177e+01 -1.8106250743291735e+01 0.0000000000000000e+00  -2.7673822708755225e+01 -1.7076247962046541e+01 0.0000000000000000e+00  -2.8715186808635959e+01 -1.6435774883587676e+01 0.0000000000000000e+00  -2.8349938486677114e+01 -1.5698932218623263e+01 0.0000000000000000e+00  -2.9046631695679441e+01 -1.2752624316730024e+01 0.0000000000000000e+00  -2.8828776457709136e+01 -1.2274201759536941e+01 0.0000000000000000e+00  -2.9247441656351089e+01 -1.0091866726347469e+01 0.0000000000000000e+00  -2.9137517885660728e+01 -9.8150901037079663e+00 0.0000000000000000e+00  -2.9342414693863368e+01 -5.2026316505908259e+00 0.0000000000000000e+00  -2.9308930837387024e+01 -5.0768196462142727e+00 0.0000000000000000e+00  -2.9381811172468737e+01 -1.2360466742499059e+00 0.0000000000000000e+00  -2.9383432850007036e+01 -1.2039903935804441e+00 0.0000000000000000e+00  -2.9389262608800678e+01 4.9332903381466004e-09 0.0000000000000000e+00  -2.9389940976675234e+01 -7.0928935238384074e-04 0.0000000000000000e+00  -2.9389262614654303e+01 4.1363316317506876e-19 0.0000000000000000e+00  -2.0123494371243769e+01 7.0741186682681558e+00 0.0000000000000000e+00  -2.9383913265962502e+01 -6.7987754673567595e+00 0.0000000000000000e+00  -2.9389929046503489e+01 6.7738862215741143e-04 0.0000000000000000e+00  -2.0747902977904516e+01 1.3371060219168250e+01 0.0000000000000000e+00  -2.0151203628539772e+01 1.4347872003547213e+01 0.0000000000000000e+00  -1.7729691751143015e+01 2.0813077605950397e+01 0.0000000000000000e+00  -2.0813278823528581e+01 1.6316590594486421e+01 0.0000000000000000e+00  -1.6951998801165047e+01 2.2299319512809294e+01 0.0000000000000000e+00  -1.7833383282627882e+01 2.1167619480420573e+01 0.0000000000000000e+00  -1.5272203548918657e+01 2.5078168252582557e+01 0.0000000000000000e+00  -1.7093255990445677e+01 2.2591510168518298e+01 0.0000000000000000e+00  -1.4060501363813477e+01 2.5293197367378781e+01 0.0000000000000000e+00  -1.5450498905433721e+01 2.3509374644590849e+01 0.0000000000000000e+00  -1.2765733322589041e+01 2.5373432528166735e+01 0.0000000000000000e+00  -1.4276082391409002e+01 2.3463743925815081e+01 0.0000000000000000e+00  -1.1649962762972352e+01 2.4321565813239033e+01 0.0000000000000000e+00  -1.3017799538814566e+01 2.2680862719628170e+01 0.0000000000000000e+00  -1.0322006229711034e+01 2.3153470126977084e+01 0.0000000000000000e+00  -1.1938127470296081e+01 2.1193801475509940e+01 0.0000000000000000e+00  -9.3664049588073084e+00 2.1311987324349612e+01 0.0000000000000000e+00  -1.0646078480924837e+01 1.9910614633533619e+01 0.0000000000000000e+00  -8.5833488407072096e+00 1.9456070015343141e+01 0.0000000000000000e+00  -9.7259134318381193e+00 1.8313305295970988e+01 0.0000000000000000e+00  -7.7316553024738717e+00 1.7762411184920929e+01 0.0000000000000000e+00  -8.9779214544792296e+00 1.6516428189800898e+01 0.0000000000000000e+00  -6.9250109592292244e+00 1.6162597233392500e+01 0.0000000000000000e+00  -8.1610870955190631e+00 1.4983810863155201e+01 0.0000000000000000e+00  -6.1672744001045015e+00 1.4746486662819656e+01 0.0000000000000000e+00  -7.3888857902587759e+00 1.3640875863900670e+01 0.0000000000000000e+00  -5.4219111593843303e+00 1.3450632939334746e+01 0.0000000000000000e+00  -6.6652273386233469e+00 1.2363239289321893e+01 0.0000000000000000e+00  -4.7437719468988933e+00 1.2209546160651900e+01 0.0000000000000000e+00  -5.9536363797746708e+00 1.1222656457078417e+01 0.0000000000000000e+00  -4.1406393152059566e+00 1.1070940875877236e+01 0.0000000000000000e+00  -5.3088796890945309e+00 1.0196277825684403e+01 0.0000000000000000e+00  -3.5750321332004060e+00 9.9820640368475857e+00 0.0000000000000000e+00  -4.7387201874864635e+00 9.1633976315586416e+00 0.0000000000000000e+00  -3.0722697784283954e+00 8.9190829120773056e+00 0.0000000000000000e+00  -4.2058046667645019e+00 8.1943035446241073e+00 0.0000000000000000e+00  -2.6413784399413895e+00 7.9211922845764358e+00 0.0000000000000000e+00  -3.7352677868709807e+00 7.3040330761122867e+00 0.0000000000000000e+00  -2.2463005985667146e+00 6.9168423942609243e+00 0.0000000000000000e+00  -3.3363780648310226e+00 6.3529536724749756e+00 0.0000000000000000e+00  -1.9054583139338499e+00 5.9816774517095768e+00 0.0000000000000000e+00  -2.9727383696959180e+00 5.4990938214827105e+00 0.0000000000000000e+00  -1.6183944687937657e+00 5.0285061355103746e+00 0.0000000000000000e+00  -2.6633877806556234e+00 4.6258956381857370e+00 0.0000000000000000e+00  -1.3658331284334857e+00 4.2133125640598150e+00 0.0000000000000000e+00  -2.4067703891211831e+00 3.8629306421798506e+00 0.0000000000000000e+00  -1.1477291169518771e+00 3.2742756719444981e+00 0.0000000000000000e+00  -2.1855804036862652e+00 2.9740102977521290e+00 0.0000000000000000e+00  -9.5692255844034657e-01 2.7363203755111574e+00 0.0000000000000000e+00  -1.9964285949558742e+00 2.4789958567826131e+00 0.0000000000000000e+00  -7.8078909056036039e-01 1.7857597457002843e+00 0.0000000000000000e+00  -1.8377574142394544e+00 1.5464771123531009e+00 0.0000000000000000e+00  -5.4320378967766869e-01 1.7289178417219333e+00 0.0000000000000000e+00  -1.6876744942728266e+00 1.4034912064875129e+00 0.0000000000000000e+00  -1.8295354852211604e-01 1.2033437402357603e+00 0.0000000000000000e+00  -1.4862861884287999e+00 6.8279520942538474e-01 0.0000000000000000e+00  6.6174722648649120e-01 7.4423966922829293e-03 0.0000000000000000e+00  -1.1405408987721988e+00 -1.2182285335237433e+00 0.0000000000000000e+00  -1.8058036534184867e+00 -5.6897133152817831e+00 0.0000000000000000e+00  -1.3318280835713223e+00 -6.3086404868226262e+00 0.0000000000000000e+00  -2.2362458487325574e+00 -5.8740828623592396e+00 0.0000000000000000e+00  -2.7925254656007641e+00 -6.8029634723817818e+00 0.0000000000000000e+00  -3.4831400436194162e+00 -7.3422655633106810e+00 0.0000000000000000e+00  -4.0989591572867390e+00 -8.1284929767932770e+00 0.0000000000000000e+00  -4.6350226661141827e+00 -8.4919929384966935e+00 0.0000000000000000e+00  -5.3059822569835005e+00 -9.1347963241284589e+00 0.0000000000000000e+00  -5.8323955120230924e+00 -9.4159248290665669e+00 0.0000000000000000e+00  -5.8967119825428549e+00 -9.0326004198728125e+00 0.0000000000000000e+00  -6.9632824190377232e+00 -9.8630032366893108e+00 0.0000000000000000e+00  -3.8386983508060704e+00 -3.9106280773324480e+00 0.0000000000000000e+00  -1.4942418939685911e+01 -1.9160250423610577e+01 0.0000000000000000e+00  -1.4602950806222829e+01 -1.7221672509381222e+01 0.0000000000000000e+00  -1.4656672897209862e+01 -1.5898866211463604e+01 0.0000000000000000e+00  -1.5160292279712950e+01 -1.5218014322440808e+01 0.0000000000000000e+00  -1.6067508475819569e+01 -1.5042969253032700e+01 0.0000000000000000e+00  -1.7279759617672969e+01 -1.5421439401674387e+01 0.0000000000000000e+00  -1.8704046992398357e+01 -1.5924919169618381e+01 0.0000000000000000e+00  -2.0248702598430274e+01 -1.6563959333597733e+01 0.0000000000000000e+00  -2.1824113779288531e+01 -1.7135207639449170e+01 0.0000000000000000e+00  -2.3354177320280250e+01 -1.7574058555393368e+01 0.0000000000000000e+00  -2.4774488936254077e+01 -1.7383326263581019e+01 0.0000000000000000e+00  -2.6030361346420143e+01 -1.7276280327138412e+01 0.0000000000000000e+00  -2.7087457451525310e+01 -1.5768296770850418e+01 0.0000000000000000e+00  -2.7930657015054543e+01 -1.4714840821491061e+01 0.0000000000000000e+00  -2.8557104375185141e+01 -1.1582204940110429e+01 0.0000000000000000e+00  -2.8988118870053412e+01 -9.3862462056380700e+00 0.0000000000000000e+00  -2.9243894723932399e+01 -4.8410601397101178e+00 0.0000000000000000e+00  -2.9371380926433407e+01 -1.1324284462723591e+00 0.0000000000000000e+00  -2.9391565323000581e+01 -1.3511134166441132e-03 0.0000000000000000e+00  -2.9362957465428291e+01 -6.8612162023207706e+00 0.0000000000000000e+00  -2.9391543564854537e+01 1.3313410168656055e-03 0.0000000000000000e+00  -2.9301253063584852e+01 5.1223969017356585e-01 0.0000000000000000e+00  -2.0102819716958965e+01 1.7336716777575585e+01 0.0000000000000000e+00  -2.0809421904189080e+01 1.6723502410180235e+01 0.0000000000000000e+00  -1.7872008720569095e+01 2.1507768720948043e+01 0.0000000000000000e+00  -1.7174921549887269e+01 2.1068307580900097e+01 0.0000000000000000e+00  -1.5571701479429080e+01 2.1726558823489835e+01 0.0000000000000000e+00  -1.4436693214705507e+01 2.0815770624909632e+01 0.0000000000000000e+00  -1.3215545757385234e+01 1.9595804246348973e+01 0.0000000000000000e+00  -1.2171706624093270e+01 1.7993722351506825e+01 0.0000000000000000e+00  -1.0914555539792271e+01 1.6953649649887979e+01 0.0000000000000000e+00  -1.0028496398472482e+01 1.5414347987280419e+01 0.0000000000000000e+00  -9.3137850795709554e+00 1.3778472795033576e+01 0.0000000000000000e+00  -8.5298824558294051e+00 1.2502080926814148e+01 0.0000000000000000e+00  -7.7900498608257225e+00 1.1296824899274426e+01 0.0000000000000000e+00  -7.0981439468816498e+00 1.0174168948081396e+01 0.0000000000000000e+00  -6.4178200461408705e+00 9.2476446734990159e+00 0.0000000000000000e+00  -5.8037208589157645e+00 8.3262442365582015e+00 0.0000000000000000e+00  -5.2635698583191148e+00 7.4127065943010209e+00 0.0000000000000000e+00  -4.7600757308150508e+00 6.6156815518406757e+00 0.0000000000000000e+00  -4.3183695992920539e+00 5.7715476046318193e+00 0.0000000000000000e+00  -3.9476051622363411e+00 4.9704603857204281e+00 0.0000000000000000e+00  -3.6116194001419606e+00 4.1779791325183613e+00 0.0000000000000000e+00  -3.3291295803555916e+00 3.4943115123841566e+00 0.0000000000000000e+00  -3.0990551398623984e+00 2.6572222019331524e+00 0.0000000000000000e+00  -2.9032939657380599e+00 2.2116551109287474e+00 0.0000000000000000e+00  -2.7399242933831034e+00 1.3213298892685550e+00 0.0000000000000000e+00  -2.6046685214822283e+00 1.1963451258930307e+00 0.0000000000000000e+00  -2.4802364359339890e+00 3.8981908103616153e-01 0.0000000000000000e+00  -2.3003602846965197e+00 -1.7174203993494863e+00 0.0000000000000000e+00  -2.5188734632167091e+00 -4.9778897734207206e+00 0.0000000000000000e+00  -2.0905741643982680e+00 -5.6676252358014061e+00 0.0000000000000000e+00  -2.9940893007183895e+00 -5.2275383068705548e+00 0.0000000000000000e+00  -3.4258184022282379e+00 -5.9688789727619582e+00 0.0000000000000000e+00  -3.9815539204140515e+00 -6.3081136558426456e+00 0.0000000000000000e+00  -4.6696418649102682e+00 -7.2082648434804586e+00 0.0000000000000000e+00  -5.2804845489268031e+00 -7.6935773193103669e+00 0.0000000000000000e+00  -5.8084850314719070e+00 -8.1361076182628533e+00 0.0000000000000000e+00  -6.4683645237095622e+00 -8.6363590096259237e+00 0.0000000000000000e+00  -6.9805835362756090e+00 -8.9485310259975233e+00 0.0000000000000000e+00  -7.0275204354402563e+00 -8.2771901776745231e+00 0.0000000000000000e+00  -8.0749178325638997e+00 -8.6115796267943434e+00 0.0000000000000000e+00  -4.9324724263292143e+00 -2.5172028809078535e+00 0.0000000000000000e+00  -1.6021799916580296e+01 -1.7741825149421814e+01 0.0000000000000000e+00  -1.5668301942604188e+01 -1.5832318576365406e+01 0.0000000000000000e+00  -1.5703736950539881e+01 -1.4480868104236636e+01 0.0000000000000000e+00  -1.6182642710591811e+01 -1.3705015593270243e+01 0.0000000000000000e+00  -1.7058406834696946e+01 -1.3631077375968934e+01 0.0000000000000000e+00  -1.8232296136100672e+01 -1.3821463406670997e+01 0.0000000000000000e+00  -1.9610874198913571e+01 -1.4284628339975217e+01 0.0000000000000000e+00  -2.1102945491928473e+01 -1.4814617251855848e+01 0.0000000000000000e+00  -2.2619138859464485e+01 -1.5326615814431115e+01 0.0000000000000000e+00  -2.4082495957443804e+01 -1.5304234510228738e+01 0.0000000000000000e+00  -2.5430043385411437e+01 -1.5449642908390800e+01 0.0000000000000000e+00  -2.6606075639895096e+01 -1.4241942188648885e+01 0.0000000000000000e+00  -2.7578756580875382e+01 -1.3515589602275691e+01 0.0000000000000000e+00  -2.8330742369613571e+01 -1.0705639189872953e+01 0.0000000000000000e+00  -2.8866233777664302e+01 -8.8134485237532996e+00 0.0000000000000000e+00  -2.9198819911892567e+01 -4.5138141191638521e+00 0.0000000000000000e+00  -2.9368822919685726e+01 -1.0251886670054886e+00 0.0000000000000000e+00  -2.9394100377586621e+01 -1.9320994649918875e-03 0.0000000000000000e+00  -2.9344749382375738e+01 -7.0223948096664106e+00 0.0000000000000000e+00  -2.9394081075967545e+01 1.9039442904552166e-03 0.0000000000000000e+00  -2.9151963052724088e+01 3.8983581653854005e-01 0.0000000000000000e+00  -2.9080609709360935e+01 3.5810338303166254e+00 0.0000000000000000e+00  -1.9939875501124774e+01 1.7838570998229287e+01 0.0000000000000000e+00  -2.0718976399401424e+01 1.7152598444749358e+01 0.0000000000000000e+00  -1.7850685706002494e+01 2.0074714667682347e+01 0.0000000000000000e+00  -1.7219563923990364e+01 1.9368056807547234e+01 0.0000000000000000e+00  -1.5676999998789801e+01 1.9158218351172515e+01 0.0000000000000000e+00  -1.4599371412493698e+01 1.7805928968027253e+01 0.0000000000000000e+00  -1.3431263519051161e+01 1.6467854566328988e+01 0.0000000000000000e+00  -1.2437931926142943e+01 1.5106069770724291e+01 0.0000000000000000e+00  -1.1229075502424934e+01 1.4122492437569127e+01 0.0000000000000000e+00  -1.0389785773731498e+01 1.2742638480197348e+01 0.0000000000000000e+00  -9.7208569667486202e+00 1.1361911726905062e+01 0.0000000000000000e+00  -8.9819866295967348e+00 1.0222209379133853e+01 0.0000000000000000e+00  -8.2863283545634481e+00 9.1707753840853368e+00 0.0000000000000000e+00  -7.6378003347651031e+00 8.2609173139823948e+00 0.0000000000000000e+00  -6.9999066098301679e+00 7.4381865730191361e+00 0.0000000000000000e+00  -6.4272186938411275e+00 6.6347163107346834e+00 0.0000000000000000e+00  -5.9273986037926800e+00 5.8919537418555947e+00 0.0000000000000000e+00  -5.4632006484232019e+00 5.1395868060204908e+00 0.0000000000000000e+00  -5.0595499609848167e+00 4.4443063698698069e+00 0.0000000000000000e+00  -4.7259245003044059e+00 3.7027965265919534e+00 0.0000000000000000e+00  -4.4256149144486958e+00 3.0992181144870741e+00 0.0000000000000000e+00  -4.1782022208170453e+00 2.3388125009472831e+00 0.0000000000000000e+00  -3.9811479228309348e+00 1.9457989728440683e+00 0.0000000000000000e+00  -3.8187443529852132e+00 1.0997843366582007e+00 0.0000000000000000e+00  -3.6846994916920988e+00 1.0221420880155749e+00 0.0000000000000000e+00  -3.5830723801426929e+00 2.2106344867252375e-01 0.0000000000000000e+00  -3.4796038869184098e+00 -1.9571281066526207e+00 0.0000000000000000e+00  -3.4386097742620931e+00 -4.3341075498783326e+00 0.0000000000000000e+00  -3.0485125062359204e+00 -5.0844599272214648e+00 0.0000000000000000e+00  -3.8689388221829448e+00 -4.5126663588836573e+00 0.0000000000000000e+00  -4.3474826939240083e+00 -5.3192142276019219e+00 0.0000000000000000e+00  -4.7820522339866987e+00 -5.4734904278738101e+00 0.0000000000000000e+00  -5.3391016773581566e+00 -6.1769549783919766e+00 0.0000000000000000e+00  -6.0257708560906016e+00 -6.7803141728390095e+00 0.0000000000000000e+00  -6.6318365213166217e+00 -7.3499682766900793e+00 0.0000000000000000e+00  -7.1510678998548736e+00 -7.6555062680467652e+00 0.0000000000000000e+00  -7.7976914065926577e+00 -8.1922002285401341e+00 0.0000000000000000e+00  -8.2923095726708151e+00 -8.2215836967039024e+00 0.0000000000000000e+00  -8.3185800650130037e+00 -7.0561473805413986e+00 0.0000000000000000e+00  -9.3452857834994809e+00 -7.2433986938844646e+00 0.0000000000000000e+00  -6.1878015265554813e+00 -1.1153654323943984e+00 0.0000000000000000e+00  -1.7270051260411488e+01 -1.6367466852991679e+01 0.0000000000000000e+00  -1.6910336095051321e+01 -1.4436393618056483e+01 0.0000000000000000e+00  -1.6933401260888122e+01 -1.3001562122188400e+01 0.0000000000000000e+00  -1.7390982722587776e+01 -1.2339750034452340e+01 0.0000000000000000e+00  -1.8234633303822683e+01 -1.2089986706918948e+01 0.0000000000000000e+00  -1.9366036291354970e+01 -1.2253972897070728e+01 0.0000000000000000e+00  -2.0691437789824466e+01 -1.2621099163166063e+01 0.0000000000000000e+00  -2.2119316457275954e+01 -1.3104530658002972e+01 0.0000000000000000e+00  -2.3560308156181748e+01 -1.3168715665046145e+01 0.0000000000000000e+00  -2.4938052309133163e+01 -1.3496558541550991e+01 0.0000000000000000e+00  -2.6187924518186229e+01 -1.2551113428441740e+01 0.0000000000000000e+00  -2.7257692907934729e+01 -1.2140109725203533e+01 0.0000000000000000e+00  -2.8112472280868495e+01 -9.6603738699241966e+00 0.0000000000000000e+00  -2.8743907141127128e+01 -8.1069538055395967e+00 0.0000000000000000e+00  -2.9147463727870207e+01 -4.0926677123838360e+00 0.0000000000000000e+00  -2.9362301900150388e+01 -8.8082564556919840e-01 0.0000000000000000e+00  -2