<?xml version="1.0"?>
<VTKFile type="UnstructuredGrid"  version="0.1"  >
<UnstructuredGrid>
<Piece  NumberOfPoints="1933" NumberOfCells="3640">
<Points>
<DataArray  type="Float64"  NumberOfComponents="3"  format="ascii">0.2935638189051502 0.002588352832387976 0  5.293563802667969 0.002501469189107628 0  5.293694186199957 7.502501463973854 0  0.293694185165409 7.502588314890136 0  10.29356376121416 0.002414566099254776 0  10.29369420277832 7.502414578559805 0  15.29356370486685 0.002327582074650425 0  15.2936942495725 7.50232760425922 0  20.29356365749478 0.00224047402494511 0  20.29369434407109 7.502240501776575 0  25.29356364918533 0.002153212557405887 0  25.29369450691083 7.502153243908189 0  30.29356371291739 0.002065778059073434 0  30.29369476165751 7.502065812336295 0  35.29356388339619 0.001978157690222828 0  35.29369513465755 7.5019781950109 0  40.29356419706545 0.001890343223029242 0  40.29369565513045 7.501890384218225 0  45.29356469277639 0.001802329580351945 0  45.29369635552307 7.501802375258912 0  50.29356541285202 0.001714113929759514 0  50.29369727210461 7.50171416562984 0  55.29356640443282 0.001625695218182247 0  55.29369844578068 7.501625754619083 0  60.29356772107583 0.001537074069261514 0  60.29369992311694 7.501537143251974 0  65.2935694246359 0.00144825300049087 0  65.29370175757889 7.501448334557116 0  70.29357158750014 0.001359236949619015 0  70.29370401101053 7.50135933415268 0  75.29357429529082 0.001270034131640396 0  75.29370675538974 7.501270151187298 0  80.29357765020403 0.001180657283000447 0  80.29371007490977 7.501180799711146 0  85.29358177522622 0.001091125394574291 0  85.29371406844908 7.501091300609133 0  90.29358681958276 0.001001466099686278 0  90.29371885248796 7.501001684313631 0  95.2935929659463 0.0009117189861135397 0  95.29372456451641 7.500911994652498 0  100.2936004402108 0.0008219402763487917 0  100.2937313669106 7.500822294424164 0  105.2936095250846 0.000732209637577347 0  105.2937394510989 7.50073267370706 0  110.2936205794855 0.0006426404845413707 0  110.2937490414848 7.500643262660193 0  115.2936340669077 0.0005533963274387326 0  115.2937603978503 7.500554251946143 0  120.2936505978528 0.00046471815306929 0  120.2937738134687 7.500465926451676 0  125.293670994443 0.0003769729913070078 0  125.2937896032602 7.500378722700184 0  130.2936963898721 0.0002907451485298198 0  130.2938080709623 7.500293329040725 0  135.2937283814126 0.0002070174058023466 0  135.2938294350201 7.500210863351685 0  140.2937692615572 0.0001275509624526855 0  140.2938536787593 7.500133189800425 0  145.2938223498678 5.572713693979763e-05 0  145.2938802753009 7.500063476954975 0  150.2938924124306 -1.476378939088339e-06 0  150.2939077473464 7.500007142533986 0  160.2938926261462 5.425492271372529e-19 0  165.2938081965949 -8.162016971592535e-05 0  165.2938761930559 7.499910724004789 0  160.2939062781989 7.499979905342173 0  170.2937486439002 -0.0001689550007604859 0  170.2938456326611 7.499827050787181 0  175.2937049413266 -0.0002600380518166338 0  175.2938182117556 7.49973751421613 0  180.2936719803747 -0.0003530473851591676 0  180.2937946781232 7.499645341954365 0  185.2936466039683 -0.0004468993358457551 0  185.2937748730627 7.499551997500526 0  190.2936267616311 -0.0005410014435895146 0  190.2937583612029 7.499458218911201 0  195.293611070262 -0.0006350336353978551 0  195.2937446582493 7.499364399493162 0  200.2935985646978 -0.0007288222216342501 0  200.2937333136769 7.499270754772322 0  205.2935885500021 -0.0008222734214957663 0  205.2937239359951 7.499177403583492 0  210.2935805115332 -0.0009153386143998738 0  210.2937161951297 7.499084409861592 0  215.2935740587628 -0.001007995755088307 0  215.2937098164402 7.498991805156848 0  220.2935688892068 -0.001100239024260703 0  220.2937045724838 7.498899601286718 0  225.2935647645871 -0.001192072771080466 0  225.2937002749589 7.498807797760566 0  230.2935614945955 -0.001283507779539845 0  230.2936967676561 7.498716386329814 0  235.2935589255047 -0.001374558858692088 0  235.2936939205791 7.498625353888553 0  240.2935569319475 -0.001465243234069256 0  240.2936916251431 7.498534684380142 0  245.293555410823 -0.001555579457516527 0  245.2936897902818 7.498444360070922 0  250.293554276668 -0.001645586677334163 0  250.2936883392932 7.498354362395387 0  255.2935534580626 -0.001735284178943158 0  255.293687207278 7.498264672490379 0  260.29355289478 -0.001824691146962621 0  260.2936863390487 7.498175271484665 0  265.2935525354912 -0.001913826626894641 0  265.2936856874244 7.498086140577562 0  270.293552335892 -0.002002709685844421 0  270.2936852118377 7.497997260916979 0  275.2935522571772 -0.00209135979055465 0  275.2936848772152 7.497908613269096 0  280.2935522648294 -0.002179797438575892 0  280.2936846530985 7.497820177457521 0  285.2935523277474 -0.002268045092257484 0  285.293684512991 7.497731931540996 0  290.2935524178149 -0.00235612846520729 0  290.2936844339212 7.497643850701497 0  295.2935525101219 -0.00244407816614021 0  295.293684396205 7.497555905842187 0  300.2935525842425 -0.002531931525682117 0  300.2936843833517 7.497468061967012 0  305.2935526272399 -0.002619733842780784 0  305.2936843820061 7.497380276538935 0  310.2935526394986 -0.002707536367909044 0  310.2936843817459 7.497292498049049 0  5.293824432575518 15.00250148255627 0  0.2938244235630809 15.00258823202711 0  10.29382447188728 15.00241465403885 0  15.29382455923155 15.00232771074747 0  20.29382471029062 15.00224062577429 0  25.29382494071481 15.00215337951935 0  30.29382526733364 15.00206595823662 0  35.29382570883718 15.001978352664 0  40.29382628620084 15.00189055688984 0  45.29382702302301 15.00180256752785 0  50.29382794586464 15.00171438321277 0  55.29382908463086 15.0016260044074 0  60.29383047300581 15.00153743351233 0  65.29383214893463 15.00144867528471 0  70.29383415513207 15.00135973759662 0  75.29383653957967 15.00127063259779 0  80.2938393559476 15.00118137839419 0  85.29384266383411 15.00109200142332 0  90.29384652864753 15.00100253981148 0  95.29385102084099 15.00091304816103 0  100.2938562140357 15.00082360447557 0  105.2938621812946 15.00073432034425 0  110.2938689884105 15.00064535616251 0  115.2938766825342 15.00055694417899 0  120.2938852738519 15.00046942363559 0  125.2938947076026 15.00038329415874 0  130.293904824326 15.00029929514406 0  135.2939153098263 15.00021851719336 0  140.2939256470763 15.00014253676329 0  145.2939351070161 15.00007350560927 0  150.2939428578207 15.00001392294387 0  165.2939331247746 14.99989148005023 0  160.2939411601174 14.99995945184366 0  170.2939225967461 14.99981298347105 0  175.2939106331377 14.99972765563285 0  180.2938984845627 14.99963841728272 0  185.2938869368177 14.99954705636046 0  190.2938763882015 14.99945462066233 0  195.2938669914097 14.99936172274468 0  200.2938587588476 14.99926872255453 0  205.2938516292647 14.99917583201576 0  210.2938455072077 14.99908317487026 0  215.2938402853432 14.99899082133405 0  220.2938358565013 14.99889880853065 0  225.2938321197421 14.99880715280234 0  230.2938289830375 14.99871585730794 0  235.2938263640953 14.99862491682683 0  240.293824190199 14.99853432086322 0  245.2938223975695 14.99844405568341 0  250.2938209305221 14.99835410565714 0  255.2938197405738 14.99826445412392 0  260.2938187855797 14.99817508391618 0  265.2938180289399 14.99808597761665 0  270.293817438891 14.99799711759302 0  275.2938169878869 14.99790848583017 0  280.2938166520551 14.99782006356624 0  285.2938164107106 14.9977318307318 0  290.2938162458818 14.99764376519077 0  295.2938161417839 14.99755584178402 0  300.2938160841388 14.99746803115944 0  305.2938160591923 14.99738029825221 0  310.2938160522083 14.99729259978273 0  5.293954398018071 22.50250158572802 0  0.2939543854566641 22.50258818257646 0  10.29395444085341 22.50241484856835 0  15.29395453225714 22.50232796041612 0  20.29395468593543 22.50224091104572 0  25.29395491351338 22.50215369192579 0  30.29395522609849 22.50206629661459 0  35.29395563523256 22.50197872074546 0  40.29395615344309 22.50189096186021 0  45.29395679454053 22.50180301925772 0  50.29395757375588 22.50171489396159 0  55.29395850776661 22.50162658887147 0  60.29395961462617 22.50153810914757 0  65.29396091358146 22.5014494628787 0  70.29396242473643 22.50136066210008 0  75.29396416849094 22.5012717242561 0  80.29396616464692 22.50118267424803 0  85.293968431029 22.50109354727234 0  90.29397098140539 22.50100439274895 0  95.29397382241901 22.50091527977345 0  100.2939769491533 22.50082630471363 0  105.2939803388747 22.50073760181797 0  110.2939839424681 22.50064935800112 0  115.2939876732014 22.50056183324713 0  120.2939913929277 22.50047538810277 0  125.2939948969972 22.50039051892821 0  130.2939979015317 22.5003078985362 0  135.2940000408738 22.50022841150097 0  140.2940008887967 22.50015315360283 0  145.2940000210877 22.50008332347193 0  150.2939971262851 22.50001986493733 0  165.2939988078673 22.49987150608768 0  160.2939953212459 22.4999406745792 0  170.2939997523088 22.49979509321638 0  175.293998444704 22.49971295233751 0  180.293995488949 22.49962676593044 0  185.2939915273093 22.49953793897934 0  190.2939870811636 22.49944749194534 0  195.2939825211727 22.4993561208638 0  200.2939780884859 22.49926428644271 0  205.2939739272852 22.49917228861262 0  210.2939701142482 22.49908032011015 0  215.2939666813097 22.49898850279139 0  220.2939636319776 22.49889691166847 0  225.2939609525344 22.49880559071196 0  230.2939586195041 22.49871456326242 0  235.2939566045158 22.49862383893793 0  240.2939548773982 22.49853341825708 0  245.2939534080986 22.49844329575725 0  250.2939521678275 22.49835346210589 0  255.2939511297024 22.49826390552279 0  260.2939502690703 22.49817461271851 0  265.2939495636279 22.49808556948086 0  270.2939489934079 22.49799676099603 0  275.2939485406777 22.49790817196206 0  280.2939481897631 22.49781978653575 0  285.2939479267884 22.49773158814646 0  290.2939477393057 22.49764355920846 0  295.2939476157522 22.49755568076159 0  300.2939475446499 22.497467
[...]
<PointData  Vectors="v"> 
<DataArray  type="Float64"  Name="v"  NumberOfComponents="3" format="ascii">3.5567606908561702e+00 -1.5002371543037796e+00 0.0000000000000000e+00  3.4166719666561685e+00 -1.7413070532076473e+00 0.0000000000000000e+00  2.7956707657322242e+00 -1.5311715411651134e+00 0.0000000000000000e+00  2.8981328618805433e+00 -1.3472769647000546e+00 0.0000000000000000e+00  3.1772160524385233e+00 -2.2541148383791825e+00 0.0000000000000000e+00  2.6555116560530330e+00 -1.8953526557491061e+00 0.0000000000000000e+00  2.8773115684386630e+00 -2.9767366605656860e+00 0.0000000000000000e+00  2.4163475173638682e+00 -2.5273883375679511e+00 0.0000000000000000e+00  2.5248507742257664e+00 -3.6869759796430039e+00 0.0000000000000000e+00  2.1169601754963354e+00 -3.1593270342469175e+00 0.0000000000000000e+00  2.1234461212845699e+00 -4.5242342531208122e+00 0.0000000000000000e+00  1.7653389257717640e+00 -3.9236773811892371e+00 0.0000000000000000e+00  1.7317758955300113e+00 -5.2811790277137085e+00 0.0000000000000000e+00  1.3655925623481260e+00 -4.6955428238559458e+00 0.0000000000000000e+00  1.5635320632559544e+00 -5.7027823993748923e+00 0.0000000000000000e+00  9.7610285203578584e-01 -5.4531709275575997e+00 0.0000000000000000e+00  1.0655137809233832e+00 -6.5714001832769640e+00 0.0000000000000000e+00  8.1072276488144168e-01 -5.8278544988746521e+00 0.0000000000000000e+00  2.9658630046161369e+00 -3.8418771614840828e+00 0.0000000000000000e+00  3.1672960212819667e-01 -6.6963028389199168e+00 0.0000000000000000e+00  -1.4194626835986375e+00 -1.0415802758602796e+01 0.0000000000000000e+00  2.2220042795719004e+00 -3.8431848307711141e+00 0.0000000000000000e+00  -4.3494730269813375e-02 -8.1172203471788080e+00 0.0000000000000000e+00  -2.1585258831064538e+00 -1.0186582336400187e+01 0.0000000000000000e+00  2.4676888700541125e-01 -7.4512868111398900e+00 0.0000000000000000e+00  -7.7607457567614258e-01 -7.8944669908721234e+00 0.0000000000000000e+00  -8.4725386891266602e-02 -7.7590952097506412e+00 0.0000000000000000e+00  -4.7683248094375547e-01 -7.2716597281870889e+00 0.0000000000000000e+00  -8.6838531491808446e-01 -8.7424226418598234e+00 0.0000000000000000e+00  -7.9729498440460123e-01 -7.5791963118543224e+00 0.0000000000000000e+00  -1.9194557724147949e+00 -1.0067207627967969e+01 0.0000000000000000e+00  -1.5666676233864787e+00 -8.5042857479079874e+00 0.0000000000000000e+00  -3.1823385305095204e+00 -1.1591381655618019e+01 0.0000000000000000e+00  -2.6012958095516687e+00 -9.7137578919944279e+00 0.0000000000000000e+00  -4.6128251586104065e+00 -1.3276441014673814e+01 0.0000000000000000e+00  -3.8453811870646257e+00 -1.1149863534041941e+01 0.0000000000000000e+00  -6.1664511470069012e+00 -1.4937886174833112e+01 0.0000000000000000e+00  -5.2530747834961273e+00 -1.2628572535622935e+01 0.0000000000000000e+00  -7.8078205328108528e+00 -1.6570719238544569e+01 0.0000000000000000e+00  -6.7815481341761155e+00 -1.4133784166396429e+01 0.0000000000000000e+00  -9.4967919544355546e+00 -1.8091382674859592e+01 0.0000000000000000e+00  -8.3939668967715608e+00 -1.5585525051737450e+01 0.0000000000000000e+00  -1.1166608182240081e+01 -1.9399522291364057e+01 0.0000000000000000e+00  -1.0050180995865290e+01 -1.6926204870998795e+01 0.0000000000000000e+00  -1.2755063547106916e+01 -2.0310990148504679e+01 0.0000000000000000e+00  -1.1682184354795021e+01 -1.7962485653727516e+01 0.0000000000000000e+00  -1.4209667425105705e+01 -2.0928496462513007e+01 0.0000000000000000e+00  -1.3231134377309477e+01 -1.8787111066390043e+01 0.0000000000000000e+00  -1.5457254830797510e+01 -2.0731063637302942e+01 0.0000000000000000e+00  -1.4636535038598524e+01 -1.8899198140902246e+01 0.0000000000000000e+00  -1.6479396211625851e+01 -2.0064310114707027e+01 0.0000000000000000e+00  -1.5837572362077838e+01 -1.8582987179165961e+01 0.0000000000000000e+00  -1.7228678983950449e+01 -1.8186301924445424e+01 0.0000000000000000e+00  -1.6796992901597076e+01 -1.7106119761945823e+01 0.0000000000000000e+00  -1.7742814934833962e+01 -1.5375342841555403e+01 0.0000000000000000e+00  -1.7494027156943122e+01 -1.4670318941572187e+01 0.0000000000000000e+00  -1.8011581421059745e+01 -1.1340273477463594e+01 0.0000000000000000e+00  -1.7928870440542518e+01 -1.0982441918955157e+01 0.0000000000000000e+00  -1.8136970111353168e+01 -4.7005029952477084e+00 0.0000000000000000e+00  -1.8141721304260333e+01 -4.5966208792760730e+00 0.0000000000000000e+00  -1.8163563200190477e+01 1.2335584934745125e-12 0.0000000000000000e+00  -1.8163229278930764e+01 3.1873102383556541e-04 0.0000000000000000e+00  -1.8163563200134000e+01 -1.8545014023190039e-19 0.0000000000000000e+00  -1.3865098078435555e+01 1.1488757614711496e+01 0.0000000000000000e+00  -1.8132854190843709e+01 5.0762550319502315e+00 0.0000000000000000e+00  -1.8163230434507369e+01 -3.3714037579607355e-04 0.0000000000000000e+00  -1.2622551755874410e+01 2.0027718831585805e+01 0.0000000000000000e+00  -1.3883815577716415e+01 1.8232960884517876e+01 0.0000000000000000e+00  -1.0750739804733085e+01 2.3880740696863150e+01 0.0000000000000000e+00  -1.2699788611213753e+01 2.1109386428148380e+01 0.0000000000000000e+00  -9.6749460829004654e+00 2.4678777397253469e+01 0.0000000000000000e+00  -1.0882423980864948e+01 2.3112948528526200e+01 0.0000000000000000e+00  -8.4553101557721888e+00 2.4226960665443436e+01 0.0000000000000000e+00  -9.8554843078826391e+00 2.2437070246761461e+01 0.0000000000000000e+00  -7.4493339057495254e+00 2.2702638035834568e+01 0.0000000000000000e+00  -8.6813478416817649e+00 2.1233776757828679e+01 0.0000000000000000e+00  -6.5033793114230436e+00 2.0922794121343035e+01 0.0000000000000000e+00  -7.7197147577808805e+00 1.9539180865037640e+01 0.0000000000000000e+00  -5.6539032835042651e+00 1.8918328675883096e+01 0.0000000000000000e+00  -6.8141895213860231e+00 1.7679956965748804e+01 0.0000000000000000e+00  -4.7670788206316876e+00 1.7115351889326458e+01 0.0000000000000000e+00  -6.0032424714297417e+00 1.5817892865359715e+01 0.0000000000000000e+00  -4.0591762768684099e+00 1.5389772204807153e+01 0.0000000000000000e+00  -5.1534914095452740e+00 1.4359554878574299e+01 0.0000000000000000e+00  -3.4291937312603396e+00 1.3887997922803258e+01 0.0000000000000000e+00  -4.4805312831163908e+00 1.2973534737926444e+01 0.0000000000000000e+00  -2.7780537993109533e+00 1.2686126978407334e+01 0.0000000000000000e+00  -3.8839880165568053e+00 1.1738683752201984e+01 0.0000000000000000e+00  -2.1848849669831294e+00 1.1638789159422871e+01 0.0000000000000000e+00  -3.2652812764134276e+00 1.0777009091442673e+01 0.0000000000000000e+00  -1.6494920126098105e+00 1.0727095417358601e+01 0.0000000000000000e+00  -2.7030471851133635e+00 9.9513332702623885e+00 0.0000000000000000e+00  -1.1696367045716998e+00 9.8921617994235511e+00 0.0000000000000000e+00  -2.1974845102343044e+00 9.1986868850182422e+00 0.0000000000000000e+00  -7.5486011358830829e-01 9.0961687472130102e+00 0.0000000000000000e+00  -1.7466491770590855e+00 8.4994970567394965e+00 0.0000000000000000e+00  -4.0005438650733605e-01 8.3440722336822333e+00 0.0000000000000000e+00  -1.3598960717331181e+00 7.8368114941594831e+00 0.0000000000000000e+00  -8.9536927510186853e-02 7.6074367443573925e+00 0.0000000000000000e+00  -1.0323149318150695e+00 7.1659940833635076e+00 0.0000000000000000e+00  1.7345632965434035e-01 6.8857840909268342e+00 0.0000000000000000e+00  -7.4850637918592877e-01 6.5150323158911263e+00 0.0000000000000000e+00  3.9383556055127983e-01 6.1733950871801717e+00 0.0000000000000000e+00  -5.1150916509850786e-01 5.8662870263338407e+00 0.0000000000000000e+00  5.7866842722383893e-01 5.4709545850495527e+00 0.0000000000000000e+00  -3.1673903240940104e-01 5.2166455423570568e+00 0.0000000000000000e+00  7.2842693937313552e-01 4.7522704265826983e+00 0.0000000000000000e+00  -1.5696946614824944e-01 4.5504362909596496e+00 0.0000000000000000e+00  8.3648124517751243e-01 4.0744378194524282e+00 0.0000000000000000e+00  -3.2209305354035093e-02 3.9345922139123295e+00 0.0000000000000000e+00  9.1272093043683822e-01 3.3236248261369985e+00 0.0000000000000000e+00  5.1716640874672280e-02 3.2318608941079363e+00 0.0000000000000000e+00  9.4338564710152117e-01 2.6922965123966747e+00 0.0000000000000000e+00  1.0306652089919853e-01 2.6676524413098806e+00 0.0000000000000000e+00  9.3264842279654137e-01 1.8809198111636469e+00 0.0000000000000000e+00  1.1074832365502470e-01 1.9200168446921047e+00 0.0000000000000000e+00  8.7167478186479597e-01 1.3954757899794130e+00 0.0000000000000000e+00  7.4440331618199587e-02 1.5067984610218375e+00 0.0000000000000000e+00  7.4699426503796129e-01 4.4229342811339484e-01 0.0000000000000000e+00  -7.3068297802733233e-03 6.5404142241525809e-01 0.0000000000000000e+00  5.1080858197484780e-01 -3.6801855323208281e-02 0.0000000000000000e+00  -1.6093049749514707e-01 3.3333474411000730e-01 0.0000000000000000e+00  -5.1064320034622697e-02 -2.7973852782943193e-01 0.0000000000000000e+00  -4.0867994198643914e-01 5.9627891106460251e-01 0.0000000000000000e+00  1.9080833068539313e+00 -1.3764524970421892e+00 0.0000000000000000e+00  2.0114301719621941e+00 -1.1945169393933053e+00 0.0000000000000000e+00  1.8039307022918833e+00 -1.6837688024928339e+00 0.0000000000000000e+00  1.6615160016172708e+00 -2.1674450627971336e+00 0.0000000000000000e+00  1.4201468231273759e+00 -2.7091347065646092e+00 0.0000000000000000e+00  1.1188354284338466e+00 -3.3950638546931460e+00 0.0000000000000000e+00  7.6555037127187942e-01 -4.0954473598418373e+00 0.0000000000000000e+00  3.6500177081527563e-01 -4.8692080775637185e+00 0.0000000000000000e+00  -2.3943809745099628e-02 -5.5802658053535072e+00 0.0000000000000000e+00  -1.8766388628917852e-01 -5.9574870589509974e+00 0.0000000000000000e+00  -6.7746945787707991e-01 -6.7049211988873001e+00 0.0000000000000000e+00  1.2329980116018004e+00 -3.6161105023805309e+00 0.0000000000000000e+00  -3.1483540088568449e+00 -9.9672907618672024e+00 0.0000000000000000e+00  -1.7655865158290995e+00 -7.7245995143419375e+00 0.0000000000000000e+00  -1.4592335723323382e+00 -7.1035464378394417e+00 0.0000000000000000e+00  -1.7690076753183641e+00 -7.3598695060163433e+00 0.0000000000000000e+00  -2.5220618733388549e+00 -8.1736099359715055e+00 0.0000000000000000e+00  -3.5361014269153337e+00 -9.2969969387347735e+00 0.0000000000000000e+00  -4.7559806781742209e+00 -1.0534426000290585e+01 0.0000000000000000e+00  -6.1339706323200662e+00 -1.1861603883719235e+01 0.0000000000000000e+00  -7.6272011752301241e+00 -1.3188750422327759e+01 0.0000000000000000e+00  -9.1998441409475085e+00 -1.4470341114988800e+01 0.0000000000000000e+00  -1.0808013083363294e+01 -1.5545312665037626e+01 0.0000000000000000e+00  -1.2385307706039626e+01 -1.6500504671316051e+01 0.0000000000000000e+00  -1.3870642219161505e+01 -1.6830875676952665e+01 0.0000000000000000e+00  -1.5204383793020071e+01 -1.6833516819981551e+01 0.0000000000000000e+00  -1.6319592693908668e+01 -1.5712154943239602e+01 0.0000000000000000e+00  -1.7190391546564140e+01 -1.3700319017175136e+01 0.0000000000000000e+00  -1.7771837451547885e+01 -1.0373443656086973e+01 0.0000000000000000e+00  -1.8104210072600974e+01 -4.3901807410990648e+00 0.0000000000000000e+00  -1.8162419766075867e+01 6.0752267923830090e-04 0.0000000000000000e+00  -1.8092104919558835e+01 4.8804243531036215e+00 0.0000000000000000e+00  -1.8162421847389282e+01 -6.9304909972856715e-04 0.0000000000000000e+00  -1.7901144222127186e+01 1.1878154085070779e+01 0.0000000000000000e+00  -1.3722489739646230e+01 1.9390756213382829e+01 0.0000000000000000e+00  -1.2624624831960704e+01 2.0429298560460410e+01 0.0000000000000000e+00  -1.0875083508954413e+01 2.0936624469477220e+01 0.0000000000000000e+00  -9.9114806776298430e+00 1.9502167480176819e+01 0.0000000000000000e+00  -8.7888448752002937e+00 1.8129704119235676e+01 0.0000000000000000e+00  -7.8776676489493935e+00 1.6347698520363615e+01 0.0000000000000000e+00  -7.0155819476266670e+00 1.4625866760314299e+01 0.0000000000000000e+00  -6.2448624949611391e+00 1.3108371690197401e+01 0.0000000000000000e+00  -5.4327577337041930e+00 1.1985562107982254e+01 0.0000000000000000e+00  -4.7949601366997072e+00 1.0863511295653414e+01 0.0000000000000000e+00  -4.2311586639311027e+00 9.8684877211932669e+00 0.0000000000000000e+00  -3.6439834493490020e+00 9.1260138175149379e+00 0.0000000000000000e+00  -3.1113532041074929e+00 8.4571892377914821e+00 0.0000000000000000e+00  -2.6336647500401584e+00 7.8396847796712503e+00 0.0000000000000000e+00  -2.2095462096292424e+00 7.2721395798820767e+00 0.0000000000000000e+00  -1.8481609239379067e+00 6.6892340966928918e+00 0.0000000000000000e+00  -1.5447284408286290e+00 6.1035953371117220e+00 0.0000000000000000e+00  -1.2842679059574682e+00 5.5244999031368129e+00 0.0000000000000000e+00  -1.0697890333000672e+00 4.9375876293376635e+00 0.0000000000000000e+00  -8.9675509969206624e-01 4.3238458218381695e+00 0.0000000000000000e+00  -7.5834129669722139e-01 3.7598907610889438e+00 0.0000000000000000e+00  -6.5430722934828522e-01 3.1185827235732102e+00 0.0000000000000000e+00  -5.9093158846835458e-01 2.6023182281507511e+00 0.0000000000000000e+00  -5.5942595584917243e-01 1.9213691326167284e+00 0.0000000000000000e+00  -5.7201705554782978e-01 1.5714047314513493e+00 0.0000000000000000e+00  -6.2688043924168813e-01 7.9098895373686418e-01 0.0000000000000000e+00  -7.2908617682810262e-01 5.7104703509357513e-01 0.0000000000000000e+00  -8.9990385108052906e-01 9.8350426849920114e-01 0.0000000000000000e+00  6.0035941308012530e-01 -1.2191528546105888e+00 0.0000000000000000e+00  6.8761131632847916e-01 -1.0670636715753299e+00 0.0000000000000000e+00  4.9328533989119583e-01 -1.5237049054458942e+00 0.0000000000000000e+00  3.8285620521996122e-01 -1.9498360177707119e+00 0.0000000000000000e+00  2.3412254825368950e-01 -2.3426047014536051e+00 0.0000000000000000e+00  -1.4339072809960334e-02 -2.9386345645196155e+00 0.0000000000000000e+00  -3.2282894786257299e-01 -3.5617808291870445e+00 0.0000000000000000e+00  -6.8220005650988258e-01 -4.2651888536337683e+00 0.0000000000000000e+00  -1.0877726403913788e+00 -4.9952716897775407e+00 0.0000000000000000e+00  -1.4795136031885712e+00 -5.7129254994193630e+00 0.0000000000000000e+00  -1.6419249458053942e+00 -5.9740757789546537e+00 0.0000000000000000e+00  -2.1265370418360794e+00 -6.4858246516283353e+00 0.0000000000000000e+00  -2.1577627472393388e-01 -3.3899617334015977e+00 0.0000000000000000e+00  -4.6100819085936688e+00 -9.7908166813684829e+00 0.0000000000000000e+00  -3.2381997967291589e+00 -7.5661144772337208e+00 0.0000000000000000e+00  -2.9299567591053801e+00 -6.9043790322924989e+00 0.0000000000000000e+00  -3.2281452122316416e+00 -7.0592559153970376e+00 0.0000000000000000e+00  -3.9616173362361522e+00 -7.7970771093402789e+00 0.0000000000000000e+00  -4.9489764293862493e+00 -8.7313618379646538e+00 0.0000000000000000e+00  -6.1338130516166247e+00 -9.8266564211106804e+00 0.0000000000000000e+00  -7.4692737151320223e+00 -1.0987776529693946e+01 0.0000000000000000e+00  -8.9115009525653104e+00 -1.2158623518432004e+01 0.0000000000000000e+00  -1.0420865177969343e+01 -1.3186634640243639e+01 0.0000000000000000e+00  -1.1955232756604907e+01 -1.4202296083842011e+01 0.0000000000000000e+00  -1.3441780063326664e+01 -1.4676676445062624e+01 0.0000000000000000e+00  -1.4822824638312460e+01 -1.4928346941355695e+01 0.0000000000000000e+00  -1.6027002105642723e+01 -1.4135082967158205e+01 0.0000000000000000e+00  -1.7001175721437807e+01 -1.2533351333908305e+01 0.0000000000000000e+00  -1.7688871816218661e+01 -9.6073297813899092e+00 0.0000000000000000e+00  -1.8095541568903986e+01 -4.1063801928532975e+00 0.0000000000000000e+00  -1.8161159294841351e+01 8.6741215469903746e-04 0.0000000000000000e+00  -1.8071570746256143e+01 4.5358711184672869e+00 0.0000000000000000e+00  -1.8161161414011943e+01 -1.0073963138924145e-03 0.0000000000000000e+00  -1.7670429451742510e+01 1.1528501052150931e+01 0.0000000000000000e+00  -1.7469319373907876e+01 1.3212077090314926e+01 0.0000000000000000e+00  -1.3414138457708729e+01 1.8890881915303204e+01 0.0000000000000000e+00  -1.2454648016720634e+01 1.8392052082414484e+01 0.0000000000000000e+00  -1.0813019847228338e+01 1.8133621092633685e+01 0.0000000000000000e+00  -9.9424485512445404e+00 1.6504617240531871e+01 0.0000000000000000e+00  -8.8976729299243154e+00 1.5037296085436784e+01 0.0000000000000000e+00  -8.0569020304415435e+00 1.3381316339613344e+01 0.0000000000000000e+00  -7.2555914203541843e+00 1.1996876138837139e+01 0.0000000000000000e+00  -6.5410483712169025e+00 1.0807961881454117e+01 0.0000000000000000e+00  -5.7801185162771391e+00 9.9452487613990872e+00 0.0000000000000000e+00  -5.1899779465240083e+00 9.0584583061661892e+00 0.0000000000000000e+00  -4.6712488881052119e+00 8.2791786292046066e+00 0.0000000000000000e+00  -4.1266093227002125e+00 7.6902888052118774e+00 0.0000000000000000e+00  -3.6337325711084474e+00 7.1531867333383854e+00 0.0000000000000000e+00  -3.1935299003575608e+00 6.6642857514859060e+00 0.0000000000000000e+00  -2.8046139433374160e+00 6.1740884368779136e+00 0.0000000000000000e+00  -2.4763591549896153e+00 5.6738732260526756e+00 0.0000000000000000e+00  -2.2043530720668585e+00 5.1581772249643789e+00 0.0000000000000000e+00  -1.9738860015516830e+00 4.6392280853212720e+00 0.0000000000000000e+00  -1.7880271288111405e+00 4.0869807648202796e+00 0.0000000000000000e+00  -1.6428048907454271e+00 3.5740238567892293e+00 0.0000000000000000e+00  -1.5311309882157982e+00 2.9843076534231963e+00 0.0000000000000000e+00  -1.4535741858222924e+00 2.5276670115376185e+00 0.0000000000000000e+00  -1.4153956140355419e+00 1.8956722524251726e+00 0.0000000000000000e+00  -1.4097542982072919e+00 1.6086991527586876e+00 0.0000000000000000e+00  -1.4453499962133842e+00 8.9604590611690726e-01 0.0000000000000000e+00  -1.5269447222328731e+00 7.3864934011500916e-01 0.0000000000000000e+00  -1.6458796980560111e+00 1.2639031717141749e+00 0.0000000000000000e+00  -6.0216109522480998e-01 -1.0850411269112714e+00 0.0000000000000000e+00  -5.3509897229950443e-01 -9.7117265107617456e-01 0.0000000000000000e+00  -6.9458499653950567e-01 -1.3572736526096907e+00 0.0000000000000000e+00  -8.1117501654073987e-01 -1.7764458698841428e+00 0.0000000000000000e+00  -9.3304121564151221e-01 -2.1107069121891802e+00 0.0000000000000000e+00  -1.0949925015126394e+00 -2.5564970870960417e+00 0.0000000000000000e+00  -1.3573950186738968e+00 -3.0890026621187361e+00 0.0000000000000000e+00  -1.6802398370492440e+00 -3.7167233637497183e+00 0.0000000000000000e+00  -2.0531899443809145e+00 -4.3788314755405278e+00 0.0000000000000000e+00  -2.4698353074940913e+00 -5.1194906238760147e+00 0.0000000000000000e+00  -2.8683218125797767e+00 -5.7292617860919943e+00 0.0000000000000000e+00  -3.0324191007148724e+00 -5.7597375168702989e+00 0.0000000000000000e+00  -3.5172536579103149e+00 -6.2501195556318212e+00 0.0000000000000000e+00  -1.6212345147935714e+00 -3.1769936184349699e+00 0.0000000000000000e+00  -6.0519936845697888e+00 -9.5996497954780189e+00 0.0000000000000000e+00  -4.7109045425458262e+00 -7.3571349917986231e+00 0.0000000000000000e+00  -4.4150787068949002e+00 -6.6112480428288736e+00 0.0000000000000000e+00  -4.7135494253018946e+00 -6.7049971555140866e+00 0.0000000000000000e+00  -5.4352588739533187e+00 -7.2636473935747503e+00 0.0000000000000000e+00  -6.4029576583423866e+00 -8.0702685200182760e+00 0.0000000000000000e+00  -7.5591522937946776e+00 -9.0114600852315370e+00 0.0000000000000000e+00  -8.8559223380065522e+00 -1.0030220306184953e+01 0.0000000000000000e+00  -1.0247887066661098e+01 -1.0966298588713025e+01 0.0000000000000000e+00  -1.1694228848076536e+01 -1.1959211412894897e+01 0.0000000000000000e+00  -1.3144682334948911e+01 -1.2513677862432147e+01 0.0000000000000000e+00  -1.4530545340210942e+01 -1.2951442361055150e+01 0.0000000000000000e+00  -1.5777522874471341e+01 -1.2426685268129548e+01 0.0000000000000000e+00  -1.6829503841831666e+01 -1.1223536084953739e+01 0.0000000000000000e+00  -1.7595064303553581e+01 -8.6976464664662387e+00 0.0000000000000000e+00  -1.8073826758505827e+01 -3.7512281966204477e+00 0.0000000000000000e+00  -1.8159498872262130e+01 1.0973094073575308e-03 0.000000