<?xml version="1.0"?>
<VTKFile type="UnstructuredGrid"  version="0.1"  >
<UnstructuredGrid>
<Piece  NumberOfPoints="1933" NumberOfCells="3640">
<Points>
<DataArray  type="Float64"  NumberOfComponents="3"  format="ascii">0.2940207476089787 -0.00107723811678857 0  5.294020761012293 -0.001044983576522175 0  5.293972363057915 7.498955042103099 0  0.293972349394059 7.498922788275822 0  10.29402078786128 -0.001012744853857039 0  10.2939723832485 7.498987277839171 0  15.29402083661423 -0.0009805068273739104 0  15.29397241065873 7.499019512928688 0  20.29402091103774 -0.0009482514556091825 0  20.29397244457288 7.499051765901466 0  25.29402101120888 -0.0009159601113317567 0  25.29397248278098 7.499084055342146 0  30.29402113442547 -0.0008836143045818162 0  30.29397252148705 7.499116399571573 0  35.29402127580357 -0.0008511957317454622 0  35.29397255523335 7.499148816716801 0  40.29402142857442 -0.0008186860451904539 0  40.29397257679854 7.49918132496808 0  45.29402158413754 -0.0007860665121875359 0  45.29397257703454 7.499213942917324 0  50.29402173191883 -0.0007533176316642733 0  50.2939725446175 7.499246689929985 0  55.29402185906081 -0.0007204187308499576 0  55.29397246569425 7.499279586534239 0  60.29402194995193 -0.0006873475411827699 0  60.29397232340483 7.499312654828284 0  65.29402198558226 -0.0006540797403816788 0  65.29397209725526 7.49934591891673 0  70.29402194268934 -0.0006205884387053072 0  70.29397176230573 7.49937940539344 0  75.29402179263573 -0.0005868435784677034 0  75.29397128812563 7.499413143894008 0  80.29402149992085 -0.0005528112043394135 0  80.29397063744614 7.499447167746313 0  85.29402102017812 -0.0005184525456484408 0  85.29396976442189 7.499481514752737 0  90.29402029742145 -0.0004837228286699078 0  90.29396861237754 7.499516228139522 0  95.29401926016415 -0.0004485697050277326 0  95.29396711089157 7.499551357700073 0  100.2940178157918 -0.000412931142406675 0  100.2939651720432 7.499586961122886 0  105.2940158421523 -0.0003767325844083785 0  105.2939626856681 7.499623105391011 0  110.2940131745915 -0.0003398831794158296 0  110.2939595135949 7.499659867880952 0  115.2940095853455 -0.0003022709981813599 0  115.2939554832396 7.499697336185498 0  120.2940047498408 -0.0002637576629931206 0  120.2939503819539 7.499735604333249 0  125.2939981901897 -0.0002241743676221044 0  125.2939439559255 7.499774760134284 0  130.2939891785127 -0.0001833256022907412 0  130.2939359227117 7.499814852116278 0  135.2939765690784 -0.0001410184767846818 0  135.2939260176463 7.499855811483447 0  140.2939585044571 -9.716618151995885e-05 0  140.293914116996 7.499897278236842 0  145.2939319006267 -5.209659240313146e-05 0  145.2939005245153 7.499938230287902 0  150.2938915508208 -7.428785225819487e-06 0  150.2938865875186 7.49997622941821 0  160.2938926261462 3.654324697409852e-19 0  165.2939067163724 2.855192264321819e-06 0  165.2938947505867 7.500000647850896 0  160.2938877290435 7.499994043382391 0  170.2939208357784 1.451859417993531e-05 0  170.2939015565873 7.50001365649654 0  175.2939336728964 3.185611282464894e-05 0  175.2939082030158 7.500031538018101 0  180.293944906018 5.304894333566445e-05 0  180.2939145295013 7.500052963635688 0  185.2939545742018 7.694450987718964e-05 0  185.2939204035172 7.500076959228783 0  190.2939628367934 0.000102778318473471 0  190.2939257548053 7.500102833768482 0  195.293969879094 0.0001300275331514247 0  195.2939305633012 7.500130096869812 0  200.29397587683 0.0001583255015492897 0  200.2939348413853 7.500158396731952 0  205.2939809847491 0.0001874092933302734 0  205.293938619767 7.500187477320126 0  210.2939853348861 0.0002170865142826957 0  210.293941937978 7.500217149440825 0  215.293989038402 0.0002472138016598064 0  215.2939448384891 7.500247271194353 0  220.293992188452 0.0002776825692838414 0  220.2939473633084 7.500277734638085 0  225.2939948630868 0.0003084093446293421 0  225.2939495521591 7.500308456559206 0  230.2939971278381 0.0003393290739406034 0  230.2939514416242 7.500339371987903 0  235.2939990379127 0.000370390386542554 0  235.2939530648624 7.500370429561276 0  240.2940006400205 0.0004015521811676193 0  240.2939544516492 7.500401588157438 0  245.2940019738924 0.0004327811252069197 0  245.2939556285979 7.500432814417771 0  250.2940030735489 0.00046404980046566 0  250.2939566194701 7.500464080903829 0  255.2940039683759 0.0004953353204314569 0  255.2939574455268 7.500495364720035 0  260.294004684054 0.0005266183048155864 0  260.2939581258901 7.500526646490578 0  265.2940052433795 0.0005578821397738613 0  265.2939586778983 7.500557909619419 0  270.2940056670066 0.0005891124849438202 0  270.2939591174437 7.500589139793117 0  275.2940059741376 0.0006202970169584375 0  275.2939594592805 7.500620324712199 0  280.2940061831654 0.000651425428131427 0  280.2939597172962 7.500651454060914 0  285.2940063122643 0.0006824897327080562 0  285.2939599047227 7.500682519750355 0  290.2940063798773 0.0007134849750957838 0  290.2939600342769 7.50071351649596 0  295.2940064049837 0.0007444104851191044 0  295.2939601182118 7.500744442815277 0  300.2940064068886 0.0007752718696068944 0  300.2939601682874 7.500775302548242 0  305.2940064039941 0.0008060838885569767 0  305.2939601957643 7.500806107003017 0  310.294006410462 0.0008368738847745662 0  310.2939602117259 7.500836877870741 0  5.293923948431043 14.99895509171813 0  0.2939239367514835 14.99892285317185 0  10.29392395873194 14.99898731126993 0  15.29392396603021 14.99901953267184 0  20.29392396757835 14.99905177462302 0  25.29392395979648 14.99908405495631 0  30.29392393817289 14.99911639109965 0  35.29392389706265 14.99914880036671 0  40.29392382946509 14.99918130023807 0  45.29392372678851 14.99921390865984 0  50.29392357859025 14.99924664435751 0  55.29392337227642 14.99927952716032 0  60.29392309274593 14.99931257833529 0  65.29392272196678 14.99934582093278 0  70.29392223847496 14.99937928014648 0  75.29392161679201 14.99941298368784 0  80.29392082676566 14.99944696216768 0  85.29391983286 14.9994812494602 0  90.29391859345743 14.99951588299076 0  95.29391706030617 14.99955090382111 0  100.2939151783755 14.99958635627535 0  105.2939128866044 14.99962228660413 0  110.2939101204104 14.9996587397264 0  115.2939068174397 14.99969575225188 0  120.2939029289738 14.99973333850301 0  125.2938984406586 14.99977146372419 0  130.2938934074954 14.99980999464023 0  135.2938880081098 14.99984861196717 0  140.2938826186952 14.99988666449338 0  145.2938778888903 14.99992294979901 0  150.2938747506308 14.99995545702365 0  165.2938786753554 14.99999559484556 0  160.2938762538133 14.99998292264772 0  170.2938809241552 15.00001165651283 0  175.2938832938286 15.00003097487793 0  180.2938858249469 15.00005304223624 0  185.2938884514199 15.00007729974729 0  190.2938910847371 15.00010325866443 0  195.2938936480118 15.00013052602298 0  200.2938960852965 15.00015879655998 0  205.2938983608373 15.00018783614838 0  210.2939004551129 15.0002174656027 0  215.293902360502 15.0002475473178 0  220.2939040775776 15.00027797494288 0  225.293905612252 15.00030866561755 0  230.2939069737029 15.00033955419211 0  235.293908172928 15.00037058892884 0  240.2939092217692 15.00040172829299 0  245.2939101322784 15.00043293854436 0  250.2939109163226 15.00046419192112 0  255.2939115853556 15.00049546526843 0  260.2939121502992 15.00052673900942 0  265.2939126214962 15.00055799638906 0  270.2939130087075 15.0005892229474 0  275.2939133211333 15.00062040619781 0  280.2939135674446 15.00065153550216 0  285.2939137558283 15.00068260214537 0  290.2939138940516 15.00071359961678 0  295.2939139896007 15.00074452409716 0  300.2939140499743 15.0007753751217 0  305.293914083314 15.0008061563277 0  310.2939140996886 15.00083687610443 0  5.293875577176562 22.49895516579442 0  0.2938755673710016 22.49892296921477 0  10.29387558104163 22.49898735113095 0  15.29387557537345 22.49901954440526 0  20.29387555658533 22.49905176272764 0  25.29387552082592 22.49908402223618 0  30.29387546378376 22.49911633871682 0  35.29387538048663 22.49914872796901 0  40.29387526510467 22.49918120606932 0  45.29387511076482 22.49921378960052 0  50.29387490937918 22.49924649586988 0  55.29387465148479 22.49927934312012 0  60.29387432609744 22.49931235072824 0  65.29387392058706 22.49934553938297 0  70.29387342059304 22.49937893122253 0  75.29387281001462 22.49941254990434 0  80.29387207113379 22.49944642055619 0  85.29387118496523 22.49948056952422 0  90.29387013198182 22.49951502377361 0  95.29386889344205 22.49954980970113 0  100.2938674536572 22.49958495095976 0  105.2938658036816 22.49962046464237 0  110.2938639470863 22.4996563547779 0  115.2938619086249 22.49969260151353 0  120.2938597466296 22.49972914357568 0  125.2938575695785 22.49976585074078 0  130.2938555559568 22.49980248263006 0  135.2938539733325 22.49983863173395 0  140.2938531862783 22.4998736561838 0  145.2938536327482 22.49990663071354 0  150.2938557387345 22.49993640177804 0  165.2938564546654 22.49998944328432 0  160.2938567612702 22.49997181649477 0  170.2938560675288 22.50000868268787 0  175.2938558211616 22.50002986939022 0  180.2938558263328 22.5000529608394 0  185.2938561014363 22.50007773880944 0  190.2938566120235 22.50010393192527 0  195.2938573023874 22.50013127694703 0  200.2938581142543 22.50015954322126 0  205.2938589957853 22.50018853849597 0  210.2938599047924 22.50021810659499 0  215.2938608089584 22.50024812224516 0  220.293861684731 22.50027848546549 0  225.2938625157849 22.50030911648095 0  230.2938632914867 22.50033995145025 0  235.2938640055454 22.50037093901055 0  240.2938646548997 22.50040203753721 0  245.2938652388385 22.50043321299265 0  250.2938657583196 22.5004644372479 0  255.293866215454 22.50049568677894 0  260.293866613116 22.50052694166212 0  265.293866954653 22.50055818481002 0  270.2938672436696 22.50058940140504 0  275.2938674838747 22.50062057849863 0  280.2938676789809 22.50065170474965 0  285.2938678326659 22.50068277027534 0  290.2938679486219 22.5007137665759 0  295.2938680307335 22.5007446864685
[...]
<PointData  Vectors="v"> 
<DataArray  type="Float64"  Name="v"  NumberOfComponents="3" format="ascii">1.0937647909975152e+00 7.6693457507681213e+00 0.0000000000000000e+00  1.6514436759800342e+00 7.1809334376610074e+00 0.0000000000000000e+00  1.5208185609595515e+00 6.3446880597656836e+00 0.0000000000000000e+00  1.0905234083307633e+00 7.0241876571415149e+00 0.0000000000000000e+00  2.3457019943217845e+00 7.7606172506064528e+00 0.0000000000000000e+00  2.0780668851521442e+00 6.7202016582742470e+00 0.0000000000000000e+00  2.9673944011848121e+00 8.7827541406472118e+00 0.0000000000000000e+00  2.7710786033363517e+00 7.8517519567006087e+00 0.0000000000000000e+00  3.5116004303069013e+00 9.0955002223289192e+00 0.0000000000000000e+00  3.3907826104364913e+00 8.2814946733461330e+00 0.0000000000000000e+00  4.1932551823263227e+00 9.9695880889217161e+00 0.0000000000000000e+00  3.9322079958560763e+00 8.9501094026648929e+00 0.0000000000000000e+00  4.7328419187703554e+00 1.0324039699702842e+01 0.0000000000000000e+00  4.6101613329280413e+00 9.5182881244685351e+00 0.0000000000000000e+00  4.8123074504164016e+00 1.0061027131360365e+01 0.0000000000000000e+00  5.1452210336111186e+00 9.9462394930430946e+00 0.0000000000000000e+00  5.8966462905331953e+00 1.1157275432243871e+01 0.0000000000000000e+00  5.2194093531144699e+00 9.5358571786561015e+00 0.0000000000000000e+00  2.7920892912386917e+00 5.9946049317302128e+00 0.0000000000000000e+00  6.2975288025872906e+00 1.0657282803621927e+01 0.0000000000000000e+00  1.3911407275108497e+01 2.1875591056597422e+01 0.0000000000000000e+00  3.1860181406799652e+00 5.2025810536491308e+00 0.0000000000000000e+00  1.3592316951442079e+01 2.0102240459296507e+01 0.0000000000000000e+00  1.4297883825596900e+01 2.0588121237299248e+01 0.0000000000000000e+00  1.3670055367557731e+01 1.8783185472523147e+01 0.0000000000000000e+00  1.3970262281083235e+01 1.8674811961648125e+01 0.0000000000000000e+00  1.4201607832406433e+01 1.8116439445510821e+01 0.0000000000000000e+00  1.4038174271022003e+01 1.7328665638328449e+01 0.0000000000000000e+00  1.5142133527550019e+01 1.8083716748670351e+01 0.0000000000000000e+00  1.4558531407440434e+01 1.6683833052124598e+01 0.0000000000000000e+00  1.6392622624295647e+01 1.8475162311545521e+01 0.0000000000000000e+00  1.5486016665621884e+01 1.6611368866729009e+01 0.0000000000000000e+00  1.7859444985244956e+01 1.9083766446706161e+01 0.0000000000000000e+00  1.6721988191447856e+01 1.6896903370306436e+01 0.0000000000000000e+00  1.9452020537327119e+01 1.9970509581363906e+01 0.0000000000000000e+00  1.8172961412113693e+01 1.7596269508216498e+01 0.0000000000000000e+00  2.1079897623192529e+01 2.0709273021622533e+01 0.0000000000000000e+00  1.9747833810172029e+01 1.8282906237906264e+01 0.0000000000000000e+00  2.2666363225137118e+01 2.1333505618718711e+01 0.0000000000000000e+00  2.1356857678026028e+01 1.8970679911115674e+01 0.0000000000000000e+00  2.4147849752624136e+01 2.1681168397199912e+01 0.0000000000000000e+00  2.2923137392593361e+01 1.9476611179802418e+01 0.0000000000000000e+00  2.5468930573039160e+01 2.1716087356428481e+01 0.0000000000000000e+00  2.4383189106211297e+01 1.9753090716901848e+01 0.0000000000000000e+00  2.6593859971597695e+01 2.0986767990559795e+01 0.0000000000000000e+00  2.5681420981496760e+01 1.9318491537675861e+01 0.0000000000000000e+00  2.7509001276249563e+01 2.0267447828532188e+01 0.0000000000000000e+00  2.6783506525074987e+01 1.8915346327634222e+01 0.0000000000000000e+00  2.8208699196631887e+01 1.8119556990050771e+01 0.0000000000000000e+00  2.7673396066456725e+01 1.7089470982302227e+01 0.0000000000000000e+00  2.8714921185953848e+01 1.6449087603350602e+01 0.0000000000000000e+00  2.8349585755763979e+01 1.5712188283870690e+01 0.0000000000000000e+00  2.9046453643710240e+01 1.2768209243133754e+01 0.0000000000000000e+00  2.8828521556844382e+01 1.2289742122392415e+01 0.0000000000000000e+00  2.9247317139444998e+01 1.0108062923300992e+01 0.0000000000000000e+00  2.9137330423750612e+01 9.8312572237262437e+00 0.0000000000000000e+00  2.9342356185205784e+01 5.2212880581014298e+00 0.0000000000000000e+00  2.9308826127659092e+01 5.0954477031732726e+00 0.0000000000000000e+00  2.9381792103579674e+01 1.2614230318888200e+00 0.0000000000000000e+00  2.9383384206228428e+01 1.2293402880555173e+00 0.0000000000000000e+00  2.9389262613998017e+01 -5.2842081731792482e-10 0.0000000000000000e+00  2.9389916205671909e+01 6.8475819149626453e-04 0.0000000000000000e+00  2.9389262614623714e+01 -4.7419678779952713e-19 0.0000000000000000e+00  2.0125175489532815e+01 -7.1025368591887466e+00 0.0000000000000000e+00  2.9383844612468170e+01 6.7680321263277881e+00 0.0000000000000000e+00  2.9389904737551934e+01 -6.5391185009960255e-04 0.0000000000000000e+00  2.0749497923502808e+01 -1.3370975722630353e+01 0.0000000000000000e+00  2.0153370531714554e+01 -1.4347370278916074e+01 0.0000000000000000e+00  1.7730681941826631e+01 -2.0812321547530161e+01 0.0000000000000000e+00  2.0815219735848189e+01 -1.6314472520919086e+01 0.0000000000000000e+00  1.6953342480435929e+01 -2.2291627236922899e+01 0.0000000000000000e+00  1.7834647398025037e+01 -2.1160355110295384e+01 0.0000000000000000e+00  1.5273465860713301e+01 -2.5069516399939914e+01 0.0000000000000000e+00  1.7094875898282577e+01 -2.2582534103546202e+01 0.0000000000000000e+00  1.4061796961660281e+01 -2.5283362409813854e+01 0.0000000000000000e+00  1.5451974466226039e+01 -2.3499536229055416e+01 0.0000000000000000e+00  1.2767013515442661e+01 -2.5363192281955754e+01 0.0000000000000000e+00  1.4277584626234320e+01 -2.3453429657978344e+01 0.0000000000000000e+00  1.1651317923955014e+01 -2.4311431993886199e+01 0.0000000000000000e+00  1.3019258457721573e+01 -2.2670852946544578e+01 0.0000000000000000e+00  1.0323429496350727e+01 -2.3143854707260676e+01 0.0000000000000000e+00  1.1939648591452194e+01 -2.1184296710852212e+01 0.0000000000000000e+00  9.3677498820457359e+00 -2.1302911456956327e+01 0.0000000000000000e+00  1.0647665760047788e+01 -1.9901473429173581e+01 0.0000000000000000e+00  8.5843471477950413e+00 -1.9447976057805192e+01 0.0000000000000000e+00  9.7274326613981259e+00 -1.8304747701234813e+01 0.0000000000000000e+00  7.7323762445705322e+00 -1.7755108584000222e+01 0.0000000000000000e+00  8.9790983397305482e+00 -1.6508753764231596e+01 0.0000000000000000e+00  6.9255019144367411e+00 -1.6155935710127942e+01 0.0000000000000000e+00  8.1619941307651089e+00 -1.4976843798682426e+01 0.0000000000000000e+00  6.1675980159172079e+00 -1.4740271871254530e+01 0.0000000000000000e+00  7.3895733882724715e+00 -1.3634440791439722e+01 0.0000000000000000e+00  5.4220844725480797e+00 -1.3444827746747830e+01 0.0000000000000000e+00  6.6657543678921813e+00 -1.2357232706716257e+01 0.0000000000000000e+00  4.7438334457414824e+00 -1.2204040637435101e+01 0.0000000000000000e+00  5.9540203762237374e+00 -1.1217005574452145e+01 0.0000000000000000e+00  4.1406151217043297e+00 -1.1065644114674443e+01 0.0000000000000000e+00  5.3091609784238685e+00 -1.0190871291090438e+01 0.0000000000000000e+00  3.5749241596876891e+00 -9.9769944565322657e+00 0.0000000000000000e+00  4.7389215077146432e+00 -9.1582188932339186e+00 0.0000000000000000e+00  3.0720891559949433e+00 -8.9142240157744173e+00 0.0000000000000000e+00  4.2059283496768689e+00 -8.1893518639987608e+00 0.0000000000000000e+00  2.6411332385942727e+00 -7.9165120922873244e+00 0.0000000000000000e+00  3.7353265574515579e+00 -7.2992704159532291e+00 0.0000000000000000e+00  2.2459888383846711e+00 -6.9124196039062635e+00 0.0000000000000000e+00  3.3363761634186160e+00 -6.3484458047185104e+00 0.0000000000000000e+00  1.9050741308079688e+00 -5.9774892765247492e+00 0.0000000000000000e+00  2.9726769208079835e+00 -5.4948093347018929e+00 0.0000000000000000e+00  1.6179533325416506e+00 -5.0246403425341359e+00 0.0000000000000000e+00  2.6632582646002794e+00 -4.6219581793264330e+00 0.0000000000000000e+00  1.3653107791387031e+00 -4.2097009781141601e+00 0.0000000000000000e+00  2.4065920621805601e+00 -3.8592049624161842e+00 0.0000000000000000e+00  1.1471510768372148e+00 -3.2711496378702996e+00 0.0000000000000000e+00  2.1853211720241945e+00 -2.9708140033503434e+00 0.0000000000000000e+00  9.5626415196543590e-01 -2.7333370373325572e+00 0.0000000000000000e+00  1.9961293075768394e+00 -2.4758873786408353e+00 0.0000000000000000e+00  7.8008959779455855e-01 -1.7835591998928499e+00 0.0000000000000000e+00  1.8373685819151446e+00 -1.5442280195186004e+00 0.0000000000000000e+00  5.4249266576968069e-01 -1.7264171631594680e+00 0.0000000000000000e+00  1.6872708487334200e+00 -1.4009440018355024e+00 0.0000000000000000e+00  1.8219177195551556e-01 -1.2019332248973729e+00 0.0000000000000000e+00  1.4858540798809534e+00 -6.8129495994397526e-01 0.0000000000000000e+00  -6.6110501450688308e-01 -7.2095062337267472e-03 0.0000000000000000e+00  1.1400182568415744e+00 1.2163522373650362e+00 0.0000000000000000e+00  1.7981052702545421e+00 5.6988883764244500e+00 0.0000000000000000e+00  1.3239829237345710e+00 6.3139798918120391e+00 0.0000000000000000e+00  2.2287203165465890e+00 5.8844047346650701e+00 0.0000000000000000e+00  2.7854398648356296e+00 6.8130719777872732e+00 0.0000000000000000e+00  3.4767024355479434e+00 7.3535850784262520e+00 0.0000000000000000e+00  4.0932263325900520e+00 8.1403854930274644e+00 0.0000000000000000e+00  4.6300200119183330e+00 8.5048047192999441e+00 0.0000000000000000e+00  5.3017038667469034e+00 9.1481733028905428e+00 0.0000000000000000e+00  5.8287334137448790e+00 9.4298499600015191e+00 0.0000000000000000e+00  5.8934209777738644e+00 9.0464083950128380e+00 0.0000000000000000e+00  6.9605443955568607e+00 9.8771393488223023e+00 0.0000000000000000e+00  3.8372862210941792e+00 3.9262241602007020e+00 0.0000000000000000e+00  1.4938430479787630e+01 1.9172714733052928e+01 0.0000000000000000e+00  1.4599656715061061e+01 1.7234680422319656e+01 0.0000000000000000e+00  1.4653950575614155e+01 1.5912296944265519e+01 0.0000000000000000e+00  1.5158032080587653e+01 1.5231568052741366e+01 0.0000000000000000e+00  1.6065620069247075e+01 1.5056416048383319e+01 0.0000000000000000e+00  1.7278167286633231e+01 1.5434722551918194e+01 0.0000000000000000e+00  1.8702696490309794e+01 1.5937949892047323e+01 0.0000000000000000e+00  2.0247547151671473e+01 1.6576574981446452e+01 0.0000000000000000e+00  2.1823118274283097e+01 1.7147669917627187e+01 0.0000000000000000e+00  2.3353313522146777e+01 1.7586222235943982e+01 0.0000000000000000e+00  2.4773745248517095e+01 1.7395555148795133e+01 0.0000000000000000e+00  2.6029713636994043e+01 1.7288423387520570e+01 0.0000000000000000e+00  2.7086917595599825e+01 1.5781410273684457e+01 0.0000000000000000e+00  2.7930199492930875e+01 1.4728012544724324e+01 0.0000000000000000e+00  2.8556753667925310e+01 1.1597677726123793e+01 0.0000000000000000e+00  2.8987844545528414e+01 9.4023626278999206e+00 0.0000000000000000e+00  2.9243717533965135e+01 4.8596501301119757e+00 0.0000000000000000e+00  2.9371272593509808e+01 1.1577531467531237e+00 0.0000000000000000e+00  2.9391483934559435e+01 1.3052845692857798e-03 0.0000000000000000e+00  2.9362803173337038e+01 6.8303795223535939e+00 0.0000000000000000e+00  2.9391462884443474e+01 -1.2860231397787043e-03 0.0000000000000000e+00  2.9301277736486835e+01 -5.1407755081011475e-01 0.0000000000000000e+00  2.0105031950882047e+01 -1.7334210579402338e+01 0.0000000000000000e+00  2.0811344774595590e+01 -1.6714923718035926e+01 0.0000000000000000e+00  1.7873264332403409e+01 -2.1499240304165895e+01 0.0000000000000000e+00  1.7176483010173563e+01 -2.1058158003933855e+01 0.0000000000000000e+00  1.5573116582177841e+01 -2.1716248209782460e+01 0.0000000000000000e+00  1.4438113126137690e+01 -2.0805690316878703e+01 0.0000000000000000e+00  1.3216913370823763e+01 -1.9586425200398956e+01 0.0000000000000000e+00  1.2173137379299931e+01 -1.7984695231289180e+01 0.0000000000000000e+00  1.0916064475390852e+01 -1.6945030133382492e+01 0.0000000000000000e+00  1.0029943319270878e+01 -1.5406213686558404e+01 0.0000000000000000e+00  9.3148987786186606e+00 -1.3771138736682655e+01 0.0000000000000000e+00  8.5307382039532520e+00 -1.2495345746745802e+01 0.0000000000000000e+00  7.7906941925934552e+00 -1.1290603817748954e+01 0.0000000000000000e+00  7.0986361147439210e+00 -1.0168322783106435e+01 0.0000000000000000e+00  6.4181792436122489e+00 -9.2420990608998377e+00 0.0000000000000000e+00  5.8039839044760946e+00 -8.3209620887448494e+00 0.0000000000000000e+00  5.2637597896581783e+00 -7.4076522175031307e+00 0.0000000000000000e+00  4.7601963308544955e+00 -6.6108326194498970e+00 0.0000000000000000e+00  4.3184296253712358e+00 -5.7669638033800537e+00 0.0000000000000000e+00  3.9476118533368036e+00 -4.9660974119405221e+00 0.0000000000000000e+00  3.6115710772493843e+00 -4.1739519804226992e+00 0.0000000000000000e+00  3.3290214282335859e+00 -3.4905208236587937e+00 0.0000000000000000e+00  3.0988983998291424e+00 -2.6539185413326183e+00 0.0000000000000000e+00  2.9030718975904870e+00 -2.2084831292401663e+00 0.0000000000000000e+00  2.7396526002550785e+00 -1.3189625116011645e+00 0.0000000000000000e+00  2.6043334632249473e+00 -1.1937562756443874e+00 0.0000000000000000e+00  2.4798689054735403e+00 -3.8827953983656621e-01 0.0000000000000000e+00  2.2999246526345956e+00 1.7156277000873932e+00 0.0000000000000000e+00  2.5110876787920087e+00 4.9868915983523721e+00 0.0000000000000000e+00  2.0826464469763133e+00 5.6728020987455361e+00 0.0000000000000000e+00  2.9864250866318947e+00 5.2376154119996601e+00 0.0000000000000000e+00  3.4183099923783993e+00 5.9783073395524440e+00 0.0000000000000000e+00  3.9745003034478374e+00 6.3184541243168466e+00 0.0000000000000000e+00  4.6632234880493773e+00 7.2190851470186201e+00 0.0000000000000000e+00  5.2747763706197359e+00 7.7052993225891369e+00 0.0000000000000000e+00  5.8035011641034853e+00 8.1483880525082100e+00 0.0000000000000000e+00  6.4641048551220530e+00 8.6493690775395464e+00 0.0000000000000000e+00  6.9769347992175179e+00 8.9618332129560478e+00 0.0000000000000000e+00  7.0242460708655354e+00 8.2904667579914015e+00 0.0000000000000000e+00  8.0722052033386777e+00 8.6255652010134920e+00 0.0000000000000000e+00  4.9310829993937482e+00 2.5326024835685796e+00 0.0000000000000000e+00  1.6017829401458105e+01 1.7753918886115020e+01 0.0000000000000000e+00  1.5665016699555109e+01 1.5844980705244621e+01 0.0000000000000000e+00  1.5701016300388879e+01 1.4493776797253586e+01 0.0000000000000000e+00  1.6180379231455817e+01 1.3717919084705590e+01 0.0000000000000000e+00  1.7056505324562401e+01 1.3643898465878209e+01 0.0000000000000000e+00  1.8230688938099700e+01 1.3834101200720266e+01 0.0000000000000000e+00  1.9609503556801041e+01 1.4296911483174650e+01 0.0000000000000000e+00  2.1101766741683946e+01 1.4826800356975269e+01 0.0000000000000000e+00  2.2618116008764208e+01 1.5338547800664333e+01 0.0000000000000000e+00  2.4081610818032480e+01 1.5316272910511859e+01 0.0000000000000000e+00  2.5429265951038929e+01 1.5461631479364264e+01 0.0000000000000000e+00  2.6605414125996226e+01 1.4254930588102535e+01 0.0000000000000000e+00  2.7578182550327707e+01 1.3528662011381098e+01 0.0000000000000000e+00  2.8330281140284036e+01 1.0721033596175717e+01 0.0000000000000000e+00  2.8865852956809558e+01 8.8295047370421766e+00 0.0000000000000000e+00  2.9198546754749021e+01 4.5323626262978438e+00 0.0000000000000000e+00  2.9368627353342593e+01 1.0504891989952496e+00 0.0000000000000000e+00  2.9393932860305728e+01 1.8678577655035704e-03 0.0000000000000000e+00  2.9344487277482614e+01 6.9915155519627055e+00 0.0000000000000000e+00  2.9393914106595322e+01 -1.8402873831756786e-03 0.0000000000000000e+00  2.9151842353953036e+01 -3.9174113303732239e-01 0.0000000000000000e+00  2.9080595124554183e+01 -3.5808845336938924e+00 0.0000000000000000e+00  1.9942015831128852e+01 -1.7829621435055845e+01 0.0000000000000000e+00  2.0720834465333457e+01 -1.7142783222266711e+01 0.0000000000000000e+00  1.7851839634384952e+01 -2.0065025684448106e+01 0.0000000000000000e+00  1.7221026041804109e+01 -1.9357449237529501e+01 0.0000000000000000e+00  1.5678300631129611e+01 -1.9148150977511467e+01 0.0000000000000000e+00  1.4600673196964033e+01 -1.7796487334474605e+01 0.0000000000000000e+00  1.3432518424825050e+01 -1.6458960121735910e+01 0.0000000000000000e+00  1.2439265834606292e+01 -1.5097572144170606e+01 0.0000000000000000e+00  1.1230497562448058e+01 -1.4114302984449383e+01 0.0000000000000000e+00  1.0391158562911865e+01 -1.2734850831683103e+01 0.0000000000000000e+00  9.7219118033566314e+00 -1.1354815860879901e+01 0.0000000000000000e+00  8.9827947758433950e+00 -1.0215694072251992e+01 0.0000000000000000e+00  8.2869364876456864e+00 -9.1647201172725090e+00 0.0000000000000000e+00  7.6382691291475560e+00 -8.2551813718945990e+00 0.0000000000000000e+00  7.0002515750527419e+00 -7.4327696902435703e+00 0.0000000000000000e+00  6.4274767177188261e+00 -6.6295622299469112e+00 0.0000000000000000e+00  5.9275939566718208e+00 -5.8870052416683123e+00 0.0000000000000000e+00  5.4633329509044213e+00 -5.1349192018993444e+00 0.0000000000000000e+00  5.0596307494715589e+00 -4.4398693441798214e+00 0.0000000000000000e+00  4.7259580087525004e+00 -3.6986921356277436e+00 0.0000000000000000e+00  4.4256029869145630e+00 -3.0953384878159236e+00 0.0000000000000000e+00  4.1781318187990646e+00 -2.3354439085314951e+00 0.0000000000000000e+00  3.9810455178042319e+00 -1.9425194111524704e+00 0.0000000000000000e+00  3.8185677965899125e+00 -1.0973524020792182e+00 0.0000000000000000e+00  3.6845002794683683e+00 -1.0194340768005303e+00 0.0000000000000000e+00  3.5827925289363494e+00 -2.1947996239725118e-01 0.0000000000000000e+00  3.4792523670299733e+00 1.9553758125714058e+00 0.0000000000000000e+00  3.4308128544593743e+00 4.3429523285449037e+00 0.0000000000000000e+00  3.0405481558407543e+00 5.0894439613495281e+00 0.0000000000000000e+00  3.8612585354855873e+00 4.5225765202712358e+00 0.0000000000000000e+00  4.3399065310613727e+00 5.3284054872128435e+00 0.0000000000000000e+00  4.7746459253596090e+00 5.4831596056586909e+00 0.0000000000000000e+00  5.3321363542570346e+00 6.1868065150214546e+00 0.0000000000000000e+00  6.0194447240384017e+00 6.7909753670507547e+00 0.0000000000000000e+00  6.6262129489085622e+00 7.3611713697733760e+00 0.0000000000000000e+00  7.1461665042056310e+00 7.6674331615989004e+00 0.0000000000000000e+00  7.7935066217716091e+00 8.2046013730272289e+00 0.0000000000000000e+00  8.2887365949859539e+00 8.2343686251319888e+00 0.0000000000000000e+00  8.3153876208492843e+00 7.0692889926224591e+00 0.0000000000000000e+00  9.3426508298687754e+00 7.2572012931649441e+00 0.0000000000000000e+00  6.1864794481103091e+00 1.1304253700756355e+00 0.0000000000000000e+00  1.7266138686347279e+01 1.6379234499594478e+01 0.0000000000000000e+00  1.6907096082650284e+01 1.4448553553837138e+01 0.0000000000000000e+00  1.6930715445294670e+01 1.3013840675747339e+01 0.0000000000000000e+00  1.7388739102841338e+01 1.2352048454823318e+01 0.0000000000000000e+00  1.8232745017639076e+01 1.2102183416780674e+01 0.0000000000000000e+00  1.9364432246065743e+01 1.2265884299330031e+01 0.0000000000000000e+00  2.0690062422583505e+01 1.2632970824386561e+01 0.0000000000000000e+00  2.2118124296477141e+01 1.3116204069838155e+01 0.0000000000000000e+00  2.3559273293655338e+01 1.3180541580431040e+01 0.0000000000000000e+00  2.4937137992590650e+01 1.3508374783409918e+01 0.0000000000000000e+00  2.6187134109160450e+01 1.2563963339015597e+01 0.0000000000000000e+00  2.7256993025956572e+01 1.2153071750455599e+01 0.0000000000000000e+00  2.8111888868560900e+01 9.6756829773203510e+00 0.0000000000000000e+00  2.8743404406320337e+01 8.1229450510691663e+00 0.0000000000000000e+00  2.9147075116388638e+01 4.1111729932471377e+00 0.0000000000000000e+00  2.9361995743643106e+01 9.0610326649139961e-01 0.0000000000000000e+00  2.9397169189883954e+01 2.3696365898500655e-03 0.0000000000000000e+00  2.9330402611877687e+01 7.2407314760325798e+00 0.0000000000000000e+00  2.9397151754999069e+01 -2.3316956369274040e-03 0.0000000000000000e+00  2.9032339450223041e+01 4.4542861737495738e-03 0.0000000000000000e+00  2.8736568363771191e+01 -3.45107776434