<?xml version="1.0"?>
<VTKFile type="UnstructuredGrid"  version="0.1"  >
<UnstructuredGrid>
<Piece  NumberOfPoints="1933" NumberOfCells="3640">
<Points>
<DataArray  type="Float64"  NumberOfComponents="3"  format="ascii">0.2940369461846017 -0.001636962497194966 0  5.294036993088771 -0.001602181272018041 0  5.293984822798032 7.498397937843054 0  0.2939847529358386 7.498363118596818 0  10.29403706785616 -0.001567494681805348 0  10.29398494123402 7.498432633460326 0  15.29403722093491 -0.001532913186149383 0  15.29398512979252 7.498467214332678 0  20.2940374991165 -0.001498411426148666 0  20.29398540744417 7.498501712791552 0  25.29403794092711 -0.001463944515755189 0  25.29398579071566 7.498536176297333 0  30.29403857664613 -0.001429456108703741 0  30.29398629309387 7.498570662082232 0  35.29403942964745 -0.001394882273091656 0  35.29398692458282 7.498605234300682 0  40.29404051788314 -0.00136015302140602 0  40.29398769144338 7.498639962910063 0  45.29404185511516 -0.001325192428479514 0  45.29398859598508 7.498674923718203 0  50.29404345178759 -0.001289917816001411 0  50.29398963627349 7.498710199260234 0  55.29404531552759 -0.001254238230199404 0  55.29399080564075 7.498745880334861 0  60.2940474512748 -0.001218052284481864 0  60.29399209189577 7.498782068149703 0  65.29404986102294 -0.001181245329827566 0  65.29399347611758 7.498818877117399 0  70.29405254310851 -0.001143685822723403 0  70.29399493089163 7.498856438425516 0  75.29405549092469 -0.001105220662572981 0  75.29399641779042 7.498894904587405 0  80.2940586908321 -0.001065669148606502 0  80.29399788382199 7.498934455281725 0  85.29406211888508 -0.001024815038502982 0  85.29399925645626 7.498975304915044 0  90.2940657357187 -0.0009823959477792397 0  90.29400043667741 7.499017712506384 0  95.29406947848815 -0.0009380889687821505 0  95.29400128930459 7.499061994697879 0  100.2940732479255 -0.0008914908520565384 0  100.2940016295948 7.499108542926997 0  105.2940768871138 -0.000842090304678545 0  105.2940012049278 7.499157845987368 0  110.2940801458543 -0.0007892288408238705 0  110.2939996704254 7.499210519157993 0  115.2940826194902 -0.000732045153852292 0  115.2939965581578 7.499267340297309 0  120.2940836416156 -0.0006693964299100067 0  120.293991242391 7.499329290587442 0  125.2940820923714 -0.0005997495863222301 0  125.2939829109788 7.499397590302632 0  130.2940760504784 -0.0005210402173898433 0  130.2939705716849 7.499473702344932 0  135.2940621534828 -0.0004305206687797603 0  135.293953165448 7.499559237208921 0  140.2940344082097 -0.0003247085848363757 0  140.2939299555173 7.499655616087066 0  145.2939819469453 -0.0001998893082244826 0  145.2939015788517 7.499763241356524 0  150.2938846574887 -5.505094753264058e-05 0  150.2938726649742 7.499880041370416 0  160.2938926261452 1.060518852077243e-18 0  165.2938415197664 -0.000107364028334134 0  165.2938847960516 7.499871269701073 0  160.2938938311646 7.49995016611385 0  170.2938274647899 -0.0001797494424589916 0  170.2938753218305 7.499809761592446 0  175.293830572327 -0.0002276947073313939 0  175.2938698631142 7.499766807446711 0  180.293841333071 -0.0002576729093085579 0  180.2938684954759 7.499739355653568 0  185.2938550759868 -0.000274249702346515 0  185.2938702468549 7.499724122490368 0  190.2938695040309 -0.0002807354380515498 0  190.2938740825485 7.499718372438759 0  195.293883511689 -0.0002795431396757747 0  195.2938791664041 7.499719976548594 0  200.2938965967966 -0.0002724419327982168 0  200.2938848902367 7.499727312930058 0  205.2939085626483 -0.0002607412779133144 0  205.2938908363315 7.499739150462811 0  210.2939193655387 -0.000245422500870654 0  210.2938967291999 7.499754550304569 0  215.2939290362229 -0.0002272313471230652 0  215.2939023938945 7.499772790165225 0  220.2939376393267 -0.0002067427973296787 0  220.2939077243756 7.499793308265467 0  225.2939452524238 -0.0001844066020167917 0  225.2939126608952 7.499815662446031 0  230.2939519553997 -0.0001605795496966025 0  230.2939171743432 7.499839500390084 0  235.2939578252427 -0.0001355486117244868 0  235.2939212556244 7.49986453783329 0  240.2939629337226 -0.0001095477749111403 0  240.2939249085408 7.499890542481 0  245.2939673466294 -8.277045963162824e-05 0  245.2939281450899 7.499917322014327 0  250.2939711238563 -5.537880561422965e-05 0  250.2939309824081 7.499944715050854 0  255.2939743199679 -2.751069357269733e-05 0  255.2939334408498 7.499972584271708 0  260.2939769850511 7.149111876475446e-07 0  260.2939355428353 7.500000811171502 0  265.2939791657817 2.919390543687376e-05 0  265.2939373122425 7.500029292065795 0  270.293980906648 5.78340461603648e-05 0  270.2939387741675 7.500057935125906 0  275.2939822513604 8.655288666924654e-05 0  275.293939954932 7.500086658323803 0  280.2939832444344 0.0001152766617194157 0  280.2939408822336 7.500115388275493 0  285.2939839329522 0.0001439402807771003 0  285.2939415853448 7.500144060084875 0  290.2939843683935 0.0001724887916062061 0  290.2939420952409 7.500172618421787 0  295.2939846082923 0.0002008809758912442 0  295.2939424445881 7.500201020224845 0  300.2939847169877 0.0002290961806179718 0  300.2939426675499 7.500229239594237 0  305.2939847638647 0.0002571460561097358 0  305.2939427997471 7.500257275609212 0  310.293984815359 0.0002850930898862698 0  310.2939428795943 7.500285164048067 0  5.293932405522401 14.99839819310778 0  0.2939323344630305 14.9983633141835 0  10.29393250838787 14.99843288876744 0  15.29393265796567 14.99846744878438 0  20.29393286168393 14.99850192185175 0  25.29393312338303 14.99853636164121 0  30.29393344443032 14.99857082715566 0  35.29393382370157 14.99860538244745 0  40.2939342571342 14.99864009661416 0  45.29393473710287 14.99867504429267 0  50.29393525167228 14.99871030666771 0  55.29393578370129 14.99874597297822 0  60.29393630973672 14.99878214252896 0  65.29393679862423 14.99881892725308 0  70.29393720974942 14.99885645491436 0  75.29393749082411 14.99889487308195 0  80.29393757513373 14.99893435405074 0  85.29393737819503 14.9989751009103 0  90.29393679385048 14.99901735496694 0  95.29393569001681 14.99906140464883 0  100.2939339046703 14.9991075957862 0  105.2939312434097 14.99915634256675 0  110.2939274812781 14.99920813716222 0  115.2939223739571 14.99926355331513 0  120.2939156874554 14.99932323380908 0  125.2939072616565 14.99938784152338 0  130.2938971314876 14.99945793510269 0  135.2938857375187 14.99953369785477 0  140.2938742551692 14.9996143952671 0  145.2938650260281 14.99969734911387 0  150.2938618895307 14.99977601715729 0  165.2938895251711 14.99981231954354 0  160.293887402065 14.99985008020719 0  170.2938860293806 14.99977654486628 0  175.2938809023771 14.99974827056274 0  180.2938763236277 14.99972902926742 0  185.2938731196827 14.99971838788835 0  190.2938714116898 14.99971522144171 0  195.2938710165523 14.99971829067505 0  200.2938716544894 14.9997264641168 0  205.2938730448387 14.99973878233809 0  210.2938749438883 14.99975445832056 0  215.2938771548657 14.99977285556748 0  220.2938795257748 14.99979346142607 0  225.2938819428255 14.99981586229324 0  230.2938843230211 14.99983972273041 0  235.2938866074017 14.99986476863715 0  240.2938887554103 14.99989077397456 0  245.2938907404257 14.99991755038202 0  250.2938925463273 14.99994493907951 0  255.2938941649018 14.99997280455397 0  260.2938955939164 15.00000102964486 0  265.2938968356898 15.00002951174504 0  270.2938978960424 15.00005815992261 0  275.293898783511 15.00008689284298 0  280.2938995087465 15.00011563743348 0  285.2939000840685 15.0001443282827 0  290.2939005231465 15.00017290779161 0  295.2939008409659 15.00020132706255 0  300.2939010543355 15.0002295473582 0  305.2939011835999 15.00025754152798 0  310.2939012567395 15.00028529374048 0  5.293879827815105 22.49839866303939 0  0.2938797607800139 22.49836377905446 0  10.29387990583282 22.4984333224514 0  15.29388000132634 22.49846782904964 0  20.29388011511806 22.49850224538243 0  25.29388024431941 22.49853663142749 0  30.29388038341456 22.49857104801308 0  35.29388052454014 22.49860555858531 0  40.29388065726391 22.49864023034027 0  45.29388076808375 22.49867513524512 0  50.29388083976862 22.49871035119499 0  55.29388085059334 22.49874596341867 0  60.29388077348657 22.4987820661914 0  65.29388057510423 22.4988187648954 0  70.29388021485265 22.49885617845874 0  75.29387964392346 22.49889444219287 0  80.29387880447059 22.4989337110143 0  85.29387762916991 22.49897416296296 0  90.29387604159409 22.49901600277682 0  95.29387395812967 22.49905946499334 0  100.2938712926168 22.49910481551519 0  105.293867965562 22.4991523496383 0  110.293863920687 22.49920238292054 0  115.2938591526898 22.49925522858946 0  120.2938537511186 22.49931115094859 0  125.2938479653883 22.49937027801047 0  130.2938422932531 22.49943244857336 0  135.2938375855228 22.49949696170251 0  140.2938351362772 22.49956219932889 0  145.2938366796673 22.49962513333468 0  150.2938441338711 22.49968089343594 0  165.2938722104713 22.49974535882238 0  160.2938662540815 22.49975562681518 0  170.2938729772935 22.49973163976926 0  175.2938705397137 22.49971918133382 0  180.2938666586784 22.49971057368748 0  185.2938625272071 22.49970684862742 0  190.2938588100871 22.49970810696123 0  195.2938558022059 22.49971398490493 0  200.2938535753599 22.499723934928 0  205.2938520823359 22.49973737459389 0  210.2938512219892 22.49975375658346 0  215.2938508765413 22.49977259595332 0  220.2938509311827 22.49979347590711 0  225.2938512831744 22.49981604373479 0  230.2938518450754 22.49984000296364 0  235.2938525449104 22.49986510467272 0  240.2938533248855 22.49989113929825 0  245.2938541395517 22.49991792943391 0  250.29385495387 22.4999453237386 0  255.29385574141 22.49997319189238 0  260.2938564827487 22.50000142048159 0  265.2938571641101 22.50002990968459 0  270.2938577762088 22.50005857064252 0  275.2938583132978 22.50008732341673 0  280.2938587723951 22.50011609544471 0  285.2938591527129 22.50014482039515 0  290.2938594553526 22.500173437273 0  295.2938596834135 22.500201889
[...]
<PointData  Scalars="p"> 
<DataArray  type="Float64"  Name="p"  format="ascii">1.0000000000000001e-01  1.0000000000000003e-01  9.9997412522990964e-02  1.0000000000000003e-01  1.0000000000000003e-01  9.9996295501966953e-02  1.0000000000000003e-01  9.9994408462096063e-02  1.0000000000000003e-01  9.9993141610737538e-02  1.0000000000000003e-01  9.9991724127103068e-02  1.0000000000000003e-01  9.9989897417442450e-02  1.0000000000000003e-01  9.9988716119242302e-02  1.0000000000000003e-01  9.9987460664739930e-02  1.0000000000000003e-01  9.9985446124332439e-02  1.0000000000000003e-01  9.9984201675654027e-02  1.0000000000000003e-01  9.9981006018358187e-02  1.0000000000000003e-01  9.9977624162812861e-02  1.0000000000000003e-01  9.9975112876626832e-02  1.0000000000000003e-01  9.9972657123344189e-02  1.0000000000000003e-01  9.9969069877649822e-02  1.0000000000000003e-01  9.9967288506438920e-02  1.0000000000000003e-01  9.9965120515377162e-02  1.0000000000000003e-01  9.9961603679476513e-02  1.0000000000000003e-01  9.9960972696599690e-02  1.0000000000000003e-01  9.9958422707827274e-02  1.0000000000000003e-01  9.9957169944855234e-02  1.0000000000000003e-01  9.9954809676039105e-02  1.0000000000000003e-01  9.9957331214460168e-02  1.0000000000000003e-01  9.9949965021075893e-02  1.0000000000000003e-01  9.9960018098317838e-02  1.0000000000000003e-01  9.9944218559925704e-02  1.0000000000000003e-01  9.9966248336233327e-02  1.0000000000000003e-01  9.9934706584101363e-02  1.0000000000000003e-01  9.9976142377537977e-02  1.0000000000000001e-01  9.9915575780974347e-02  1.0000000000000001e-01  1.0000000000000003e-01  1.0010158845808741e-01  1.0017172854812251e-01  1.0000000000000003e-01  1.0004470365929670e-01  1.0000000000000003e-01  1.0008289050643757e-01  1.0000000000000003e-01  1.0006557265783460e-01  1.0000000000000003e-01  1.0007245477482148e-01  1.0000000000000003e-01  1.0006839920119397e-01  1.0000000000000003e-01  1.0007238171632155e-01  1.0000000000000003e-01  1.0006903425322619e-01  1.0000000000000003e-01  1.0007042167056310e-01  1.0000000000000003e-01  1.0006981403459789e-01  1.0000000000000003e-01  1.0006909699892808e-01  1.0000000000000003e-01  1.0006850314549458e-01  1.0000000000000003e-01  1.0006823601256294e-01  1.0000000000000003e-01  1.0006712235242891e-01  1.0000000000000003e-01  1.0006656749312261e-01  1.0000000000000003e-01  1.0006593275119748e-01  1.0000000000000003e-01  1.0006510711978883e-01  1.0000000000000003e-01  1.0006432791123046e-01  1.0000000000000003e-01  1.0006393215832224e-01  1.0000000000000003e-01  1.0006280745202857e-01  1.0000000000000003e-01  1.0006277719194621e-01  1.0000000000000003e-01  1.0006120067291525e-01  1.0000000000000003e-01  1.0006225988598462e-01  1.0000000000000003e-01  1.0005872356613776e-01  1.0000000000000003e-01  1.0006341599992584e-01  1.0000000000000003e-01  1.0005399851247285e-01  1.0000000000000003e-01  1.0006847542905170e-01  1.0000000000000003e-01  1.0004323523681946e-01  1.0000000000000003e-01  1.0008675100698222e-01  1.0000000000000001e-01  1.0000000000000003e-01  9.9996495992301412e-02  1.0000000000000003e-01  9.9996101514707322e-02  9.9995752942314955e-02  9.9995209108700453e-02  9.9994087635650222e-02  9.9994071936253343e-02  9.9994002693130579e-02  9.9992525111208722e-02  9.9992970707674086e-02  9.9992559558660613e-02  9.9990135477456540e-02  9.9987724094776465e-02  9.9987104340085647e-02  9.9983591545742601e-02  9.9984670166320788e-02  9.9984099959532169e-02  9.9981259139863513e-02  9.9982604676464693e-02  9.9982762076978274e-02  9.9979121968091153e-02  9.9982653490178611e-02  9.9980613146797889e-02  9.9981728603073264e-02  9.9978819922063034e-02  9.9988146135796846e-02  9.9970320408903413e-02  1.0000099091095162e-01  9.9950031807591252e-02  1.0002751206265056e-01  9.9913573133163000e-02  9.9940080212663485e-02  1.0028778523512547e-01  1.0006802252078634e-01  1.0001674515074556e-01  1.0002315345800952e-01  1.0001881238012220e-01  1.0002951898406200e-01  1.0002087311544397e-01  1.0002606676057445e-01  1.0002646249555416e-01  1.0002533217310011e-01  1.0002561947510979e-01  1.0002661670164244e-01  1.0002506739857971e-01  1.0002515446091305e-01  1.0002528110359529e-01  1.0002430857169901e-01  1.0002417814497423e-01  1.0002408992459962e-01  1.0002358114534259e-01  1.0002313955495148e-01  1.0002352326363639e-01  1.0002226983532253e-01  1.0002348269552927e-01  1.0002110140559813e-01  1.0002472599534885e-01  1.0001768931888871e-01  1.0003016048000436e-01  1.0000842833860034e-01  1.0004205983602896e-01  1.0000000000000003e-01  9.9995190326063590e-02  1.0000000000000003e-01  9.9996346062205019e-02  9.9994409299534071e-02  9.9993155309337861e-02  9.9992628899301952e-02  9.9992562897937509e-02  9.9990323852716126e-02  9.9990747856545978e-02  9.9990967555188645e-02  9.9988062011570678e-02  9.9987782683490969e-02  9.9987765583261945e-02  9.9979481269409087e-02  9.9980213973247647e-02  9.9979043008812829e-02  9.9973901847710225e-02  9.9976381769326397e-02  9.9975826582167124e-02  9.9970774238039836e-02  9.9973829420980764e-02  9.9974711352972132e-02  9.9967950968447072e-02  9.9976026141898197e-02  9.9970196199519926e-02  9.9976426884335556e-02  9.9964927767057607e-02  9.9990765250742658e-02  9.9940064064147988e-02  1.0003081168698752e-01  9.9862456127813956e-02  9.9930006083162881e-02  1.0030352215847205e-01  1.0014084485682183e-01  1.0003382554721524e-01  1.0003579271406771e-01  1.0006059125701758e-01  1.0003504075283272e-01  1.0004950629208519e-01  1.0004962721693213e-01  1.0004706412289396e-01  1.0004816549679463e-01  1.0005093493892298e-01  1.0004771373328246e-01  1.0004852647177714e-01  1.0004903835064252e-01  1.0004715901004249e-01  1.0004695773359321e-01  1.0004719166774864e-01  1.0004577519529040e-01  1.0004568701209932e-01  1.0004542233964925e-01  1.0004495497559675e-01  1.0004402289405928e-01  1.0004516197247262e-01  1.0004242218499369e-01  1.0004587285790964e-01  1.0003982147404526e-01  1.0004964767800820e-01  1.0003097239457695e-01  1.0006655616478577e-01  1.0000000000000003e-01  9.9994457410477827e-02  1.0000000000000003e-01  9.9996267231951957e-02  9.9993678635086874e-02  9.9993672269628686e-02  9.9993675682984756e-02  9.9991502587003761e-02  9.9992168902753933e-02  9.9992860767844735e-02  9.9990207198121614e-02  9.9991441360408495e-02  9.9991935614091601e-02  9.9986517282480591e-02  9.9989012468520114e-02  9.9984520126673956e-02  9.9978842601908577e-02  9.9980999781196470e-02  9.9981702270671630e-02  9.9975611439267240e-02  9.9980814721450567e-02  9.9980453421923965e-02  9.9976019219540357e-02  9.9979732574954364e-02  9.9984286049554991e-02  9.9972533957976534e-02  9.9991342210379155e-02  9.9969576346573427e-02  1.0000375418387547e-01  9.9943049386514923e-02  1.0005147510365238e-01  9.9851654621816582e-02  9.9914502368931332e-02  1.0036343333066726e-01  1.0010214689517408e-01  1.0000233165068445e-01  1.0008038764800915e-01  1.0000172860521955e-01  1.0003634368887171e-01  1.0003106848137221e-01  1.0003024650327272e-01  1.0003055869143405e-01  1.0003682347289124e-01  1.0003150206777514e-01  1.0003390464254504e-01  1.0003512932465562e-01  1.0003284704459370e-01  1.0003294955584707e-01  1.0003358898069439e-01  1.0003184146621930e-01  1.0003170521973026e-01  1.0003208760270910e-01  1.0003076688952722e-01  1.0003112507239559e-01  1.0003045742476054e-01  1.0003115480958587e-01  1.0002878639340762e-01  1.0003293092760589e-01  1.0002542869874384e-01  1.0003769104365845e-01  1.0001741719082768e-01  1.0005031249821997e-01  1.0000000000000003e-01  9.9993697992142444e-02  1.0000000000000003e-01  9.9995715870061216e-02  9.9993785831820892e-02  9.9994371303211343e-02  9.9991468876467038e-02  9.9992240987799672e-02  9.9992432346729304e-02  9.9989761610467451e-02  9.9991244678742805e-02  9.9992221188876518e-02  9.9987579321450526e-02  9.9989720581219632e-02  9.9989070560144236e-02  9.9984382307910721e-02  9.9981878823887343e-02  9.9981714309430328e-02  9.9973998854735457e-02  9.9979142124146783e-02  9.9980120544619730e-02  9.9972221054107871e-02  9.9980413139317395e-02  9.9979144799502817e-02  9.9976009632101320e-02  9.9977489133794437e-02  9.9990303941892927e-02  9.9963399859844593e-02  1.0000954119140811e-01  9.9936333714882142e-02  1.0006275181741668e-01  9.9824044739072332e-02  9.9859188508489655e-02  1.0041900161166853e-01  1.0012106794828866e-01  1.0002622419183725e-01  1.0005893650753463e-01  1.0004254959878980e-01  1.0003706779669012e-01  1.0003626652395786e-01  1.0003164556235743e-01  1.0004591146018499e-01  1.0003551949235054e-01  1.0004048928640810e-01  1.0004275116950719e-01  1.0003967691229214e-01  1.0004016143303679e-01  1.0004186305009934e-01  1.0003907119854011e-01  1.0003918966719776e-01  1.0003961882714574e-01  1.0003809513922879e-01  1.0003777450061219e-01  1.0003844763860160e-01  1.0003679192631688e-01  1.0003792445570932e-01  1.0003609635898111e-01  1.0003890566892790e-01  1.0003316429438730e-01  1.0004360316546684e-01  1.0002459320786965e-01  1.0005848691201799e-01  1.0000000000000003e-01  9.9992779770349746e-02  1.0000000000000003e-01  9.9995843576473606e-02  9.9994068644571069e-02  9.9993004416609105e-02  9.9992733901095476e-02  9.9993105825261205e-02  9.9990304149260689e-02  9.9991363847180686e-02  9.9992829927208024e-02  9.9988849808178265e-02  9.9990808052097119e-02  9.9991729722119380e-02  9.9986115448160523e-02  9.9988273706148892e-02  9.9991215186990570e-02  9.9976550643320949e-02  9.9981615430594806e-02  9.9981502695393937e-02  9.9973248732540806e-02  9.9980687601090204e-02  9.9983463407579493e-02  9.9971867444254126e-02  9.9986383736580753e-02  9.9980164331833488e-02  9.9985667289287039e-02  9.9971387119268992e-02  1.0001636041716985e-01  9.9927447405223274e-02  1.0008435233537617e-01  9.9799995846633099e-02  9.9846004785230480e-02  1.0042079253748781e-01  1.0014440587725108e-01  9.9981691543413159e-02  1.0005668525520063e-01  1.0004433290770220e-01  1.0004839848956613e-01  1.0001220050341146e-01  1.0004621900790986e-01  1.0002290065733130e-01  1.0003431510003775e-01  1.0003671944229618e-01  1.0003314189758315e-01  1.0003385954716942e-01  1.0003747283416825e-01  1.0003348690135733e-01  1.0003422198071087e-01  1.0003531327442373e-01  1.0003281838035381e-01  1.0003290862974475e-01  1.0003328031326923e-01  1.0003220720329917e-01  1.0003155116237834e-01  1.0003311616371033e-01  1.0003021861527475e-01  1.0003402422567351e-01  1.0002792817743773e-01  1.0003838127020209e-01  1.0001999466862062e-01  1.0005186659830641e-01  1.0000000000000003e-01  9.9992266187884662e-02  1.0000000000000003e-01  9.9996075288629804e-02  9.9992637415141930e-02  9.9993731842898587e-02  9.9993467590295412e-02  9.9991119033120510e-02  9.9991319713501253e-02  9.9992790084719008e-02  9.9988779468538985e-02  9.9990867147719181e-02  9.9992313835489482e-02  9.9986481986613890e-02  9.9989371329520432e-02  9.9991836956880298e-02  9.9982742727484503e-02  9.9989857219523998e-02  9.9983829610191657e-02  9.9973261776649475e-02  9.9980275970383947e-02  9.9981552875571034e-02  9.9972272586952182e-02  9.9981052440415497e-02  9.9986867869276574e-02  9.9969126884982759e-02  9.9995233928252714e-02  9.9971150155066121e-02  1.0000962404972658e-01  9.9930542313716800e-02  1.0009524283813902e-01  9.9771350868801137e-02  9.9848268965348388e-02  1.0044913585913781e-01  1.0012503645448192e-01  9.9981400431955025e-02  1.0007339482397662e-01  1.0002423228701342e-01  1.0004456676488117e-01  1.0005768410836713e-01  1.0001785492042019e-01  1.0003643142253818e-01  1.0003540836326695e-01  1.0003441885803628e-01  1.0003356464197918e-01  1.0004006875024357e-01  1.0003451312603701e-01  1.0003620194071025e-01  1.0003797939508259e-01  1.0003520479706500e-01  1.0003508836160395e-01  1.0003612856064209e-01  1.0003385664061296e-01  1.0003421723023434e-01  1.0003406045609456e-01  1.0003408660817895e-01  1.0003229797887711e-01  1.0003587915193636e-01  1.0002970909447152e-01  1.0003999346159966e-01  1.0002222191015098e-01  1.0005374181396688e-01  1.0000000000000003e-01  9.9991902506174152e-02  1.0000000000000003e-01  9.9995318959580456e-02  9.9992905144620781e-02  9.9994360174328487e-02  9.9991629690817596e-02  9.9992333998318708e-02  9.9993081385194318e-02  9.9989349266638314e-02  9.9991087210013707e-02  9.9992551058805293e-02  9.9987205252426437e-02  9.9989901358317715e-02  9.9991964023125546e-02  9.9984451877044273e-02  9.9990328463857039e-02  9.9990873362762717e-02  9.9983734753861395e-02  9.9982251305581582e-02  9.9983703045373198e-02  9.9969993541689173e-02  9.9982642509152411e-02  9.9982492891036986e-02  9.9974496065528023e-02  9.9980663970035175e-02  9.9997426263282729e-02  9.9958576761802448e-02  1.0002270847953999e-01  9.9927213237049284e-02  1.0009784476728356e-01  9.9757272619653364e-02  9.9815143305611989e-02  1.0048134401467561e-01  1.0013205874577763e-01  9.9990137426843734e-02  1.0005012946942096e-01  1.0001643051258149e-01  1.0005568157059661e-01  1.0003347008152434e-01  1.0004675100433615e-01  1.0002548356448461e-01  1.0003405167905054e-01  1.0002540310388279e-01  1.0003902625263142e-01  1.0002987310714254e-01  1.0003321543537440e-01  1.0003587326172057e-01  1.0003262333788215e-01  1.0003285155313606e-01  1.0003473470506327e-01  1.0003197327676794e-01  1.0003177530666156e-01  1.0003286452039978e-01  1.0003062325534362e-01  1.0003178376005414e-01  1.0003037827843424e-01  1.0003292827314839e-01  1.0002747757893886e-01  1.0003765412046406e-01  1.0002009937698844e-01  1.0005055105579858e-01  1.0000000000000003e-01  9.9991224972719867e-02  1.0000000000000003e-01  9.9995495045047164e-02  9.9993268254808795e-02  9.9992875157040834e-02  9.9992373986856967e-02  9.9993687527131919e-02  9.9990249681558382e-02  9.9991427913411202e-02  9.9992748425349429e-02  9.9988149218153702e-02  9.9989798275737007e-02  9.9992052752252758e-02  9.9985045107581133e-02  9.9989411409025952e-02  9.9992333633672381e-02  9.9983754122548021e-02  9.9989185823886897e-02  9.9994716746913598e-02  9.9972560375207922e-02  9.9981730404577016e-02  9.9983934426852689e-02  9.9967682177042633e-02  9.9986781538367403e-02  9.9982143894003048e-02  9.9981393606283525e-02  9.9971268600884289e-02  1.0002513249876592e-01  9.9910630421153876e-02  1.0011573239798484e-01  9.9740389680750344e-02  9.9806883604910926e-02  1.0048033436387344e-01  1.0014924675382618e-01  9.9968034222477242e-02  1.0005127111673910e-01  1.0002864404682758e-01  1.0003531621398526e-01  1.0003241844405728e-01  1.0005122589576690e-01  1.0004402610203886e-01  1.0001786030509360e-01  1.0004213000501318e-01  1.0002521534155456e-01  1.0003281170738734e-01  1.0003531244144954e-01  1.0003213519503008e-01  1.0003210388231625e-01  1.0003565060220766e-01  1.0003193629259477e-01  1.0003251031566032e-01  1.0003347044551110e-01  1.0003151190423812e-01  1.0003088613307801e-01  1.0003260824243532e-01  1.0002963659257413e-01  1.0003292713946495e-01  1.0002800330514959e-01  1.0003706658914595e-01  1.0002059577412549e-01  1.0005025532176236e-01  1.0000000000000003e-01  9.9990975000495641e-02  1.0000000000000003e-01  9.9995750581752502e-02  9.9991917782168885e-02  9.9993388347510065e-02  9.9993285822049319e-02  9.9991186102368027e-02  9.9991664014943624e-02  9.9993185012242206e-02  9.9989056066180693e-02  9.9990323204766224e-02  9.9992403702326482e-02  9.9985557949741441e-02  9.9988772690610017e-02  9.9992166922551487e-02  9.9983646074706903e-02  9.9989438835856218e-02  9.9994679988351876e-02  9.9980383860787378e-02  9.9993510101861666e-02  9.9985428429461981e-02  9.9970082442419519e-02  9.9980825913192267e-02  9.9988126726367046e-02  9.9963873379285445e-02  9.9996858867560753e-02  9.9972672826776882e-02  1.0000768064020706e-01  9.9922900667594100e-02  1.0012205329593224e-01  9.9713436986713547e-02  9.9810344378361365e-02  1.0048843159164697e-01  1.0013623099234020e-01  9.9964925611113031e-02  1.0006371787334323e-01  1.0000944780482765e-01  1.0003280066256687e-01  1.0003795653676857e-01  1.0003680341062687e-01  1.0003594757838614e-01  1.0005320377368372e-01  1.0001657522148494e-01  1.0003305422132366e-01  1.0003039272910517e-01  1.0003071166650436e-01  1.0002883778227316e-01  1.0003456626639914e-01  1.0002990063437345e-01  1.0003089780531906e-01  1.0003290276700534e-01  1.0003025914794166e-01  1.0003042246199678e-01  1.0003080594140018e-01  1.0003006820858648e-01  1.0002842636728322e-01  1.0003196697535230e-01  1.0002615464504566e-01  1.0003550862823422e-01  1.0001968686700038e-01  1.0004801396588234e-01  1.0000000000000003e-01  9.9990806048018105e-02  1.0000000000000003e-01  9.9995085854230753e-02  9.9992132955529292e-02  9.9994061932631828e-02  9.9991338011429190e-02  9.9992191495544835e-02  9.9993075295403175e-02  9.9989930130302759e-02  9.9990978998276331e-02  9.9992956408844258e-02  9.9986844181915613e-02  9.9989000337192491e-02  9.9991482951876556e-02  9.9983752483527089e-02  9.9988792417945255e-02  9.9993183800672514e-02  9.9982085577409646e-02  9.9991724170541738e-02  9.9994163770990782e-02  9.9981932277290117e-02  9.9984349586691418e-02  9.9984906288115905e-02  9.9968144356062411e-02  9.9980870341786113e-02  9.9997552111389346e-02  9.9951454100208018e-02  1.0002409044965031e-01  9.9924989682939558e-02  1.0010412641921312e-01  9.9720651070269020e-02  9.9794055956369129e-02  1.0050005691648239e-01  1.0013679676465921e-01  9.9973806973135584e-02  1.0004993111408343e-01  1.0000786451119437e-01  1.0004321144495747e-01  1.0002361078903924e-01  1.0003113737280123e-01  1.0004410837466557e-01  1.0003712697485005e-01  1.0004250720871143e-01  1.0002447808989999e-01  1.0003192088348931e-01  1.0002395857622481e-01  1.0003488054890572e-01  1.0002768072410756e-01  1.0002986698148801e-01  1.0003225838725763e-01  1.0002973989011409e-01  1.0002961582694450e-01  1.0003177791261492e-01  1.0002885910838352e-01  1.0002976425634615e-01  1.0002886652503638e-01  1.0003054514905124e-01  1.0002580329903323e-01  1.0003497996908278e-01  1.0001924173238583e-01  1.0004683392769381e-01  1.0000000000000003e-01  9.9990316642481855e-02  1.0000000000000003e-01  9.9995192064323044e-02  9.9992510339752663e-02  9.9992605139336624e-02  9.9991862577974211e-02  9.9993357425513574e-02  9.9990288636823174e-02  9.9991228797703613e-02  9.9993092606721304e-02  9.9988421009537490e-02  9.9989629178746431e-02  9.9991752243612314e-02  9.9984625543186254e-02  9.9987591921711361e-02  9.9992156616464073e-02  9.9982316130777710e-02  9.9989409890650680e-02  9.9994605772316961e-02  9.9981942703794582e-02  9.9990515424211612e-02  1.0000063080715084e-01  9.9966520585343666e-02  9.9986994677395746e-02  9.9982489015116888e-02  9.9972759269195327e-02  9.9972432919523124e-02  1.0002505934995773e-01  9.9901428813272353e-02  1.0012061680164844e-01  9.9722508168225116e-02  9.9790227051266805e-02  1.0048457496874182e-01  1.0014624400315046e-01  9.9960715894104726e-02  1.0004824915873951e-01  1.0001749612823506e-01  1.0003062633364806e-01  1.0002031717632186e-01  1.0003941881340865e-01  1.0002878296443393e-01  1.0003425347357016e-01  1.0004350186042733e-01  1.0004150963760310e-01  1.0001644405302995e-01  1.0003654164579885e-01  1.0002280483176161e-01  1.0002855166631333e-01  1.0003047496292665e-01  1.0002812839836873e-01  1.0002791830241101e-01  1.0003082783583143e-01  1.0002836490906056e-01  1.0002820331413272e-01  1.0003011136666307e-01  1.0002686224979490e-01  1.0002956238816071e-01  1.0002547215707025e-01  1.0003314359584087e-01  1.0001857056967428e-01  1.0004503121447568e-01  1.0000000000000003e-01  9.9990116455470984e-02  1.0000000000000003e-01  9.9995376509502368e-02  9.9991269499074137e-02  9.9992895528751430e-02  9.9992565226529925e-02  9.9990956240099418e-02  9.9991112247210176e-02  9.9992782546334771e-02  9.9989072586993813e-02  9.9990209694283391e-02  9.9992147153704497e-02  9.9985936376004628e-02  9.9987501313986954e-02  9.9991321799354757e-02  9.9982404558808094e-02  9.9987185077849455e-02  9.9993420139126696e-02  9.9980908137949631e-02  9.9989845720441950e-02  9.9997861926437767e-02  9.9977565868516541e-02  9.9995926453289030e-02  9.9991041809748327e-02  9