<?xml version="1.0"?>
<VTKFile type="UnstructuredGrid"  version="0.1"  >
<UnstructuredGrid>
<Piece  NumberOfPoints="1933" NumberOfCells="3640">
<Points>
<DataArray  type="Float64"  NumberOfComponents="3"  format="ascii">-0.4752513141926273 -0.002696795959232516 0  4.524748742859879 -0.00262851134024872 0  4.524646296354012 7.497371621303302 0  -0.475353779831637 7.497303306511291 0  9.52474884006916 -0.002560324563524839 0  9.52464642072427 7.497439811604807 0  14.52474902960648 -0.00249222467499702 0  14.5246466118009 7.497507907223389 0  19.52474935461074 -0.002424167730815748 0  19.52464688420831 7.497575958446541 0  24.52474984675935 -0.002356093151590043 0  24.52464724870021 7.497644027907479 0  29.52475052750688 -0.002287931242153482 0  29.5246477115792 7.497712185810048 0  34.52475140999947 -0.002219606396265321 0  34.52464827426132 7.497780507718597 0  39.52475250071716 -0.002151038011831314 0  39.52464893295608 7.497849074014296 0  44.52475380059688 -0.002082140098243663 0  44.52464967831015 7.49791797042043 0  49.52475530561396 -0.002012820054267653 0  49.52465049487109 7.497987289260685 0  54.5247570068509 -0.001942976826635369 0  54.52465136025565 7.498057131294321 0  59.52475889006473 -0.001872498501424861 0  59.52465224391177 7.498127608094237 0  64.52476093472596 -0.001801259272489609 0  64.5246531053445 7.498198845024417 0  69.52476311243312 -0.001729115640297428 0  69.52465389164394 7.49827098495168 0  74.524765384529 -0.00165590159813717 0  74.52465453408399 7.498344192907262 0  79.52476769860948 -0.00158142244106254 0  79.52465494346981 7.498418662009664 0  84.52476998342094 -0.001505446664210135 0  84.52465500378581 7.498494621079884 0  89.52477214130302 -0.001427695172398257 0  89.52465456351483 7.498572344530824 0  94.52477403677371 -0.001347826662632527 0  94.5246534237826 7.498652165290269 0  99.52477547884774 -0.001265417512695724 0  99.52465132224926 7.49873449168838 0  104.5247761929114 -0.00117993375247025 0  104.5246479114942 7.498819829306306 0  109.5247757747261 -0.001090691672544848 0  109.5246427308197 7.498908808468277 0  114.5247736132018 -0.0009968024243660737 0  114.5246351715406 7.499002216716736 0  119.5247687575346 -0.0008970951038225592 0  119.5246244394395 7.499101031735916 0  124.5247596837312 -0.0007900141032535313 0  124.5246095275018 7.499206440485221 0  129.5247438770506 -0.0006734956397345369 0  129.5245892344984 7.499319807820107 0  134.5247170747244 -0.0005448629053874758 0  134.524562315833 7.499442509178285 0  139.5246718767267 -0.0004008974321929936 0  139.5245279646946 7.499575446724818 0  144.5245951633876 -0.0002386631771428869 0  144.5244870657147 7.499717929837597 0  149.5244631563568 -5.931230324022482e-05 0  149.5244452264421 7.499865682680359 0  159.5244717418519 8.746038936057711e-19 0  164.5244444947757 -9.072263982726989e-05 0  164.52446906733 7.4998882577723 0  159.5244683070432 7.499951530754548 0  169.5244496573357 -0.0001408117588832244 0  169.5244694093636 7.499848969825358 0  174.5244683336312 -0.000162632721284652 0  174.5244730653974 7.499832135322478 0  179.524491769013 -0.0001639541148640334 0  179.5244798767463 7.499833316261172 0  184.5245158853781 -0.0001501804558683971 0  184.5244888300962 7.499848399017641 0  189.5245388471625 -0.0001251648172807963 0  189.5244989352313 7.499874115910964 0  194.524559906217 -9.167906714872853e-05 0  194.5245094368617 7.499907983500202 0  199.524578837942 -5.173588489719915e-05 0  199.5245198192899 7.499948137195135 0  204.5245956629596 -6.814151199935608e-06 0  204.5245297566088 7.499993175949331 0  209.5246105094941 4.198444928584151e-05 0  209.5245390587548 7.500042039704087 0  214.5246235457882 9.382719347019131e-05 0  214.5245476276078 7.500093918366716 0  219.5246349475424 0.0001480754002238917 0  219.5245554249207 7.500148185777191 0  224.5246448828977 0.0002042321861005712 0  224.5245624501243 7.500204352116396 0  229.5246535061922 0.0002619056138291568 0  229.5245687254618 7.500262029521649 0  234.5246609560664 0.0003207823366327291 0  234.5245742862731 7.500320907057548 0  239.5246673556874 0.0003806084683341843 0  239.5245791747791 7.500380732311401 0  244.5246728139765 0.0004411754950460571 0  244.5245834362211 7.500441297710283 0  249.5246774272771 0.0005023097637312884 0  249.5245871165681 7.500502430242371 0  254.5246812812116 0.0005638645617410745 0  254.5245902612729 7.500563983675113 0  259.5246844526008 0.0006257141258019407 0  259.5245929147204 7.500625832649956 0  264.5246870114339 0.0006877491468794705 0  264.5245951201446 7.50068786824047 0  269.5246890228763 0.0007498735090387388 0  269.5245969198467 7.500749994718209 0  274.5246905493609 0.0008120021455475038 0  274.5245983555902 7.500812127401388 0  279.5246916527684 0.0008740600397085718 0  279.5245994690758 7.500874191583802 0  284.5246923966865 0.0009359825673261439 0  284.5246003023842 7.500936122670333 0  289.5246928485922 0.0009977176035199059 0  289.524600898268 7.500997867790822 0  294.5246930816024 0.00105923013389353 0  294.5246013002132 7.501059389328521 0  299.524693174836 0.00112051053756901 0  299.5246015522498 7.50112067096731 0  304.5246932103525 0.001181588128646437 0  304.5246016989167 7.501181727005186 0  309.5246932621133 0.001242551092101503 0  309.5246017868176 7.501242615939081 0  4.524543626176603 14.99737189624468 0  -0.4754564484173672 14.99730355245648 0  9.524543724956722 14.99744006570476 0  14.52454385796178 14.99750812677788 0  19.52454402768422 14.99757614336484 0  24.52454423264632 14.9976441822064 0  29.52454446819383 14.99771231379984 0  34.52454472622798 14.99778061258018 0  39.52454499455684 14.99784915732175 0  44.52454525608306 14.9979180319778 0  49.52454548785579 14.99798732697124 0  54.52454565994406 14.998057140921 0  59.52454573405961 14.99812758281444 0  64.52454566185102 14.99819877467394 0  69.52454538278094 14.99827085480386 0  74.52454482150634 14.99834398174103 0  79.52454388469152 14.99841833905953 0  84.5245424572359 14.99849414118919 0  89.52454039800722 14.99857164037214 0  94.52453753542052 14.99865113474292 0  99.52453366366744 14.99873297716445 0  104.5245285413284 14.99881758365688 0  109.5245218957165 14.99890543859097 0  114.5245134391617 14.99899709048436 0  119.5245029080736 14.99909312581481 0  124.5244901426261 14.99919409634359 0  129.5244752339215 14.99930035431332 0  134.5244587730412 14.99941171472593 0  139.5244422295658 14.99952681044089 0  144.524428427773 14.99964193091031 0  149.5244218689472 14.99974899388522 0  164.5244551450316 14.99982986220268 0  159.5244497547048 14.99984841758689 0  169.524455183664 14.99981714438365 0  174.5244538825951 14.99981505452964 0  179.5244532202118 14.99982428805738 0  184.5244538440119 14.99984375889584 0  189.5244557550722 14.99987186826934 0  194.5244587019167 14.99990703855345 0  199.5244623737141 14.99994789653325 0  204.5244664833911 14.99999330899176 0  209.5244707960284 15.00004236292843 0  214.5244751323475 15.00009432972432 0  219.5244793622716 15.00014862881706 0  224.5244833956452 15.00020479618545 0  229.5244871731653 15.00026245872969 0  234.5244906586633 15.0003213140668 0  239.5244938329541 15.00038111481321 0  244.5244966891333 15.00044165641888 0  249.5244992290816 15.00050276775879 0  254.5245014609121 15.00056430385551 0  259.5245033971433 15.00062614026468 0  264.5245050533971 15.00068816878528 0  269.5245064474844 15.00075029426674 0  274.5245075987534 15.00081243237416 0  279.5245085276126 15.0008745082472 0  284.5245092552052 15.00093645604599 0  289.524509803225 15.00099821940434 0  294.5245101940631 15.00105975277543 0  299.5245104516171 15.00112102348881 0  304.5245106035517 15.00118201389606 0  309.5245106864088 15.00124272198072 0  4.524440881027311 22.49737237831318 0  -0.4755591878104325 22.49730408488601 0  9.524440950973256 22.49744047401132 0  14.52444102253527 22.4975084555299 0  19.52444109160899 22.49757639603647 0  24.52444115073431 22.49764436522174 0  29.52444118972583 22.49771243294319 0  34.5244411956355 22.49778067118408 0  39.52444115230657 22.49784915536296 0  44.52444103971016 22.4979179655134 0  49.52444083316548 22.49798718756933 0  54.52444050248233 22.49805691485765 0  59.52444001104287 22.49812724984432 0  64.52443931483974 22.49819830616056 0  69.52443836151281 22.49827021091933 0  74.52443708947708 22.4983431073106 0  79.52443542732217 22.49841715740961 0  84.52443329380259 22.49849254502992 0  89.52443059896825 22.49856947825085 0  94.5244272473368 22.49864819088463 0  99.52442314453761 22.49872894149674 0  104.5244182096212 22.49881200747301 0  109.5244123962429 22.49889766974099 0  114.5244057271089 22.49898618070876 0  119.5243983470304 22.49907770330981 0  124.5243905996655 22.49917220246994 0  129.5243831291878 22.49926926256739 0  134.5243769961699 22.49936779943515 0  139.5243737690162 22.49946564557502 0  144.5243754979043 22.49955904705217 0  149.5243843937533 22.49964231788175 0  164.5244141658398 22.49976291825321 0  159.5244086011405 22.49975082135226 0  169.5244148754718 22.49977376186165 0  174.5244128122849 22.49978800544304 0  179.5244097066021 22.49980791748823 0  184.5244066535507 22.49983414979452 0  189.5244042088146 22.49986646111335 0  194.5244025721668 22.49990420926899 0  199.5244017416359 22.4999466299992 0  204.5244016170108 22.4999929755717 0  209.5244020615129 22.50004257373508 0  214.5244029351655 22.50009484541507 0  219.5244041108633 22.50014930289475 0  224.5244054806071 22.50020553994922 0  229.5244069565349 22.50026321963102 0  234.5244084694597 22.50032206232142 0  239.5244099664093 22.50038183509817 0  244.5244114079526 22.50044234271196 0  249.524412765682 22.50050342012773 0  254.5244140200099 22.5005649264583 0  259.5244151582955 22.50062674009009 0  264.5244161733052 22.50068875481506 0  269.5244170619442 22.50075087681216 0  274.5244178242396 22.50081302235097 0  279.524418462551 22.50087511610609 0  284.524418981034 22.5009370899614 0  289.5244193854368 22.50099888212711 0  294.5244196834204 22.50106043625069 0  299.5244198
[...]
<PointData  Scalars="p"> 
<DataArray  type="Float64"  Name="p"  format="ascii">1.0000000000000001e-01  1.0000000000000003e-01  9.9997878430908432e-02  1.0000000000000003e-01  1.0000000000000003e-01  9.9998660731251882e-02  1.0000000000000003e-01  9.9997973130747694e-02  1.0000000000000003e-01  9.9998123593005625e-02  1.0000000000000003e-01  9.9997720735683804e-02  1.0000000000000003e-01  9.9996246975112626e-02  1.0000000000000003e-01  9.9996177208114045e-02  1.0000000000000003e-01  9.9995172678851524e-02  1.0000000000000003e-01  9.9993436937778332e-02  1.0000000000000003e-01  9.9994712959702164e-02  1.0000000000000003e-01  9.9987492362453259e-02  1.0000000000000003e-01  9.9986126229552594e-02  1.0000000000000003e-01  9.9982875301311572e-02  1.0000000000000003e-01  9.9980954116378876e-02  1.0000000000000003e-01  9.9974821574092293e-02  1.0000000000000003e-01  9.9972877716431083e-02  1.0000000000000003e-01  9.9967604466222437e-02  1.0000000000000003e-01  9.9959819352212764e-02  1.0000000000000003e-01  9.9956851018855972e-02  1.0000000000000003e-01  9.9947551907649507e-02  1.0000000000000003e-01  9.9941399055112456e-02  1.0000000000000003e-01  9.9930557603621850e-02  1.0000000000000003e-01  9.9929926718880735e-02  1.0000000000000003e-01  9.9905157336566297e-02  1.0000000000000003e-01  9.9922490175976236e-02  1.0000000000000003e-01  9.9873183664967446e-02  1.0000000000000003e-01  9.9922606643493617e-02  1.0000000000000003e-01  9.9831541392135709e-02  1.0000000000000003e-01  9.9934489993761685e-02  1.0000000000000001e-01  9.9765826156894874e-02  1.0000000000000001e-01  1.0000000000000003e-01  1.0013662394447301e-01  1.0034093794874545e-01  1.0000000000000003e-01  1.0001539185059952e-01  1.0000000000000003e-01  1.0010366344426401e-01  1.0000000000000003e-01  1.0005103574481858e-01  1.0000000000000003e-01  1.0006413864812272e-01  1.0000000000000003e-01  1.0004990396794079e-01  1.0000000000000003e-01  1.0005332467996345e-01  1.0000000000000003e-01  1.0004116803807746e-01  1.0000000000000003e-01  1.0004157673691723e-01  1.0000000000000003e-01  1.0003663818105063e-01  1.0000000000000003e-01  1.0003266747819299e-01  1.0000000000000003e-01  1.0002986441211836e-01  1.0000000000000003e-01  1.0002780154293811e-01  1.0000000000000003e-01  1.0002440858953288e-01  1.0000000000000003e-01  1.0002286233259550e-01  1.0000000000000003e-01  1.0002122147613822e-01  1.0000000000000003e-01  1.0001924761149229e-01  1.0000000000000003e-01  1.0001808201072886e-01  1.0000000000000003e-01  1.0001712351277404e-01  1.0000000000000003e-01  1.0001580323017289e-01  1.0000000000000003e-01  1.0001518932570105e-01  1.0000000000000003e-01  1.0001434396354815e-01  1.0000000000000003e-01  1.0001392924657611e-01  1.0000000000000003e-01  1.0001287315782467e-01  1.0000000000000003e-01  1.0001343614719420e-01  1.0000000000000003e-01  1.0001128286305398e-01  1.0000000000000003e-01  1.0001379134293385e-01  1.0000000000000003e-01  1.0000872033498528e-01  1.0000000000000003e-01  1.0001679673195674e-01  1.0000000000000001e-01  1.0000000000000003e-01  9.9995283209341312e-02  1.0000000000000003e-01  9.9996016326429224e-02  9.9995839701303074e-02  9.9995285117033178e-02  9.9993353865918219e-02  9.9993654978180357e-02  9.9993063773440888e-02  9.9990034979422215e-02  9.9991822352072712e-02  9.9990318693528354e-02  9.9989292925678985e-02  9.9980413804477586e-02  9.9985117567239615e-02  9.9976984517736608e-02  9.9981295977754042e-02  9.9976890294642046e-02  9.9970624252322851e-02  9.9971537112193337e-02  9.9967714399678761e-02  9.9957332416656830e-02  9.9961822635651218e-02  9.9950835837392241e-02  9.9950310106710794e-02  9.9938448079358311e-02  9.9954308610674600e-02  9.9908796155850674e-02  9.9980642403678710e-02  9.9851497225201993e-02  1.0004900163769041e-01  9.9763630579964860e-02  9.9835454443833155e-02  1.0048256583000910e-01  1.0017453155992480e-01  1.0001804491184017e-01  1.0004620212650875e-01  1.0003683526510430e-01  1.0005218995882480e-01  1.0002780632001992e-01  1.0003833972931939e-01  1.0003292162316239e-01  1.0002712525465479e-01  1.0002629321397923e-01  1.0002562910233458e-01  1.0002021975831431e-01  1.0001992709576003e-01  1.0001883441226252e-01  1.0001581047258547e-01  1.0001512849211396e-01  1.0001439064461810e-01  1.0001236148184005e-01  1.0001166548879112e-01  1.0001105738443085e-01  1.0000951059851500e-01  1.0000911884730475e-01  1.0000800314378894e-01  1.0000777761162316e-01  1.0000580474602543e-01  1.0000757350159817e-01  1.0000274608711210e-01  1.0000858221871989e-01  1.0000000000000003e-01  9.9992443891304295e-02  1.0000000000000003e-01  9.9995540690530058e-02  9.9993608357656624e-02  9.9991774217888588e-02  9.9991890578794554e-02  9.9991224467294193e-02  9.9986948446678811e-02  9.9988132024743562e-02  9.9987344600489886e-02  9.9983034978205085e-02  9.9981574585596200e-02  9.9987547548423913e-02  9.9963886330416293e-02  9.9975396729202776e-02  9.9969546102186446e-02  9.9961037827878130e-02  9.9964725419564887e-02  9.9958669008505335e-02  9.9945601821437732e-02  9.9948837414142164e-02  9.9942213175387776e-02  9.9923319477974448e-02  9.9935093138734679e-02  9.9911415058711581e-02  9.9921044592576780e-02  9.9888207336492507e-02  9.9939664019929403e-02  9.9820906576996674e-02  1.0003674285936741e-01  9.9632233300788658e-02  9.9924380214869407e-02  1.0038644826424434e-01  1.0022887702544908e-01  1.0004023767048550e-01  1.0006169942815321e-01  1.0009684105715042e-01  1.0003565424906810e-01  1.0006997018516411e-01  1.0005717311480160e-01  1.0004600220946128e-01  1.0004616686182180e-01  1.0004611454050789e-01  1.0003509076381004e-01  1.0003581396645772e-01  1.0003389295201195e-01  1.0002782950712172e-01  1.0002707981129429e-01  1.0002610247643459e-01  1.0002203938736133e-01  1.0002130272580143e-01  1.0002027401975892e-01  1.0001771551774646e-01  1.0001668652441265e-01  1.0001596417347772e-01  1.0001373741962155e-01  1.0001352508041260e-01  1.0001140109541715e-01  1.0001214010078634e-01  1.0000765652946710e-01  1.0001360098668270e-01  1.0000000000000003e-01  9.9990584909191840e-02  1.0000000000000003e-01  9.9994267087108471e-02  9.9989784024293496e-02  9.9990685374244881e-02  9.9989811555473138e-02  9.9985121989215942e-02  9.9986221187473343e-02  9.9985120294946925e-02  9.9979284852795280e-02  9.9981499297221596e-02  9.9981156253477227e-02  9.9968230634142785e-02  9.9983606743241901e-02  9.9960853606000558e-02  9.9960316816866374e-02  9.9962966860253105e-02  9.9961633501038386e-02  9.9945859876368823e-02  9.9954649643380064e-02  9.9944578368504636e-02  9.9931500287398098e-02  9.9933890018605975e-02  9.9932579956514098e-02  9.9902082316162932e-02  9.9936955740072608e-02  9.9878475664656505e-02  9.9953426277080815e-02  9.9815134848350751e-02  1.0006103794218724e-01  9.9613270396599202e-02  9.9943093124701218e-02  1.0049438316677120e-01  1.0013819815676818e-01  1.0002492723494745e-01  1.0017843209097287e-01  9.9994953719926949e-02  1.0009022229504924e-01  1.0005916190463426e-01  1.0005237231508350e-01  1.0005066219248047e-01  1.0005574650346412e-01  1.0003778577294209e-01  1.0004174731305895e-01  1.0003957311008652e-01  1.0003132851127412e-01  1.0003073726485111e-01  1.0002995415685158e-01  1.0002422281369369e-01  1.0002370305188077e-01  1.0002272040715068e-01  1.0001904152234413e-01  1.0001820477205518e-01  1.0001698382353852e-01  1.0001471553998216e-01  1.0001316483748326e-01  1.0001277972117702e-01  1.0000959905723104e-01  1.0001084369895505e-01  1.0000571091132367e-01  1.0001084248330734e-01  1.0000000000000003e-01  9.9988686710317590e-02  1.0000000000000003e-01  9.9991928988416384e-02  9.9989015627203845e-02  9.9989438358884034e-02  9.9984262049544928e-02  9.9985496450927941e-02  9.9983982305390393e-02  9.9977302572824417e-02  9.9979695862894222e-02  9.9979014001092631e-02  9.9967655958080728e-02  9.9974713740254850e-02  9.9967286040555159e-02  9.9969409916891752e-02  9.9951112777352816e-02  9.9959081350707926e-02  9.9940618045630689e-02  9.9952743566719224e-02  9.9944665132404256e-02  9.9925523527605670e-02  9.9937477710428699e-02  9.9922834582759523e-02  9.9910270403831186e-02  9.9907407820879549e-02  9.9919911563998945e-02  9.9860125517629336e-02  9.9951764388482314e-02  9.9790253061281059e-02  1.0006739433814432e-01  9.9555854635194951e-02  9.9851045484123685e-02  1.0054857291101495e-01  1.0019599337042220e-01  1.0008517586184981e-01  1.0007985609731893e-01  1.0011086637024963e-01  1.0007197745408698e-01  1.0006612449995823e-01  1.0005880064768161e-01  1.0007803336553797e-01  1.0004555053088858e-01  1.0005574275281964e-01  1.0005259684131755e-01  1.0004060220604853e-01  1.0004073626059926e-01  1.0004054314687612e-01  1.0003143813196420e-01  1.0003130122105562e-01  1.0003032666147382e-01  1.0002496868423466e-01  1.0002405972515251e-01  1.0002313950734408e-01  1.0001930608439251e-01  1.0001839296646872e-01  1.0001670917789876e-01  1.0001481567846079e-01  1.0001233033640455e-01  1.0001299875894867e-01  1.0000751169997185e-01  1.0001280063878774e-01  1.0000000000000003e-01  9.9986463037968196e-02  1.0000000000000003e-01  9.9991593638175946e-02  9.9987653834225060e-02  9.9984971180684390e-02  9.9984532999626341e-02  9.9983780185251170e-02  9.9977012106787763e-02  9.9978496086268742e-02  9.9977807063240776e-02  9.9968168203093941e-02  9.9971760389307218e-02  9.9968502381051372e-02  9.9959325353114456e-02  9.9960338063420084e-02  9.9974891717834802e-02  9.9927501140781735e-02  9.9953503718701417e-02  9.9942799619031464e-02  9.9927180212135050e-02  9.9938004801552710e-02  9.9931674581888549e-02  9.9902476612079238e-02  9.9926540182176976e-02  9.9899031604523167e-02  9.9903194507258430e-02  9.9871176011167392e-02  9.9947119462765882e-02  9.9771059256498873e-02  1.0009247182304658e-01  9.9511879094574110e-02  9.9885408389599695e-02  1.0050783667370819e-01  1.0024441375010984e-01  1.0000216495266331e-01  1.0012177139470910e-01  1.0009897932152248e-01  1.0010671440666136e-01  1.0003910971483200e-01  1.0010474883144815e-01  1.0004039012039599e-01  1.0006870749715781e-01  1.0006159914245943e-01  1.0004673698460964e-01  1.0004693979442539e-01  1.0004895098313518e-01  1.0003579241319026e-01  1.0003692409084938e-01  1.0003593410317685e-01  1.0002823698116206e-01  1.0002774141046945e-01  1.0002704580317019e-01  1.0002192897524426e-01  1.0002088442124288e-01  1.0001992777605036e-01  1.0001599885817332e-01  1.0001540163037731e-01  1.0001263456304374e-01  1.0001240930172091e-01  1.0000721719905993e-01  1.0001196081952574e-01  1.0000000000000003e-01  9.9985263993182208e-02  1.0000000000000003e-01  9.9990958478466063e-02  9.9983775504335015e-02  9.9985291605619087e-02  9.9983345492906467e-02  9.9977481406572893e-02  9.9978232595668667e-02  9.9977535778673798e-02  9.9968041648495126e-02  9.9971780986238531e-02  9.9969036716758553e-02  9.9956631751178887e-02  9.9961490023320401e-02  9.9963812262990254e-02  9.9939767003133062e-02  9.9970645176784251e-02  9.9930651731164472e-02  9.9925911146004368e-02  9.9936803826065596e-02  9.9931715128975376e-02  9.9907065270426407e-02  9.9921690517925321e-02  9.9916346415956439e-02  9.9875643367687145e-02  9.9919865994179347e-02  9.9860583990492899e-02  9.9925900407195206e-02  9.9780570254931034e-02  1.0008690300583645e-01  9.9475489051022326e-02  9.9908919578868438e-02  1.0055676443492639e-01  1.0018785255943856e-01  1.0004087725774762e-01  1.0015511869715842e-01  1.0005962342244751e-01  1.0008926203897754e-01  1.0013917542857756e-01  1.0003194146315970e-01  1.0008424523883423e-01  1.0006868700369202e-01  1.0005785215841433e-01  1.0005407902246664e-01  1.0006072798218531e-01  1.0004163887310526e-01  1.0004448424791357e-01  1.0004403471359496e-01  1.0003410237886845e-01  1.0003329968576999e-01  1.0003294925448782e-01  1.0002606599689581e-01  1.0002539919886184e-01  1.0002418404685418e-01  1.0001997510337075e-01  1.0001823406540425e-01  1.0001739560392471e-01  1.0001317498084876e-01  1.0001363407714113e-01  1.0000824247165183e-01  1.0001261440129930e-01  1.0000000000000003e-01  9.9984080078310764e-02  1.0000000000000003e-01  9.9988914187427086e-02  9.9983887971033428e-02  9.9984626072877239e-02  9.9978106865010491e-02  9.9979008797869515e-02  9.9977627933958868e-02  9.9969034289860065e-02  9.9971962911630768e-02  9.9970586012847432e-02  9.9957589213606729e-02  9.9962315750483144e-02  9.9961281512818620e-02  9.9943119053469975e-02  9.9958556690154091e-02  9.9945991107471072e-02  9.9949030160905020e-02  9.9922525838667342e-02  9.9935319736560960e-02  9.9902758817808648e-02  9.9930350806260837e-02  9.9913098175394621e-02  9.9891654944666800e-02  9.9900050823951078e-02  9.9912626018802367e-02  9.9835721547254772e-02  9.9948469152234459e-02  9.9769307972976395e-02  1.0007574737909997e-01  9.9473141092400422e-02  9.9850338896360011e-02  1.0060592672709499e-01  1.0022255323286985e-01  1.0007113012101944e-01  1.0010871725500334e-01  1.0007388971560151e-01  1.0012820936462924e-01  1.0006143768084882e-01  1.0011701158652425e-01  1.0005984049996587e-01  1.0007212553576392e-01  1.0005305480109229e-01  1.0007527573662900e-01  1.0004478857320663e-01  1.0005187076507277e-01  1.0005108548130440e-01  1.0003858031571720e-01  1.0003850160093576e-01  1.0003918098623615e-01  1.0002944455060203e-01  1.0002903290395834e-01  1.0002839345583175e-01  1.0002241800189712e-01  1.0002147142992932e-01  1.0001987899984739e-01  1.0001654788311774e-01  1.0001381269265351e-01  1.0001415548572297e-01  1.0000793177379838e-01  1.0001240991080944e-01  1.0000000000000003e-01  9.9982493090960994e-02  1.0000000000000003e-01  9.9989123286032433e-02  9.9983385271224162e-02  9.9980779434497943e-02  9.9979247379798283e-02  9.9978843261022965e-02  9.9970642319946332e-02  9.9972294674730011e-02  9.9971534577675464e-02  9.9960684160130209e-02  9.9963369994833906e-02  9.9962264426890074e-02  9.9945849312157831e-02  9.9955189276531992e-02  9.9951248877067495e-02  9.9936139089185805e-02  9.9940579913713454e-02  9.9962238009698112e-02  9.9889552343197963e-02  9.9930367767859865e-02  9.9917774947597876e-02  9.9886655032345131e-02  9.9919186320935369e-02  9.9893745488346841e-02  9.9881533944334619e-02  9.9866475697948820e-02  9.9939908097594760e-02  9.9743560840982459e-02  1.0009918203477350e-01  9.9458084255866594e-02  9.9858024298584619e-02  1.0058548601829102e-01  1.0025762883390241e-01  1.0002467228856665e-01  1.0013042572506782e-01  1.0011022511301519e-01  1.0008148712422518e-01  1.0008540946454408e-01  1.0010233675328799e-01  1.0009818253938634e-01  1.0004185225878880e-01  1.0009300326211157e-01  1.0004364753344963e-01  1.0006188414208415e-01  1.0005843703214345e-01  1.0004443541048974e-01  1.0004325908985671e-01  1.0004612504849987e-01  1.0003375432488627e-01  1.0003408151886208e-01  1.0003339136784699e-01  1.0002572733237217e-01  1.0002465679151319e-01  1.0002411649561146e-01  1.0001853524467627e-01  1.0001784796982195e-01  1.0001514173232472e-01  1.0001378799454974e-01  1.0000852922325248e-01  1.0001277718455137e-01  1.0000000000000003e-01  9.9981851117357509e-02  1.0000000000000003e-01  9.9988999190461850e-02  9.9980281248989875e-02  9.9981803532887562e-02  9.9979181740888323e-02  9.9973016610962834e-02  9.9973281430647945e-02  9.9972546686758812e-02  9.9962562999281177e-02  9.9965634305563170e-02  9.9964342079978188e-02  9.9949018535982731e-02  9.9955567506873497e-02  9.9954068640005125e-02  9.9935460712954866e-02  9.9944705493953678e-02  9.9949585111277203e-02  9.9911280467273531e-02  9.9961258559032373e-02  9.9902023460275838e-02  9.9893955413791147e-02  9.9911867131027732e-02  9.9913332508127756e-02  9.9859566163224694e-02  9.9919455655345851e-02  9.9859567476394850e-02  9.9906951099045432e-02  9.9777934012469802e-02  1.0009163956573482e-01  9.9431434038518715e-02  9.9877187465778769e-02  1.0061149776746509e-01  1.0022441927422721e-01  1.0003714474717416e-01  1.0016322990918693e-01  1.0006846488615445e-01  1.0009971687924855e-01  1.0010525536086490e-01  1.0007811181902837e-01  1.0007082339320250e-01  1.0012292118290414e-01  1.0003092084131983e-01  1.0007414504603521e-01  1.0005983684677451e-01  1.0005289413698862e-01  1.0004655704582423e-01  1.0005374702254252e-01  1.0003689269894599e-01  1.0003827601954383e-01  1.0003889506949741e-01  1.0002949485808606e-01  1.0002808151190468e-01  1.0002768589426835e-01  1.0002137780592067e-01  1.0001983082535844e-01  1.0001914598331632e-01  1.0001398702212860e-01  1.0001422485569533e-01  1.0000890010742595e-01  1.0001246228217821e-01  1.0000000000000003e-01  9.9981305895953138e-02  1.0000000000000003e-01  9.9987608516599449e-02  9.9981029025206114e-02  9.9982118521817445e-02  9.9975018030809076e-02  9.9975492391159160e-02  9.9973931701964308e-02  9.9965429789375851e-02  9.9967273624585920e-02  9.9966892585230005e-02  9.9953220672835644e-02  9.9957967925052904e-02  9.9956721754353550e-02  9.9938975872947283e-02  9.9947967963681633e-02  9.9947828259287913e-02  9.9920678971014490e-02  9.9944972644603697e-02  9.9928881326128552e-02  9.9928089637126336e-02  9.9899979532028185e-02  9.9911938581541015e-02  9.9871841637003703e-02  9.9903530660312836e-02  9.9909739620323582e-02  9.9823593175008316e-02  9.9947869731035754e-02  9.9775904836404056e-02  1.0005368479610231e-01  9.9471085058926281e-02  9.9835816416877846e-02  1.0066113090150354e-01  1.0023448681309298e-01  1.0006406369414786e-01  1.0012815633404265e-01  1.0007973979780131e-01  1.0012702622777579e-01  1.0007575405388658e-01  1.0008069001179040e-01  1.0010007131550470e-01  1.0006113614204301e-01  1.0009683107502490e-01  1.0005097509303745e-01  1.0006362092115317e-01  1.0004489154524433e-01  1.0006412412346889e-01  1.0003925942552239e-01  1.0004336308875290e-01  1.0004366722261729e-01  1.0003269307803846e-01  1.0003207405064106e-01  1.0003289518393470e-01  1.0002383108903966e-01  1.0002306774334067e-01  1.0002185752431279e-01  1.0001727276177409e-01  1.0001465526379850e-01  1.0001505566943635e-01  1.0000842891081481e-01  1.0001257076323586e-01  1.0000000000000003e-01  9.9980232881196091e-02  1.0000000000000003e-01  9.9988050592909120e-02  9.9981168529904546e-02  9.9979171928121474e-02  9.9976708548165760e-02  9.9976336782131997e-02  9.9968206914374594e-02  9.9969106394547674e-02  9.9968702621340194e-02  9.9957771698313450e-02  9.9960055766969827e-02  9.9959751264103697e-02  9.9943931384601142e-02  9.9950173522538904e-02  9.9950726648268290e-02  9.9927063736084204e-02  9.9942233594192006e-02  9.9937746219219081e-02  9.9915517638250351e-02  9.9924086899953093e-02  9.9956535457353904e-02  9.9849837678891315e-02  9.9920344664697680e-02  9.9888855997530390e-02  9.9869351936216669e-02  9.9875184963554769e-02  9.9941291754172712e-02  9.9735685869177582e-02  1.0009534063319982e-01  9.9475887116708184e-02  9.9819015374798037e-02  1.0065861114851520e-01  1.0026881166244514e-01  1.0003109969533500e-01  1.0013315262400685e-01  1.0010674255056555e-01  1.0009596977483173e-01  1.0008086904450313e-01  1.0010847614031820e-01  1.0006576022824965e-01  1.0007364632724328e-01  1.0007974599943144e-01  1.0008525155665636e-01  1.0003201181976079e-01  1.0007663604622635e-01  1.0003685240967528e-01  1.0005015593883332e-01  1.0004779483697847e-01  1.0003656735707044e-01  1.0003442605465855e-01  1.0003716884439209e-01  1.0002707575991242e-01  1.0002639822938067e-01  1.0002570140629614e-01  1.0001875840711784e-01  1.0001789226364914e-01  1.0001580796208083e-01  1.0001353588463879e-01  1.0000864678995208e-01  1.0001255647458587e-01  1.0000000000000003e-01  9.9980192981153418e-02  1.0000000000000003e-01  9.9988487224700190e-02  9.9979157153513507e-02  9.9980803191766082e-02  9.9977697773494398e-02  9.9972186564374177e-02  9.9971557018121340e-02  9.9970949528201264e-02  9.9961547787921989e-02  9.9963687645507351e-02  9.9962795643759358e-02  9.9948942153826242e-02  9.9953537766380579e-02  9.9954494695520368e-02  9.9934163759438907e-02  9.9943847678446107e-02  9.9944331578665391e-02  9.9917183025706346e-02  9.9932806983486402e-02  9.9940198904664143e-02  9.9887254625895816e-02  9.9955711760599017e-02  9.9885996686629938e-02  9