<?xml version="1.0"?>
<VTKFile type="UnstructuredGrid"  version="0.1"  >
<UnstructuredGrid>
<Piece  NumberOfPoints="1933" NumberOfCells="3640">
<Points>
<DataArray  type="Float64"  NumberOfComponents="3"  format="ascii">-0.4754386350603138 -0.0007543835716241388 0  4.524561377285121 -0.0007330962777124775 0  4.524529436329467 7.499266929926331 0  -0.4754705781485375 7.499245639819685 0  9.524561400473612 -0.0007118270431222282 0  9.524529459078726 7.499288198052376 0  14.5245614441477 -0.000690567252048833 0  14.5245294923832 7.499309455932156 0  19.52456151467817 -0.0006693033732833376 0  19.52452953741459 7.4993307180025 0  24.52456161539324 -0.0006480198305830246 0  24.52452959418846 7.499352000034515 0  29.52456174714863 -0.0006267001573171773 0  29.52452966145465 7.499373318465254 0  34.52456190881579 -0.0006053273695324337 0  34.52452973661222 7.499394690187414 0  39.5245620975949 -0.0005838839638800628 0  39.52452981562472 7.499416132603508 0  44.52456230915428 -0.0005623517268260833 0  44.52452989290305 7.499437663829388 0  49.52456253761788 -0.0005407114399520055 0  49.52452996112915 7.499459302987323 0  54.52456277541763 -0.0005189425155553442 0  54.52453001099993 7.499481070563067 0  59.52456301301576 -0.000497022569494115 0  59.52453003087123 7.49950298882198 0  64.52456323848902 -0.0004749269213719557 0  64.52453000627726 7.499525082293309 0  69.52456343694894 -0.0004526279990629583 0  69.52452991929317 7.499547378342299 0  74.52456358975385 -0.0004300946111829211 0  74.52452974769689 7.499569907860292 0  79.52456367343702 -0.0004072910342960325 0  79.52452946386551 7.499592706114231 0  84.52456365823232 -0.0003841758382288291 0  84.52452903332383 7.499615813810522 0  89.52456350600492 -0.000360700339141078 0  89.52452841282576 7.49963927844277 0  94.52456316727483 -0.000336806521425657 0  94.52452754782016 7.499663156004793 0  99.5245625768106 -0.0003124242014243971 0  99.52452636911845 7.499687513148181 0  104.5245616469032 -0.0002874671168389766 0  104.5245247885751 7.499712429818601 0  109.5245602567747 -0.0002618275270447901 0  109.5245226936718 7.499738002248765 0  114.5245582353822 -0.0002353688535927396 0  114.5245199412041 7.499764345765943 0  119.5245553327112 -0.0002079160436556626 0  119.5245163511042 7.499791595849365 0  124.524551170663 -0.0001792441739017887 0  124.5245117034957 7.499819903522111 0  129.5245451573515 -0.0001490685993282175 0  129.5245057467649 7.499849415951239 0  134.5245363353198 -0.000117048061827794 0  134.5244982346545 7.499880221918142 0  139.5245231102741 -8.283463721281801e-05 0  139.5244890318268 7.499912218447737 0  144.5245027646787 -4.62663559225939e-05 0  144.5244783706772 7.499944808433963 0  149.524470587427 -7.975143420384383e-06 0  149.5244674264724 7.499976255972564 0  159.5244717418524 5.04235565181793e-19 0  164.5244749121177 -8.59960244045263e-06 0  164.5244723343169 7.499988103953835 0  159.5244688998941 7.49999153870367 0  169.5244816069922 -8.972088115765832e-06 0  169.5244754930685 7.499989563504768 0  174.5244892016481 -3.931379300655649e-06 0  174.5244788969278 7.49999538021784 0  179.5244966235815 4.911867200683355e-06 0  179.5244824819535 7.500004587670748 0  184.5245034555878 1.650474452986655e-05 0  184.5244860900578 7.500016360381617 0  189.5245095686665 3.012345164205048e-05 0  189.5244895885669 7.500030069912748 0  194.5245149595675 4.525793983998469e-05 0  194.5244928898491 7.500045250530349 0  199.5245196765561 6.154199697438892e-05 0  199.5244959448705 7.500061557771541 0  204.5245237854023 7.870801958010238e-05 0  204.5244987321904 7.500078735034963 0  209.5245273541507 9.655707215318202e-05 0  209.5245012483742 7.500096589061603 0  214.5245304467077 0.0001149387986875943 0  214.5245035009472 7.500114972470842 0  219.5245331205353 0.0001337377638347884 0  219.5245055036123 7.500133771410051 0  224.5245354262078 0.0001528640240757692 0  224.5245072731545 7.500152896790378 0  229.5245374077743 0.0001722465095971682 0  229.5245088275134 7.50017227801136 0  234.5245391034276 0.0001918282981120008 0  234.5245101846332 7.500191858414081 0  239.5245405462564 0.00021156318236455 0  239.5245113618166 7.500211591944182 0  244.5245417649848 0.0002314131384855442 0  244.5245123754025 7.500231440672234 0  249.5245427846619 0.0002513464350314503 0  249.524513240649 7.500251372931965 0  254.5245436273005 0.0002713362094985887 0  254.5245139717457 7.500271361913751 0  259.5245443124668 0.0002913593977158776 0  259.524514581905 7.500291384604163 0  264.5245448578373 0.000311395942967801 0  264.5245150835035 7.500311421000688 0  269.5245452797305 0.0003314282435364678 0  269.5245154882487 7.500331453560189 0  274.5245455936331 0.000351440825101866 0  274.5245158073527 7.500351466864728 0  279.524545814718 0.0003714202528817081 0  279.5245160516996 7.500371447512138 0  284.5245459583514 0.0003913553321825373 0  284.524516231981 7.500391384263951 0  289.5245460405481 0.0004112376902463554 0  289.5245163587838 7.500411268511105 0  294.5245460782745 0.0004310628909473349 0  294.5245164426115 7.50043109514734 0  299.524546089379 0.0004508323021797009 0  299.5245164938378 7.500450863966162 0  304.524546091661 0.0004705559639760425 0  304.524516522691 7.500470581713212 0  309.5245461000673 0.0004902564339559733 0  309.5245165395663 7.50049026497265 0  4.524497463715185 14.99926698285244 0  -0.4755025496229273 14.99924569722966 0  9.524497478931762 14.99928824078629 0  14.52449749629423 14.99930948822956 0  19.5244975147183 14.99933074113483 0  24.52449753228505 14.99935201533919 0  29.524497546275 14.99937332687581 0  34.52449755304173 14.99939469212308 0  39.52449754783637 14.99941612797045 0  44.52449752460966 14.99943765203634 0  49.52449747578975 14.99945928293739 0  54.52449739202341 14.99948104060421 0  59.52449726186654 14.99950294664272 0  64.52449707141068 14.99952502474532 0  69.52449680383233 14.99954730116028 0  74.52449643885605 14.99956980522969 0  79.52449595212661 14.99959257000529 0  84.5244953145022 14.99961563294365 0  89.52449449130724 14.99963903666224 0  94.52449344164171 14.99966282969198 0  99.52449211795066 14.99968706706493 0  104.5244904662493 14.99971181038255 0  109.5244884277379 14.9997371266305 0  114.5244859430994 14.99976308428849 0  119.524482961657 14.99978974395791 0  124.5244794588129 14.99981713837583 0  129.5244754666209 14.99984523271805 0  134.5244711229887 14.99987385001906 0  139.5244667418563 14.99990253901096 0  144.5244628915968 14.99993035813955 0  149.5244604219796 14.99995557062846 0  164.524464153371 14.99997994900427 0  159.5244623861046 14.99997659792553 0  169.5244653191273 14.99998540159596 0  174.5244663744504 14.99999335155796 0  179.5244675440771 15.00000366822195 0  184.524468872717 15.00001601012178 0  189.5244703265184 15.00003000665765 0  194.5244718487522 15.00004532701151 0  199.5244733844744 15.0000616972724 0  204.5244748892573 15.0000788978747 0  209.5244763306994 15.00009675508645 0  214.5244776870905 15.00011513185674 0  219.5244789452523 15.00013391980221 0  224.5244800984092 15.00015303272065 0  229.5244811443927 15.00017240152065 0  234.5244820842387 15.00019197031755 0  239.5244829211406 15.00021169344257 0  244.5244836596917 15.0002315331511 0  249.5244843053541 15.00025145786394 0  254.524484864095 15.00027144081656 0  259.524485342144 15.00029145902706 0  264.5244857458356 15.00031149251968 0  269.5244860815113 15.00033152376406 0  274.5244863554578 15.00035153730689 0  279.5244865738693 15.0003715195883 0  284.5244867428295 15.00039145894534 0  289.5244868683195 15.00041134580981 0  294.5244869562954 15.00043117309939 0  299.5244870129123 15.00045093676835 0  304.5244870450663 15.00047063640521 0  309.5244870615603 15.00049027560827 0  4.524465504562393 22.4992670695907 0  -0.4755345072604862 22.49924580990699 0  9.524465513627391 22.49928830285712 0  14.5244655182534 22.49930952794616 0  19.52446551627171 22.49933076101513 0  24.52446550502573 22.49935201739053 0  29.52446548134279 22.49937331224359 0  34.52446544143366 22.49939466096388 0  39.52446538075175 22.49941607941347 0  44.52446529383521 22.49943758414867 0  49.52446517414482 22.49945919264517 0  54.52446501389954 22.499480923538 0  59.52446480391319 22.49950279687793 0  64.52446453343771 22.49952483440214 0  69.52446419002479 22.49954705980974 0  74.52446375943263 22.49956949902726 0  79.52446322562118 22.49959218043201 0  84.52446257091171 22.49961513497587 0  89.52446177643392 22.49963839610412 0  94.52446082305281 22.49966199928285 0  99.52445969307209 22.49968598081137 0  104.52445837315 22.49971037536834 0  109.5244568590432 22.49973521137543 0  114.5244551629724 22.49976050269794 0  119.5244533245003 22.49978623439089 0  124.5244514255836 22.49981233917534 0  129.5244496094422 22.49983866042818 0  134.5244481001832 22.49986489785027 0  139.5244472144178 22.49989053689521 0  144.5244473462273 22.49991478066921 0  149.5244488948671 22.49993655259848 0  164.5244508211358 22.49997049500385 0  159.524450317035 22.49996199371215 0  169.5244508169826 22.49997965592113 0  174.5244505965238 22.49999006229639 0  179.5244503740037 22.50000191340523 0  184.524450266736 22.50001517818416 0  189.5244503169464 22.50002971349633 0  194.5244505219153 22.50004533842735 0  199.5244508570934 22.50006187302341 0  204.5244512904164 22.50007915514632 0  209.5244517900194 22.50009704571351 0  214.5244523278052 22.50011542844124 0  219.5244528806684 22.50013420734861 0  224.5244534305172 22.50015330362221 0  229.5244539637499 22.50017265256114 0  234.5244544705463 22.50019220088066 0  239.5244549441494 22.50021190444536 0  244.5244553802223 22.50023172641234 0  249.5244557762998 22.5002516357337 0  254.5244561313425 22.50027160596083 0  259.5244564453757 22.50029161429975 0  264.5244567192057 22.50031164087432 0  269.5244569541937 22.50033166816429 0  274.5244571520839 22.50035168059218 0  279.5244573148767 22.5003716642366 0  284.5244574447574 22.5003916066482 0  289.5244575441009 22.5004114967315 0  294.5244576155943 22.5004313246283
[...]
<PointData  Scalars="p"> 
<DataArray  type="Float64"  Name="p"  format="ascii">1.0000000000000001e-01  1.0000000000000003e-01  1.0000028812666244e-01  1.0000000000000003e-01  1.0000000000000003e-01  1.0000146179557473e-01  1.0000000000000003e-01  1.0000220302277668e-01  1.0000000000000003e-01  1.0000307886406277e-01  1.0000000000000003e-01  1.0000370586221698e-01  1.0000000000000003e-01  1.0000392392853509e-01  1.0000000000000003e-01  1.0000461080276249e-01  1.0000000000000003e-01  1.0000476580669290e-01  1.0000000000000003e-01  1.0000493805220320e-01  1.0000000000000003e-01  1.0000649572578968e-01  1.0000000000000003e-01  1.0000400834247977e-01  1.0000000000000003e-01  1.0000525415567139e-01  1.0000000000000003e-01  1.0000479710199919e-01  1.0000000000000003e-01  1.0000512749730743e-01  1.0000000000000003e-01  1.0000355451985118e-01  1.0000000000000003e-01  1.0000345411599149e-01  1.0000000000000003e-01  1.0000153504014631e-01  1.0000000000000003e-01  9.9998897189882141e-02  1.0000000000000003e-01  9.9997452704012252e-02  1.0000000000000003e-01  9.9993281568300840e-02  1.0000000000000003e-01  9.9990253324850231e-02  1.0000000000000003e-01  9.9985011645132502e-02  1.0000000000000003e-01  9.9983063575103087e-02  1.0000000000000003e-01  9.9972307728081550e-02  1.0000000000000003e-01  9.9976807221679051e-02  1.0000000000000003e-01  9.9956098529570506e-02  1.0000000000000003e-01  9.9973028872321845e-02  1.0000000000000003e-01  9.9936241184279059e-02  1.0000000000000003e-01  9.9974258279108552e-02  1.0000000000000001e-01  9.9907451185671833e-02  1.0000000000000001e-01  1.0000000000000003e-01  1.0002166090025912e-01  1.0010458285282493e-01  1.0000000000000003e-01  9.9981888814615838e-02  1.0000000000000003e-01  1.0001284493629083e-01  1.0000000000000003e-01  9.9991021302154315e-02  1.0000000000000003e-01  9.9994866328932189e-02  1.0000000000000003e-01  9.9988575084723835e-02  1.0000000000000003e-01  9.9988228000348123e-02  1.0000000000000003e-01  9.9982783415574913e-02  1.0000000000000003e-01  9.9982178593482990e-02  1.0000000000000003e-01  9.9979501818936500e-02  1.0000000000000003e-01  9.9977490864477186e-02  1.0000000000000003e-01  9.9976125437206090e-02  1.0000000000000003e-01  9.9975015529648950e-02  1.0000000000000003e-01  9.9973606749664642e-02  1.0000000000000003e-01  9.9972993968873824e-02  1.0000000000000003e-01  9.9972372061002623e-02  1.0000000000000003e-01  9.9971662328882591e-02  1.0000000000000003e-01  9.9971423443410284e-02  1.0000000000000003e-01  9.9971075578118795e-02  1.0000000000000003e-01  9.9970954598587902e-02  1.0000000000000003e-01  9.9970593861047563e-02  1.0000000000000003e-01  9.9971045594781871e-02  1.0000000000000003e-01  9.9970134714756326e-02  1.0000000000000003e-01  9.9971667302969747e-02  1.0000000000000003e-01  9.9969115494396701e-02  1.0000000000000003e-01  9.9973604308890934e-02  1.0000000000000003e-01  9.9966208469502590e-02  1.0000000000000003e-01  9.9978671832096161e-02  1.0000000000000003e-01  9.9956772313390049e-02  1.0000000000000001e-01  1.0000000000000003e-01  9.9999250936254308e-02  1.0000000000000003e-01  9.9999947566319136e-02  1.0000005382227144e-01  1.0000004713155526e-01  9.9999546635295949e-02  9.9999742373409584e-02  9.9999419721434196e-02  9.9998461000079711e-02  9.9999290163365145e-02  9.9998614914094036e-02  9.9999479159676358e-02  9.9995482173719438e-02  9.9998772183605186e-02  9.9995916801873752e-02  9.9997914683998088e-02  9.9995544220225566e-02  9.9993427386068492e-02  9.9993159909499793e-02  9.9990700086124762e-02  9.9986533443385178e-02  9.9987125936100124e-02  9.9981596631244174e-02  9.9980582536817089e-02  9.9975048720469611e-02  9.9979087554542753e-02  9.9961975513204543e-02  9.9987424502497466e-02  9.9939101537195332e-02  1.0001328199554144e-01  9.9907330371801162e-02  9.9935337734239321e-02  1.0012038860498011e-01  1.0006583007843199e-01  1.0000080538029771e-01  1.0001424718388267e-01  1.0001114082358775e-01  1.0001401383403224e-01  1.0000428684031090e-01  1.0000758728613428e-01  1.0000399399840491e-01  1.0000111015144725e-01  1.0000041839974062e-01  9.9999391608393398e-02  9.9997005905981595e-02  9.9996771261290029e-02  9.9996017634462392e-02  9.9994749749997128e-02  9.9994408881257366e-02  9.9994007346889402e-02  9.9993067675210143e-02  9.9992910421611264e-02  9.9992297452655213e-02  9.9992116060802522e-02  9.9991124446464852e-02  9.9991906430759434e-02  9.9989527189512789e-02  9.9992656270162961e-02  9.9986042729932487e-02  9.9996488810535897e-02  9.9979312811964885e-02  1.0000000000000003e-01  9.9998303372802452e-02  1.0000000000000003e-01  9.9999502511789254e-02  9.9999505369920430e-02  9.9999146690541246e-02  9.9999543900520418e-02  9.9999172925321650e-02  9.9997914007346270e-02  9.9998383334730587e-02  9.9997760793705787e-02  9.9996893020699584e-02  9.9996163093189261e-02  9.9999865024609044e-02  9.9990362170254046e-02  9.9997022974819147e-02  9.9994130789149899e-02  9.9992049862132684e-02  9.9992796131205958e-02  9.9989396161603891e-02  9.9984442899798631e-02  9.9984554251759963e-02  9.9979915245344705e-02  9.9972416511833265e-02  9.9974702315523287e-02  9.9963671291508904e-02  9.9965772417592941e-02  9.9952583827193298e-02  9.9968418732612391e-02  9.9926355369831812e-02  1.0000366814388688e-01  9.9857712264275797e-02  9.9996525503428774e-02  1.0005125674366454e-01  1.0005441341346255e-01  1.0000396698373787e-01  1.0001601507937624e-01  1.0002240842791539e-01  1.0000038259842317e-01  1.0001265160858179e-01  1.0000466751529841e-01  9.9999347437647032e-02  9.9998768627000176e-02  9.9997024630144107e-02  9.9992202201312705e-02  9.9992146974435328e-02  9.9990643287130407e-02  9.9988057291528265e-02  9.9987718385871519e-02  9.9986969719004795e-02  9.9985333950147720e-02  9.9984933185211899e-02  9.9984460914685852e-02  9.9983168500210148e-02  9.9983108544517751e-02  9.9981958167821808e-02  9.9982275039418797e-02  9.9980011422660969e-02  9.9982438219902964e-02  9.9976822738379253e-02  9.9985592309787721e-02  9.9967276826024895e-02  1.0000000000000003e-01  9.9997607675988309e-02  1.0000000000000003e-01  9.9998764221865474e-02  9.9997593592663525e-02  9.9998154404673467e-02  9.9997612231593092e-02  9.9996056976395076e-02  9.9996324421667157e-02  9.9995216368577264e-02  9.9993249876486737e-02  9.9993855602135334e-02  9.9993338069945717e-02  9.9988698526302086e-02  9.9996659101334789e-02  9.9985373891083168e-02  9.9988551067125023e-02  9.9988855551547628e-02  9.9987597207209469e-02  9.9981613057405092e-02  9.9983829447438291e-02  9.9977828308266847e-02  9.9972486315256973e-02  9.9971667982086093e-02  9.9968044248598342e-02  9.9956458660204361e-02  9.9966387822864364e-02  9.9943696154299322e-02  9.9968896866841767e-02  9.9920942666450158e-02  1.0000591352250146e-01  9.9852665632235230e-02  1.0001767231369364e-01  1.0008093863863246e-01  1.0002228452822753e-01  1.0001396734050796e-01  1.0006059961084705e-01  9.9995814478233483e-02  1.0003330215680763e-01  1.0001736524927922e-01  1.0001367696943962e-01  1.0001242719442696e-01  1.0001169765727637e-01  1.0000388583976577e-01  1.0000484955396718e-01  1.0000274881792783e-01  9.9999063821621006e-02  9.9998635163382935e-02  9.9997755944178521e-02  9.9995293751914655e-02  9.9995056775972674e-02  9.9994213111056635e-02  9.9992755624191354e-02  9.9992017172400041e-02  9.9991675126117813e-02  9.9989842311290378e-02  9.9990347521938860e-02  9.9987548323514808e-02  9.9990218644422466e-02  9.9983410226978237e-02  9.9992766410938821e-02  9.9975609898399403e-02  1.0000000000000003e-01  9.9996904119527774e-02  1.0000000000000003e-01  9.9997660084821097e-02  9.9997052605638709e-02  9.9996951776236076e-02  9.9995546551491885e-02  9.9995832116746328e-02  9.9994778034060053e-02  9.9992300367861844e-02  9.9992862796204618e-02  9.9991837768697966e-02  9.9987687102211495e-02  9.9990725514549350e-02  9.9986536742038973e-02  9.9990746796580779e-02  9.9980986396414617e-02  9.9986012756364567e-02  9.9979370447224686e-02  9.9983685393693983e-02  9.9978087919612005e-02  9.9971140071015346e-02  9.9973464985740029e-02  9.9965198781061984e-02  9.9959371684923151e-02  9.9956687565177407e-02  9.9956495783586854e-02  9.9936172705931720e-02  9.9964293466908646e-02  9.9909715098778717e-02  1.0000287376723209e-01  9.9834242871205833e-02  9.9994967881418248e-02  1.0008008626529181e-01  1.0004631151777622e-01  1.0003643807146460e-01  1.0001293226184002e-01  1.0004222629759747e-01  1.0002157846368286e-01  1.0001845637481181e-01  1.0001678573439290e-01  1.0001985567027645e-01  1.0000620219134961e-01  1.0000943021235580e-01  1.0000608785284471e-01  1.0000057462943336e-01  1.0000035815486721e-01  9.9999187097546266e-02  9.9995285275939372e-02  9.9995127554095758e-02  9.9994259955081641e-02  9.9991890199430972e-02  9.9991526631391464e-02  9.9990541873285779e-02  9.9989195892305621e-02  9.9987931718868786e-02  9.9988020734818273e-02  9.9985114455723917e-02  9.9987126373957888e-02  9.9981088646078103e-02  9.9989444859445303e-02  9.9971768627313870e-02  1.0000000000000003e-01  9.9996097546211235e-02  1.0000000000000003e-01  9.9997373988852598e-02  9.9996036349994127e-02  9.9995035889325942e-02  9.9994932277934712e-02  9.9994237052010687e-02  9.9991785757059290e-02  9.9992047876669168e-02  9.9990715863242652e-02  9.9987218682947368e-02  9.9988228412323910e-02  9.9985645201366047e-02  9.9983443403279609e-02  9.9982735363836020e-02  9.9989911721444891e-02  9.9969687079802513e-02  9.9982626977008410e-02  9.9976081129996300e-02  9.9971529192630929e-02  9.9973621336523169e-02  9.9967993466531666e-02  9.9957115008034586e-02  9.9963015359400276e-02  9.9949857543951429e-02  9.9949030122755286e-02  9.9938065823689651e-02  9.9957208389111846e-02  9.9903344777993175e-02  1.0000502335048410e-01  9.9821925931468700e-02  1.0002435465613639e-01  1.0005380018162174e-01  1.0006181316456818e-01  1.0001265504325937e-01  1.0004022917157306e-01  1.0003377647613791e-01  1.0003604443656683e-01  1.0001663297160616e-01  1.0003617655893267e-01  1.0001081098209300e-01  1.0002125834773049e-01  1.0001537885128434e-01  1.0000840442247973e-01  1.0000808643239846e-01  1.0000709622682458e-01  1.0000142706386121e-01  1.0000167236481593e-01  1.0000038601734289e-01  9.9997170814496411e-02  9.9996808878455856e-02  9.9996149199733694e-02  9.9993650041030488e-02  9.9993409932835911e-02  9.9991851529011078e-02  9.9991213927229927e-02  9.9988493118043087e-02  9.9990550061925990e-02  9.9983951243302865e-02  9.9992104547869054e-02  9.9975340650691136e-02  1.0000000000000003e-01  9.9995674114778110e-02  1.0000000000000003e-01  9.9996838319625886e-02  9.9994524175963162e-02  9.9994784439234527e-02  9.9993745051337221e-02  9.9991572301793105e-02  9.9991912491789472e-02  9.9990573000217214e-02  9.9987184127667716e-02  9.9988204764574193e-02  9.9985614615288154e-02  9.9981552386741834e-02  9.9982769104110275e-02  9.9982680310876829e-02  9.9973440444580786e-02  9.9988126614627373e-02  9.9967135603017274e-02  9.9970737177354468e-02  9.9973133963073696e-02  9.9969199583696280e-02  9.9959700998330306e-02  9.9963313143276847e-02  9.9956416256344424e-02  9.9942224903662016e-02  9.9953421086778460e-02  9.9931666217943110e-02  9.9948258114283664e-02  9.9907310051582085e-02  9.9994851363307630e-02  9.9817138690984061e-02  1.0003748651608529e-01  1.0006652125476778e-01  1.0003882560445791e-01  1.0003676172131569e-01  1.0005051199440962e-01  1.0002187537069314e-01  1.0002762631350985e-01  1.0005036812740611e-01  1.0000870768705909e-01  1.0002955360534996e-01  1.0002056968537687e-01  1.0001448488102085e-01  1.0001268102659236e-01  1.0001277054555875e-01  1.0000440614859470e-01  1.0000512120237157e-01  1.0000374473089188e-01  9.9999320948037762e-02  9.9998896979834370e-02  9.9998037500589790e-02  9.9995187491708409e-02  9.9994552650053498e-02  9.9993898457733002e-02  9.9991281079746683e-02  9.9991310400434422e-02  9.9988579128811594e-02  9.9989783511638577e-02  9.9983711910456408e-02  9.9991361827922023e-02  9.9974585748883946e-02  1.0000000000000003e-01  9.9995167374485119e-02  1.0000000000000003e-01  9.9996042428456888e-02  9.9994428345271683e-02  9.9993984895023674e-02  9.9991643504237629e-02  9.9991765471722741e-02  9.9990450107045770e-02  9.9987445607219463e-02  9.9988181364617471e-02  9.9986425637151502e-02  9.9981697282313362e-02  9.9982952053687027e-02  9.9981037982675894e-02  9.9974455972062351e-02  9.9980364665288785e-02  9.9972262040909018e-02  9.9978552071781857e-02  9.9963089241848532e-02  9.9970098885932460e-02  9.9958448445657447e-02  9.9967683226788631e-02  9.9957112794058930e-02  9.9948802925076977e-02  9.9950179111153878e-02  9.9947591765926172e-02  9.9924071777745815e-02  9.9954119650288886e-02  9.9902407144162667e-02  9.9986349383220444e-02  9.9824387889424007e-02  1.0002175421714590e-01  1.0007699622748437e-01  1.0005593222543765e-01  1.0005005900719310e-01  1.0003621171470331e-01  1.0003551461478025e-01  1.0004482777198354e-01  1.0001728688119252e-01  1.0004342677731161e-01  1.0002123562537422e-01  1.0002353321607076e-01  1.0001709177069361e-01  1.0002240570228439e-01  1.0000922010614023e-01  1.0001153185596262e-01  1.0000940374233494e-01  1.0000368360201888e-01  1.0000349406795833e-01  1.0000275005555845e-01  9.9998439247814860e-02  9.9998307321500168e-02  9.9997238948977107e-02  9.9994931028995510e-02  9.9993628936334913e-02  9.9993513231124945e-02  9.9989878724364073e-02  9.9991556619692570e-02  9.9985479724265261e-02  9.9992481431869895e-02  9.9976431093672352e-02  1.0000000000000003e-01  9.9994605488738675e-02  1.0000000000000003e-01  9.9996062893564913e-02  9.9993893373772791e-02  9.9992525504754404e-02  9.9991888472655915e-02  9.9990826730156093e-02  9.9987883102894567e-02  9.9988175983783192e-02  9.9986890044476959e-02  9.9983026730466801e-02  9.9983667440727952e-02  9.9981590775620938e-02  9.9975776920284115e-02  9.9978850571759356e-02  9.9974609158412595e-02  9.9970573389658632e-02  9.9969960890064352e-02  9.9979927475804517e-02  9.9948700451127068e-02  9.9968257787940940e-02  9.9959112857760560e-02  9.9949924324700748e-02  9.9958225285050786e-02  9.9945367771952676e-02  9.9938285273826297e-02  9.9935234741815537e-02  9.9947330631989600e-02  9.9896744003167573e-02  9.9989777497592511e-02  9.9825516515769278e-02  1.0003161133854159e-01  1.0006498313902340e-01  1.0006698604829091e-01  1.0003500619526194e-01  1.0004892342623783e-01  1.0005042264828823e-01  1.0002853734599707e-01  1.0003275308927920e-01  1.0003159069846854e-01  1.0003347311595034e-01  1.0001482971729907e-01  1.0003144391240146e-01  1.0001139334255993e-01  1.0001797004919501e-01  1.0001429376578909e-01  1.0000760385133421e-01  1.0000689640612591e-01  1.0000647561498797e-01  1.0000112553024634e-01  1.0000097319417378e-01  9.9999953225175589e-02  9.9996427048838224e-02  9.9996152249726314e-02  9.9994754049188020e-02  9.9993141081793940e-02  9.9990682928354474e-02  9.9992053069735243e-02  9.9985615656412286e-02  9.9992543911673504e-02  9.9976840787507265e-02  1.0000000000000003e-01  9.9994363371654835e-02  1.0000000000000003e-01  9.9995828329551034e-02  9.9992809800814056e-02  9.9992841331072072e-02  9.9991284463245414e-02  9.9988771852200065e-02  9.9988640111559834e-02  9.9987245882526402e-02  9.9983627580944048e-02  9.9984742504874630e-02  9.9982658034170183e-02  9.9977418758120273e-02  9.9979479267913812e-02  9.9976455109831497e-02  9.9970221216308219e-02  9.9972354418864096e-02  9.9972130716306173e-02  9.9957293253730428e-02  9.9980068059559210e-02  9.9948454915977744e-02  9.9952953298426059e-02  9.9957382962753333e-02  9.9953776341736106e-02  9.9935536478066689e-02  9.9952163868936433e-02  9.9930097602731111e-02  9.9937748712306776e-02  9.9910404198103403e-02  9.9981209563895099e-02  9.9825704233700838e-02  1.0004131657143533e-01  1.0007605262408406e-01  1.0005450386431979e-01  1.0004463709990563e-01  1.0006150417388648e-01  1.0003647637626387e-01  1.0004135932920510e-01  1.0004159533673043e-01  1.0002553198872564e-01  1.0002155673147936e-01  1.0004309052383456e-01  1.0000886729361039e-01  1.0002539795046059e-01  1.0001819918721302e-01  1.0001371131312327e-01  1.0001095303963017e-01  1.0001185626551838e-01  1.0000432307623489e-01  1.0000456197495351e-01  1.0000370532790681e-01  9.9999529486044195e-02  9.9998555260892741e-02  9.9998073693449749e-02  9.9994631089222755e-02  9.9994689681779977e-02  9.9992078391996642e-02  9.9992481814411296e-02  9.9986848399250164e-02  9.9993334759938796e-02  9.9978031195199657e-02  1.0000000000000003e-01  9.9994130961571309e-02  1.0000000000000003e-01  9.9995379757336258e-02  9.9993139060647218e-02  9.9992619780800776e-02  9.9989915155930531e-02  9.9989680651734580e-02  9.9988169869807852e-02  9.9984859280055335e-02  9.9985350498435696e-02  9.9983892806151373e-02  9.9979220932605459e-02  9.9980822209721612e-02  9.9978517670808495e-02  9.9972328095697768e-02  9.9974770456991824e-02  9.9971969945574182e-02  9.9962050245279432e-02  9.9971107038519413e-02  9.9959654467329198e-02  9.9966724567820464e-02  9.9947858774153867e-02  9.9954905490015386e-02  9.9940484433916649e-02  9.9952203083925467e-02  9.9945730881636594e-02  9.9920979113413272e-02  9.9952895680825549e-02  9.9907859271457164e-02  9.9968832387057741e-02  9.9845751361401891e-02  1.0002581585080880e-01  1.0009953776614977e-01  1.0006037653056270e-01  1.0005578440634653e-01  1.0004834716110103e-01  1.0004442411592192e-01  1.0005180257410960e-01  1.0003222810184058e-01  1.0003062771096727e-01  1.0003458923852589e-01  1.0001484011028879e-01  1.0003357678568722e-01  1.0001637748513317e-01  1.0001959362052143e-01  1.0001293906478173e-01  1.0001807542442076e-01  1.0000715762905997e-01  1.0000834299724040e-01  1.0000705283841978e-01  1.0000182692675040e-01  1.0000152114450694e-01  1.0000069237581168e-01  9.9996894351259191e-02  9.9995863367514037e-02  9.9995670104059728e-02  9.9991799307558651e-02  9.9993111934814680e-02  9.9987688486059281e-02  9.9993318609592041e-02  9.9978827415414126e-02  1.0000000000000003e-01  9.9993770406666405e-02  1.0000000000000003e-01  9.9995587377712733e-02  9.9992992137669962e-02  9.9991699180852905e-02  9.9990635821798568e-02  9.9989482002223420e-02  9.9986354238916747e-02  9.9986328966910870e-02  9.9984927455756489e-02  9.9981059137158435e-02  9.9981724003480710e-02  9.9980223654484973e-02  9.9974851273203255e-02  9.9976875656555747e-02  9.9974396266827456e-02  9.9965853941855698e-02  9.9970844892600857e-02  9.9964860201048084e-02  9.9958948710792930e-02  9.9958946361523027e-02  9.9972748345243029e-02  9.9927889091549787e-02  9.9958810432743642e-02  9.9942133715635664e-02  9.9936093835303191e-02  9.9939898646258601e-02  9.9948231691107281e-02  9.9897565097850388e-02  9.9984385086570843e-02  9.9847571843553987e-02  1.0001780187170128e-01  1.0010754494067116e-01  1.0007574948609724e-01  1.0004350209362951e-01  1.0005247529896269e-01  1.0005515923386005e-01  1.0004038590563111e-01  1.0003742554856508e-01  1.0004268179251347e-01  1.0002285484053643e-01  1.0002434848859197e-01  1.0002240189259888e-01  1.0002703614275354e-01  1.0000962293247201e-01  1.0002478170942007e-01  1.0000868323531395e-01  1.0001335411512767e-01  1.0001070591922354e-01  1.0000521718887605e-01  1.0000402382310705e-01  1.0000392069039862e-01  9.9999204922414806e-02  9.9998886191890193e-02  9.9997276339048854e-02  9.9994993292981948e-02  9.9992789492897777e-02  9.9994028870169185e-02  9.9987883998205185e-02  9.9993868009832870e-02  9.9979932531542803e-02  1.0000000000000003e-01  9.9993869571873562e-02  1.0000000000000003e-01  9.9995743278607163e-02  9.9992516065531112e-02  9.9992527936845640e-02  9.9990813015476798e-02  9.9988401238139790e-02  9.9987915744283645e-02  9.9986507887809176e-02  9.9982990321456564e-02  9.9983609937344398e-02  9.9981861216017598e-02  9.9977138012561168e-02  9.9979010965456042e-02  9.9977241115365337e-02  9.9970187442145669e-02  9.9973217668980277e-02  9.9969663163590974e-02  9.9960617694303769e-02  9.9964749746394632e-02  9.9964363550057000e-02  9.9944186804575341e-02  9.9975146855705355e-02  9.9935081347196017e-02  9