<?xml version="1.0"?>
<VTKFile type="UnstructuredGrid"  version="0.1"  >
<UnstructuredGrid>
<Piece  NumberOfPoints="1933" NumberOfCells="3640">
<Points>
<DataArray  type="Float64"  NumberOfComponents="3"  format="ascii">0.4754684316226414 -7.369355274725042e-05 0  5.475468470511077 -9.204613417115436e-05 0  5.47549603737461 7.499908073632178 0  0.4754959643702039 7.499926367141462 0  10.47546852183057 -0.0001105068615782653 0  10.47549616938051 7.49988963314714 0  15.47546864319795 -0.0001291249194399534 0  15.47549639143864 7.499871020578964 0  20.47546889703271 -0.0001479016740589506 0  20.47549673376859 7.499852244014062 0  25.47546934131046 -0.0001668101392790378 0  25.47549722611432 7.499833334422268 0  30.47547002751578 -0.0001858056013427415 0  30.47549789701265 7.499814338228347 0  35.47547100129012 -0.0002048314146552075 0  35.47549877325999 7.499795312799943 0  40.47547230396158 -0.0002238218850692403 0  40.47549987971425 7.49977632412523 0  45.47547397423036 -0.0002427032771413484 0  45.47550123931281 7.499757446060968 0  50.47547604973865 -0.0002613935203681058 0  50.47550287315399 7.499738760743593 0  55.4754785684414 -0.0002798009139403832 0  55.47550480051478 7.499720359936397 0  60.47548156976116 -0.0002978219485708509 0  60.4755070386919 7.499702347226002 0  65.47548509552809 -0.0003153382302288898 0  65.47550960255148 7.499684841095066 0  70.47548919068348 -0.0003322123744104481 0  70.47551250365639 7.499667979001941 0  75.47549390369379 -0.0003482826180615377 0  75.47551574878963 7.499651922706781 0  80.47549928654558 -0.0003633557472170677 0  80.47551933761835 7.499636865214184 0  85.47550539408134 -0.000377197735200598 0  85.47552325913337 7.499623039870634 0  90.47551228222289 -0.0003895211917655944 0  90.47552748632809 7.499610732380776 0  95.47552000427207 -0.0003999682828427433 0  95.475531968357 7.499600296809848 0  100.4755286037959 -0.000408087110167615 0  100.4755366191325 7.499592177032336 0  105.4755381013724 -0.0004132985162744234 0  105.4755413009958 7.499586935555312 0  110.4755484701104 -0.0004148487295041464 0  110.475545801919 7.49958529208111 0  115.4755595904177 -0.0004117409760233453 0  115.4755498050446 7.499588174250617 0  120.4755711659307 -0.0004026360154312075 0  120.4755528513012 7.499596781842365 0  125.475582566058 -0.0003857078146511826 0  125.4755543018899 7.499612661179279 0  130.475592528671 -0.0003584384324421783 0  130.4755533233332 7.499637773887368 0  135.475598594202 -0.0003173449000162046 0  135.4755489565896 7.499674514087843 0  140.4755960185666 -0.0002576885271661267 0  140.4755404231912 7.499725567557695 0  145.4755756522431 -0.0001734926214815257 0  145.4755280382238 7.499793431860952 0  150.4755196432049 -5.951536606810073e-05 0  150.4755156530632 7.499879624765828 0  160.475528258147 8.246399087122166e-19 0  165.4754231509371 -0.0001615101730499543 0  165.4755104029965 7.499811848275415 0  160.4755386228667 7.499937314373113 0  170.4753717173092 -0.0002907003248625991 0  170.4754816100371 7.499695985962918 0  175.4753478665689 -0.0003969241801462308 0  175.4754589447057 7.499595859272158 0  180.4753385877859 -0.0004857084959694257 0  180.4754429233041 7.499510210403068 0  185.4753370816065 -0.0005611170944736777 0  185.4754324367836 7.499436511355066 0  190.4753396968547 -0.0006262246504266989 0  190.4754261432142 7.499372368683944 0  195.4753444331255 -0.0006833425857592789 0  195.4754228767767 7.499315810415992 0  200.4753501753489 -0.000734202538246746 0  200.4754217291285 7.499265283740951 0  205.4753562926335 -0.0007801066794007847 0  205.4754220260984 7.499219583483113 0  210.4753624240888 -0.0008220432408982776 0  210.4754232790559 7.499177775105168 0  215.4753683624439 -0.0008607715219387045 0  215.475425137905 7.499139129604246 0  220.4753739896025 -0.0008968830844040324 0  220.4754273531213 7.499103072867999 0  225.4753792402189 -0.0009308454905332625 0  225.4754297472755 7.499069147617654 0  230.4753840806699 -0.00096303363420777 0  230.4754321944196 7.499036985175789 0  235.4753884966566 -0.0009937523699353691 0  235.4754346054289 7.499006284552288 0  240.475392485759 -0.001023253050302143 0  240.4754369176533 7.498976796872168 0  245.4753960529156 -0.001051745778298366 0  245.4754390876404 7.498948313678367 0  250.4753992076797 -0.001079408615620233 0  250.4754410860256 7.498920658051305 0  255.4754019626077 -0.001106394598235993 0  255.4754428939626 7.498893677794165 0  260.4754043323976 -0.001132837141461215 0  260.4754445006457 7.498867240156964 0  265.4754063335812 -0.001158854226961384 0  265.4754459016283 7.498841227737507 0  270.4754079846418 -0.00118455162237999 0  270.4754470977198 7.498815535323896 0  275.4754093065242 -0.001210025266182637 0  275.4754480943007 7.498790067548691 0  280.4754103235194 -0.001235362832819837 0  280.47544890094 7.498764737325284 0  285.4754110645354 -0.00126064434998424 0  285.4754495311981 7.498739465148094 0  290.4754115647117 -0.001285941532101787 0  290.4754500024961 7.498714179475114 0  295.475411867261 -0.001311315160722609 0  295.4754503359633 7.498688818588709 0  300.4754120250421 -0.001336809280496674 0  300.4754505561937 7.498663334554068 0  305.475412100653 -0.001362440036055152 0  305.4754506911776 7.498637700145714 0  310.4754121619274 -0.001388175562301728 0  310.4754507735512 7.49861191988311 0  5.475523267761122 14.99990834636972 0  0.4755231885466464 14.99992651578024 0  10.4755233981928 14.99988994164176 0  15.47552360604919 14.99987132748588 0  20.47552390868084 14.99985253634619 0  25.47552431979862 14.99983361025372 0  30.47552485136642 14.999814600291 0  35.47552551401114 14.99979556546803 0  40.47552631683565 14.99977657203123 0  45.47552726699558 14.99975769347497 0  50.4755283691503 14.99973901128186 0  55.47552962478626 14.9997206163709 0  60.4755310313565 14.99970261125826 0  65.47553258115661 14.99968511298479 0  70.47553425983477 14.9996682569243 0  75.47553604442312 14.99965220165359 0  80.47553790076182 14.99963713513791 0  85.47553978019496 14.99962328256074 0  90.47554161545153 14.99961091619555 0  95.47554331575159 14.99960036774595 0  100.4755447614427 14.99959204350029 0  105.4755457990836 14.99958644230039 0  110.4755462390294 14.99958417539335 0  115.4755458597525 14.99958598508018 0  120.4755444269081 14.99959275446199 0  125.4755417413814 14.99960549120528 0  130.4755377397118 14.99962524992488 0  135.4755326810919 14.99965292313041 0  140.475527459704 14.99968876587779 0  145.4755240506577 14.99973138889916 0  150.4755259348082 14.99977560460721 0  165.4755508164885 14.99973859190128 0  160.4755535616419 14.999819943155 0  170.475540622345 14.99965275591404 0  175.4755278521976 14.99957050242444 0  180.4755155428916 14.99949520637079 0  185.475505033903 14.99942750866256 0  190.4754966948298 14.99936688206395 0  195.475490429113 14.9993124155845 0  200.4754859538996 14.99926315604562 0  205.4754829403009 14.99921823862374 0  210.4754810768554 14.99917692378934 0  215.4754800935816 14.99913859572623 0  220.4754797671047 14.9991027470688 0  225.4754799175397 14.99906896062924 0  230.4754804024238 14.99903689231105 0  235.4754811101939 14.99900625654078 0  240.4754819542306 14.99897681435826 0  245.4754828678218 14.99894836386777 0  250.4754838000769 14.99892073264404 0  255.4754847126843 14.99889377170442 0  260.4754855773821 14.99886735072626 0  265.4754863739873 14.99884135425975 0  270.475487088874 14.99881567875862 0  275.4754877137796 14.99879023031357 0  280.4754882448496 14.99876492302985 0  285.4754886818785 14.99873967803794 0  290.475489027692 14.99871442315174 0  295.4754892877858 14.99868909315925 0  300.4754894704222 14.99866363056411 0  305.4754895877673 14.99863798607933 0  310.4754896591365 14.99861211679055 0  5.475550159414722 22.49990888976126 0  0.4755500820794199 22.49992695843273 0  10.47555026676868 22.49989050565322 0  15.47555042212285 22.49987187217059 0  20.47555063484236 22.4998530462507 0  25.47555090923525 22.49983408324218 0  30.47555124662919 22.49981504064423 0  35.47555164624815 22.49979597991085 0  40.47555210532838 22.49977696751716 0  45.47555261879015 22.49975807592557 0  50.47555317864726 22.49973938476873 0  55.4755537732364 22.49972098240652 0  60.47555438629575 22.49970296794884 0  65.47555499589406 22.49968545381958 0  70.4755555732095 22.49966856893733 0  75.47555608117659 22.49965246259603 0  80.47555647306743 22.49963730912171 0  85.47555669115948 22.49962331334805 0  90.47555666580116 22.4996107168549 0  95.47555631544533 22.49959980470038 0  100.4755555486359 22.49959091194346 0  105.4755542695779 22.49958442843709 0  110.4755523898539 22.49958079888014 0  115.4755498500911 22.49958051250916 0  120.4755466567554 22.49958407242295 0  125.4755429401536 22.49959192753207 0  130.4755390384669 22.49960433981191 0  135.4755356054689 22.49962114651269 0  140.4755337189106 22.49964136669786 0  145.4755349190355 22.49966261587423 0  150.4755410151774 22.49968041620973 0  165.4755734764126 22.4996564680055 0  160.4755649876701 22.49970977375876 0  170.4755749278997 22.49959497423897 0  175.4755716166766 22.49953118112678 0  180.4755657672407 22.49946884312435 0  185.4755590249807 22.49940990676865 0  190.4755524065412 22.49935510929598 0  195.4755464492486 22.49930450421461 0  200.4755413779265 22.49925780896665 0  205.4755372335496 22.49921460570736 0  210.4755339592117 22.49917444709497 0  215.4755314529957 22.49913690696201 0  220.4755295984413 22.49910160108632 0  225.4755282809262 22.49906819267422 0  230.4755273956337 22.4990363905919 0  235.4755268507282 22.49900594457649 0  240.4755265679335 22.49897663955725 0  245.4755264818085 22.49894829008975 0  250.4755265384462 22.49892073532531 0  255.4755266940027 22.49889383464834 0  260.475526913236 22.49886746398263 0  265.4755271681703 22.49884151271324 0  270.4755274368925 22.49881588115544 0  275.4755277025029 22.49879047850353 0  280.4755279522077 22.49876522119198 0  285.4755281765697 22.49874003158686 0  290.4755283689582 22.49871483687291 0  295.4755285253202
[...]
<PointData  Scalars="p"> 
<DataArray  type="Float64"  Name="p"  format="ascii">1.0000000000000001e-01  1.0000000000000003e-01  9.9999711940635130e-02  1.0000000000000003e-01  1.0000000000000003e-01  9.9998538297611878e-02  1.0000000000000003e-01  9.9997796996739843e-02  1.0000000000000003e-01  9.9996921212910095e-02  1.0000000000000003e-01  9.9996294286975484e-02  1.0000000000000003e-01  9.9996076056213190e-02  1.0000000000000003e-01  9.9995389335288828e-02  1.0000000000000003e-01  9.9995234403178215e-02  1.0000000000000003e-01  9.9995062038195220e-02  1.0000000000000003e-01  9.9993504929900473e-02  1.0000000000000003e-01  9.9995991666322989e-02  1.0000000000000003e-01  9.9994745973594770e-02  1.0000000000000003e-01  9.9995203056823398e-02  1.0000000000000003e-01  9.9994872979293964e-02  1.0000000000000003e-01  9.9996445492518321e-02  1.0000000000000003e-01  9.9996546420909396e-02  1.0000000000000003e-01  9.9998465519280780e-02  1.0000000000000003e-01  1.0000110300559135e-01  1.0000000000000003e-01  1.0000254800803471e-01  1.0000000000000003e-01  1.0000671916671454e-01  1.0000000000000003e-01  1.0000974705693189e-01  1.0000000000000003e-01  1.0001498917158064e-01  1.0000000000000003e-01  1.0001693747147465e-01  1.0000000000000003e-01  1.0002769271147001e-01  1.0000000000000003e-01  1.0002319399909999e-01  1.0000000000000003e-01  1.0004390256270124e-01  1.0000000000000003e-01  1.0002697202261203e-01  1.0000000000000003e-01  1.0006376041701297e-01  1.0000000000000003e-01  1.0002574280070708e-01  1.0000000000000001e-01  1.0009255159412186e-01  1.0000000000000001e-01  1.0000000000000003e-01  9.9978349384612628e-02  9.9895434153886242e-02  1.0000000000000003e-01  1.0001811641557208e-01  1.0000000000000003e-01  9.9987164163703957e-02  1.0000000000000003e-01  1.0000898619090647e-01  1.0000000000000003e-01  1.0000514198757142e-01  1.0000000000000003e-01  1.0001143276669697e-01  1.0000000000000003e-01  1.0001178025278049e-01  1.0000000000000003e-01  1.0001722458042091e-01  1.0000000000000003e-01  1.0001782947779773e-01  1.0000000000000003e-01  1.0002050619865244e-01  1.0000000000000003e-01  1.0002251712643294e-01  1.0000000000000003e-01  1.0002388244450702e-01  1.0000000000000003e-01  1.0002499231985648e-01  1.0000000000000003e-01  1.0002640101023874e-01  1.0000000000000003e-01  1.0002701369734070e-01  1.0000000000000003e-01  1.0002763552910604e-01  1.0000000000000003e-01  1.0002834518261977e-01  1.0000000000000003e-01  1.0002858395235707e-01  1.0000000000000003e-01  1.0002893176206148e-01  1.0000000000000003e-01  1.0002905261383381e-01  1.0000000000000003e-01  1.0002941332250333e-01  1.0000000000000003e-01  1.0002896139713426e-01  1.0000000000000003e-01  1.0002987238378659e-01  1.0000000000000003e-01  1.0002833937753206e-01  1.0000000000000003e-01  1.0003089169090298e-01  1.0000000000000003e-01  1.0002640180504846e-01  1.0000000000000003e-01  1.0003379924055651e-01  1.0000000000000003e-01  1.0002133303253863e-01  1.0000000000000003e-01  1.0004323740873598e-01  1.0000000000000001e-01  1.0000000000000003e-01  1.0000074917516599e-01  1.0000000000000003e-01  1.0000005236266810e-01  9.9999946176958773e-02  9.9999952910471201e-02  1.0000045309936535e-01  1.0000025753226467e-01  1.0000058026458439e-01  1.0000153848986167e-01  1.0000070978142341e-01  1.0000138503262537e-01  1.0000052072454679e-01  1.0000451683603535e-01  1.0000122797127922e-01  1.0000408207141055e-01  1.0000208528990459e-01  1.0000445557781229e-01  1.0000657145990403e-01  1.0000683982487697e-01  1.0000929966770440e-01  1.0001346500879806e-01  1.0001287373137470e-01  1.0001840281020687e-01  1.0001941587904409e-01  1.0002495039232856e-01  1.0002091214528695e-01  1.0003802214582232e-01  1.0001257536324040e-01  1.0006089720668061e-01  9.9986717085907659e-02  1.0009266992015148e-01  1.0006465723467689e-01  9.9879641717954673e-02  9.9934177958073439e-02  9.9999198212303270e-02  9.9985757289767899e-02  9.9988862951727334e-02  9.9985990839792330e-02  9.9995717023745032e-02  9.9992416794748046e-02  9.9996009980283435e-02  9.9998893764990854e-02  9.9999585360457249e-02  1.0000061217980713e-01  1.0000299777111274e-01  1.0000323230051048e-01  1.0000398590440401e-01  1.0000525371652375e-01  1.0000559447244363e-01  1.0000599595821266e-01  1.0000693557052986e-01  1.0000709269276963e-01  1.0000770565871160e-01  1.0000788688251519e-01  1.0000887856062517e-01  1.0000809625701393e-01  1.0001047585529226e-01  1.0000734592096569e-01  1.0001396079433220e-01  1.0000351222990529e-01  1.0002069193003893e-01  1.0000000000000003e-01  1.0000169668445365e-01  1.0000000000000003e-01  1.0000049743370094e-01  1.0000049474948652e-01  1.0000085297821000e-01  1.0000045597973532e-01  1.0000082709602177e-01  1.0000208534556368e-01  1.0000161641922749e-01  1.0000223917471396e-01  1.0000310622445013e-01  1.0000383635884887e-01  1.0000013596623163e-01  1.0000963529190095e-01  1.0000297698934618e-01  1.0000586891004569e-01  1.0000794844796305e-01  1.0000720359127327e-01  1.0001060363488065e-01  1.0001555479103787e-01  1.0001544534138945e-01  1.0002008432244233e-01  1.0002758063986862e-01  1.0002529715446838e-01  1.0003632762671501e-01  1.0003422510174514e-01  1.0004741432831124e-01  1.0003158165941672e-01  1.0007364000227108e-01  9.9996333926633901e-02  1.0014228465330077e-01  1.0000346842854720e-01  9.9948780079465616e-02  9.9945603322437140e-02  9.9996039497619718e-02  9.9983991740725670e-02  9.9977600742245099e-02  9.9999624305676549e-02  9.9987356135129379e-02  9.9995340002865807e-02  1.0000065992684293e-01  1.0000123841505761e-01  1.0000298254510748e-01  1.0000780477315148e-01  1.0000785978489428e-01  1.0000936343601646e-01  1.0001194931929668e-01  1.0001228800561957e-01  1.0001303663620897e-01  1.0001467227408287e-01  1.0001507287091509e-01  1.0001554503634671e-01  1.0001683737260317e-01  1.0001689708957386e-01  1.0001804750920348e-01  1.0001773026666025e-01  1.0001999415199846e-01  1.0001756658223696e-01  1.0002318307472935e-01  1.0001441131235306e-01  1.0003273068188415e-01  1.0000000000000003e-01  1.0000239244125370e-01  1.0000000000000003e-01  1.0000123578973605e-01  1.0000240610276115e-01  1.0000184540075559e-01  1.0000238776123252e-01  1.0000394225906720e-01  1.0000367519741611e-01  1.0000478346742338e-01  1.0000674894263194e-01  1.0000614385907688e-01  1.0000666186845739e-01  1.0001129929021238e-01  1.0000334169315420e-01  1.0001462424824906e-01  1.0001144687863975e-01  1.0001114351836872e-01  1.0001240238956451e-01  1.0001838384976074e-01  1.0001616978808607e-01  1.0002217062594705e-01  1.0002751000484582e-01  1.0002833056154374e-01  1.0003195448752214e-01  1.0004353653501873e-01  1.0003361098160919e-01  1.0005630067279177e-01  1.0003110064040475e-01  1.0007905211992599e-01  9.9994089892786298e-02  1.0014732375920170e-01  9.9982319531490407e-02  9.9919107483273983e-02  9.9977731128279693e-02  9.9986036112982110e-02  9.9939412085737783e-02  1.0000419042271649e-01  9.9966705379625223e-02  9.9982641475080167e-02  9.9986329810171456e-02  9.9987578883891481e-02  9.9988308788847222e-02  9.9996120171132269e-02  9.9995156226126411e-02  9.9997256965854514e-02  1.0000094179947842e-01  1.0000137015226494e-01  1.0000224935529178e-01  1.0000471140640137e-01  1.0000494814973948e-01  1.0000579176052353e-01  1.0000724908024122e-01  1.0000798738428300e-01  1.0000832924471356e-01  1.0001016206249025e-01  1.0000965642262925e-01  1.0001245596162005e-01  1.0000978468715477e-01  1.0001659433295822e-01  1.0000723575275561e-01  1.0002439582559584e-01  1.0000000000000003e-01  1.0000309606733179e-01  1.0000000000000003e-01  1.0000233967052111e-01  1.0000294727846071e-01  1.0000304815465198e-01  1.0000445276944726e-01  1.0000416749435949e-01  1.0000522178940835e-01  1.0000769833657924e-01  1.0000713661797449e-01  1.0000816202717153e-01  1.0001231079564987e-01  1.0000927401599047e-01  1.0001346229240089e-01  1.0000925236045871e-01  1.0001901093451475e-01  1.0001398683064124e-01  1.0002062579966436e-01  1.0001631380732537e-01  1.0002191097212471e-01  1.0002885553180937e-01  1.0002653366553146e-01  1.0003479942940945e-01  1.0004062320352956e-01  1.0004330983025310e-01  1.0004350277619305e-01  1.0006381991700297e-01  1.0003570658976950e-01  1.0009027778377638e-01  9.9997129135272353e-02  1.0016574275659028e-01  1.0000501959121373e-01  9.9919969747047324e-02  9.9953707581253590e-02  9.9963568495744309e-02  9.9987079422014735e-02  9.9957782505689652e-02  9.9978430133107921e-02  9.9981552516103175e-02  9.9983221762218175e-02  9.9980152804064013e-02  9.9993805385818868e-02  9.9990577150297424e-02  9.9993919470934250e-02  9.9999432489857848e-02  9.9999648576529016e-02  1.0000081963798237e-01  1.0000472123074809e-01  1.0000487865559694e-01  1.0000574618557127e-01  1.0000811579494323e-01  1.0000847907050466e-01  1.0000946377347011e-01  1.0001080950224384e-01  1.0001207358254963e-01  1.0001198420991217e-01  1.0001489068308290e-01  1.0001287792422520e-01  1.0001891666674316e-01  1.0001055817135232e-01  1.0002823804556105e-01  1.0000000000000003e-01  1.0000390256845716e-01  1.0000000000000003e-01  1.0000262588637562e-01  1.0000396370856103e-01  1.0000496346606340e-01  1.0000506732949291e-01  1.0000576280595039e-01  1.0000821300905664e-01  1.0000795140096617e-01  1.0000928384061102e-01  1.0001277937474989e-01  1.0001177066360233e-01  1.0001435406851715e-01  1.0001655411590356e-01  1.0001726295561723e-01  1.0001008974346653e-01  1.0003030682785298e-01  1.0001737214703060e-01  1.0002391736118461e-01  1.0002846601050265e-01  1.0002637702496768e-01  1.0003200498273453e-01  1.0004287842562480e-01  1.0003698276354166e-01  1.0005013932257670e-01  1.0005096361396724e-01  1.0006192919374990e-01  1.0004279187860760e-01  1.0009664208880732e-01  9.9994984404844917e-02  1.0017805358759831e-01  9.9975629406801853e-02  9.9946262948019685e-02  9.9938210138810615e-02  9.9987349411690379e-02  9.9959782801010102e-02  9.9966232983685885e-02  9.9963966582805000e-02  9.9983373688668317e-02  9.9963833069195082e-02  9.9989196625476798e-02  9.9978749343363857e-02  9.9984628674696804e-02  9.9991602921745554e-02  9.9991920247691393e-02  9.9992910570211618e-02  9.9998579502382820e-02  9.9998333766417299e-02  9.9999620049941867e-02  1.0000283507569650e-01  1.0000319667355050e-01  1.0000385625537757e-01  1.0000635527240012e-01  1.0000659501702916e-01  1.0000815342725522e-01  1.0000879059157146e-01  1.0001151157826195e-01  1.0000945376051587e-01  1.0001605359527869e-01  1.0000789801253153e-01  1.0002466532252781e-01  1.0000000000000003e-01  1.0000432608902486e-01  1.0000000000000003e-01  1.0000316166427138e-01  1.0000547542694198e-01  1.0000521518699501e-01  1.0000625481019638e-01  1.0000842653136748e-01  1.0000808680983339e-01  1.0000942664760060e-01  1.0001281395071945e-01  1.0001179425093021e-01  1.0001438474297049e-01  1.0001844477471619e-01  1.0001722935508429e-01  1.0001731935348629e-01  1.0002655491519936e-01  1.0001187444977135e-01  1.0003286062476728e-01  1.0002925785902668e-01  1.0002686389571079e-01  1.0003079878571379e-01  1.0004029226214134e-01  1.0003668444424130e-01  1.0004358138091839e-01  1.0005776623933796e-01  1.0004657683526698e-01  1.0006832796774717e-01  1.0005173729623350e-01  1.0009267872934058e-01  1.0000515859528854e-01  1.0018283080058923e-01  9.9962496342103205e-02  9.9933548137162515e-02  9.9961200003271952e-02  9.9963242345978559e-02  9.9949502964421094e-02  9.9978134494509360e-02  9.9972384217268492e-02  9.9949643164735286e-02  9.9991300865811358e-02  9.9970455465933139e-02  9.9979438832352427e-02  9.9985523763544679e-02  9.9987326517341865e-02  9.9987237302233509e-02  9.9995601273311280e-02  9.9994885711150880e-02  9.9996262196194813e-02  1.0000068575053703e-01  1.0000110922403013e-01  1.0000196867014306e-01  1.0000481844255847e-01  1.0000545298804707e-01  1.0000610698257131e-01  1.0000872427076998e-01  1.0000869444565953e-01  1.0001142591635223e-01  1.0001022066004057e-01  1.0001629317045824e-01  1.0000864103652779e-01  1.0002542048422154e-01  1.0000000000000003e-01  1.0000483291243616e-01  1.0000000000000003e-01  1.0000395730003613e-01  1.0000557150506176e-01  1.0000601496102127e-01  1.0000835558061991e-01  1.0000823384899243e-01  1.0000954951912680e-01  1.0001255263068755e-01  1.0001181761858279e-01  1.0001357378180159e-01  1.0001829993282595e-01  1.0001704645591589e-01  1.0001896118029056e-01  1.0002553984787647e-01  1.0001963425459207e-01  1.0002773588472465e-01  1.0002144554919540e-01  1.0003690583835501e-01  1.0002989963606798e-01  1.0004154391496167e-01  1.0003231480993591e-01  1.0004288419699413e-01  1.0005118867541699e-01  1.0004981683796013e-01  1.0005240597154828e-01  1.0007591545637441e-01  1.0004588089380989e-01  1.0009757978696411e-01  1.0001365758677541e-01  1.0017557927094980e-01  9.9978226718292013e-02  9.9923081016078844e-02  9.9944094652754570e-02  9.9949946111014654e-02  9.9963804243188695e-02  9.9964494378799409e-02  9.9955184737083674e-02  9.9982723826171266e-02  9.9956583939624630e-02  9.9978772899072921e-02  9.9976476678739337e-02  9.9982916007782335e-02  9.9977602948558481e-02  9.9990787799125042e-02  9.9988475468996835e-02  9.9990603527491839e-02  9.9996323442459609e-02  9.9996512435224186e-02  9.9997256399553522e-02  1.0000156693114697e-01  1.0000169841865944e-01  1.0000276672824079e-01  1.0000507435789968e-01  1.0000637622495884e-01  1.0000649155354262e-01  1.0001012618969699e-01  1.0000844736399517e-01  1.0001452518003533e-01  1.0000752126724900e-01  1.0002357482354758e-01  1.0000000000000003e-01  1.0000539474824871e-01  1.0000000000000003e-01  1.0000393697036512e-01  1.0000610670190786e-01  1.0000747377487497e-01  1.0000811100033108e-01  1.0000917296737376e-01  1.0001211535267851e-01  1.0001182293709479e-01  1.0001310943113947e-01  1.0001697082525218e-01  1.0001633098431328e-01  1.0001840833192183e-01  1.0002421927153141e-01  1.0002114763933853e-01  1.0002538938978585e-01  1.0002942200933092e-01  1.0003003606815149e-01  1.0002007414089704e-01  1.0005128905984249e-01  1.0003174001162045e-01  1.0004088415561219e-01  1.0005006636778635e-01  1.0004177199128318e-01  1.0005462787846223e-01  1.0006170496078284e-01  1.0006475808772458e-01  1.0005267037324447e-01  1.0010323419787250e-01  1.0001023705835174e-01  1.0017444482678972e-01  9.9968365527106015e-02  9.9935102609502030e-02  9.9933044141638117e-02  9.9964999653734440e-02  9.9951092433439956e-02  9.9949588240207513e-02  9.9971476039713514e-02  9.9967257304938453e-02  9.9968420838878677e-02  9.9966538510298811e-02  9.9985178339924638e-02  9.9968566074805670e-02  9.9988615332843409e-02  9.9982038146896074e-02  9.9985714223476324e-02  9.9992404005068841e-02  9.9993110578958794e-02  9.9993531428762952e-02  9.9998881293367772e-02  9.9999033061500583e-02  1.0000005287545756e-01  1.0000357887623283e-01  1.0000385316892287e-01  1.0000525135765412e-01  1.0000686387386870e-01  1.0000932203278930e-01  1.0000795107245947e-01  1.0001438931201249e-01  1.0000745887444837e-01  1.0002316514547165e-01  1.0000000000000003e-01  1.0000563695892854e-01  1.0000000000000003e-01  1.0000417165588789e-01  1.0000718984927399e-01  1.0000715823697572e-01  1.0000871533356183e-01  1.0001122685294676e-01  1.0001135892489617e-01  1.0001275352670000e-01  1.0001637016636146e-01  1.0001525605377849e-01  1.0001734108625003e-01  1.0002257771058327e-01  1.0002051869002539e-01  1.0002354363905899e-01  1.0002977393792255e-01  1.0002764283313609e-01  1.0002786844082107e-01  1.0004269880349885e-01  1.0001993297769171e-01  1.0005153883577964e-01  1.0004703787037918e-01  1.0004261296251271e-01  1.0004622089147658e-01  1.0006445066136598e-01  1.0004783395973475e-01  1.0006989440968700e-01  1.0006224434485397e-01  1.0008957906589408e-01  1.0001880751879388e-01  1.0017424395377934e-01  9.9958658555828292e-02  9.9924037298503937e-02  9.9945530221551629e-02  9.9955366833900050e-02  9.9938513689296099e-02  9.9963535607189694e-02  9.9958653383995802e-02  9.9958416351884807e-02  9.9974480525876930e-02  9.9978453402734924e-02  9.9956920973164859e-02  9.9991141672808828e-02  9.9974611268176722e-02  9.9981809261543458e-02  9.9986297398567237e-02  9.9989054361037596e-02  9.9988151336257797e-02  9.9995684151577433e-02  9.9995444583440868e-02  9.9996301239758681e-02  1.0000047678477886e-01  1.0000145045475095e-01  1.0000193185917722e-01  1.0000537431259267e-01  1.0000531512933315e-01  1.0000792656881297e-01  1.0000752228414256e-01  1.0001315641932611e-01  1.0000666797627099e-01  1.0002197454434629e-01  1.0000000000000003e-01  1.0000586948257262e-01  1.0000000000000003e-01  1.0000462002651286e-01  1.0000686084328614e-01  1.0000738006425311e-01  1.0001008395195628e-01  1.0001031856062109e-01  1.0001182964488715e-01  1.0001513880274179e-01  1.0001464812796958e-01  1.0001610638224467e-01  1.0002077600610726e-01  1.0001917581834883e-01  1.0002148107139675e-01  1.0002766738595002e-01  1.0002522700415362e-01  1.0002802858540781e-01  1.0003794301229346e-01  1.0002889092702068e-01  1.0004034225439089e-01  1.0003327058265886e-01  1.0005213400037964e-01  1.0004509126600139e-01  1.0005950349289139e-01  1.0004779244921272e-01  1.0005426640368142e-01  1.0007900295031315e-01  1.0004710625277302e-01  1.0009212257452282e-01  1.0003117826965618e-01  1.0015419786533709e-01  9.9974159766628767e-02  9.9900558905323567e-02  9.9939657300002094e-02  9.9944220087176031e-02  9.9951673252545642e-02  9.9955586466827243e-02  9.9948211688860908e-02  9.9967784963632220e-02  9.9969383755464991e-02  9.9965422307238330e-02  9.9985171435854017e-02  9.9966433728768747e-02  9.9983631228532391e-02  9.9980416324337060e-02  9.9987068748351463e-02  9.9981933003629300e-02  9.9992850207498360e-02  9.9991664089788573e-02  9.9992954138398649e-02  9.9998179826271044e-02  9.9998484993338563e-02  9.9999313683169139e-02  1.0000311129991739e-01  1.0000414192598740e-01  1.0000433483508667e-01  1.0000820568961818e-01  1.0000689211319459e-01  1.0001231634046513e-01  1.0000668415207663e-01  1.0002117822592878e-01  1.0000000000000003e-01  1.0000623000942065e-01  1.0000000000000003e-01  1.0000441252264797e-01  1.0000700799803523e-01  1.0000830016428426e-01  1.0000936364002330e-01  1.0001051763159928e-01  1.0001364422516408e-01  1.0001366977406949e-01  1.0001507180712174e-01  1.0001893825003215e-01  1.0001827403675084e-01  1.0001977521320307e-01  1.0002514473542690e-01  1.0002312170954875e-01  1.0002560225156079e-01  1.0003414015733474e-01  1.0002915214649327e-01  1.0003513746208430e-01  1.0004104402113137e-01  1.0004104888777549e-01  1.0002725353913011e-01  1.0007209456227864e-01  1.0004118669075535e-01  1.0005786019760390e-01  1.0006389357031606e-01  1.0006009292691581e-01  1.0005177092579236e-01  1.0010240411490105e-01  1.0001563717331974e-01  1.0015237194557809e-01  9.9982168196914314e-02  9.9892562236630358e-02  9.9924286758989025e-02  9.9956504846849856e-02  9.9947543594662513e-02  9.9944852360195943e-02  9.9959630346093051e-02  9.9962586036995982e-02  9.9957331038412631e-02  9.9977157648380527e-02  9.9975662193927881e-02  9.9977608853559122e-02  9.9972975306175049e-02  9.9990384919785250e-02  9.9975227716461501e-02  9.9991325127358852e-02  9.9986653586717794e-02  9.9989301513379550e-02  9.9994790124359412e-02  9.9995982578531789e-02  9.9996085666121434e-02  1.0000080126913266e-01  1.0000111930441680e-01  1.0000272904249180e-01  1.0000501165504062e-01  1.0000721530282115e-01  1.0000597518892139e-01  1.0001212073849299e-01  1.0000613467228489e-01  1.0002007294568392e-01  1.0000000000000003e-01  1.0000613098976646e-01  1.0000000000000003e-01  1.0000425679016775e-01  1.0000748378500250e-01  1.0000747172409490e-01  1.0000918684181247e-01  1.0001159762590990e-01  1.0001208330935787e-01  1.0001349149035178e-01  1.0001700754098168e-01  1.0001638842738554e-01  1.0001813772812455e-01  1.0002285854780031e-01  1.0002098662737796e-01  1.0002275754052235e-01  1.0002980747971910e-01  1.0002677915465624e-01  1.0003033505859801e-01  1.0003937515988788e-01  1.0003524620755305e-01  1.0003563519395624e-01  1.0005580159696216e-01  1.0002485393535226e-01  1.0006491075130114e-01  1