<?xml version="1.0"?>
<VTKFile type="UnstructuredGrid"  version="0.1"  >
<UnstructuredGrid>
<Piece  NumberOfPoints="1933" NumberOfCells="3640">
<Points>
<DataArray  type="Float64"  NumberOfComponents="3"  format="ascii">-0.2935438004801894 -0.003217527518201255 0  4.70645625611703 -0.003130140188188549 0  4.706325141160118 7.4968699836215 0  -0.2936749286962375 7.496782576851559 0  9.706456357098483 -0.003042839222998344 0  9.706325251938338 7.496957283127089 0  14.70645654853216 -0.002955597808205018 0  14.70632541702809 7.497044517914579 0  19.70645686437712 -0.002868363175180713 0  19.70632564540338 7.497131745667733 0  24.70645732616913 -0.00278107064460134 0  24.70632594155103 7.497219032398822 0  29.70645794506331 -0.00269364961662413 0  29.70632630497987 7.497306448834842 0  34.70645872392828 -0.002606025770731128 0  34.70632672984679 7.497394069043654 0  39.70645965886875 -0.002518121352669462 0  39.7063272046266 7.497481970432718 0  44.70646074008552 -0.002429854428256749 0  44.70632771167737 7.497570234581814 0  49.70646195212061 -0.002341137513493942 0  49.70632822657326 7.497658948623047 0  54.7064632735456 -0.002251875747984408 0  54.70632871710193 7.497748207045263 0  59.70646467611007 -0.002161964641126046 0  59.70632914182583 7.497838113906015 0  64.70646612331696 -0.00207128732974063 0  64.7063294480856 7.497928785509962 0  69.70646756831538 -0.001979711210348912 0  69.70632956928711 7.498020353676763 0  74.70646895091728 -0.001887083728943213 0  74.70632942124928 7.498112969786304 0  79.70647019340304 -0.001793227008709723 0  79.70632889729917 7.498206809866403 0  84.7064711945816 -0.001697930853132388 0  84.70632786168278 7.498302081082088 0  89.70647182122211 -0.001600943454530416 0  89.70632614069326 7.498399030100376 0  94.70647189540834 -0.001501958835050888 0  94.70632351072177 7.498497953927884 0  99.70647117535624 -0.001400599609853807 0  99.70631968224339 7.498599213908808 0  104.7064693254722 -0.001296393055366429 0  104.706314278631 7.498703253510049 0  109.7064658682133 -0.001188737695524709 0  109.7063068089626 7.498810620011616 0  114.706460104487 -0.001076856853641679 0  114.7062966352603 7.498921988578931 0  119.7064509785598 -0.0009597355222382596 0  119.7062829383742 7.49903818287077 0  124.7064368435594 -0.0008360395748966814 0  124.7062646962981 7.499160175986131 0  129.7064150467565 -0.000704027971235942 0  129.7062407110347 7.499289032204083 0  134.7063811853959 -0.0005615076061821237 0  134.7062097698593 7.499425700206388 0  139.7063277561073 -0.0004060055201845 0  139.7061711341398 7.499570471684052 0  144.7062416743391 -0.0002357551495706075 0  144.70612577852 7.499721773978047 0  149.7060996026695 -5.368687415958263e-05 0  149.7060793168488 7.499873999303793 0  159.7061073738527 1.018724194326284e-18 0  164.7061052537907 -6.154994331117939e-05 0  164.7061090423379 7.499920989268068 0  159.7061000408092 7.499959943060069 0  169.7061263251511 -8.373892315685406e-05 0  169.7061177046025 7.499907896380461 0  174.7061555425978 -7.873930559660963e-05 0  174.7061285652402 7.499917098846565 0  179.7061862152035 -5.426696213905057e-05 0  179.7061412837436 7.499943654801926 0  184.7062154442123 -1.561588475826924e-05 0  184.7061549676563 7.499983374782713 0  189.70624209774 3.349456432945654e-05 0  189.7061688205198 7.50003304320759 0  194.7062658637925 9.041891079986504e-05 0  194.7061822763656 7.50009026128789 0  199.7062867984848 0.0001532522962373633 0  199.7061949813643 7.500153249377313 0  204.7063051099873 0.0002206039834473811 0  204.7062067408351 7.50022068163379 0  209.7063210563703 0.000291443352389843 0  209.7062174687541 7.500291561598157 0  214.7063348987326 0.0003649950214412092 0  214.706227148864 7.50036513213245 0  219.7063468810762 0.0004406669624000646 0  219.7062358073318 7.500440811099123 0  224.7063572229893 0.0005180006963099637 0  224.7062434944738 7.500518145469965 0  229.7063661183255 0.0005966363112000939 0  229.7062502729679 7.500596778392833 0  234.7063737365637 0.0006762875128608207 0  234.7062562104935 7.500676425329746 0  239.7063802252525 0.000756723551858218 0  239.7062613753057 7.500756856570253 0  244.7063857127986 0.0008377559369693147 0  244.7062658337336 7.500837884267939 0  249.7063903112625 0.0009192285425372343 0  249.7062696489207 7.500919352730604 0  254.7063941190465 0.001001010177227692 0  254.7062728803746 7.501001131096301 0  259.7063972234402 0.001082988991754375 0  259.7062755840246 7.501083107805949 0  264.7063997030644 0.001165068320789155 0  264.7062778126081 7.501165186483392 0  269.7064016302339 0.001247163718532036 0  269.7062796162507 7.501247282985246 0  274.7064030733093 0.00132920108673567 0  274.7062810431365 7.501329323508923 0  279.7064040990465 0.001411115932409155 0  279.7062821401842 7.501411243764169 0  284.7064047749292 0.001492853953570002 0  284.7062829536343 7.501492989335782 0  289.7064051713121 0.001574373361505538 0  289.7062835294352 7.501574517499369 0  294.7064053629871 0.001655649631509272 0  294.7062839133624 7.501655800897757 0  299.7064054291722 0.001736683724291005 0  299.706284150861 7.501736833622508 0  304.7064054498434 0.001817515053015964 0  304.7062842870272 7.501817640344746 0  309.7064054938746 0.001898239537012823 0  309.7062843681056 7.501898289369517 0  4.706193853748514 14.99687023424256 0  -0.2938062124743405 14.99678282761346 0  9.706193934474078 14.99695749890819 0  14.70619403434226 14.99704469294873 0  19.70619415147405 14.99713188345658 0  24.70619428027155 14.99721913824436 0  29.70619441183267 14.99730652708462 0  34.70619453351527 14.99739412223744 0  39.70619462821507 14.99748199911892 0  44.70619467351436 14.99757023729459 0  49.70619464070431 14.99765892180563 0  54.70619449363037 14.99774814481485 0  59.70619418729073 14.99783800758304 0  64.70619366611761 14.99792862281661 0  69.70619286186516 14.99802011745653 0  74.70619169104086 14.9981126360024 0  79.70619005183387 14.99820634447807 0  84.70618782055456 14.99830143513287 0  89.70618484771973 14.99839813191014 0  94.70618095418165 14.99849669653867 0  99.70617592817941 14.99859743470132 0  104.7061695251269 14.99870070087931 0  109.7061614735609 14.99880689874101 0  114.7061514934703 14.9989164705684 0  119.70613933768 14.99902986284501 0  124.7061248735514 14.99914744355504 0  129.7061082303911 14.99926932673416 0  134.706090043827 14.99939502775863 0  139.7060718188016 14.99952282773254 0  144.706056370282 14.99964867396262 0  149.7060480843308 14.99976437808751 0  164.7060802400322 14.99987242864646 0  159.7060731509277 14.99987076126057 0  169.7060831212198 14.99988239637938 0  174.7060851660326 14.99990404342361 0  179.7060878565086 14.99993722136887 0  184.7060915760772 14.9999804437988 0  189.7060962166562 15.00003195016565 0  194.7061015037279 15.00009011709898 0  199.7061071462047 15.00015357840625 0  204.7061128950642 15.00022122958306 0  209.7061185588146 15.00029219329179 0  214.7061240006251 15.00036577686935 0  219.7061291290954 15.0004414332593 0  224.7061338880333 15.00051872859603 0  229.7061382473521 15.0005973165114 0  234.7061421957214 15.00067691819561 0  239.7061457349313 15.00075730705781 0  244.7061488757254 15.00083829695079 0  249.7061516347999 15.00091973312691 0  254.7061540326893 15.00100148528781 0  259.7061560923125 15.00108344226102 0  264.7061578379842 15.001165507971 0  269.7061592947615 15.00124759848377 0  274.7061604880091 15.00132963999222 0  279.7061614431015 15.00141156768243 0  284.7061621852557 15.0014933254759 0  289.7061627394849 15.00157486666842 0  294.7061631308777 15.00165615545162 0  299.7061633855351 15.00173716915376 0  304.7061635329386 15.00181790065537 0  309.7061636111169 15.00189835963463 0  4.706062571704881 22.49687065603097 0  -0.293937488188602 22.49678333756022 0  9.706062624542772 22.4969578270166 0  14.7060626659198 22.49704493159838 0  19.70606268834225 22.49713204106019 0  24.70606268172901 22.49721922300439 0  29.70606263358207 22.49730654464402 0  34.70606252869745 22.49739407462901 0  39.70606234860217 22.49748188430448 0  44.70606207085704 22.49757004884194 0  49.70606166829468 22.497658648435 0  54.70606110821643 22.49774776963567 0  59.70606035156 22.49783750686066 0  64.70605935205927 22.49792796407707 0  69.70605805544658 22.49801925665738 0  74.70605639880399 22.49811151336492 0  79.70605431026141 22.49820487836858 0  84.70605170937986 22.49829951307061 0  89.7060485087906 22.4983955973188 0  94.70604461800494 22.49849332919763 0  99.70603995082556 22.49859292193754 0  104.7060344385167 22.49869459537428 0  109.7060280518357 22.49879855756256 0  114.7060208360818 22.49890496925516 0  119.7060129640598 22.4990138796326 0  124.7060048112658 22.49912511583279 0  129.7059970533495 22.49923810257122 0  134.7059907736298 22.49935158597481 0  139.7059875409186 22.49946325103491 0  144.7059893665273 22.49956928992358 0  149.7059983749075 22.49966419155963 0  164.7060241404351 22.49981622257271 0  159.706020107895 22.49978604193537 0  169.7060244368722 22.49984729727518 0  174.7060228216466 22.49988311668218 0  179.7060207139735 22.49992530112211 0  184.7060189428965 22.49997406357756 0  189.7060178754618 22.50002890044181 0  194.7060175926084 22.50008902736435 0  199.7060180250581 22.50015361178857 0  204.7060190397125 22.50022188039794 0  209.7060204884058 22.50029315884533 0  214.7060222324157 22.50036687815105 0  219.7060241527941 22.50044256645553 0  224.7060261530346 22.50051983560255 0  229.7060281579649 22.50059836702947 0  234.706030111057 22.50067789885972 0  239.7060319713014 22.50075821483293 0  244.7060337102095 22.500839135129 0  249.7060353091708 22.5009205089095 0  254.7060367572392 22.50100220833088 0  259.7060380493114 22.50108412378921 0  264.7060391846696 22.50116616018908 0  269.7060401658097 22.50124823406923 0  274.7060409975282 22.50133027145204 0  279.7060416862386 22.50141220630292 0  284.7060422395429 22.50149397947928 0  289.706042666146 22.50157553799607 0  294.7060429763025 22.5016568343032 0  299.7060431830732 22.50173782
[...]
<PointData  Scalars="p"> 
<DataArray  type="Float64"  Name="p"  format="ascii">1.0000000000000001e-01  1.0000000000000003e-01  9.9996279285247625e-02  1.0000000000000003e-01  1.0000000000000003e-01  9.9996371139979195e-02  1.0000000000000003e-01  9.9994517281609324e-02  1.0000000000000003e-01  9.9993884699951560e-02  1.0000000000000003e-01  9.9992605719641234e-02  1.0000000000000003e-01  9.9990003048975096e-02  1.0000000000000003e-01  9.9989203074355881e-02  1.0000000000000003e-01  9.9987422591965261e-02  1.0000000000000003e-01  9.9984441830836518e-02  1.0000000000000003e-01  9.9984948320551867e-02  1.0000000000000003e-01  9.9975753197055720e-02  1.0000000000000003e-01  9.9972296712945344e-02  1.0000000000000003e-01  9.9967493726077661e-02  1.0000000000000003e-01  9.9964054550241099e-02  1.0000000000000003e-01  9.9955705237503550e-02  1.0000000000000003e-01  9.9952660076744582e-02  1.0000000000000003e-01  9.9946046952776507e-02  1.0000000000000003e-01  9.9936088483704388e-02  1.0000000000000003e-01  9.9932729883305163e-02  1.0000000000000003e-01  9.9921854793798198e-02  1.0000000000000003e-01  9.9914927892359964e-02  1.0000000000000003e-01  9.9902627448560100e-02  1.0000000000000003e-01  9.9903554900205374e-02  1.0000000000000003e-01  9.9874233258693421e-02  1.0000000000000003e-01  9.9897778902972037e-02  1.0000000000000003e-01  9.9838707728627976e-02  1.0000000000000003e-01  9.9901746178173947e-02  1.0000000000000003e-01  9.9791186416375660e-02  1.0000000000000003e-01  9.9919744419704790e-02  1.0000000000000001e-01  9.9713646959020269e-02  1.0000000000000001e-01  1.0000000000000003e-01  1.0019940771627756e-01  1.0044706469862232e-01  1.0000000000000003e-01  1.0004302068177692e-01  1.0000000000000003e-01  1.0015489117206368e-01  1.0000000000000003e-01  1.0009156134947149e-01  1.0000000000000003e-01  1.0010891720341319e-01  1.0000000000000003e-01  1.0009217627802257e-01  1.0000000000000003e-01  1.0009805815257197e-01  1.0000000000000003e-01  1.0008383277104721e-01  1.0000000000000003e-01  1.0008509892009392e-01  1.0000000000000003e-01  1.0007978483309342e-01  1.0000000000000003e-01  1.0007537098173591e-01  1.0000000000000003e-01  1.0007220094042105e-01  1.0000000000000003e-01  1.0006997296664424e-01  1.0000000000000003e-01  1.0006589175625616e-01  1.0000000000000003e-01  1.0006400260581653e-01  1.0000000000000003e-01  1.0006196946254065e-01  1.0000000000000003e-01  1.0005948534494291e-01  1.0000000000000003e-01  1.0005783819321601e-01  1.0000000000000003e-01  1.0005663511005604e-01  1.0000000000000003e-01  1.0005461973819157e-01  1.0000000000000003e-01  1.0005398714421933e-01  1.0000000000000003e-01  1.0005216745576165e-01  1.0000000000000003e-01  1.0005240736437049e-01  1.0000000000000003e-01  1.0004916574978767e-01  1.0000000000000003e-01  1.0005262878555260e-01  1.0000000000000003e-01  1.0004465526466887e-01  1.0000000000000003e-01  1.0005611085345507e-01  1.0000000000000003e-01  1.0003544078100976e-01  1.0000000000000003e-01  1.0007041103347129e-01  1.0000000000000001e-01  1.0000000000000003e-01  9.9993117705265699e-02  1.0000000000000003e-01  9.9993607032477436e-02  9.9993214932699942e-02  9.9992324222361886e-02  9.9989700024986874e-02  9.9989991323820401e-02  9.9989357303293308e-02  9.9985415599723362e-02  9.9987478074093722e-02  9.9985720369434899e-02  9.9983196312377384e-02  9.9972827624041374e-02  9.9977147454899495e-02  9.9966844205582078e-02  9.9971821562513885e-02  9.9967063695681771e-02  9.9959042419877256e-02  9.9960786361114773e-02  9.9957060986399657e-02  9.9944429997290529e-02  9.9951102120145532e-02  9.9938854504363656e-02  9.9939018748272962e-02  9.9925358591970936e-02  9.9946982868079556e-02  9.9890454468875636e-02  9.9981255132543745e-02  9.9820615761727294e-02  1.0006600583963032e-01  9.9710215543836522e-02  9.9798425426381884e-02  1.0066041574925690e-01  1.0021656765951309e-01  1.0002839326976348e-01  1.0006051012083596e-01  1.0004846069384418e-01  1.0007043213372765e-01  1.0004070539439622e-01  1.0005444859601427e-01  1.0004927513902595e-01  1.0004278023235072e-01  1.0004212585930958e-01  1.0004207806129045e-01  1.0003571126702634e-01  1.0003547249505591e-01  1.0003445809301975e-01  1.0003083314622055e-01  1.0003007063830928e-01  1.0002927828909765e-01  1.0002693473424243e-01  1.0002596589201440e-01  1.0002559495856569e-01  1.0002327356669136e-01  1.0002363144650613e-01  1.0002104408213737e-01  1.0002305867949855e-01  1.0001673702010430e-01  1.0002621330614747e-01  1.0000795492745145e-01  1.0003457621465792e-01  1.0000000000000003e-01  9.9989471567570973e-02  1.0000000000000003e-01  9.9993282546500029e-02  9.9990153188111483e-02  9.9987544244285284e-02  9.9987335119038942e-02  9.9986628166819844e-02  9.9980968710338153e-02  9.9982414082301241e-02  9.9981762385737083e-02  9.9975657382155886e-02  9.9974024326459451e-02  9.9979985594660120e-02  9.9951206801346698e-02  9.9963168174774589e-02  9.9956594231562140e-02  9.9944909210326296e-02  9.9950128700403901e-02  9.9943729225611330e-02  9.9927540684904448e-02  9.9932663355163043e-02  9.9926584350282094e-02  9.9903513789993945e-02  9.9920276887614443e-02  9.9892996072519405e-02  9.9906477251312631e-02  9.9866532575404704e-02  9.9933956870941809e-02  9.9783866622879774e-02  1.0005578504276118e-01  9.9547227662513185e-02  9.9881123693062998e-02  1.0057402369746607e-01  1.0031591853181197e-01  1.0006114118679391e-01  1.0008381847179085e-01  1.0013428573854244e-01  1.0005730873683710e-01  1.0010056453905099e-01  1.0008784237228818e-01  1.0007508745764065e-01  1.0007593301086096e-01  1.0007759224217581e-01  1.0006457775740528e-01  1.0006580342378130e-01  1.0006419877901612e-01  1.0005697391370541e-01  1.0005609996757801e-01  1.0005526722388745e-01  1.0005032878882753e-01  1.0004953774362142e-01  1.0004834549952382e-01  1.0004549822136127e-01  1.0004389327348215e-01  1.0004387494735219e-01  1.0003995500281736e-01  1.0004187534123887e-01  1.0003601150988582e-01  1.0004282341530306e-01  1.0002679812662334e-01  1.0005473430223361e-01  1.0000000000000003e-01  9.9987159665147041e-02  1.0000000000000003e-01  9.9991960249255649e-02  9.9985877599233761e-02  9.9986774881919357e-02  9.9985903118899641e-02  9.9979870929547590e-02  9.9981381684987464e-02  9.9980708357486361e-02  9.9973233477140100e-02  9.9976210295258980e-02  9.9976172505369401e-02  9.9959899496313828e-02  9.9976815543425232e-02  9.9951288216328427e-02  9.9947242093431921e-02  9.9951224836365593e-02  9.9950325394976086e-02  9.9930788991147740e-02  9.9942793178053449e-02  9.9932498974759879e-02  9.9916681827929010e-02  9.9921365224048028e-02  9.9922869471295500e-02  9.9885110487966430e-02  9.9931606151325000e-02  9.9859674998718229e-02  9.9955748737412864e-02  9.9779940381669860e-02  1.0009285063617133e-01  9.9521593096912858e-02  9.9890254286520111e-02  1.0071898324896345e-01  1.0020132302409525e-01  1.0002636661280710e-01  1.0022810921760539e-01  9.9996020272161992e-02  1.0011268072348396e-01  1.0007836064234175e-01  1.0007106298701346e-01  1.0006954623515447e-01  1.0007850223734994e-01  1.0005725293155844e-01  1.0006269954725680e-01  1.0006128222744266e-01  1.0005162722917911e-01  1.0005109956166949e-01  1.0005071164523235e-01  1.0004390039244826e-01  1.0004329658974585e-01  1.0004255031448606e-01  1.0003805529052651e-01  1.0003744004587606e-01  1.0003580653804188e-01  1.0003396934785207e-01  1.0003095502106331e-01  1.0003313140291598e-01  1.0002531426942382e-01  1.0003413743621840e-01  1.0001647499645271e-01  1.0004193675981320e-01  1.0000000000000003e-01  9.9984792170743936e-02  1.0000000000000003e-01  9.9989281574604655e-02  9.9985175392371742e-02  9.9985959910000768e-02  9.9978990174284119e-02  9.9980701550256942e-02  9.9979305632837412e-02  9.9970975932751283e-02  9.9974285381029149e-02  9.9974206898760756e-02  9.9959981166038409e-02  9.9968361241603104e-02  9.9960532419219567e-02  9.9959758153219461e-02  9.9939915516459144e-02  9.9947780700550673e-02  9.9924551024746261e-02  9.9939853415814059e-02  9.9932380177429628e-02  9.9908358174253351e-02  9.9925373617813770e-02  9.9909947054211648e-02  9.9895447102280280e-02  9.9893497332818076e-02  9.9913920817855204e-02  9.9837510075254834e-02  9.9957662257259827e-02  9.9750909306164495e-02  1.0010617733317387e-01  9.9447115034383915e-02  9.9764021254947668e-02  1.0080751330247560e-01  1.0027081090554775e-01  1.0010138007434025e-01  1.0011627646006660e-01  1.0013715936955198e-01  1.0009488321129435e-01  1.0008853482354620e-01  1.0007835575804612e-01  1.0010640490290855e-01  1.0006749992996530e-01  1.0008076385845277e-01  1.0007901588994973e-01  1.0006512142042734e-01  1.0006555519187144e-01  1.0006641374223926e-01  1.0005558344269626e-01  1.0005551996590555e-01  1.0005481067914890e-01  1.0004851113892234e-01  1.0004740420794393e-01  1.0004690007054191e-01  1.0004204349661240e-01  1.0004183046276051e-01  1.0003901695336888e-01  1.0003885978667834e-01  1.0003282626766252e-01  1.0003994625740800e-01  1.0002271069988640e-01  1.0004894686844522e-01  1.0000000000000003e-01  9.9982001125647299e-02  1.0000000000000003e-01  9.9989025108299143e-02  9.9983988388672937e-02  9.9980648336011932e-02  9.9980042823099205e-02  9.9979519786611612e-02  9.9971020807441371e-02  9.9973159390806490e-02  9.9973376328013938e-02  9.9961278563160796e-02  9.9966080378374789e-02  9.9963392098290499e-02  9.9950746113400948e-02  9.9953092426560641e-02  9.9969461781912669e-02  9.9913013194052977e-02  9.9942142217697372e-02  9.9931369300956377e-02  9.9910650321848038e-02  9.9926070636041753e-02  9.9921456194997108e-02  9.9885094274068734e-02  9.9918126748183483e-02  9.9886775266031527e-02  9.9894341089166908e-02  9.9853495773032055e-02  9.9957232304488081e-02  9.9726226920923811e-02  1.0014460253486636e-01  9.9388279485013248e-02  9.9790236616076555e-02  1.0076788140955011e-01  1.0033365291832538e-01  9.9990846559747298e-02  1.0015679967874776e-01  1.0012637411880142e-01  1.0013662099471962e-01  1.0004664703098076e-01  1.0013330932145326e-01  1.0005454011199273e-01  1.0008991207134217e-01  1.0008428977144473e-01  1.0006721672100916e-01  1.0006786351102623e-01  1.0007210777892414e-01  1.0005648593914208e-01  1.0005807224873327e-01  1.0005775676058672e-01  1.0004851785620864e-01  1.0004807832067170e-01  1.0004761247406507e-01  1.0004183257654685e-01  1.0004038278048999e-01  1.0004039343301500e-01  1.0003467389607681e-01  1.0003642879377315e-01  1.0002989433535966e-01  1.0003612945759037e-01  1.0001957414353921e-01  1.0004401547674457e-01  1.0000000000000003e-01  9.9980484687719764e-02  1.0000000000000003e-01  9.9988533151148584e-02  9.9979225833881830e-02  9.9981418200972838e-02  9.9979308739981620e-02  9.9971993738468282e-02  9.9972868658978239e-02  9.9973080495543168e-02  9.9961108574672025e-02  9.9966137561165791e-02  9.9964287417423053e-02  9.9948279372780821e-02  9.9954922618127620e-02  9.9958768106527471e-02  9.9929105014226388e-02  9.9964376091944779e-02  9.9920661509351791e-02  9.9909389402748808e-02  9.9924615684062620e-02  9.9920316042359902e-02  9.9889933599449476e-02  9.9909982507940531e-02  9.9908232983826617e-02  9.9856568833654138e-02  9.9916922883970694e-02  9.9842758252622094e-02  9.9931852966437015e-02  9.9737649597929676e-02  1.0014576404460239e-01  9.9334190901772618e-02  9.9815146549069866e-02  1.0083432426293416e-01  1.0026511953833053e-01  1.0002937874682624e-01  1.0020047257328069e-01  1.0007459479476362e-01  1.0011680114267343e-01  1.0017482042657977e-01  1.0004297246742129e-01  1.0010675694268821e-01  1.0009056667149256e-01  1.0007912031111503e-01  1.0007481992311214e-01  1.0008548848093701e-01  1.0006296610502953e-01  1.0006685561679210e-01  1.0006750458129367e-01  1.0005585766175679e-01  1.0005498336531782e-01  1.0005527583671753e-01  1.0004698863725435e-01  1.0004654494061641e-01  1.0004523298869777e-01  1.0004104036068742e-01  1.0003819411980210e-01  1.0003956902090919e-01  1.0003153531387203e-01  1.0003835055062041e-01  1.0002197585398491e-01  1.0004582793854254e-01  1.0000000000000003e-01  9.9979076039363721e-02  1.0000000000000003e-01  9.9986021606091102e-02  9.9979503662448704e-02  9.9981140969069349e-02  9.9972934730162832e-02  9.9974271754596333e-02  9.9973352740674107e-02  9.9962453329587198e-02  9.9966455578624325e-02  9.9965983292396851e-02  9.9949683879296564e-02  9.9956075913876355e-02  9.9956316288350722e-02  9.9933513044601047e-02  9.9952580610680505e-02  9.9940353014122629e-02  9.9938979382348650e-02  9.9911560871889626e-02  9.9925249448738457e-02  9.9884219273982347e-02  9.9919625310000995e-02  9.9902281325789946e-02  9.9875898766551799e-02  9.9888103992790425e-02  9.9911038550175774e-02  9.9810129073045220e-02  9.9962505683049152e-02  9.9724331284491735e-02  1.0013621876868949e-01  9.9323142789284335e-02  9.9736093170324988e-02  1.0090338782879950e-01  1.0030415972617569e-01  1.0006503002438674e-01  1.0013969141056193e-01  1.0008403949933092e-01  1.0016261627356737e-01  1.0008211800318123e-01  1.0014589981163520e-01  1.0007558595867826e-01  1.0009316578057915e-01  1.0006875112736982e-01  1.0009939116994912e-01  1.0006324753971632e-01  1.0007239584155216e-01  1.0007325319769257e-01  1.0005873970012108e-01  1.0005880240967183e-01  1.0006064568275998e-01  1.0004920284059091e-01  1.0004866914386784e-01  1.0004870293233178e-01  1.0004134249127369e-01  1.0004111339400709e-01  1.0003865245750344e-01  1.0003689746877606e-01  1.0003079383406881e-01  1.0003742609492254e-01  1.0002035332723624e-01  1.0004365143023680e-01  1.0000000000000003e-01  9.9977070412066063e-02  1.0000000000000003e-01  9.9986339473933331e-02  9.9979225347344131e-02  9.9976376921087060e-02  9.9974535042876206e-02  9.9974942666071917e-02  9.9964617765822036e-02  9.9966997989341139e-02  9.9967053851238080e-02  9.9953362060047374e-02  9.9957066525316912e-02  9.9957354113390948e-02  9.9936609727696482e-02  9.9948646937154120e-02  9.9946512796429576e-02  9.9926102159368105e-02  9.9933899375714244e-02  9.9958972497881368e-02  9.9872601687529816e-02  9.9919078611265380e-02  9.9907849213348665e-02  9.9866688086670416e-02  9.9911019854194968e-02  9.9882714045441301e-02  9.9870042096169787e-02  9.9848724108007533e-02  9.9955443234589547e-02  9.9688340339540937e-02  1.0017070480229159e-01  9.9297654816445299e-02  9.9738676052104694e-02  1.0088231824209581e-01  1.0034985559464475e-01  1.0000491077935275e-01  1.0016210559381380e-01  1.0012792170376289e-01  1.0010330696049753e-01  1.0010543986208306e-01  1.0013399028744940e-01  1.0012538598949410e-01  1.0005288662359269e-01  1.0011903599454874e-01  1.0005922722760857e-01  1.0008215907775993e-01  1.0008025756342988e-01  1.0006429249398224e-01  1.0006309741437203e-01  1.0006815533653093e-01  1.0005348924402817e-01  1.0005417163501497e-01  1.0005407496502505e-01  1.0004520067258260e-01  1.0004374371023897e-01  1.0004426780665439e-01  1.0003685019689224e-01  1.0003819680285642e-01  1.0003244767283156e-01  1.0003669541747022e-01  1.0002125753062238e-01  1.0004383587647368e-01  1.0000000000000003e-01  9.9976273957316633e-02  1.0000000000000003e-01  9.9986373296330477e-02  9.9975286992419907e-02  9.9977718042799188e-02  9.9975032890192161e-02  9.9967570676910256e-02  9.9968130648903461e-02  9.9968335849396378e-02  9.9955801310158993e-02  9.9959655208646442e-02  9.9959648696287401e-02  9.9940095765801373e-02  9.9948630600067798e-02  9.9949229371807016e-02  9.9925357268941542e-02  9.9938180997893311e-02  9.9946298933690711e-02  9.9899163231309693e-02  9.9957247433132154e-02  9.9893023840428904e-02  9.9875471639498961e-02  9.9900020698074424e-02  9.9905997938794178e-02  9.9837247782722266e-02  9.9917517585513579e-02  9.9842684918076005e-02  9.9911705028447012e-02  9.9730294069614020e-02  1.0016706843010101e-01  9.9254353809376625e-02  9.9759977987031609e-02  1.0091333194527605e-01  1.0030859936807696e-01  1.0001546313177978e-01  1.0020260038679568e-01  1.0007429664228436e-01  1.0011998232811062e-01  1.0012870727554725e-01  1.0010085100114308e-01  1.0009303517383490e-01  1.0015579662050930e-01  1.0004116026295390e-01  1.0009456910101039e-01  1.0007861629285289e-01  1.0007187072951772e-01  1.0006437635990910e-01  1.0007510659627225e-01  1.0005536907973005e-01  1.0005736918545534e-01  1.0005922734299433e-01  1.0004819355326963e-01  1.0004688156871296e-01  1.0004672301470331e-01  1.0003995919215040e-01  1.0003739780393518e-01  1.0003890126831518e-01  1.0003015035934261e-01  1.0003616938573412e-01  1.0002106662742624e-01  1.0004213570842596e-01  1.0000000000000003e-01  9.9975624323030768e-02  1.0000000000000003e-01  9.9984571945701609e-02  9.9976167637256932e-02  9.9978449264596481e-02  9.9969665819052991e-02  9.9970667533305135e-02  9.9969653018481652e-02  9.9959208132071223e-02  9.9961699842642276e-02  9.9962540749972378e-02  9.9945092606692765e-02  9.9951171708099931e-02  9.9951459735449610e-02  9.9928938028542635e-02  9.9941043782023134e-02  9.9943617828693959e-02  9.9909612576886311e-02  9.9939860193967431e-02  9.9925278348411584e-02  9.9916926711039702e-02  9.9890313653377111e-02  9.9902613781185673e-02  9.9852162715503581e-02  9.9891712036532770e-02  9.9908231112218165e-02  9.9793602275344784e-02  9.9962760575298043e-02  9.9729557421724430e-02  1.0011803822981954e-01  9.9298462289745468e-02  9.9708540118439298e-02  1.0097014364929612e-01  1.0031901693600516e-01  1.0004786966861481e-01  1.0015900451461884e-01  1.0008459392234893e-01  1.0015372435464891e-01  1.0009033891250886e-01  1.0009992805192111e-01  1.0012732545409730e-01  1.0008407588634742e-01  1.0012309637770642e-01  1.0006609876527375e-01  1.0008334401219572e-01  1.0005969494437304e-01  1.0008567728974835e-01  1.0005636332087575e-01  1.0006181871879775e-01  1.0006360085124762e-01  1.0005107046110263e-01  1.0005037517167786e-01  1.0005253262068188e-01  1.0004166491335752e-01  1.0004146129357350e-01  1.0003969637372299e-01  1.0003614923386943e-01  1.0003060145045790e-01  1.0003667338026623e-01  1.0002032028456491e-01  1.0004151485578931e-01  1.0000000000000003e-01  9.9974248922575878e-02  1.0000000000000003e-01  9.9985079617588957e-02  9.9976540338582900e-02  9.9974602664771511e-02  9.9971680351936973e-02  9.9972232404879707e-02  9.9962206649456251e-02  9.9963686969296320e-02  9.9964434951645698e-02  9.9950617924238538e-02  9.9953648243419069e-02  9.9954655616455154e-02  9.9934432849150268e-02  9.9942507427875582e-02  9.9945881377349499e-02  9.9916139300296164e-02  9.9935691473864843e-02  9.9934415619912148e-02  9.9904363332836074e-02  9.9918229785641660e-02  9.9956925510002265e-02  9.9829158627748341e-02  9.9912310222304998e-02  9.9878039720018338e-02  9.9852525947831797e-02  9.9858154334699523e-02  9.9956781861104141e-02  9.9674784125708446e-02  1.0016987936664103e-01  9.9304415492781545e-02  9.9689377099837717e-02  1.0095804811669348e-01  1.0035917736263421e-01  1.0000681356347582e-01  1.0016296241048837e-01  1.0011754776306986e-01  1.0011488865819795e-01  1.0009341926706401e-01  1.0013283096200795e-01  1.0008354221527777e-01  1.0009481059045960e-01  1.0010662584425471e-01  1.0011089965553320e-01  1.0004217083723731e-01  1.0009921507152787e-01  1.0005094234174867e-01  1.0006779815803941e-01  1.0006662579329131e-01  1.0005394827731898e-01  1.0005167776105367e-01  1.0005621875449207e-01  1.0004460369603994e-01  1.0004382676493934e-01  1.0004430930874454e-01  1.0003535847951249e-01  1.0003616140304361e-01  1.0003154938774288e-01  1.0003401861870502e-01  1.0002012335819858e-01  1.0004038639669345e-01  1.0000000000000003e-01  9.9974085263119503e-02  1.0000000000000003e-01  9.9985630184867558e-02  9.9973762290897883e-02  9.9976413220854335e-02  9.9973103711449018e-02  9.9966598657904665e-02  9.9966065414998917e-02  9.9966490157017224e-02  9.9954796453882971e-02  9.9957638714334024e-02  9.9957944012523753e-02  9.9940253445856955e-02  9.9945815541877328e-02  9.9949133351058220e-02  9.9923293439540553e-02  9.9935930644492688e-02  9.9940267740932218e-02  9.9905389343412032e-02  9.9926535257532478e-02  9.9938880208402817e-02  9.9873398683814812e-02  9.9953194551575572e-02  9.9880468606605391e-02  9