<?xml version="1.0"?>
<VTKFile type="UnstructuredGrid"  version="0.1"  >
<UnstructuredGrid>
<Piece  NumberOfPoints="1933" NumberOfCells="3640">
<Points>
<DataArray  type="Float64"  NumberOfComponents="3"  format="ascii">0.0002906022720005064 -0.002524379004741669 0  5.00029063744725 -0.002450872061018285 0  5.000180341609282 7.497549197381904 0  0.0001803037623747672 7.497475688572011 0  10.00029070476979 -0.002377408544230609 0  10.00018039825748 7.497622655136915 0  15.00029082742704 -0.002303956109643845 0  15.00018047718572 7.497696101084101 0  20.00029101796187 -0.002230472820704483 0  20.00018057857029 7.497769578876992 0  25.00029128011344 -0.002156913778083157 0  25.00018069913737 7.497843133556989 0  30.00029161087542 -0.002083233425731549 0  30.0001808319334 7.49791681038987 0  35.00029200198162 -0.002009385975678877 0  35.00018096614266 7.49799065479862 0  40.00029244074103 -0.001935324992879132 0  40.00018108686361 7.49806471287559 0  45.00029291031402 -0.001861002597039425 0  45.00018117475335 7.498139032190416 0  50.00029338952979 -0.001786368473788999 0  50.00018120547487 7.498213662759936 0  55.00029385230673 -0.001711368760025412 0  55.00018114889443 7.498288658133331 0  60.00029426669391 -0.001635944801923397 0  60.00018096797621 7.498364076596687 0  65.00029459350498 -0.001560031743970771 0  65.00018061730468 7.498439982534074 0  70.00029478446278 -0.00148355687568477 0  70.00018004114139 7.498516448007733 0  75.00029477971357 -0.001406437628841066 0  75.00017917088269 7.498593554644797 0  80.00029450447595 -0.001328579073958373 0  80.00017792173527 7.498671395946316 0  85.00029386445928 -0.001249870702289037 0  85.00017618835523 7.49875008016687 0  90.00029273945943 -0.00117018218921844 0  90.00017383911081 7.498829733946685 0  95.00029097418326 -0.00108935770573693 0  95.00017070852947 7.498910506899057 0  100.0002883647154 -0.0010072081670844 0  100.0001665874037 7.498992577326609 0  105.0002846379463 -0.0009235005851595396 0  105.0001612100265 7.499076159070476 0  110.0002794193182 -0.0008379434732926188 0  110.000154238283 7.499161508975638 0  115.000272180718 -0.0007501672255555121 0  115.0001452432656 7.499248933119656 0  120.0002621539292 -0.0006596991237751995 0  120.0001336876078 7.499338786784789 0  125.0002481833606 -0.0005659356961645119 0  125.0001189178556 7.499431456011693 0  130.0002284704339 -0.0004681248874530589 0  130.0001001900252 7.499527293053196 0  135.0002001232517 -0.0003653989388977744 0  135.0000767814014 7.499626445643488 0  140.0001583549832 -0.0002569815904159146 0  140.0000483041175 7.499728456679799 0  145.0000950455929 -0.0001429470927990951 0  145.0000154637227 7.499831406611164 0  149.9999961242286 -2.677563571630765e-05 0  149.9999817697731 7.499930305757015 0  160 1.402099821991917e-18 0  165.0000234723047 -9.368535864022584e-06 0  165.0000049959499 7.499983204670155 0  159.9999911610431 7.499982756606886 0  170.0000522627531 4.609736339984496e-06 0  170.0000186076354 7.50000124479999 0  175.0000807999655 3.439604640412454e-05 0  175.0000324685214 7.500032877627138 0  180.0001069760965 7.523198465938434e-05 0  180.0000462007766 7.500074591119449 0  185.0001301638083 0.0001239472613680129 0  185.0000593724796 7.500123729741156 0  190.0001503585138 0.0001783744620371487 0  190.0000716815545 7.500178359934222 0  195.0001677975212 0.0002370034840082907 0  195.0000829640494 7.500237083306768 0  200.0001827917444 0.0002987632467666277 0  200.000093160163 7.500298883555977 0  205.0001956539588 0.0003628805100387409 0  205.0001022782999 7.500363014699606 0  210.00020667086 0.0004287873767009049 0  210.0001103672566 7.500428922528437 0  215.0002160946193 0.0004960599206737283 0  215.0001174971281 7.500496190029018 0  220.000224142751 0.0005643768602922945 0  220.0001237470861 7.500564499419156 0  225.0002310011881 0.0006334912597237707 0  225.0001291979572 7.500633605531223 0  230.000236828314 0.000703210801982307 0  230.0001339279759 7.500703316934892 0  235.0002417589994 0.0007733837876104614 0  235.0001380105577 7.5007734823693 0  240.0002459082872 0.0008438890254776212 0  240.0001415133287 7.500843980857872 0  245.0002493746453 0.0009146284214500153 0  245.0001444979118 7.500914714414783 0  250.0002522427939 0.0009855214785863334 0  250.0001470201658 7.500985602608588 0  255.0002545861815 0.001056501187410107 0  255.0001491306848 7.501056578487717 0  260.0002564691711 0.001127510961864524 0  260.0001508754303 7.501127585535995 0  265.0002579490158 0.001198502400697509 0  265.000152296432 7.501198575442701 0  270.0002590776732 0.001269433748225141 0  270.0001534325044 7.501269506559604 0  275.0002599035225 0.001340269009094858 0  275.000154319927 7.501340342990687 0  280.0002604729899 0.001410977752172131 0  280.0001549930674 7.501411054328027 0  285.000260832078 0.001481535731269963 0  285.0001554848793 7.501481616116632 0  290.0002610276647 0.001551926566772338 0  290.0001558272377 7.501552011204693 0  295.0002611082989 0.001622144877294411 0  295.0001560510607 7.501622232208339 0  300.0002611238264 0.001692201395632517 0  300.0001561862418 7.501692285375674 0  305.0002611224886 0.001762130569454318 0  305.000156261642 7.501762196155199 0  310.0002611426708 0.001832000094315562 0  310.0001563059727 7.501832016890797 0  5.000069986551112 14.99754933191285 0  6.995297840950432e-05 14.99747585145287 0  10.00007001990544 14.99762275405275 0  15.00007005075003 14.99769616817366 0  20.00007007366519 14.99776961979195 0  25.00007008111459 14.99784315284966 0  30.00007006333722 14.99791681080063 0  35.00007000790811 14.99799063726797 0  40.00006989921057 14.99806467671183 0  45.00006971786109 14.99813897519 0  50.00006944006518 14.99821358121067 0  55.00006903686418 14.99828854667021 0  60.00006847323271 14.99836392788109 0  65.0000677069896 14.99843978670668 0  70.00006668748775 14.9985161918285 0  75.0000653540617 14.99859322017312 0  80.00006363422646 14.99867095851785 0  85.00006144167183 14.99874950526524 0  90.00005867418115 14.99882897230856 0  95.00005521178186 14.99890948676266 0  100.0000509157538 14.99899119203262 0  105.0000456297111 14.99907424709721 0  110.0000391849682 14.9991588217366 0  115.0000314140803 14.99924508328351 0  120.0000221790388 14.99933316655764 0  125.00001142426 14.99942311177378 0  129.9999992686415 14.99951474386983 0  134.9999861527856 14.99960744986977 0  139.9999730483846 14.99969979134943 0  144.9999616938724 14.99978888216541 0  149.9999546877038 14.99986950732675 0  164.9999721761083 14.99996297903926 0  159.9999661551211 14.9999418137717 0  169.9999767739763 14.99999175335964 0  174.9999813555727 15.00002879282601 0  179.999986344699 15.00007317971926 0  184.9999917187335 15.00012360475253 0  189.9999973034208 15.00017882147317 0  195.0000029060765 15.00023778126124 0  200.0000083657717 15.00029964587541 0  205.0000135655721 15.00036375988016 0  210.0000184294053 15.0004296149031 0  215.0000229140428 15.00049681688568 0  220.0000270006578 15.00056505928912 0  225.0000306875867 15.00063410221402 0  230.0000339846726 15.00070375647787 0  235.0000369090909 15.00077387157367 0  240.0000394823727 15.00084432657417 0  245.0000417283545 15.00091502324599 0  250.000043671811 15.00098588082158 0  255.0000453375778 15.00105683202609 0  260.0000467500156 15.00112782007289 0  265.0000479327074 15.00119879642923 0  270.0000489083091 15.00126971922339 0  275.0000496984887 15.00134055221849 0  280.0000503239206 15.00141126432167 0  285.000050804331 15.00148182962909 0  290.0000511586053 15.0015522280205 0  295.0000514050899 15.00162244629719 0  300.000051562303 15.00169247977747 0  305.0000516505272 15.00176233408381 0  310.0000516951042 15.00183202654551 0  4.99995971279503 22.49754953971102 0  -4.031623508649052e-05 22.4974761515665 0  9.999959729503525 22.49762288329018 0  14.99995972638484 22.49769623112917 0  19.9999596954548 22.49776962647512 0  24.99995962783397 22.49784311007924 0  29.99995951341015 22.49791672192261 0  34.99995934041388 22.49799050222816 0  39.99995909495244 22.49806449219287 0  44.9999587605403 22.49813873464026 0  49.99995831764059 22.49821327467089 0  54.99995774321685 22.49828816033359 0  59.99995701029917 22.49836344331771 0  64.99995608758186 22.4984391796546 0  69.99995493909277 22.49851543039993 0  74.99995352401638 22.49859226224447 0  79.99995179680816 22.49866974795181 0  84.99994970783621 22.49874796643906 0  89.99994720492221 22.49882700217115 0  94.99994423636907 22.49890694329306 0  99.99994075636565 22.49898787751134 0  104.9999367340735 22.49906988405986 0  109.9999321682177 22.49915301900563 0  114.999927109524 22.49923728950537 0  119.9999216935795 22.49932261029036 0  124.9999161859799 22.4994087327907 0  129.9999110385255 22.4994951349684 0  134.9999069472121 22.49958086160834 0  139.9999048860073 22.4996643199237 0  144.9999060615358 22.49974308669053 0  149.9999116983056 22.49981392377946 0  164.9999223428537 22.49993896103005 0  159.9999214792469 22.49990238989881 0  169.9999220488527 22.4999782852554 0  174.9999214528366 22.50002191838563 0  179.9999211120407 22.50007020680486 0  184.9999212701302 22.50012284344466 0  189.9999219646652 22.50017925544591 0  194.9999231265061 22.50023881580583 0  199.9999246451004 22.5003009408332 0  204.9999264047334 22.50036512565426 0  209.9999283017916 22.5004309497659 0  214.9999302511092 22.50049806983856 0  219.9999321866554 22.5005662082843 0  224.9999340596421 22.5006351414708 0  229.9999358357175 22.50070468914009 0  234.999937492083 22.5007747054922 0  239.9999390148999 22.50084507191562 0  244.9999403971105 22.50091569116705 0  249.9999416366783 22.50098648276092 0  254.9999427352051 22.50105737934558 0  259.9999436968529 22.50112832387888 0  264.9999445275187 22.50119926745431 0  269.9999452342059 22.5012701676645 0  274.9999458245547 22.50134098741471 0  279.9999463065229 22.50141169411431 0  284.9999466882264 22.50148225917186 0  289.9999469780017 22.50155265769 0  294.9999471848118 22.50162286818394 0  299.9999473191723 22.50169287200275 0
[...]
<PointData  Scalars="p"> 
<DataArray  type="Float64"  Name="p"  format="ascii">1.0000000000000001e-01  1.0000000000000003e-01  9.9996101360901507e-02  1.0000000000000003e-01  1.0000000000000003e-01  9.9995467688818229e-02  1.0000000000000003e-01  9.9993155684510615e-02  1.0000000000000003e-01  9.9991981698524149e-02  1.0000000000000003e-01  9.9990315129622559e-02  1.0000000000000003e-01  9.9987577658076060e-02  1.0000000000000003e-01  9.9986353059326488e-02  1.0000000000000003e-01  9.9984476688974783e-02  1.0000000000000003e-01  9.9981389437888216e-02  1.0000000000000003e-01  9.9980933077900569e-02  1.0000000000000003e-01  9.9973275516627755e-02  1.0000000000000003e-01  9.9969049112332051e-02  1.0000000000000003e-01  9.9964528657131166e-02  1.0000000000000003e-01  9.9960885247668940e-02  1.0000000000000003e-01  9.9953508273531916e-02  1.0000000000000003e-01  9.9950525088770906e-02  1.0000000000000003e-01  9.9945098085768527e-02  1.0000000000000003e-01  9.9936770060460284e-02  1.0000000000000003e-01  9.9934304174118041e-02  1.0000000000000003e-01  9.9926007028714903e-02  1.0000000000000003e-01  9.9920951925249885e-02  1.0000000000000003e-01  9.9911890909711198e-02  1.0000000000000003e-01  9.9914022504377517e-02  1.0000000000000003e-01  9.9891348367439556e-02  1.0000000000000003e-01  9.9912113363201355e-02  1.0000000000000003e-01  9.9865840600433603e-02  1.0000000000000003e-01  9.9918416013508093e-02  1.0000000000000003e-01  9.9830591961242693e-02  1.0000000000000003e-01  9.9935654413196517e-02  1.0000000000000001e-01  9.9770846482702721e-02  1.0000000000000001e-01  1.0000000000000003e-01  1.0018602479092970e-01  1.0038243177019182e-01  1.0000000000000003e-01  1.0005421600488247e-01  1.0000000000000003e-01  1.0014695636622968e-01  1.0000000000000003e-01  1.0009711346219503e-01  1.0000000000000003e-01  1.0011209329325188e-01  1.0000000000000003e-01  1.0009924047138608e-01  1.0000000000000003e-01  1.0010533697186212e-01  1.0000000000000003e-01  1.0009447634328152e-01  1.0000000000000003e-01  1.0009611639915592e-01  1.0000000000000003e-01  1.0009245655508545e-01  1.0000000000000003e-01  1.0008928548024773e-01  1.0000000000000003e-01  1.0008695930890385e-01  1.0000000000000003e-01  1.0008541724142406e-01  1.0000000000000003e-01  1.0008220663076027e-01  1.0000000000000003e-01  1.0008069617676182e-01  1.0000000000000003e-01  1.0007904733016014e-01  1.0000000000000003e-01  1.0007700179048049e-01  1.0000000000000003e-01  1.0007550223672548e-01  1.0000000000000003e-01  1.0007451409904169e-01  1.0000000000000003e-01  1.0007257342827730e-01  1.0000000000000003e-01  1.0007216376955429e-01  1.0000000000000003e-01  1.0007006480821583e-01  1.0000000000000003e-01  1.0007086770011017e-01  1.0000000000000003e-01  1.0006667874067710e-01  1.0000000000000003e-01  1.0007171906194053e-01  1.0000000000000003e-01  1.0006097090945908e-01  1.0000000000000003e-01  1.0007699796656996e-01  1.0000000000000003e-01  1.0004862408011710e-01  1.0000000000000003e-01  1.0009713075027285e-01  1.0000000000000001e-01  1.0000000000000003e-01  9.9993581051408306e-02  1.0000000000000003e-01  9.9993639641600060e-02  9.9993181845911966e-02  9.9992295216738136e-02  9.9989980379137380e-02  9.9990150613055606e-02  9.9989715922537817e-02  9.9986366814906621e-02  9.9987916654773690e-02  9.9986576224735946e-02  9.9983518118327036e-02  9.9975620137020799e-02  9.9977906348762760e-02  9.9969368136425221e-02  9.9973110413041272e-02  9.9969817576296846e-02  9.9963104834380687e-02  9.9965013841932307e-02  9.9962808727886612e-02  9.9952753182088988e-02  9.9959058870393969e-02  9.9950228489756182e-02  9.9951019886076631e-02  9.9940779354336540e-02  9.9959907724089150e-02  9.9913954949922723e-02  9.9989027706421582e-02  9.9858252777259571e-02  1.0005779780996296e-01  9.9767489363685583e-02  9.9838388230601524e-02  1.0058601283237226e-01  1.0017588525654325e-01  1.0002789647499850e-01  1.0005170599288507e-01  1.0004157640825538e-01  1.0006177242513342e-01  1.0003805680304521e-01  1.0004976057838252e-01  1.0004680775487960e-01  1.0004209506547486e-01  1.0004186831871989e-01  1.0004245508481203e-01  1.0003756266021137e-01  1.0003746898725482e-01  1.0003692031695693e-01  1.0003407891815591e-01  1.0003352711956293e-01  1.0003298290197526e-01  1.0003122007226008e-01  1.0003034842749442e-01  1.0003035633134333e-01  1.0002814699513812e-01  1.0002911779156823e-01  1.0002604703134009e-01  1.0002953223144519e-01  1.0002127641257115e-01  1.0003484060199465e-01  1.0001012530312689e-01  1.0004736331992140e-01  1.0000000000000003e-01  9.9990520802437505e-02  1.0000000000000003e-01  9.9993590247791073e-02  9.9990459191164130e-02  9.9988071898853004e-02  9.9987617203917925e-02  9.9987139410444806e-02  9.9982258138476277e-02  9.9983413263650706e-02  9.9983146159480576e-02  9.9977577612348392e-02  9.9976395633287668e-02  9.9980068603476802e-02  9.9957164115196104e-02  9.9965008299926314e-02  9.9960221835423760e-02  9.9949823243340633e-02  9.9954581116796767e-02  9.9950282883836089e-02  9.9937156217952558e-02  9.9942209556279943e-02  9.9938997657373491e-02  9.9920562118248485e-02  9.9935912069947397e-02  9.9915448629972467e-02  9.9927632035732405e-02  9.9895837427022571e-02  9.9953475956391841e-02  9.9829381442178816e-02  1.0005351963541242e-01  9.9635165735861481e-02  9.9883274084177007e-02  1.0054234161053008e-01  1.0028229232099486e-01  1.0005869102829495e-01  1.0007392267069218e-01  1.0012043908125691e-01  1.0005707355942342e-01  1.0009274765502504e-01  1.0008495956595201e-01  1.0007549244665241e-01  1.0007669598657745e-01  1.0007943300580907e-01  1.0006939874871636e-01  1.0007065875178915e-01  1.0006998337628839e-01  1.0006435665709042e-01  1.0006369227308470e-01  1.0006332218543010e-01  1.0005939464773879e-01  1.0005885135350238e-01  1.0005795094610791e-01  1.0005590240513138e-01  1.0005433451520182e-01  1.0005502719380686e-01  1.0005091130504812e-01  1.0005423079961298e-01  1.0004686687640472e-01  1.0005714975067580e-01  1.0003570381681469e-01  1.0007496105020654e-01  1.0000000000000003e-01  9.9988639073917043e-02  1.0000000000000003e-01  9.9992724328243063e-02  9.9987365417238058e-02  9.9987915911510239e-02  9.9987379170026008e-02  9.9982308337326992e-02  9.9983653642910050e-02  9.9983665003954503e-02  9.9977405692336180e-02  9.9980007906357499e-02  9.9980289817612464e-02  9.9966884805915993e-02  9.9978880181885249e-02  9.9960328492639500e-02  9.9954318921031585e-02  9.9958113105601307e-02  9.9957991132233553e-02  9.9942153786957241e-02  9.9952787544791907e-02  9.9946202232872997e-02  9.9933687352865758e-02  9.9938875789928272e-02  9.9942619686766945e-02  9.9912021521498903e-02  9.9952380221577333e-02  9.9894472727286548e-02  9.9974972992703026e-02  9.9828800027100109e-02  1.0008919774242593e-01  9.9612649525380070e-02  9.9879335883889239e-02  1.0066895669917539e-01  1.0018755014993691e-01  1.0001773583683095e-01  1.0019065921395617e-01  9.9998606932072090e-02  1.0009210063049376e-01  1.0006762928063428e-01  1.0006261092058112e-01  1.0006186689659416e-01  1.0007127376320755e-01  1.0005485211048550e-01  1.0005970346399903e-01  1.0005958435914446e-01  1.0005220670781714e-01  1.0005194416663063e-01  1.0005209960252917e-01  1.0004681000657581e-01  1.0004635277825677e-01  1.0004612789658079e-01  1.0004253360589906e-01  1.0004237484038134e-01  1.0004095268763541e-01  1.0004024828252879e-01  1.0003692166851259e-01  1.0004082822010550e-01  1.0003136044710666e-01  1.0004439197470966e-01  1.0002094627827395e-01  1.0005701271547444e-01  1.0000000000000003e-01  9.9986706605893816e-02  1.0000000000000003e-01  9.9990728210737387e-02  9.9986997663942354e-02  9.9987844255985836e-02  9.9981743215490748e-02  9.9983277914508062e-02  9.9982533377376975e-02  9.9975735201369528e-02  9.9978696793925195e-02  9.9979251632001748e-02  9.9967591663777083e-02  9.9974093442830217e-02  9.9968853527442350e-02  9.9965477301372591e-02  9.9951667795526888e-02  9.9956426000299373e-02  9.9937302325005570e-02  9.9949937056656196e-02  9.9945923223986058e-02  9.9926196038976151e-02  9.9941773816955487e-02  9.9931455975751649e-02  9.9920558378611538e-02  9.9920266454512588e-02  9.9940808632275710e-02  9.9876958640102043e-02  9.9979731282053674e-02  9.9806707939944533e-02  1.0010440429541466e-01  9.9549556490589219e-02  9.9767133788584941e-02  1.0075801065459498e-01  1.0024218962491331e-01  1.0007886255710986e-01  1.0010828406771208e-01  1.0011106433436222e-01  1.0008154810994500e-01  1.0007712901593244e-01  1.0006798275269939e-01  1.0009413474378639e-01  1.0006366747386790e-01  1.0007493694919967e-01  1.0007525451898590e-01  1.0006476723189965e-01  1.0006533504960169e-01  1.0006691731582276e-01  1.0005849838519622e-01  1.0005853258905752e-01  1.0005835947597833e-01  1.0005352448130748e-01  1.0005264235774071e-01  1.0005274683464288e-01  1.0004872207680184e-01  1.0004929046596213e-01  1.0004642186356999e-01  1.0004806101189309e-01  1.0004078387000000e-01  1.0005163581612164e-01  1.0002923508549558e-01  1.0006639717893001e-01  1.0000000000000003e-01  9.9984414276410513e-02  1.0000000000000003e-01  9.9990648617289318e-02  9.9986438847079542e-02  9.9983717055081342e-02  9.9983175537336058e-02  9.9983082020495620e-02  9.9976098306199065e-02  9.9978074697711194e-02  9.9979114674942748e-02  9.9969178709608073e-02  9.9973356192721463e-02  9.9972264326590135e-02  9.9960979587603582e-02  9.9963763249594620e-02  9.9975696483371151e-02  9.9931749909024620e-02  9.9952880393258378e-02  9.9946153037630811e-02  9.9928248129035238e-02  9.9942374443467347e-02  9.9941238126072363e-02  9.9911600631462566e-02  9.9940985373605296e-02  9.9917765710246256e-02  9.9925844283029475e-02  9.9891773728151112e-02  9.9983680122642027e-02  9.9785963875591063e-02  1.0014150056047656e-01  9.9498332856954350e-02  9.9775190052364238e-02  1.0073461931992785e-01  1.0029545017322043e-01  9.9983025599233499e-02  1.0013193787133053e-01  1.0010550029846468e-01  1.0011434496946507e-01  1.0003636786771170e-01  1.0011095218402452e-01  1.0004785851802014e-01  1.0007677469853661e-01  1.0007478580135661e-01  1.0006202293502792e-01  1.0006286666405055e-01  1.0006772285583553e-01  1.0005560453305740e-01  1.0005703956558244e-01  1.0005751905752115e-01  1.0005026718500075e-01  1.0005005154911917e-01  1.0004999337591221e-01  1.0004575802548860e-01  1.0004445672251010e-01  1.0004543056801678e-01  1.0004010500004450e-01  1.0004354167714156e-01  1.0003573571773243e-01  1.0004604958328428e-01  1.0002445455084394e-01  1.0005925786136315e-01  1.0000000000000003e-01  9.9983159699682481e-02  1.0000000000000003e-01  9.9990487773347167e-02  9.9982611150296413e-02  9.9984642354400480e-02  9.9983175261516483e-02  9.9977203263297607e-02  9.9977867804657269e-02  9.9978907313450091e-02  9.9969030249624863e-02  9.9973428134957035e-02  9.9973178695482376e-02  9.9959681858079075e-02  9.9965572729138294e-02  9.9969472672209056e-02  9.9945521286161895e-02  9.9971714252946209e-02  9.9940974607481914e-02  9.9927477128118877e-02  9.9941221254789062e-02  9.9939352848138138e-02  9.9914842158038406e-02  9.9932657294774060e-02  9.9935170290606723e-02  9.9892278177064545e-02  9.9945711359130524e-02  9.9884991610797960e-02  9.9963833812169667e-02  9.9794935322353534e-02  1.0014894857823471e-01  9.9447204426961491e-02  9.9791985178536741e-02  1.0079319821541158e-01  1.0024112102234617e-01  1.0000666091636699e-01  1.0016925524690146e-01  1.0006107505967118e-01  1.0009972796160491e-01  1.0014369274883975e-01  1.0003759036273688e-01  1.0008849293737519e-01  1.0007785441484175e-01  1.0007016845708784e-01  1.0006698335166854e-01  1.0007759656748111e-01  1.0006024336855589e-01  1.0006369138639597e-01  1.0006519094696370e-01  1.0005627797992638e-01  1.0005566600354121e-01  1.0005648965368727e-01  1.0004996380739319e-01  1.0004991265555592e-01  1.0004900498497532e-01  1.0004643001751874e-01  1.0004356568988747e-01  1.0004662874986571e-01  1.0003785047889238e-01  1.0004841864213362e-01  1.0002731534822039e-01  1.0006153692372824e-01  1.0000000000000003e-01  9.9982064384577463e-02  1.0000000000000003e-01  9.9988468266340794e-02  9.9982948271009384e-02  9.9984859308688195e-02  9.9978100427725397e-02  9.9979361872674158e-02  9.9979255687240060e-02  9.9970213507575359e-02  9.9973760775771900e-02  9.9974373431215305e-02  9.9960996938082136e-02  9.9966613135297921e-02  9.9968036238061594e-02  9.9949301767837187e-02  9.9964716634256962e-02  9.9957496917569416e-02  9.9952235930363842e-02  9.9934375225271363e-02  9.9943730860417745e-02  9.9909902563487571e-02  9.9939599590458630e-02  9.9928788426062065e-02  9.9907543178142572e-02  9.9918896253012743e-02  9.9943429845506429e-02  9.9857058006397631e-02  9.9990862713135495e-02  9.9784647505588797e-02  1.0014465902991147e-01  9.9431675924786897e-02  9.9722654811963032e-02  1.0085578319994584e-01  1.0026958931262424e-01  1.0003409388274635e-01  1.0011731013450474e-01  1.0006209123882356e-01  1.0013491188740607e-01  1.0007143356283270e-01  1.0011906180031645e-01  1.0006246171443955e-01  1.0007862154336274e-01  1.0005818819901068e-01  1.0008554422422768e-01  1.0005754920626461e-01  1.0006526938544551e-01  1.0006744185753720e-01  1.0005646344477755e-01  1.0005664360423955e-01  1.0005894668250735e-01  1.0005016802411340e-01  1.0004971611239442e-01  1.0005041020351309e-01  1.0004447608937433e-01  1.0004505192629456e-01  1.0004266243028700e-01  1.0004315382693431e-01  1.0003601306463412e-01  1.0004640146698351e-01  1.0002500075436491e-01  1.0005821976856365e-01  1.0000000000000003e-01  9.9980406196295224e-02  1.0000000000000003e-01  9.9988773514854884e-02  9.9983000647689238e-02  9.9980997479377401e-02  9.9979549349824989e-02  9.9980612951103109e-02  9.9972107666741403e-02  9.9974306659957157e-02  9.9975157089343500e-02  9.9963853467822328e-02  9.9967161742958152e-02  9.9968732574492264e-02  9.9951582175963921e-02  9.9961719155204784e-02  9.9962206138987125e-02  9.9944290539662514e-02  9.9952465835591614e-02  9.9971377921772964e-02  9.9904310428785087e-02  9.9938698249250599e-02  9.9933120758199226e-02  9.9897639922296763e-02  9.9936839645946227e-02  9.9916480069853958e-02  9.9908187308094601e-02  9.9888752632695865e-02  9.9987996029178336e-02  9.9752158990989132e-02  1.0017702465706466e-01  9.9405491478480310e-02  9.9719149401303886e-02  1.0084213192229378e-01  1.0030845182469166e-01  9.9983276456901041e-02  1.0013186911516592e-01  1.0009675957329370e-01  1.0008566901650266e-01  1.0008519802682696e-01  1.0011446635249194e-01  1.0010469856263199e-01  1.0004372145014130e-01  1.0009960317146967e-01  1.0005218536648137e-01  1.0007105355550994e-01  1.0007142384251469e-01  1.0005959316812534e-01  1.0005883575321863e-01  1.0006415369591230e-01  1.0005279394514667e-01  1.0005357084771373e-01  1.0005410455405446e-01  1.0004740953807370e-01  1.0004612261990582e-01  1.0004751088994922e-01  1.0004109007247558e-01  1.0004395615284700e-01  1.0003736003632636e-01  1.0004558670780431e-01  1.0002586635524000e-01  1.0005815095278217e-01  1.0000000000000003e-01  9.9979759493222603e-02  1.0000000000000003e-01  9.9988952330618497e-02  9.9979732219857675e-02  9.9982143414477961e-02  9.9980420508931342e-02  9.9974511341335059e-02  9.9975152632050923e-02  9.9976219318913762e-02  9.9965921448597825e-02  9.9969086031829732e-02  9.9970367638674965e-02  9.9954053549822855e-02  9.9961314490911751e-02  9.9963782026507214e-02  9.9943763641028874e-02  9.9955268300816455e-02  9.9963523830997075e-02  9.9925560097085628e-02  9.9969566260410869e-02  9.9924883201767262e-02  9.9904551937438676e-02  9.9926361748450571e-02  9.9934567567516439e-02  9.9877092419812075e-02  9.9947083561611291e-02  9.9885888664302674e-02  9.9950182093375556e-02  9.9785669026587628e-02  1.0017868302500355e-01  9.9362077817175737e-02  9.9734454600933414e-02  1.0086630139329653e-01  1.0027490712552267e-01  9.9987878581866821e-02  1.0016458766421303e-01  1.0005175224387081e-01  1.0009442108481574e-01  1.0010300012510878e-01  1.0008507061185390e-01  1.0007971255951549e-01  1.0012916588827458e-01  1.0003567911441233e-01  1.0007887287398691e-01  1.0006736857953884e-01  1.0006339656852428e-01  1.0005760734741821e-01  1.0006777935088158e-01  1.0005269736619145e-01  1.0005455025314382e-01  1.0005693775183849e-01  1.0004848471101634e-01  1.0004777516350073e-01  1.0004791422267917e-01  1.0004327807901887e-01  1.0004068059042244e-01  1.0004379804305792e-01  1.0003479762105742e-01  1.0004429873590627e-01  1.0002518660448492e-01  1.0005571493456054e-01  1.0000000000000003e-01  9.9979253591114300e-02  1.0000000000000003e-01  9.9987428328460290e-02  9.9980409404136772e-02  9.9983011562649077e-02  9.9975900022948108e-02  9.9977046477722042e-02  9.9976965591835706e-02  9.9968567093385807e-02  9.9970755020044363e-02  9.9972496607973013e-02  9.9957936529512847e-02  9.9963025689439433e-02  9.9964737796221295e-02  9.9946042363025900e-02  9.9956638071654447e-02  9.9960942526319790e-02  9.9933069376847095e-02  9.9957718182497685e-02  9.9950214659223074e-02  9.9937493894124235e-02  9.9922541930687461e-02  9.9930486015045256e-02  9.9888950050798897e-02  9.9921254260949208e-02  9.9941773192697814e-02  9.9842444473714737e-02  9.9991874153800966e-02  9.9786505670162021e-02  1.0013730429847519e-01  9.9393796244494945e-02  9.9692597471994535e-02  1.0090859273528317e-01  1.0028169568220933e-01  1.0001339546473244e-01  1.0012912135915504e-01  1.0005713902397283e-01  1.0012170816576726e-01  1.0007041984976393e-01  1.0008099921741614e-01  1.0010594820204230e-01  1.0007490329126466e-01  1.0010234550713484e-01  1.0005597661065135e-01  1.0007123430132027e-01  1.0005169826668457e-01  1.0007450630232503e-01  1.0005193950785890e-01  1.0005666288072208e-01  1.0005924226423615e-01  1.0004994156253015e-01  1.0004943553496490e-01  1.0005210520261444e-01  1.0004358478934791e-01  1.0004401863641194e-01  1.0004237311558878e-01  1.0004121837039423e-01  1.0003485928781357e-01  1.0004428343579186e-01  1.0002445019505382e-01  1.0005460190320022e-01  1.0000000000000003e-01  9.9978101146915022e-02  1.0000000000000003e-01  9.9987807698115369e-02  9.9980872936708945e-02  9.9979734150282509e-02  9.9977469152033746e-02  9.9978734084405732e-02  9.9970641755905545e-02  9.9972137525713364e-02  9.9973751494704804e-02  9.9962325726492093e-02  9.9964944950714812e-02  9.9966879366938516e-02  9.9949977748122920e-02  9.9956800799762074e-02  9.9961706711297699e-02  9.9937245310892597e-02  9.9953712020903362e-02  9.9956134573943756e-02  9.9929737100723087e-02  9.9943604226520710e-02  9.9973768029815682e-02  9.9873731285683803e-02  9.9937769366376980e-02  9.9913805807779116e-02  9.9892027110572157e-02  9.9895301369783904e-02  9.9988777935499790e-02  9.9738098109316345e-02  1.0017953053299399e-01  9.9398625736399140e-02  9.9678391759668000e-02  1.0089154234438193e-01  1.0031235286814068e-01  9.9979929249935165e-02  1.0013052916864733e-01  1.0008345753626989e-01  1.0008992687645413e-01  1.0007028914946325e-01  1.0010645182998877e-01  1.0006941609521146e-01  1.0007976258924392e-01  1.0009278044015647e-01  1.0009419018529471e-01  1.0003622336956708e-01  1.0008389935586257e-01  1.0004557529782787e-01  1.0005954520922231e-01  1.0006000929572451e-01  1.0005072387472327e-01  1.0004919129920740e-01  1.0005379598972333e-01  1.0004509529739337e-01  1.0004451565605436e-01  1.0004599321328952e-01  1.0003845333133073e-01  1.0004061857743284e-01  1.0003524042484142e-01  1.0004150771373935e-01  1.0002391369546534e-01  1.0005279031421153e-01  1.0000000000000003e-01  9.9977876260129994e-02  1.0000000000000003e-01  9.9988261912312290e-02  9.9978389301006970e-02  9.9981032491847532e-02  9.9978782980655143e-02  9.9973768613754385e-02  9.9973535390640633e-02  9.9974830052761171e-02  9.9965310747529512e-02  9.9967769868129358e-02  9.9969155773044466e-02  9.9954385005451632e-02  9.9958789268985271e-02  9.9963200574719899e-02  9.9941721150330814e-02  9.9952484989892842e-02  9.9959018439601033e-02  9.9929731905774297e-02  9.9948323111882578e-02  9.9960905788592513e-02  9.9907897041711213e-02  9.9968555097956463e-02  9.9920594135279872e-02  9