<?xml version="1.0"?>
<VTKFile type="UnstructuredGrid"  version="0.1"  >
<UnstructuredGrid>
<Piece  NumberOfPoints="1933" NumberOfCells="3640">
<Points>
<DataArray  type="Float64"  NumberOfComponents="3"  format="ascii">0.2940425189032858 -0.00182939984586158 0  5.294042577323147 -0.001793748991349419 0  5.293989108668943 7.498206402241575 0  0.2939890194890271 7.49817070005159 0  10.2940426685626 -0.001758219865007545 0  10.29398926087615 7.498241944524456 0  15.29404285750365 -0.001722831719113499 0  15.29398950482839 7.498277332842259 0  20.29404320572726 -0.001687556678846718 0  20.29398986626321 7.49831260427123 0  25.29404376497616 -0.001652340831322439 0  25.29399036814781 7.498347816198118 0  30.29404457686664 -0.001617114816933534 0  30.29399102990969 7.498383039231148 0  35.29404567448581 -0.001581799018905345 0  35.29399186686763 7.498418353346795 0  40.29404708428308 -0.001546305698430574 0  40.29399288991647 7.498453846297457 0  45.29404882770702 -0.001510539270400192 0  45.29399410530406 7.498489613558966 0  50.29405092242612 -0.001474395339317784 0  50.293995514323 7.498525759381036 0  55.29405338310866 -0.001437758792327143 0  55.29399711277497 7.498562398717846 0  60.29405622175801 -0.001400501046047237 0  60.2939988900732 7.498599659970799 0  65.29405944758717 -0.001362476401691999 0  65.29400082783694 7.498637688595869 0  70.29406306635643 -0.001323517341089944 0  70.29400289779991 7.498676651734582 0  75.29406707903107 -0.001283428467750591 0  75.29400505878523 7.49871674413936 0  80.29407147948511 -0.001241978637303809 0  80.29400725239468 7.49875819579673 0  85.29407625079131 -0.001198890601741277 0  85.29400939692434 7.498801281820632 0  90.2940813592965 -0.001153827173135679 0  90.29401137880227 7.49884633540846 0  95.29408674512446 -0.001106372439411202 0  95.29401304058507 7.498893764931045 0  100.2940923067173 -0.001056005858139318 0  100.2940141642445 7.49894407655131 0  105.2940978752044 -0.001002066008741142 0  105.2940144481888 7.498997904059217 0  110.2941031709767 -0.0009436992817889577 0  110.2940134764805 7.499056047636319 0  115.2941077285642 -0.0008797867729962955 0  115.29401067966 7.499119522417848 0  120.2941107640478 -0.0008088403947364747 0  120.2940052899894 7.49918961454198 0  125.2941109368776 -0.0007288580961866322 0  125.2939963033873 7.499267933562984 0  130.2941059155232 -0.000637133042394213 0  130.2939824836175 7.499356428566794 0  135.2940915754997 -0.0005300393869941762 0  135.2939624985362 7.499457287291393 0  140.2940605019222 -0.0004029275720411054 0  140.2939354006658 7.499572543189472 0  145.2939991513838 -0.0002506933413739237 0  145.293901941522 7.499703088242867 0  150.2938822880084 -7.142035338188965e-05 0  150.2938678789461 7.499846976652199 0  160.2938926261447 1.107274617740056e-18 0  165.2938191095323 -0.0001452496933700677 0  165.2938813742112 7.499826798442406 0  160.2938959284798 7.499935084358961 0  170.2937953701966 -0.0002465252881683239 0  170.2938663039477 7.499739676537059 0  175.293795133573 -0.000316910186562138 0  175.2938566843556 7.499675811376695 0  180.2938057322264 -0.0003644772428827017 0  180.2938526721077 7.499631559149509 0  185.2938208760688 -0.0003949652874787967 0  185.2938530065499 7.499602842231504 0  190.2938374236902 -0.0004125597756134216 0  190.2938563214512 7.499586222329787 0  195.2938538258668 -0.0004203234647102206 0  195.2938615001312 7.499579007249928 0  200.2938693474132 -0.0004205075716419813 0  200.2938677210876 7.499579138516655 0  205.2938836708148 -0.0004147812973743267 0  205.2938744124624 7.499585049828354 0  210.2938966919576 -0.0004043971611570257 0  210.2938811904808 7.499595544653239 0  215.2939084139593 -0.000390307976911253 0  215.2938878054604 7.499609701193052 0  220.2939188916394 -0.0003732490484588208 0  220.2938941004718 7.499626801662422 0  225.2939282024096 -0.0003537960347599446 0  225.2938999815748 7.499646280514153 0  230.2939364310911 -0.0003324060086493789 0  230.2939053970792 7.49966768665558 0  235.2939436621602 -0.0003094469297558368 0  235.2939103233659 7.499690655762095 0  240.2939499760024 -0.0002852190898224044 0  240.2939147553098 7.499714889822996 0  245.2939554473663 -0.0002599709398891672 0  245.2939186998846 7.499740141876381 0  250.2939601450403 -0.000233910930666801 0  250.2939221719508 7.499766204496198 0  255.2939641322438 -0.0002072164725369142 0  255.2939251915511 7.49979290103017 0  260.2939674674557 -0.0001800407635248128 0  260.293927782241 7.499820078896799 0  265.293970205559 -0.0001525179816677879 0  265.2939299701459 7.499847604474689 0  270.2939723992376 -0.0001247671493075291 0  270.2939317835272 7.499875359289016 0  275.2939741006264 -9.689481826773681e-05 0  275.2939332526833 7.499903237342311 0  280.2939753632213 -6.899656751616101e-05 0  280.2939344100595 7.499931143570707 0  285.2939762440412 -4.115711746740754e-05 0  285.2939352904422 7.499958993550512 0  290.293976805924 -1.344860671183734e-05 0  290.2939359310841 7.499986714748368 0  295.2939771196569 1.407380815297388e-05 0  295.2939363716683 7.500014249810245 0  300.2939772650606 4.138044764567762e-05 0  300.2939366540606 7.500041562613615 0  305.2939773290457 6.848189379152821e-05 0  305.2939368222551 7.500068648034549 0  310.2939773960166 9.545271612836754e-05 0  310.2939369240627 7.500095546694723 0  5.293935313861699 14.99820672819743 0  0.2939352223910912 14.99817094056352 0  10.29393544854531 14.9982422760999 0  15.29393564703021 14.99827764109797 0  20.29393592024213 14.99831288219555 0  25.29393627457206 14.99834806538414 0  30.29393671340796 14.99838326395822 0  35.29393723717941 14.99841855803661 0  40.29393784283354 14.9984540344603 0  45.29393852307681 14.99848978735364 0  50.29393926546066 14.99852591937169 0  55.29394005128024 14.99856254361292 0  60.29394085421114 14.99859978620752 0  65.29394163858763 14.99863778964194 0  70.29394235721178 14.99867671693828 0  75.29394294857902 14.9987167568666 0  80.29394333340576 14.99875813042533 0  85.29394341038218 14.99880109887149 0  90.29394305116442 14.99884597359487 0  95.29394209485056 14.99889312805515 0  100.2939403426371 14.99894301172431 0  105.2939375542851 14.99899616526707 0  110.2939334497073 14.99905323459647 0  115.2939277220327 14.9991149780919 0  120.2939200735806 14.99918225456681 0  125.2939102941269 14.99925596670723 0  130.2938984116981 14.99933691099705 0  135.2938849569116 14.9994254434968 0  140.2938713799306 14.99952080103704 0  145.2938606039743 14.99961979804492 0  150.2938574679678 14.99971433455786 0  165.2938932541716 14.99974932208044 0  160.2938912337582 14.99980441850938 0  170.2938877837069 14.99969572953082 0  175.2938800798126 14.99965109624871 0  180.2938730571675 14.99961765615518 0  185.2938678491471 14.99959501935184 0  190.2938646489571 14.99958184213605 0  195.2938632369861 14.99957659434001 0  200.293863256508 14.99957786048224 0  205.2938643426718 14.99958443181153 0  210.2938661747005 14.99959531236721 0  215.2938684908019 14.99960969415864 0  220.2938710865348 14.99962692486663 0  225.2938738069623 14.99964647719503 0  230.2938765374033 14.99966792279313 0  235.2938791948515 14.99969091112294 0  240.293881720738 14.99971515272181 0  245.2938840751482 14.99974040607802 0  250.2938862323417 14.99976646737364 0  255.2938881773449 14.99979316247213 0  260.2938899034041 14.99982034066824 0  265.2938914100791 14.99984786984284 0  270.2938927018374 14.99987563277658 0  275.2938937869866 14.9999035244681 0  280.2938946768609 14.99993145038271 0  285.2938953851988 14.99995932561948 0  290.2938959276996 14.99998707501771 0  295.2938963219269 15.00001463418405 0  300.2938965878898 15.00004195122516 0  305.2938967501289 15.00006898840745 0  310.293896842781 15.00009572157415 0  5.293881288568679 22.49820733420221 0  0.2938812018615659 22.49817152534398 0  10.29388139207541 22.49824284515724 0  15.29388152234171 22.49827814804208 0  20.29388168170543 22.49831332102454 0  25.29388186760877 22.49834843915228 0  30.2938820741218 22.49838357873692 0  35.29388229238714 22.4984188196032 0  40.29388251039033 22.49845424651942 0  45.29388271235018 22.49848995049121 0  50.29388287789278 22.49852603024065 0  55.29388298107736 22.49856259402296 0  60.29388298930248 22.49859976185952 0  65.29388286210335 22.49863766824581 0  70.29388254986813 22.49867646538114 0  75.29388199254528 22.49871632695781 0  80.29388111849408 22.49875745250684 0  85.29387984377354 22.4988000722124 0  90.29387807239647 22.49884445192124 0  95.29387569844914 22.49889089771826 0  100.293872611547 22.49893975877838 0  105.2938687079452 22.49899142602827 0  110.2938639107919 22.49904632211187 0  115.2938582044536 22.49910487475029 0  120.2938516892095 22.49916746016026 0  125.2938446629236 22.49923429511763 0  130.293837733102 22.49930524562976 0  135.2938319510509 22.49937950988539 0  140.2938289303781 22.49945513422927 0  145.2938308508171 22.49952836766328 0  150.2938401435011 22.49959306224218 0  165.2938776252147 22.49966145899245 0  160.2938695160531 22.49968131545467 0  170.293878788619 22.49963641109771 0  175.2938755977715 22.49961238795708 0  180.2938703808557 22.49959288466859 0  185.2938647346548 22.49957936267856 0  190.2938595643068 22.49957205070496 0  195.2938552852085 22.49957055038623 0  200.2938520138621 22.49957420525668 0  205.2938497046411 22.49958229874901 0  210.2938482361326 22.49959414908595 0  215.2938474611797 22.49960914768575 0  220.2938472336032 22.49962676884556 0  225.2938474209583 22.49964656603313 0  230.2938479094023 22.49966816280802 0  235.2938486043807 22.49969124233803 0  240.2938494292856 22.49971553732988 0  245.2938503232896 22.49974082109376 0  250.2938512389801 22.49976689993404 0  255.2938521401157 22.49979360681923 0  260.2938529996094 22.49982079619821 0  265.2938537977985 22.49984833980912 0  270.2938545209683 22.49987612334118 0  275.29385516012 22.49990404382764 0  280.2938557099714 22.49993200766088 0  285.2938561681988 22.49995992910528 0  290.293856535015 22.49998772912037 0  295.2938568132487 22.
[...]
<PointData  Scalars="p"> 
<DataArray  type="Float64"  Name="p"  format="ascii">1.0000000000000001e-01  1.0000000000000003e-01  9.9997412528274127e-02  1.0000000000000003e-01  1.0000000000000003e-01  9.9996295511807429e-02  1.0000000000000003e-01  9.9994408477121252e-02  1.0000000000000003e-01  9.9993141630501908e-02  1.0000000000000003e-01  9.9991724151513306e-02  1.0000000000000003e-01  9.9989897446688972e-02  1.0000000000000003e-01  9.9988716153065094e-02  1.0000000000000003e-01  9.9987460702288922e-02  1.0000000000000003e-01  9.9985446166331898e-02  1.0000000000000003e-01  9.9984201721239049e-02  1.0000000000000003e-01  9.9981006065747280e-02  1.0000000000000003e-01  9.9977624213280963e-02  1.0000000000000003e-01  9.9975112929320389e-02  1.0000000000000003e-01  9.9972657177672411e-02  1.0000000000000003e-01  9.9969069935162636e-02  1.0000000000000003e-01  9.9967288566195661e-02  1.0000000000000003e-01  9.9965120576991015e-02  1.0000000000000003e-01  9.9961603745000849e-02  1.0000000000000003e-01  9.9960972765006137e-02  1.0000000000000003e-01  9.9958422780348374e-02  1.0000000000000003e-01  9.9957170022633615e-02  1.0000000000000003e-01  9.9954809760989721e-02  1.0000000000000003e-01  9.9957331305848038e-02  1.0000000000000003e-01  9.9949965127172635e-02  1.0000000000000003e-01  9.9960018201178807e-02  1.0000000000000003e-01  9.9944218706498597e-02  1.0000000000000003e-01  9.9966248432538027e-02  1.0000000000000003e-01  9.9934706772880313e-02  1.0000000000000003e-01  9.9976142431444620e-02  1.0000000000000001e-01  9.9915575968415854e-02  1.0000000000000001e-01  1.0000000000000003e-01  1.0010158885333215e-01  1.0017172781235828e-01  1.0000000000000003e-01  1.0004470425435572e-01  1.0000000000000003e-01  1.0008289073153342e-01  1.0000000000000003e-01  1.0006557305312377e-01  1.0000000000000003e-01  1.0007245507879445e-01  1.0000000000000003e-01  1.0006839950991989e-01  1.0000000000000003e-01  1.0007238198820161e-01  1.0000000000000003e-01  1.0006903454089795e-01  1.0000000000000003e-01  1.0007042192186860e-01  1.0000000000000003e-01  1.0006981428367423e-01  1.0000000000000003e-01  1.0006909723951364e-01  1.0000000000000003e-01  1.0006850337121033e-01  1.0000000000000003e-01  1.0006823622880544e-01  1.0000000000000003e-01  1.0006712256348013e-01  1.0000000000000003e-01  1.0006656769157111e-01  1.0000000000000003e-01  1.0006593294244252e-01  1.0000000000000003e-01  1.0006510730534039e-01  1.0000000000000003e-01  1.0006432808762018e-01  1.0000000000000003e-01  1.0006393232895014e-01  1.0000000000000003e-01  1.0006280761701136e-01  1.0000000000000003e-01  1.0006277735143954e-01  1.0000000000000003e-01  1.0006120082558241e-01  1.0000000000000003e-01  1.0006226003774001e-01  1.0000000000000003e-01  1.0005872370699231e-01  1.0000000000000003e-01  1.0006341614754380e-01  1.0000000000000003e-01  1.0005399863767256e-01  1.0000000000000003e-01  1.0006847558278625e-01  1.0000000000000003e-01  1.0004323533374052e-01  1.0000000000000003e-01  1.0008675119932814e-01  1.0000000000000001e-01  1.0000000000000003e-01  9.9996495996729676e-02  1.0000000000000003e-01  9.9996101521107994e-02  9.9995752949719088e-02  9.9995209117525324e-02  9.9994087646588445e-02  9.9994071948943969e-02  9.9994002706301641e-02  9.9992525126677098e-02  9.9992970724368191e-02  9.9992559574911377e-02  9.9990135495563223e-02  9.9987724112072976e-02  9.9987104356160261e-02  9.9983591564552526e-02  9.9984670186012412e-02  9.9984099978889199e-02  9.9981259163045746e-02  9.9982604701428932e-02  9.9982762102679437e-02  9.9979121998846315e-02  9.9982653523169956e-02  9.9980613183835512e-02  9.9981728643008652e-02  9.9978819961526438e-02  9.9988146184939730e-02  9.9970320433228330e-02  1.0000099094471464e-01  9.9950031805075418e-02  1.0002751205723298e-01  9.9913573003658218e-02  9.9940081167339878e-02  1.0028778459197564e-01  1.0006802204332162e-01  1.0001674537826653e-01  1.0002315355993920e-01  1.0001881244505671e-01  1.0002951901594842e-01  1.0002087322489733e-01  1.0002606679728988e-01  1.0002646255605017e-01  1.0002533224580586e-01  1.0002561952940150e-01  1.0002661675680513e-01  1.0002506746540930e-01  1.0002515451368371e-01  1.0002528115772208e-01  1.0002430863044960e-01  1.0002417819604090e-01  1.0002408997538528e-01  1.0002358119886627e-01  1.0002313960331653e-01  1.0002352331268537e-01  1.0002226988375361e-01  1.0002348274398450e-01  1.0002110144923169e-01  1.0002472604636906e-01  1.0001768935465205e-01  1.0003016054036855e-01  1.0000842835404837e-01  1.0004205992183382e-01  1.0000000000000003e-01  9.9995190331422970e-02  1.0000000000000003e-01  9.9996346068100220e-02  9.9994409309497212e-02  9.9993155321847313e-02  9.9992628914924872e-02  9.9992562915044131e-02  9.9990323873992634e-02  9.9990747880314132e-02  9.9990967579353801e-02  9.9988062039609873e-02  9.9987782712513767e-02  9.9987765610786289e-02  9.9979481298871672e-02  9.9980214003263790e-02  9.9979043037299042e-02  9.9973901881475771e-02  9.9976381804686640e-02  9.9975826616931454e-02  9.9970774278313468e-02  9.9973829463646052e-02  9.9974711395620031e-02  9.9967951015633924e-02  9.9976026188292239e-02  9.9970196249689017e-02  9.9976426927512185e-02  9.9964927792944622e-02  9.9990765320590910e-02  9.9940064011297652e-02  1.0003081181848111e-01  9.9862456000034100e-02  9.9930006470894880e-02  1.0030352234332879e-01  1.0014084468273847e-01  1.0003382601244205e-01  1.0003579286906200e-01  1.0006059139396849e-01  1.0003504107356692e-01  1.0004950640525685e-01  1.0004962739494026e-01  1.0004706431989410e-01  1.0004816564470223e-01  1.0005093508742280e-01  1.0004771390644372e-01  1.0004852660906194e-01  1.0004903849018922e-01  1.0004715915834640e-01  1.0004695786176712e-01  1.0004719179426558e-01  1.0004577532568819e-01  1.0004568712978751e-01  1.0004542245489309e-01  1.0004495509240302e-01  1.0004402300154597e-01  1.0004516208001063e-01  1.0004242228726729e-01  1.0004587296175889e-01  1.0003982156400884e-01  1.0004964778445211e-01  1.0003097246180560e-01  1.0006655630058826e-01  1.0000000000000003e-01  9.9994457416399118e-02  1.0000000000000003e-01  9.9996267237721564e-02  9.9993678643936337e-02  9.9993672280732956e-02  9.9993675694563008e-02  9.9991502601718421e-02  9.9992168919689581e-02  9.9992860784820156e-02  9.9990207218620814e-02  9.9991441382359436e-02  9.9991935633729087e-02  9.9986517305003866e-02  9.9989012491609006e-02  9.9984520144201602e-02  9.9978842623700923e-02  9.9980999804027679e-02  9.9981702291537564e-02  9.9975611466706610e-02  9.9980814750187705e-02  9.9980453449993623e-02  9.9976019251529769e-02  9.9979732608794086e-02  9.9984286080977022e-02  9.9972533985929285e-02  9.9991342238985176e-02  9.9969576356934625e-02  1.0000375422481009e-01  9.9943049299775183e-02  1.0005147532179255e-01  9.9851654235658643e-02  9.9914502681503994e-02  1.0036343316003542e-01  1.0010214710717223e-01  1.0000233181959949e-01  1.0008038744915895e-01  1.0000172903683147e-01  1.0003634366752773e-01  1.0003106861928052e-01  1.0003024665018309e-01  1.0003055878022021e-01  1.0003682355856072e-01  1.0003150220532718e-01  1.0003390472508966e-01  1.0003512941927210e-01  1.0003284715667361e-01  1.0003294964194209e-01  1.0003358906800881e-01  1.0003184156401008e-01  1.0003170530021332e-01  1.0003208768363774e-01  1.0003076697426549e-01  1.0003112514780178e-01  1.0003045749775791e-01  1.0003115488605172e-01  1.0002878645922475e-01  1.0003293099924318e-01  1.0002542875516156e-01  1.0003769111868038e-01  1.0001741722521852e-01  1.0005031259099091e-01  1.0000000000000003e-01  9.9993697998828457e-02  1.0000000000000003e-01  9.9995715875994345e-02  9.9993785841301336e-02  9.9994371312836741e-02  9.9991468890543667e-02  9.9992241003416041e-02  9.9992432362684167e-02  9.9989761630588161e-02  9.9991244701462159e-02  9.9992221209949189e-02  9.9987579346446032e-02  9.9989720606877497e-02  9.9989070581798636e-02  9.9984382335005104e-02  9.9981878847827790e-02  9.9981714329104479e-02  9.9973998881179735e-02  9.9979142152567160e-02  9.9980120570002481e-02  9.9972221087040111e-02  9.9980413172328531e-02  9.9979144831630146e-02  9.9976009661947002e-02  9.9977489165733097e-02  9.9990303971087588e-02  9.9963399864595570e-02  1.0000954124401266e-01  9.9936333651829981e-02  1.0006275203640481e-01  9.9824044337320700e-02  9.9859189153827549e-02  1.0041900157834772e-01  1.0012106791869238e-01  1.0002622430515599e-01  1.0005893683167316e-01  1.0004254958963341e-01  1.0003706797329731e-01  1.0003626674362025e-01  1.0003164569957103e-01  1.0004591155450031e-01  1.0003551969227931e-01  1.0004048938784794e-01  1.0004275129128415e-01  1.0003967706333985e-01  1.0004016154454494e-01  1.0004186316239486e-01  1.0003907132997567e-01  1.0003918977155228e-01  1.0003961893164377e-01  1.0003809525222265e-01  1.0003777459692244e-01  1.0003844773423498e-01  1.0003679202377726e-01  1.0003792454518749e-01  1.0003609644270646e-01  1.0003890575766800e-01  1.0003316436641961e-01  1.0004360325195910e-01  1.0002459325796048e-01  1.0005848701706055e-01  1.0000000000000003e-01  9.9992779777938481e-02  1.0000000000000003e-01  9.9995843582735888e-02  9.9994068653139617e-02  9.9993004427038998e-02  9.9992733913793319e-02  9.9993105838288535e-02  9.9990304165610028e-02  9.9991363865740257e-02  9.9992829944519565e-02  9.9988849830409191e-02  9.9990808075268181e-02  9.9991729741265634e-02  9.9986115472377138e-02  9.9988273730458835e-02  9.9991215207166390e-02  9.9976550665219308e-02  9.9981615452842967e-02  9.9981502713048356e-02  9.9973248758489661e-02  9.9980687630110865e-02  9.9983463430734457e-02  9.9971867474687878e-02  9.9986383764608097e-02  9.9980164358695167e-02  9.9985667307826931e-02  9.9971387132768430e-02  1.0001636046915534e-01  9.9927447329540023e-02  1.0008435257235418e-01  9.9799995437603595e-02  9.9846005063513987e-02  1.0042079278160870e-01  1.0014440583875249e-01  9.9981691973856521e-02  1.0005668524282448e-01  1.0004433298990777e-01  1.0004839860468552e-01  1.0001220068396152e-01  1.0004621902542014e-01  1.0002290089867158e-01  1.0003431515027959e-01  1.0003671954404651e-01  1.0003314204122113e-01  1.0003385963450397e-01  1.0003747292362529e-01  1.0003348702759308e-01  1.0003422206484194e-01  1.0003531336310688e-01  1.0003281848514133e-01  1.0003290871074816e-01  1.0003328039402705e-01  1.0003220729300374e-01  1.0003155123582259e-01  1.0003311623838972e-01  1.0003021868829046e-01  1.0003402429615769e-01  1.0002792823418745e-01  1.0003838134307702e-01  1.0001999470455182e-01  1.0005186668208312e-01  1.0000000000000003e-01  9.9992266196416810e-02  1.0000000000000003e-01  9.9996075294242023e-02  9.9992637424808281e-02  9.9993731853212808e-02  9.9993467601293073e-02  9.9991119046864363e-02  9.9991319730347611e-02  9.9992790099707227e-02  9.9988779488041482e-02  9.9990867169452546e-02  9.9992313854187345e-02  9.9986482009918193e-02  9.9989371353978118e-02  9.9991836976493900e-02  9.9982742752668677e-02  9.9989857247128403e-02  9.9983829625309162e-02  9.9973261799311722e-02  9.9980275994617840e-02  9.9981552895107226e-02  9.9972272613582394e-02  9.9981052472079807e-02  9.9986867889246364e-02  9.9969126912821241e-02  9.9995233950993939e-02  9.9971150174065118e-02  1.0000962408221550e-01  9.9930542278408391e-02  1.0009524304909730e-01  9.9771350492435185e-02  9.9848269260623845e-02  1.0044913581415368e-01  1.0012503671849547e-01  9.9981400571568860e-02  1.0007339484882879e-01  1.0002423256833896e-01  1.0004456684722966e-01  1.0005768404970476e-01  1.0001785523922843e-01  1.0003643145918822e-01  1.0003540848535780e-01  1.0003441900980123e-01  1.0003356473657724e-01  1.0004006883611183e-01  1.0003451326838436e-01  1.0003620202502221e-01  1.0003797948804484e-01  1.0003520491283333e-01  1.0003508844616844e-01  1.0003612864642299e-01  1.0003385673875054e-01  1.0003421730898535e-01  1.0003406053344155e-01  1.0003408669228193e-01  1.0003229804766317e-01  1.0003587922421897e-01  1.0002970915660299e-01  1.0003999353231552e-01  1.0002222194869793e-01  1.0005374189690441e-01  1.0000000000000003e-01  9.9991902515252723e-02  1.0000000000000003e-01  9.9995318965738378e-02  9.9992905154665537e-02  9.9994360183204553e-02  9.9991629702821411e-02  9.9992334011969580e-02  9.9993081397799416e-02  9.9989349283674755e-02  9.9991087228721451e-02  9.9992551074631980e-02  9.9987205273163543e-02  9.9989901380947308e-02  9.9991964040596848e-02  9.9984451900934482e-02  9.9990328489400732e-02  9.9990873380488954e-02  9.9983734781450395e-02  9.9982251327144459e-02  9.9983703057852855e-02  9.9969993564786558e-02  9.9982642533808397e-02  9.9982492910406021e-02  9.9974496087127121e-02  9.9980664001893718e-02  9.9997426275710177e-02  9.9958576782106026e-02  1.0002270851297193e-01  9.9927213222620992e-02  1.0009784492227097e-01  9.9757272340783007e-02  9.9815143824255187e-02  1.0048134394114712e-01  1.0013205873597826e-01  9.9990137558188114e-02  1.0005012971117017e-01  1.0001643059841088e-01  1.0005568157213821e-01  1.0003347033213539e-01  1.0004675094279639e-01  1.0002548371959356e-01  1.0003405181290670e-01  1.0002540321194796e-01  1.0003902630252040e-01  1.0002987325957788e-01  1.0003321550103138e-01  1.0003587334143578e-01  1.0003262345113144e-01  1.0003285162747398e-01  1.0003473477949529e-01  1.0003197337349687e-01  1.0003177537582277e-01  1.0003286459088226e-01  1.0003062333442095e-01  1.0003178382507596e-01  1.0003037833872147e-01  1.0003292834161749e-01  1.0002747762832517e-01  1.0003765418190942e-01  1.0002009940962345e-01  1.0005055112564717e-01  1.0000000000000003e-01  9.9991224982870636e-02  1.0000000000000003e-01  9.9995495051416819e-02  9.9993268263975435e-02  9.9992875166823869e-02  9.9992373999225073e-02  9.9993687537916640e-02  9.9990249696039049e-02  9.9991427929760943e-02  9.9992748439861723e-02  9.9988149236661383e-02  9.9989798295850474e-02  9.9992052767776410e-02  9.9985045129817721e-02  9.9989411433091910e-02  9.9992333650899795e-02  9.9983754148396484e-02  9.9989185849793383e-02  9.9994716765919173e-02  9.9972560395537285e-02  9.9981730426558280e-02  9.9983934437296126e-02  9.9967682201460642e-02  9.9986781561529736e-02  9.9982143913591170e-02  9.9981393618860104e-02  9.9971268635197300e-02  1.0002513251436140e-01  9.9910630425548902e-02  1.0011573251897679e-01  9.9740389499486368e-02  9.9806883903280186e-02  1.0048033444499523e-01  1.0014924674774940e-01  9.9968034565324229e-02  1.0005127114602938e-01  1.0002864410311711e-01  1.0003531644586706e-01  1.0003241848131424e-01  1.0005122595736929e-01  1.0004402618074421e-01  1.0001786045784693e-01  1.0004213002496461e-01  1.0002521553246327e-01  1.0003281175236543e-01  1.0003531251957104e-01  1.0003213531368361e-01  1.0003210395141413e-01  1.0003565067036189e-01  1.0003193639620168e-01  1.0003251038082019e-01  1.0003347051317107e-01  1.0003151198903346e-01  1.0003088619425426e-01  1.0003260830513332e-01  1.0002963665941890e-01  1.0003292719754535e-01  1.0002800335256945e-01  1.0003706665035408e-01  1.0002059580339566e-01  1.0005025538636779e-01  1.0000000000000003e-01  9.9990975011591363e-02  1.0000000000000003e-01  9.9995750587641208e-02  9.9991917792536134e-02  9.9993388357722660e-02  9.9993285832492604e-02  9.9991186115002739e-02  9.9991664029666860e-02  9.9993185024852285e-02  9.9989056082731578e-02  9.9990323223819386e-02  9.9992403716475373e-02  9.9985557968795283e-02  9.9988772712293533e-02  9.9992166938807608e-02  9.9983646098384629e-02  9.9989438861669513e-02  9.9994680005575501e-02  9.9980383885937163e-02  9.9993510130585009e-02  9.9985428438505289e-02  9.9970082460549808e-02  9.9980825937265330e-02  9.9988126732477867e-02  9.9963873405210901e-02  9.9996858885506024e-02  9.9972672849682170e-02  1.0000768064942124e-01  9.9922900704071185e-02  1.0012205336415274e-01  9.9713436894139418e-02  9.9810344678261567e-02  1.0048843145947861e-01  1.0013623115777349e-01  9.9964925743013536e-02  1.0006371788780867e-01  1.0000944805037258e-01  1.0003280069507854e-01  1.0003795658368948e-01  1.0003680357452656e-01  1.0003594765262239e-01  1.0005320370878359e-01  1.0001657546655209e-01  1.0003305423854220e-01  1.0003039281977477e-01  1.0003071177314420e-01  1.0002883784892332e-01  1.0003456632062815e-01  1.0002990073894570e-01  1.0003089786069187e-01  1.0003290282852706e-01  1.0003025923075223e-01  1.0003042251832904e-01  1.0003080599711955e-01  1.0003006827758197e-01  1.0002842641603872e-01  1.0003196702788908e-01  1.0002615469211346e-01  1.0003550867808565e-01  1.0001968689182376e-01  1.0004801402234620e-01  1.0000000000000003e-01  9.9990806059811810e-02  1.0000000000000003e-01  9.9995085860851443e-02  9.9992132966742170e-02  9.9994061941633253e-02  9.9991338023559195e-02  9.9992191508812930e-02  9.9993075307507687e-02  9.9989930145409675e-02  9.9990979015612172e-02  9.9992956422616810e-02  9.9986844200364119e-02  9.9989000357069563e-02  9.9991482965960055e-02  9.9983752504951201e-02  9.9988792442794197e-02  9.9993183817234196e-02  9.9982085602833295e-02  9.9991724198491630e-02  9.9994163784799778e-02  9.9981932305145391e-02  9.9984349606830267e-02  9.9984906294537962e-02  9.9968144372274317e-02  9.9980870371032135e-02  9.9997552110009713e-02  9.9951454132518158e-02  1.0002409046492326e-01  9.9924989719289536e-02  1.0010412645294274e-01  9.9720651073110053e-02  9.9794056397862346e-02  1.0050005677647560e-01  1.0013679674636379e-01  9.9973807101796236e-02  1.0004993129885298e-01  1.0000786457368471e-01  1.0004321147054399e-01  1.0002361097801553e-01  1.0003113742412034e-01  1.0004410839175780e-01  1.0003712715493417e-01  1.0004250715775007e-01  1.0002447821912826e-01  1.0003192097940919e-01  1.0002395866142333e-01  1.0003488058199332e-01  1.0002768083909039e-01  1.0002986702834180e-01  1.0003225844259082e-01  1.0002973997480331e-01  1.0002961587922757e-01  1.0003177796456623e-01  1.0002885917819911e-01  1.0002976430539608e-01  1.0002886657091996e-01  1.0003054520616135e-01  1.0002580333579747e-01  1.0003498001477190e-01  1.0001924175729907e-01  1.0004683397712133e-01  1.0000000000000003e-01  9.9990316655345662e-02  1.0000000000000003e-01  9.9995192071475517e-02  9.9992510350508421e-02  9.9992605149738026e-02  9.9991862590998390e-02  9.9993357436741481e-02  9.9990288651190418e-02  9.9991228813925942e-02  9.9993092620150020e-02  9.9988421026789828e-02  9.9989629197901303e-02  9.9991752257784269e-02  9.9984625562558674e-02  9.9987591943783233e-02  9.9992156631668175e-02  9.9982316155301537e-02  9.9989409917881203e-02  9.9994605787863164e-02  9.9981942730295731e-02  9.9990515451483589e-02  1.0000063081863404e-01  9.9966520605985293e-02  9.9986994695440090e-02  9.9982489022237789e-02  9.9972759281309220e-02  9.9972432960742957e-02  1.0002505934174191e-01  9.9901428865952560e-02  1.0012061682474875e-01  9.9722508216058117e-02  9.9790227322466646e-02  1.0048457494791821e-01  1.0014624398625376e-01  9.9960716163203123e-02  1.0004824917469128e-01  1.0001749618364518e-01  1.0003062650365639e-01  1.0002031722058446e-01  1.0003941883510936e-01  1.0002878313636766e-01  1.0003425349732196e-01  1.0004350191727199e-01  1.0004150967765575e-01  1.0001644417850589e-01  1.0003654165359918e-01  1.0002280497409140e-01  1.0002855169416648e-01  1.0003047501601740e-01  1.0002812848264914e-01  1.0002791834910461e-01  1.0003082787961912e-01  1.0002836498261615e-01  1.0002820335616500e-01  1.0003011141148814e-01  1.0002686230450197e-01  1.0002956242936183e-01  1.0002547218976306e-01  1.0003314364196374e-01  1.0001857058791806e-01  1.0004503125702134e-01  1.0000000000000003e-01  9.9990116469346926e-02  1.0000000000000003e-01  9.9995376516537796e-02  9.9991269511356617e-02  9.9992895540087917e-02  9.9992565238460659e-02  9.9990956253474622e-02  9.9991112262836884e-02  9.9992782559726309e-02  9.9989072603800772e-02  9.9990209712967765e-02  9.9992147168029608e-02  9.9985936394593855e-02  9.9987501335504769e-02  9.9991321814038234e-02  9.9982404580246056e-02  9.9987185103536352e-02  9.9993420155674667e-02  9.9980908164121557e-02  9.9989845749117276e-02  9.9997861940176916e-02  9.9977565892865022e-02  9.9995926482784561e-02  9.9991041808164205e-02  9