<?xml version="1.0"?>
<VTKFile type="UnstructuredGrid"  version="0.1"  >
<UnstructuredGrid>
<Piece  NumberOfPoints="1933" NumberOfCells="3640">
<Points>
<DataArray  type="Float64"  NumberOfComponents="3"  format="ascii">0.2943322672594233 -0.00343959132466118 0  5.294332290776153 -0.003326789087966464 0  5.29416301489555 7.496673231606723 0  0.2941630086283197 7.49656046306951 0  10.29433235129382 -0.003213980712563053 0  10.29416301101931 7.49678601954137 0  15.29433244561222 -0.003101091065144691 0  15.29416298275254 7.496898896796404 0  20.29433255279544 -0.002988061060128657 0  20.29416291176856 7.497011919034143 0  25.29433264240172 -0.002874844906796776 0  25.29416277523431 7.497125129795756 0  30.29433267859295 -0.00276140678858257 0  30.29416254593808 7.497238563444115 0  35.29433262179423 -0.002647717898975338 0  35.29416219236175 7.49735224783556 0  40.2943324289088 -0.002533754102026221 0  40.29416167848987 7.497466206449418 0  45.29433205266199 -0.002419494215271888 0  45.29416096330451 7.497580459961831 0  50.29433144037869 -0.002304918829342445 0  50.29415999996683 7.497695027327851 0  55.29433053233279 -0.002190009570998854 0  55.29415873469313 7.49780992644555 0  60.29432925970234 -0.00207474873572199 0  60.29415710531982 7.49792517446037 0  65.29432754209145 -0.001959119242801039 0  65.29415503953288 7.498040787743136 0  70.29432528451895 -0.001843104893790554 0  70.29415245271375 7.498156781546467 0  75.29432237371084 -0.001726690943655384 0  75.29414924532993 7.498273169311232 0  80.29431867345255 -0.001609865025395925 0  80.29414529977308 7.498389961552855 0  85.29431401864187 -0.001492618508749399 0  85.29414047652281 7.498507164197711 0  90.29430820750694 -0.001374948431563941 0  90.29413460949652 7.498624776145864 0  95.29430099117405 -0.001256860237760515 0  95.29412750044889 7.498742785676479 0  100.2942920593155 -0.001138371727347146 0  100.2941189123441 7.498861165026599 0  105.2942810198563 -0.001019518953814747 0  105.2941085618131 7.498979861946461 0  110.2942673694609 -0.0009003654700489627 0  110.2940961112849 7.499098786039286 0  115.2942504493991 -0.0007810177177817099 0  115.2940811624621 7.499217785789424 0  120.2942293778177 -0.0006616523592420109 0  120.2940632551188 7.499336608511793 0  125.2942029434773 -0.0005425679816678248 0  125.294041879927 7.499454828362356 0  130.2941694363028 -0.0004242885749217562 0  130.2940165232914 7.499571713887359 0  135.2941263751297 -0.000307780665280128 0  135.2939867794645 7.499685980491571 0  140.2940700727249 -0.0001949266978076577 0  140.2939525948881 7.49979532383047 0  145.2939949606659 -8.958634638708071e-05 0  145.2939147518443 7.499895535941726 0  150.2938926261462 -6.787646298304016e-20 0  150.2938757222306 7.49997880806723 0  160.2938926261462 5.877312194763795e-20 0  165.2939896819483 8.7125894230977e-05 0  165.2939101449599 7.500093471340951 0  160.2938736211314 7.500015691613136 0  170.2940609689124 0.0001861085061082774 0  170.2939467256562 7.500189701278616 0  175.2941149498021 0.0002926090561678272 0  175.293979848912 7.50029496123128 0  180.2941567342672 0.000403559669049107 0  180.2940086858158 7.500405184475526 0  185.2941896362446 0.0005171242324841391 0  185.2940333340502 7.500518279260581 0  190.2942158899559 0.0006322212207761686 0  190.2940542090492 7.500633062421359 0  195.2942370486176 0.0007481978793189101 0  195.294071805004 7.500748825124148 0  200.2942542234661 0.0008646463787564038 0  200.2940865994383 7.500865124723044 0  205.294268231368 0.0009813034341628053 0  205.2940990189215 7.500981675767273 0  210.2942796877927 0.001097994698892201 0  210.2941094311439 7.501098289738926 0  215.2942890665812 0.001214602885864627 0  215.2941181477756 7.501214840247775 0  220.294296739278 0.001331048681422419 0  220.2941254310945 7.501331242076401 0  225.2943030016933 0.001447278780734749 0  225.2941315013342 7.501447438037022 0  230.2943080923359 0.001563258053023163 0  230.2941365435338 7.501563390401381 0  235.2943122055612 0.001678964214548962 0  235.2941407134963 7.501679075116765 0  240.2943155012028 0.001794384100077781 0  240.2941441428127 7.501794477792734 0  245.2943181118099 0.001909511004865385 0  245.2941469430439 7.501909590864234 0  250.2943201482194 0.002024342781067404 0  250.2941492091879 7.502024411573888 0  255.2943217039457 0.00213888049634412 0  255.294151022558 7.502138940555693 0  260.294322858717 0.002253127540176416 0  260.2941524531782 7.502253180888956 0  265.2943236813817 0.002367089117291873 0  265.2941535617797 7.502367137549578 0  270.2943242323396 0.002480772110115067 0  270.2941544014612 7.502480817229165 0  275.2943245655906 0.002594185330749497 0  275.2941550190531 7.502594228528279 0  280.2943247304402 0.002707340221995026 0  280.2941554562033 7.502707382562128 0  285.2943247728259 0.002820252106995971 0  285.2941557501914 7.502820294044738 0  290.2943247361241 0.002932942120824799 0  290.2941559344623 7.502932982935135 0  295.2943246611164 0.003045439953826128 0  295.2941560388877 7.503045476721194 0  300.2943245844987 0.003157787393192724 0  300.2941560898141 7.503157813356665 0  305.2943245347996 0.003270042024472837 0  305.2941561100912 7.503270044740831 0  310.2943245236874 0.003382278130495081 0  310.2941561195232 7.503382240626708 0  5.293993863510369 14.99667324870803 0  0.2939938669866853 14.99656059576717 0  10.29399382827368 14.99678596520906 0  15.29399374200298 14.99689879920953 0  20.29399358651851 14.9970117939961 0  25.29399334293267 14.99712498479086 0  30.29399299033658 14.99723840058182 0  35.29399250493842 14.99735206571922 0  40.29399185944595 14.99746600125895 0  45.29399102252978 14.99758022600209 0  50.29398995826811 14.99769475721258 0  55.29398862552031 14.99780961101558 0  60.29398697720748 14.99792480247951 0  65.2939849594981 14.99804034537094 0  70.29398251091501 14.99815625154588 0  75.29397956140242 14.99827252990249 0  80.29397603142708 14.99838918476309 0  85.29397183124703 14.99850621346714 0  90.29396686058251 14.99862360281894 0  95.29396100909047 14.99874132381139 0  100.2939541583201 14.99885932367874 0  105.2939461862642 14.99897751371983 0  110.2939369762941 14.99909575032317 0  115.2939264332333 14.99921380498514 0  120.2939145105649 14.99933131655524 0  125.2939012539575 14.99944771527237 0  130.2938868663071 14.99956210388037 0  135.2938717952885 14.99967307947724 0  140.2938568289516 14.99977849330025 0  145.2938431445851 14.99987521764335 0  150.293832174144 14.99995926867897 0  165.2938401572139 15.00011074244127 0  160.2938301626242 15.00003147075878 0  170.2938527841781 15.00020324501471 0  175.2938669877537 15.00030493324769 0  180.2938814728399 15.00041246222531 0  185.2938953794975 15.00052363576224 0  190.2939082391831 15.00063706459031 0  195.293919845975 15.00075186733284 0  200.2939301525243 15.00086747723056 0  205.2939392003171 15.00098352406392 0  210.2939470762732 15.00109976248877 0  215.2939538869361 15.00121602813077 0  220.2939597437295 15.00133221022626 0  225.2939647549382 15.00144823420424 0  230.2939690216731 15.00156405033008 0  235.2939726361445 15.00167962612121 0  240.293975681236 15.00179494116941 0  245.2939782307817 15.00190998354426 0  250.2939803501988 15.00202474727158 0  255.2939820972717 15.00213923057292 0  260.2939835229726 15.00225343467121 0  265.2939846722538 15.00236736304402 0  270.2939855847761 15.00248102105772 0  275.2939862955603 15.00259441595119 0  280.2939868355644 15.00270755716319 0  285.2939872322098 15.00282045701175 0  290.2939875099103 15.00293313173669 0  295.2939876907099 15.0030456029065 0  300.2939877952072 15.00315789918185 0  305.2939878440628 15.00327005849564 0  310.2939878605777 15.0033821311257 0  5.293825033081448 22.49667320129727 0  0.293825041698501 22.49656073840081 0  10.29382498893996 22.49678579601517 0  15.2938248878289 22.49689854977088 0  20.2938247129282 22.49701148766058 0  25.29382444927817 22.49712463230171 0  30.29382408203646 22.49723800392486 0  35.29382359535132 22.49735162066359 0  40.29382297164506 22.49746549890832 0  45.29382219116638 22.49757965361031 0  50.29382123171888 22.49769409844802 0  55.29382006851566 22.49780884579064 0  60.29381867414742 22.49792390640189 0  65.29381701868645 22.49803928882048 0  70.29381506998395 22.4981549983315 0  75.29381279426049 22.49827103540322 0  80.29381015714327 22.49838739340122 0  85.29380712537703 22.49850405529812 0  90.29380366953492 22.49862098895657 0  95.29379976818699 22.49873814035524 0  100.2937954141459 22.49885542382419 0  105.2937906235855 22.49897270792811 0  110.2937854489604 22.49908979506851 0  115.2937799966018 22.4992063922214 0  120.2937744493389 22.49932206972913 0  125.2937690929342 22.49943620546247 0  130.2937643416135 22.49954791486586 0  135.2937607513296 22.49965597786872 0  140.2937589990906 22.49975880098616 0  145.2937597963479 22.49985451492168 0  150.2937637122807 22.49994142481097 0  165.2937575790098 22.50012830066191 0  160.293761640959 22.50004516735873 0  170.2937562768856 22.50022030431195 0  175.2937575023851 22.50031968132598 0  180.2937606487526 22.50042459190651 0  185.2937650350661 22.50053341176393 0  190.2937700851215 22.50064489684427 0  195.2937753719237 22.50075815020821 0  200.2937806043924 22.50087254155162 0  205.2937855977605 22.50098763224898 0  210.2937902442634 22.50110311784137 0  215.2937944892671 22.50121878697461 0  220.29379831344 22.50133449292599 0  225.2938017200603 22.5014501340453 0  230.2938047262523 22.50156564030599 0  235.2938073570668 22.50168096399607 0  240.2938096415571 22.50179607321597 0  245.2938116102281 22.50191094729612 0  250.2938132934149 22.50202557354743 0  255.2938147202841 22.50213994495641 0  260.2938159182482 22.50225405856812 0  265.2938169126526 22.50236791438601 0  270.2938177266457 22.50248151467493 0  275.2938183811802 22.50259486358954 0  280.2938188951285 22.50270796707055 0  285.2938192855268 22.50282083295676 0  290.2938195679996 22.50293347125297 0  295.2938197574625 22.50304589447159 0  300.2938198692561 22.50315
[...]
<PointData  Scalars="p"> 
<DataArray  type="Float64"  Name="p"  format="ascii">1.0000000000000001e-01  1.0000000000000003e-01  9.9996699649731999e-02  1.0000000000000003e-01  1.0000000000000003e-01  9.9997183469055256e-02  1.0000000000000003e-01  9.9995588125663962e-02  1.0000000000000003e-01  9.9995347518925831e-02  1.0000000000000003e-01  9.9994330309519194e-02  1.0000000000000003e-01  9.9991580514208755e-02  1.0000000000000003e-01  9.9991116275223724e-02  1.0000000000000003e-01  9.9989092968456927e-02  1.0000000000000003e-01  9.9985797468923748e-02  1.0000000000000003e-01  9.9987480311290303e-02  1.0000000000000003e-01  9.9975741743609417e-02  1.0000000000000003e-01  9.9973286207721390e-02  1.0000000000000003e-01  9.9967582445837935e-02  1.0000000000000003e-01  9.9964047888386670e-02  1.0000000000000003e-01  9.9953790788805216e-02  1.0000000000000003e-01  9.9950565406902253e-02  1.0000000000000003e-01  9.9942123796950583e-02  1.0000000000000003e-01  9.9929807248915703e-02  1.0000000000000003e-01  9.9925588343006314e-02  1.0000000000000003e-01  9.9911048597580959e-02  1.0000000000000003e-01  9.9901908610973186e-02  1.0000000000000003e-01  9.9884793563461624e-02  1.0000000000000003e-01  9.9884734846056838e-02  1.0000000000000003e-01  9.9844326761436702e-02  1.0000000000000003e-01  9.9873683401736274e-02  1.0000000000000003e-01  9.9792403346581612e-02  1.0000000000000003e-01  9.9874175623358832e-02  1.0000000000000003e-01  9.9724480051449071e-02  1.0000000000000003e-01  9.9893579649428146e-02  1.0000000000000001e-01  9.9618615781180656e-02  1.0000000000000001e-01  1.0000000000000003e-01  1.0026550153129982e-01  1.0057726045811340e-01  1.0000000000000003e-01  1.0005697919057070e-01  1.0000000000000003e-01  1.0020430591140543e-01  1.0000000000000003e-01  1.0011752252903455e-01  1.0000000000000003e-01  1.0013934764881811e-01  1.0000000000000003e-01  1.0011553671638986e-01  1.0000000000000003e-01  1.0012190609486148e-01  1.0000000000000003e-01  1.0010207307116503e-01  1.0000000000000003e-01  1.0010314455511213e-01  1.0000000000000003e-01  1.0009540092930458e-01  1.0000000000000003e-01  1.0008922839756376e-01  1.0000000000000003e-01  1.0008483810596938e-01  1.0000000000000003e-01  1.0008167453404328e-01  1.0000000000000003e-01  1.0007620104560873e-01  1.0000000000000003e-01  1.0007369260723983e-01  1.0000000000000003e-01  1.0007094441518180e-01  1.0000000000000003e-01  1.0006765674404128e-01  1.0000000000000003e-01  1.0006553455526217e-01  1.0000000000000003e-01  1.0006391454371487e-01  1.0000000000000003e-01  1.0006135858276816e-01  1.0000000000000003e-01  1.0006048459137819e-01  1.0000000000000003e-01  1.0005830717972357e-01  1.0000000000000003e-01  1.0005839648979588e-01  1.0000000000000003e-01  1.0005471829807855e-01  1.0000000000000003e-01  1.0005843832108703e-01  1.0000000000000003e-01  1.0004954406216211e-01  1.0000000000000003e-01  1.0006208265627151e-01  1.0000000000000003e-01  1.0003921365896111e-01  1.0000000000000003e-01  1.0007763836035179e-01  1.0000000000000001e-01  1.0000000000000003e-01  9.9993317069151960e-02  1.0000000000000003e-01  9.9993551671110431e-02  9.9993212028710712e-02  9.9992119483124420e-02  9.9988891283366674e-02  9.9989313082191569e-02  9.9988243660340009e-02  9.9983117153107842e-02  9.9985723648290475e-02  9.9982900850536641e-02  9.9981060630964541e-02  9.9966959944611314e-02  9.9974218155141292e-02  9.9960339756141450e-02  9.9967023174559494e-02  9.9959677746504216e-02  9.9949719790700914e-02  9.9951594564965773e-02  9.9945916620978043e-02  9.9929544488775612e-02  9.9937545684674181e-02  9.9919832845927897e-02  9.9919502185910142e-02  9.9899605515941334e-02  9.9926101386279290e-02  9.9849606490637635e-02  9.9968934428852671e-02  9.9753637429618361e-02  1.0008108284436451e-01  9.9610080689638600e-02  9.9744542633039543e-02  1.0084333796267117e-01  1.0029454346393321e-01  1.0004398452032622e-01  1.0008818041341726e-01  1.0007027421221920e-01  1.0009689180424415e-01  1.0005614170560299e-01  1.0007359123034307e-01  1.0006524175055199e-01  1.0005618339455150e-01  1.0005503233954650e-01  1.0005439061864199e-01  1.0004577964349069e-01  1.0004540332954992e-01  1.0004371273785059e-01  1.0003876503827361e-01  1.0003761796787118e-01  1.0003631683833646e-01  1.0003303423904211e-01  1.0003168155428244e-01  1.0003092535104098e-01  1.0002789473858278e-01  1.0002803820654066e-01  1.0002489886947068e-01  1.0002678796229064e-01  1.0001955093807692e-01  1.0002973009779430e-01  1.0000929368334416e-01  1.0003837799895797e-01  1.0000000000000003e-01  9.9989462505327656e-02  1.0000000000000003e-01  9.9992974725273215e-02  9.9989888264191945e-02  9.9986378690173031e-02  9.9986483987493269e-02  9.9985235308003670e-02  9.9978233333524569e-02  9.9979977631839773e-02  9.9978341847589428e-02  9.9970940140049896e-02  9.9968216339069257e-02  9.9977435412579696e-02  9.9939312374692085e-02  9.9957649492128348e-02  9.9947169793981008e-02  9.9932921454883569e-02  9.9938871935240606e-02  9.9929321414133215e-02  9.9908760995946325e-02  9.9914870822514684e-02  9.9904974544840555e-02  9.9874825157252087e-02  9.9894867801349652e-02  9.9855920516218707e-02  9.9872182526076714e-02  9.9816589032004355e-02  9.9902415111908241e-02  9.9702496474567373e-02  1.0006351868781847e-01  9.9390617352820732e-02  9.9878837125813316e-02  1.0071929979657898e-01  1.0041074887900793e-01  1.0009227118493487e-01  1.0012102448450089e-01  1.0018371221958727e-01  1.0008029798906101e-01  1.0013617570293719e-01  1.0011602284709802e-01  1.0009818436699702e-01  1.0009864835891638e-01  1.0009949328965585e-01  1.0008186059832426e-01  1.0008335670342214e-01  1.0008057589510969e-01  1.0007084480305127e-01  1.0006958473908137e-01  1.0006800821493375e-01  1.0006125183247135e-01  1.0006000998122129e-01  1.0005811463627783e-01  1.0005408678622593e-01  1.0005193896392889e-01  1.0005146331526842e-01  1.0004652387621293e-01  1.0004828788763656e-01  1.0004138169177307e-01  1.0004844618163926e-01  1.0003032886355513e-01  1.0006077667384473e-01  1.0000000000000003e-01  9.9987217548765606e-02  1.0000000000000003e-01  9.9991343536043831e-02  9.9984425575291788e-02  9.9985287128388195e-02  9.9983917674396613e-02  9.9976244059145819e-02  9.9978077213708036e-02  9.9976295823176395e-02  9.9966712606655295e-02  9.9970034447840139e-02  9.9969185475612940e-02  9.9947776396061644e-02  9.9972135008996987e-02  9.9935567808354608e-02  9.9934394749916555e-02  9.9937769373410715e-02  9.9935215569869854e-02  9.9909608072176387e-02  9.9924626508914524e-02  9.9908909846461766e-02  9.9888739125619921e-02  9.9893404179967379e-02  9.9892149430423655e-02  9.9842104069182411e-02  9.9899789559351027e-02  9.9801730108789316e-02  9.9926003623111742e-02  9.9693297732612970e-02  1.0010485619627532e-01  9.9355769311091524e-02  9.9890594655030640e-02  1.0092245052354340e-01  1.0026802167032123e-01  1.0005139194062163e-01  1.0031113852082350e-01  1.0000635363115414e-01  1.0016097437227622e-01  1.0011027080675415e-01  1.0009937106926076e-01  1.0009604323230306e-01  1.0010578929981305e-01  1.0007685437398828e-01  1.0008385047952786e-01  1.0008091194014512e-01  1.0006784246100033e-01  1.0006705155731493e-01  1.0006595133217003e-01  1.0005663811171087e-01  1.0005564924309131e-01  1.0005408327101421e-01  1.0004785987070039e-01  1.0004670783459331e-01  1.0004427939447828e-01  1.0004136201398113e-01  1.0003755678451165e-01  1.0003941609008261e-01  1.0003009742464823e-01  1.0003935889968670e-01  1.0001925432097047e-01  1.0004690331134979e-01  1.0000000000000003e-01  9.9984919713829723e-02  1.0000000000000003e-01  9.9988020154923987e-02  9.9983883554865455e-02  9.9983814449338390e-02  9.9975491339718975e-02  9.9977312319099190e-02  9.9974981436229640e-02  9.9964174541453288e-02  9.9968100157592332e-02  9.9966873998353634e-02  9.9948293262616908e-02  9.9959377857875148e-02  9.9946606073680402e-02  9.9949283810960923e-02  9.9920296345712423e-02  9.9932973705753284e-02  9.9901976708757043e-02  9.9921474426559548e-02  9.9908445205815183e-02  9.9878052977468920e-02  9.9898732810683219e-02  9.9875680336613162e-02  9.9856466249405085e-02  9.9851922490326248e-02  9.9873060422653176e-02  9.9773203113447090e-02  9.9924840793229053e-02  9.9653649817199680e-02  1.0011684783108933e-01  9.9261448812639763e-02  9.9725299334148171e-02  1.0103405870909922e-01  1.0036916898348150e-01  1.0015584638295957e-01  1.0015797288070681e-01  1.0019747813306193e-01  1.0013503266758593e-01  1.0012635446449995e-01  1.0011144388288795e-01  1.0014485860921740e-01  1.0009189430725142e-01  1.0010909658335471e-01  1.0010492737921599e-01  1.0008607184688348e-01  1.0008653338459002e-01  1.0008673009962830e-01  1.0007211652551373e-01  1.0007194039456019e-01  1.0007032811767257e-01  1.0006161346881612e-01  1.0005988687521393e-01  1.0005857443859495e-01  1.0005191172867922e-01  1.0005112903563769e-01  1.0004732537280651e-01  1.0004624548622451e-01  1.0003895311033252e-01  1.0004620688272449e-01  1.0002634683281483e-01  1.0005485736845686e-01  1.0000000000000003e-01  9.9982079444439195e-02  1.0000000000000003e-01  9.9987930758978993e-02  9.9982430591486343e-02  9.9977294487224588e-02  9.9976724953769913e-02  9.9975277255490796e-02  9.9964454014009219e-02  9.9966929295236678e-02  9.9965897853446853e-02  9.9950376260572252e-02  9.9956288749315489e-02  9.9950734107860775e-02  9.9935303106361964e-02  9.9936218933774176e-02  9.9958953226595801e-02  9.9882988119380720e-02  9.9925347010737270e-02  9.9906781999213115e-02  9.9881309234654048e-02  9.9899190547818303e-02  9.9889807009608089e-02  9.9843147047104105e-02  9.9883938162857969e-02  9.9839037561894065e-02  9.9847173405516812e-02  9.9792723471558306e-02  9.9918771815055513e-02  9.9623676969942426e-02  1.0015984769678229e-01  9.9190015876275572e-02  9.9767970236562198e-02  1.0098001185159042e-01  1.0045301181646617e-01  1.0001168874654130e-01  1.0022622300347643e-01  1.0017669700470236e-01  1.0019148564308726e-01  1.0007522228510886e-01  1.0018562343049986e-01  1.0007915913563373e-01  1.0012565579621666e-01  1.0011498508165206e-01  1.0009174964177589e-01  1.0009238816170520e-01  1.0009659004704695e-01  1.0007552692403773e-01  1.0007757047252114e-01  1.0007626024272781e-01  1.0006377923419513e-01  1.0006296071105272e-01  1.0006165474560776e-01  1.0005350387032479e-01  1.0005136231916571e-01  1.0005056688465970e-01  1.0004298787883205e-01  1.0004430938785334e-01  1.0003627794072506e-01  1.0004229266538850e-01  1.0002317174184436e-01  1.0004966721641149e-01  1.0000000000000003e-01  9.9980861713194383e-02  1.0000000000000003e-01  9.9987327061839229e-02  9.9976877955408133e-02  9.9978464786822568e-02  9.9975566491353501e-02  9.9965791148759239e-02  9.9967088851685953e-02  9.9965975556763967e-02  9.9950736240703719e-02  9.9956900479764313e-02  9.9952700192107974e-02  9.9932601713863756e-02  9.9940106054017111e-02  9.9943164942157353e-02  9.9903375840953726e-02  9.9952759008587799e-02  9.9889060068548127e-02  9.9881578454058137e-02  9.9898403761035023e-02  9.9889770175257117e-02  9.9850180461084292e-02  9.9874806771318311e-02  9.9867414039454552e-02  9.9801332290868711e-02  9.9875306778679562e-02  9.9776097042368894e-02  9.9885657566968739e-02  9.9640583310313890e-02  1.0015242977201089e-01  9.9131919300318255e-02  9.9800418920648254e-02  1.0106791737306529e-01  1.0036232382850070e-01  1.0007081446648014e-01  1.0028297099483763e-01  1.0011592524809573e-01  1.0016401733970638e-01  1.0024205858289881e-01  1.0006635844478028e-01  1.0015200332266375e-01  1.0012620979858902e-01  1.0010978433751362e-01  1.0010351310207244e-01  1.0011569838357137e-01  1.0008519098051723e-01  1.0009028922477171e-01  1.0008997582283186e-01  1.0007415075890444e-01  1.0007289905192401e-01  1.0007251638406592e-01  1.0006117438056657e-01  1.0006021779042386e-01  1.0005785806607194e-01  1.0005165347633149e-01  1.0004779855970421e-01  1.0004846908214608e-01  1.0003836280054765e-01  1.0004520174984302e-01  1.0002607933896140e-01  1.0005186875655224e-01  1.0000000000000003e-01  9.9979626395340929e-02  1.0000000000000003e-01  9.9984387520960588e-02  9.9977690305218178e-02  9.9977975504209907e-02  9.9967807397555355e-02  9.9968979507566405e-02  9.9966832862882993e-02  9.9952851176538293e-02  9.9957683663655553e-02  9.9955562267268441e-02  9.9934776051185017e-02  9.9942649265290701e-02  9.9940821043718361e-02  9.9910900180549864e-02  9.9935328231775422e-02  9.9914122206492720e-02  9.9918359543229696e-02  9.9877049476972332e-02  9.9898204726279680e-02  9.9844128811589022e-02  9.9889220815492202e-02  9.9860890432291988e-02  9.9827482352179156e-02  9.9841242579850525e-02  9.9863729924005995e-02  9.9735776679627255e-02  9.9923987217922255e-02  9.9622272136294363e-02  1.0013673697935442e-01  9.9128524972230514e-02  9.9699620831173119e-02  1.0115097771318274e-01  1.0041912725921702e-01  1.0011656671628293e-01  1.0020527773063109e-01  1.0013413918017020e-01  1.0023053932132467e-01  1.0011513677219219e-01  1.0020478325019365e-01  1.0010959379710424e-01  1.0013210486884343e-01  1.0009912884352250e-01  1.0013688254107568e-01  1.0008769776236767e-01  1.0009987057539999e-01  1.0009927853428839e-01  1.0007957319141654e-01  1.0007956309264203e-01  1.0008095818355964e-01  1.0006541188430314e-01  1.0006462740351404e-01  1.0006380992438398e-01  1.0005371966733621e-01  1.0005280359555981e-01  1.0004915820420868e-01  1.0004575270866864e-01  1.0003812991771702e-01  1.0004461441771047e-01  1.0002443355623246e-01  1.0004971436113079e-01  1.0000000000000003e-01  9.9977690037023476e-02  1.0000000000000003e-01  9.9985014904361569e-02  9.9977417113232506e-02  9.9972239361735243e-02  9.9970237829428668e-02  9.9969301787202952e-02  9.9956183661758860e-02  9.9958711434425487e-02  9.9957470653012151e-02  9.9939964601653428e-02  9.9944557617847998e-02  9.9942930368817656e-02  9.9916421980901393e-02  9.9931398994028073e-02  9.9924498023670399e-02  9.9899372045482673e-02  9.9906029716102421e-02  9.9940388852700665e-02  9.9824434717479454e-02  9.9891380529290558e-02  9.9869771117618203e-02  9.9818671263237929e-02  9.9872544265396684e-02  9.9830433833990331e-02  9.9813083964256172e-02  9.9785636842611547e-02  9.9910608605118065e-02  9.9579711850393396e-02  1.0017790345848553e-01  9.9102183076292774e-02  9.9711064706446806e-02  1.0111634226706025e-01  1.0047627565514376e-01  1.0003879141161696e-01  1.0023887965568791e-01  1.0019229537217197e-01  1.0015309491863450e-01  1.0015637195486841e-01  1.0018270459444388e-01  1.0017447439665632e-01  1.0008074706136004e-01  1.0016603997638850e-01  1.0008490231871971e-01  1.0011524937247288e-01  1.0011010550436435e-01  1.0008835957243908e-01  1.0008666228602139e-01  1.0009194768714395e-01  1.0007206898566623e-01  1.0007280470969930e-01  1.0007178296408731e-01  1.0005965805366622e-01  1.0005754808716601e-01  1.0005727669248654e-01  1.0004720875872739e-01  1.0004795751016042e-01  1.0004050331359882e-01  1.0004394340230695e-01  1.0002571538222382e-01  1.0005015191199233e-01  1.0000000000000003e-01  9.9977217848185751e-02  1.0000000000000003e-01  9.9985032048366354e-02  9.9972839515283282e-02  9.9974229305979420e-02  9.9970579448831906e-02  9.9960341242504108e-02  9.9960935695320288e-02  9.9959631705152693e-02  9.9943433594464587e-02  9.9948296181502791e-02  9.9946382689228994e-02  9.9921718409642077e-02  9.9932373339889316e-02  9.9929959440921423e-02  9.9899648412131573e-02  9.9914260308603023e-02  9.9921595712493719e-02  9.9858865380514514e-02  9.9939598865275800e-02  9.9845403181066716e-02  9.9833280302918811e-02  9.9860902450757918e-02  9.9863382146133176e-02  9.9774521387183748e-02  9.9874867698283271e-02  9.9773064850338225e-02  9.9857402512253723e-02  9.9634284349150407e-02  1.0016832418826258e-01  9.9054943342589727e-02  9.9741725220545405e-02  1.0115263000453836e-01  1.0042142915034766e-01  1.0005777630468965e-01  1.0029069908700604e-01  1.0012165109272039e-01  1.0018044313502313e-01  1.0018640060946403e-01  1.0014609477662019e-01  1.0012993226650282e-01  1.0021440627035322e-01  1.0006320359407603e-01  1.0013501452257745e-01  1.0011065190024745e-01  1.0010061153520712e-01  1.0009024998307496e-01  1.0010282300074012e-01  1.0007593476156321e-01  1.0007847126523667e-01  1.0007973929873933e-01  1.0006464954484633e-01  1.0006268151953451e-01  1.0006184205249971e-01  1.0005223981656455e-01  1.0004872877966189e-01  1.0004939107421179e-01  1.0003802311410791e-01  1.0004383284864796e-01  1.0002576921247319e-01  1.0004843127072870e-01  1.0000000000000003e-01  9.9976845188070540e-02  1.0000000000000003e-01  9.9982935423171854e-02  9.9974364058113829e-02  9.9974957318440291e-02  9.9964153136858760e-02  9.9964608772373537e-02  9.9962315904228313e-02  9.9948460045067217e-02  9.9951387216638862e-02  9.9950613146470732e-02  9.9928516792987837e-02  9.9936238789032961e-02  9.9934222755973703e-02  9.9905473982916632e-02  9.9920118042938808e-02  9.9919767474295734e-02  9.9875445984438607e-02  9.9914438288013815e-02  9.9887853420080011e-02  9.9885904531217762e-02  9.9843165529784492e-02  9.9862739137312875e-02  9.9796840527649047e-02  9.9846597310612226e-02  9.9858352991633259e-02  9.9713375322683470e-02  9.9924296015536984e-02  9.9628260086488701e-02  1.0010926289546102e-01  9.9114043770730145e-02  9.9679479576497920e-02  1.0121753284306731e-01  1.0043680929639472e-01  1.0010008221558145e-01  1.0023300556784724e-01  1.0013896554613656e-01  1.0022272756378819e-01  1.0013742006602598e-01  1.0014826249135421e-01  1.0018047111391740e-01  1.0011551530138195e-01  1.0017214173700598e-01  1.0009599622206561e-01  1.0011852424483572e-01  1.0008658226498886e-01  1.0011875980742740e-01  1.0007869801439467e-01  1.0008591660836488e-01  1.0008671425203786e-01  1.0006948149094433e-01  1.0006840527311585e-01  1.0007015526479013e-01  1.0005541860081096e-01  1.0005481661058134e-01  1.0005195828345638e-01  1.0004621440565592e-01  1.0003906274397009e-01  1.0004481844642094e-01  1.0002497895567349e-01  1.0004797035554908e-01  1.0000000000000003e-01  9.9975557543207055e-02  1.0000000000000003e-01  9.9983720166912426e-02  9.9974810542691167e-02  9.9970301063403030e-02  9.9967015331535111e-02  9.9966082355926203e-02  9.9953222398819833e-02  9.9954528458949449e-02  9.9953854367375430e-02  9.9936048034969138e-02  9.9939638201279296e-02  9.9939026395909791e-02  9.9913370206025004e-02  9.9923373332370224e-02  9.9924282501313341e-02  9.9886089844456488e-02  9.9910716475670430e-02  9.9903135555121828e-02  9.9866776595591483e-02  9.9880310976252884e-02  9.9932515228125476e-02  9.9761461232720963e-02  9.9877843288522408e-02  9.9822938745038656e-02  9.9793020904891089e-02  9.9796590966331575e-02  9.9912926258642981e-02  9.9559991061090786e-02  1.0017974484044685e-01  9.9114427355467341e-02  9.9661676382960945e-02  1.0119528099571268e-01  1.0048645533507145e-01  1.0004779871980984e-01  1.0024092609945986e-01  1.0018074609061996e-01  1.0017157248896116e-01  1.0014378439108988e-01  1.0019166628496919e-01  1.0012338641674763e-01  1.0013839918339995e-01  1.0014527208617878e-01  1.0015400169126580e-01  1.0006543236671200e-01  1.0013935448717427e-01  1.0007375192630384e-01  1.0009594217776757e-01  1.0009215425563418e-01  1.0007472585432686e-01  1.0007144377623634e-01  1.0007615780329496e-01  1.0006016752660572e-01  1.0005893544651515e-01  1.0005855421349556e-01  1.0004658915734113e-01  1.0004677104517951e-01  1.0004059511659595e-01  1.0004175755764978e-01  1.0002503057008894e-01  1.0004691249612375e-01  1.0000000000000003e-01  9.9975883770121315e-02  1.0000000000000003e-01  9.9984459992899663e-02  9.9971725419325766e-02  9.9972931663632220e-02  9.9968655486638247e-02  9.9959388511055541e-02  9.9958615808639101e-02  9.9957511199216573e-02  9.9942333061621508e-02  9.9945588869749649e-02  9.9944098476603266e-02  9.9921508727065733e-02  9.9928627764153080e-02  9.9930055174444046e-02  9.9897109961999200e-02  9.9912822773915999e-02  9.9913877160803147e-02  9.9869953938410930e-02  9.9895241835788171e-02  9.9906746421502365e-02  9.9820712912506340e-02  9.9931026654228108e-02  9.9821042218922670e-02  9