<?xml version="1.0"?>
<VTKFile type="UnstructuredGrid"  version="0.1"  >
<UnstructuredGrid>
<Piece  NumberOfPoints="1933" NumberOfCells="3640">
<Points>
<DataArray  type="Float64"  NumberOfComponents="3"  format="ascii">-0.4754249663294503 -0.001226666223777143 0  4.524575074287231 -0.001203246541475506 0  4.524539949675526 7.49879685850598 0  -0.4754601122247172 7.498773403329285 0  9.52457513791178 -0.001179911420646731 0  9.524540055323987 7.498820202654596 0  14.52457526961564 -0.001156673829201923 0  14.52454022460162 7.498843440286739 0  19.52457551207175 -0.001133514061655399 0  19.52454047529049 7.498866597484573 0  24.52457590104967 -0.001110394385749041 0  24.52454082321508 7.498889714383294 0  29.52457646523324 -0.001087266393489466 0  29.52454128170767 7.498912840251528 0  34.52457722733635 -0.001064074601970689 0  34.52454186121307 7.498936030817696 0  39.52457820541731 -0.001040757936623283 0  39.52454256907046 7.498959347162902 0  44.52457941401257 -0.001017249927729234 0  44.52454340935788 7.498982855679018 0  49.52458086498009 -0.0009934780510138677 0  49.52454438267961 7.499006628787813 0  54.52458256803561 -0.0009693624191199442 0  54.52454548579501 7.49903074626588 0  59.52458453098113 -0.0009448138920084139 0  59.52454671099909 7.499055297127249 0  64.52458675961516 -0.0009197315760371848 0  64.52454804515318 7.499080382098651 0  69.52458925727294 -0.0008939995974042841 0  69.52454946824409 7.499106116796373 0  74.52459202390087 -0.000867482947220297 0  74.5245509513022 7.499132635789978 0  79.52459505447719 -0.0008400220855436307 0  79.52455245343791 7.49916009782998 0  84.52459833646544 -0.0008114258404751017 0  84.52455391766038 7.499188692632669 0  89.5246018457542 -0.0007814619191035376 0  89.52455526499843 7.499218649766906 0  94.52460554015435 -0.000749844021483453 0  94.52455638625989 7.499250250380187 0  99.52460934881938 -0.000716214062114146 0  99.52455713056192 7.499283842724811 0  104.5246131547063 -0.0006801172824791009 0  104.5245572895613 7.499319862649039 0  109.5246167648573 -0.0006409670009741161 0  109.5245565763307 7.49935886024056 0  114.5246198589743 -0.000597994352591125 0  114.5245545984671 7.499401533237722 0  119.5246218986192 -0.0005501767924511168 0  119.5245508273619 7.499448765654459 0  124.5246219640272 -0.0004961382903403036 0  124.5245445720446 7.49950166402845 0  129.5246184563776 -0.0004340173221635343 0  129.5245349820136 7.499561568901526 0  134.5246085478504 -0.0003613170498752159 0  134.524521140741 7.499629985950003 0  139.5245871546079 -0.0002748245603876392 0  139.5245023956535 7.499708315068438 0  144.5245449915982 -0.0001709670050224881 0  144.5244792602797 7.499797161027539 0  149.5244647711509 -4.81564747157321e-05 0  149.524455679231 7.499895097200688 0  159.5244717418526 8.525553181487053e-19 0  164.524419902791 -0.0001015968689060964 0  164.524463935258 7.499878941274771 0  159.5244740485051 7.49995451714706 0  169.5244028257872 -0.0001728851750338657 0  169.5244533576631 7.499817527683552 0  174.5244022113091 -0.0002229263638651167 0  174.524446547878 7.499772014749871 0  179.5244092348256 -0.0002572581833933181 0  179.5244436410472 7.499739982380364 0  184.5244195050007 -0.0002798133458838936 0  184.5244437707287 7.499718656345506 0  189.5244308202652 -0.0002934637305870291 0  189.5244459904992 7.49970568315722 0  194.52444208825 -0.0003003142375316701 0  194.5244495241535 7.499699214535251 0  199.5244527852554 -0.0003019144188122292 0  199.524453799056 7.499697834375184 0  204.5244626805171 -0.0002994148894349901 0  204.524458415409 7.499700463345101 0  209.5244716938015 -0.0002936802468819739 0  209.5244631039799 7.499706275668768 0  214.5244798211751 -0.0002853691080143746 0  214.5244676888485 7.49971463426066 0  219.5244870960296 -0.000274990428705301 0  219.524472058803 7.49972504234331 0  224.5244935685383 -0.0002629431995656115 0  224.5244761467 7.499737107966814 0  229.5244992948624 -0.0002495446415511535 0  229.5244799150511 7.499750518081782 0  234.524504331573 -0.0002350504649164991 0  234.5244833461494 7.49976501951888 0  239.5245087329042 -0.0002196696239634218 0  239.5244864353826 7.49978040492192 0  244.5245125495677 -0.0002035752164723053 0  244.5244891867578 7.49979650223894 0  249.5245158284431 -0.0001869126450367088 0  249.5244916099436 7.499813166788621 0  254.5245186127877 -0.0001698057983754763 0  254.5244937183644 7.499830275216871 0  259.5245209427615 -0.0001523617653805417 0  259.5244955280162 7.499847720869846 0  264.5245228561885 -0.0001346744218046726 0  264.5244970567929 7.499865410264355 0  269.524524389498 -0.0001168270996032533 0  269.5244983241685 7.499883260453919 0  274.5245255788554 -9.889443952776139e-05 0  274.5244993511145 7.499901197187275 0  279.524526461474 -8.094341855658196e-05 0  279.524500160168 7.499919153848563 0  284.5245270771124 -6.303341342289346e-05 0  284.5245007755543 7.499937071268388 0  289.5245274696591 -4.521498143074507e-05 0  289.5245012232666 7.499954898611855 0  294.5245276886113 -2.752677106733601e-05 0  294.5245015310314 7.499972595690632 0  299.524527789815 -9.989571033713982e-06 0  299.5245017281256 7.499990137205491 0  304.5245278340863 7.404035079900057e-06 0  304.5245018453316 7.500007519584131 0  309.5245278804786 2.47062584176692e-05 0  309.524501916105 7.500024771296983 0  4.524504599079891 14.99879708495669 0  -0.4754954643649223 14.99877357101769 0  9.524504692402353 14.99882043260404 0  14.52450482981721 14.99884365375168 0  19.52450501882584 14.99886678965979 0  24.52450526377016 14.99888988640462 0  29.5245055668911 14.99891299509833 0  34.5245059283566 14.99893617155517 0  39.52450634589673 14.99895947621657 0  44.5245068142776 14.99898297453386 0  49.52450732466787 14.99900673782374 0  54.52450786387754 14.99903084458137 0  59.52450841341534 14.99905538225711 0  64.52450894830081 14.99908044953832 0  69.52450943555215 14.99910615921688 0  74.52450983227324 14.99913264176494 0  79.52451008325932 14.99916004978027 0  84.52451011806912 14.99918856349499 0  89.52450984757155 14.99921839755116 0  94.52450916013396 14.99924980919507 0  99.52450791792607 14.99928310785447 0  104.5245059544576 14.99931866557731 0  109.5245030756138 14.99935692671813 0  114.5244990685454 14.9993984129612 0  119.524493726253 14.99944371516994 0  124.5244869011535 14.99949345470759 0  129.5244786083644 14.99954818055213 0  134.5244692068098 14.99960813979228 0  139.5244596847753 14.99967281086486 0  144.5244520382115 14.9997400069928 0  149.5244495700791 14.99980416804147 0  164.524473307625 14.99982531051315 0  159.5244717921113 14.99986451173652 0  169.5244696263989 14.99978702662361 0  174.5244643564027 14.99975482073556 0  179.5244595270781 14.99973028371505 0  184.5244559363048 14.99971318018848 0  189.5244537271303 14.99970260272337 0  194.5244527532106 14.99969750644052 0  199.5244527707411 14.99969692031149 0  204.5244535286518 14.99970001279473 0  209.5244548053798 14.9997060972978 0  214.5244564196181 14.99971461582914 0  219.5244582294579 14.9997251171877 0  224.5244601271249 14.99973723610697 0  229.5244620326781 14.99975067543931 0  234.5244638881274 14.99976519168163 0  239.5244656524539 14.9997805834899 0  244.5244672976208 14.99979668265874 0  249.5244688054759 14.9998133470625 0  254.5244701653924 14.9998304551346 0  259.5244713725005 14.99984790155709 0  264.5244724263648 14.99986559391666 0  269.5244733300012 14.9998834501599 0  274.5244740891381 14.99990139674318 0  279.5244747116392 14.99991936742765 0  284.5244752070754 14.99993730271296 0  289.524475586408 14.99995514992526 0  294.5244758619201 14.99997286394745 0  299.524476047623 14.99999040844156 0  304.5244761607086 15.00000775701903 0  309.5244762250924 15.00002489284215 0  4.524469089987896 22.49879750570562 0  -0.4755309701274425 22.49877397802729 0  9.524469161623681 22.49882082697021 0  14.52446925160879 22.49884400442396 0  19.52446936149471 22.49886709256263 0  24.52446948943722 22.49889014370252 0  29.52446963124748 22.49891321101941 0  34.52446978069687 22.49893635010484 0  39.52446992935553 22.49895961995306 0  44.52447006616838 22.49898308385101 0  49.52447017688176 22.49900681039554 0  54.52447024336831 22.49903087474122 0  59.52447024286846 22.49905536013431 0  64.52447014715666 22.49908035977218 0  69.52446992165055 22.49910597902051 0  74.5244695245114 22.49913233801393 0  79.5244689058413 22.49915957463901 0  84.52446800717584 22.49918784783927 0  89.52446676163544 22.49921734105565 0  94.52446509534983 22.49924826537274 0  99.52446293116336 22.49928086148754 0  104.5244601962103 22.49931539881187 0  109.5244568357505 22.49935216861876 0  114.5244528366463 22.49939146580831 0  119.5244482648005 22.4994335501386 0  124.5244433210865 22.49947857221376 0  129.5244384181081 22.49952644221135 0  134.5244342720828 22.49957661224859 0  139.5244319838918 22.49962774410337 0  144.5244330412775 22.49967726659533 0  149.5244391025199 22.49972096715133 0  164.5244641143566 22.4997645487646 0  159.5244583258801 22.49977958322243 0  169.5244650838245 22.49974590145364 0  174.5244630144952 22.49972792022193 0  179.5244595129549 22.49971302571092 0  184.5244556876108 22.49970224156396 0  189.5244521706702 22.49969573867037 0  194.5244492552274 22.49969325127814 0  199.524447026479 22.49969433206536 0  204.5244454562625 22.49969848967323 0  209.5244444629676 22.49970525499059 0  214.524443946388 22.49971420826085 0  219.5244438064196 22.49972498618946 0  224.5244439520582 22.49973727967368 0  229.5244443048957 22.49975082772967 0  234.5244447996902 22.49976541038301 0  239.5244453835042 22.49978084179969 0  244.5244460142528 22.49979696416952 0  249.5244466590985 22.49981364248453 0  254.5244472929199 22.49983076018716 0  259.5244478969293 22.49984821560138 0  264.5244484574845 22.49986591904422 0  269.5244489650711 22.49988379052327 0  274.524449413455 22.49990175793832 0  279.5244497989879 22.4999197557125 0  284.5244501200869 22.49993772376824 0  289.5244503769413 22.49995560671727 0  294.5244505715758 22.49
[...]
<PointData  Scalars="p"> 
<DataArray  type="Float64"  Name="p"  format="ascii">1.0000000000000001e-01  1.0000000000000003e-01  1.0000028806868545e-01  1.0000000000000003e-01  1.0000000000000003e-01  1.0000146188579591e-01  1.0000000000000003e-01  1.0000220322487320e-01  1.0000000000000003e-01  1.0000307916781685e-01  1.0000000000000003e-01  1.0000370623881408e-01  1.0000000000000003e-01  1.0000392441872062e-01  1.0000000000000003e-01  1.0000461135642666e-01  1.0000000000000003e-01  1.0000476641326139e-01  1.0000000000000003e-01  1.0000493875731695e-01  1.0000000000000003e-01  1.0000649646306378e-01  1.0000000000000003e-01  1.0000400913775061e-01  1.0000000000000003e-01  1.0000525504221584e-01  1.0000000000000003e-01  1.0000479800453314e-01  1.0000000000000003e-01  1.0000512841562703e-01  1.0000000000000003e-01  1.0000355553314251e-01  1.0000000000000003e-01  1.0000345510424592e-01  1.0000000000000003e-01  1.0000153602638796e-01  1.0000000000000003e-01  9.9998898274653081e-02  1.0000000000000003e-01  9.9997453710757883e-02  1.0000000000000003e-01  9.9993282596266081e-02  1.0000000000000003e-01  9.9990254377123763e-02  1.0000000000000003e-01  9.9985012697810766e-02  1.0000000000000003e-01  9.9983064471089692e-02  1.0000000000000003e-01  9.9972308889413830e-02  1.0000000000000003e-01  9.9976807967537940e-02  1.0000000000000003e-01  9.9956099721283734e-02  1.0000000000000003e-01  9.9973029441501340e-02  1.0000000000000003e-01  9.9936242489601812e-02  1.0000000000000003e-01  9.9974258532043100e-02  1.0000000000000001e-01  9.9907452589961171e-02  1.0000000000000001e-01  1.0000000000000003e-01  1.0002165300504325e-01  1.0010457885356283e-01  1.0000000000000003e-01  9.9981883154962425e-02  1.0000000000000003e-01  1.0001283831809321e-01  1.0000000000000003e-01  9.9991015049333470e-02  1.0000000000000003e-01  9.9994859920405382e-02  1.0000000000000003e-01  9.9988568836567537e-02  1.0000000000000003e-01  9.9988221698356028e-02  1.0000000000000003e-01  9.9982777230185768e-02  1.0000000000000003e-01  9.9982172427487859e-02  1.0000000000000003e-01  9.9979495739878396e-02  1.0000000000000003e-01  9.9977484840102493e-02  1.0000000000000003e-01  9.9976119487083639e-02  1.0000000000000003e-01  9.9975009653804084e-02  1.0000000000000003e-01  9.9973600946539190e-02  1.0000000000000003e-01  9.9972988236825086e-02  1.0000000000000003e-01  9.9972366412247993e-02  1.0000000000000003e-01  9.9971656745646093e-02  1.0000000000000003e-01  9.9971417943856847e-02  1.0000000000000003e-01  9.9971070137569229e-02  1.0000000000000003e-01  9.9970949256296376e-02  1.0000000000000003e-01  9.9970588539352992e-02  1.0000000000000003e-01  9.9971040424389868e-02  1.0000000000000003e-01  9.9970129466209701e-02  1.0000000000000003e-01  9.9971662363029734e-02  1.0000000000000003e-01  9.9969110179961851e-02  1.0000000000000003e-01  9.9973599787411757e-02  1.0000000000000003e-01  9.9966202754276395e-02  1.0000000000000003e-01  9.9978668225587167e-02  1.0000000000000003e-01  9.9956765087124755e-02  1.0000000000000001e-01  1.0000000000000003e-01  9.9999250680218796e-02  1.0000000000000003e-01  9.9999947513603735e-02  1.0000005377619851e-01  1.0000004710881391e-01  9.9999546694922128e-02  9.9999742444546569e-02  9.9999419792718272e-02  9.9998461172667905e-02  9.9999290317606862e-02  9.9998615061395749e-02  9.9999479427524324e-02  9.9995482442060080e-02  9.9998772409756617e-02  9.9995917198544310e-02  9.9997914981690236e-02  9.9995544500952993e-02  9.9993427844110264e-02  9.9993160245507598e-02  9.9990700381514391e-02  9.9986533977192413e-02  9.9987126253074751e-02  9.9981597019034363e-02  9.9980582991125500e-02  9.9975049246237832e-02  9.9979087693174387e-02  9.9961976467300998e-02  9.9987424300553671e-02  9.9939102872472568e-02  1.0001328125942954e-01  9.9907332004295815e-02  9.9935335627139105e-02  1.0012038135054173e-01  1.0006582789948595e-01  1.0000080285039006e-01  1.0001424477986155e-01  1.0001113868376620e-01  1.0001401144357706e-01  1.0000428468345011e-01  1.0000758506524624e-01  1.0000399184443441e-01  1.0000110800308135e-01  1.0000041627905785e-01  9.9999389515658607e-02  9.9997003825378253e-02  9.9996769195605628e-02  9.9996015600023094e-02  9.9994747722800287e-02  9.9994406867296826e-02  9.9994005365987779e-02  9.9993065690864302e-02  9.9992908476531236e-02  9.9992295491385969e-02  9.9992114181032862e-02  9.9991122471270025e-02  9.9991904664177580e-02  9.9989525117876496e-02  9.9992654789623603e-02  9.9986040223843747e-02  9.9996488111292650e-02  9.9979309321298976e-02  1.0000000000000003e-01  9.9998302964794269e-02  1.0000000000000003e-01  9.9999502419943820e-02  9.9999505214475190e-02  9.9999146709616363e-02  9.9999543942637228e-02  9.9999172975261258e-02  9.9997914198038718e-02  9.9998383531142820e-02  9.9997760959062543e-02  9.9996893372585466e-02  9.9996163413384423e-02  9.9999865277842145e-02  9.9990362739551031e-02  9.9997023399727492e-02  9.9994131171064163e-02  9.9992050545310157e-02  9.9992796606776596e-02  9.9989396595122446e-02  9.9984443672219009e-02  9.9984554776347753e-02  9.9979915681471132e-02  9.9972417415195719e-02  9.9974702761137735e-02  9.9963671971552273e-02  9.9965773027557769e-02  9.9952584855093715e-02  9.9968418579909957e-02  9.9926357445933880e-02  1.0000366664908285e-01  9.9857715947670525e-02  9.9996523608537127e-02  1.0005124666219699e-01  1.0005440717887894e-01  1.0000396235677603e-01  1.0001601114699148e-01  1.0002240358058161e-01  1.0000037844173734e-01  1.0001264724877128e-01  1.0000466327929419e-01  9.9999343223475035e-02  9.9998764468803208e-02  9.9997020512923057e-02  9.9992198118138156e-02  9.9992142911027607e-02  9.9990639289524993e-02  9.9988053299849153e-02  9.9987714427331661e-02  9.9986965807691258e-02  9.9985330058655772e-02  9.9984929312686099e-02  9.9984457105232599e-02  9.9983164679215780e-02  9.9983104812834969e-02  9.9981954370806578e-02  9.9982271452122712e-02  9.9980007566247087e-02  9.9982434885298246e-02  9.9976818596219985e-02  9.9985589726550986e-02  9.9967271303990954e-02  1.0000000000000003e-01  9.9997607116795256e-02  1.0000000000000003e-01  9.9998764037806609e-02  9.9997593368232301e-02  9.9998154293582539e-02  9.9997612076158759e-02  9.9996056973586434e-02  9.9996324413809901e-02  9.9995216300034453e-02  9.9993250000053324e-02  9.9993855679050517e-02  9.9993338065038032e-02  9.9988698807386242e-02  9.9996659230268722e-02  9.9985374024911408e-02  9.9988551502964915e-02  9.9988855794125156e-02  9.9987597358173544e-02  9.9981613629918697e-02  9.9983829691017850e-02  9.9977828531909993e-02  9.9972486943075867e-02  9.9971668348592654e-02  9.9968044398830946e-02  9.9956459614888402e-02  9.9966387845338886e-02  9.9943697139559126e-02  9.9968896618604697e-02  9.9920944806868264e-02  1.0000591111257182e-01  9.9852670860025500e-02  1.0001767230038711e-01  1.0008092464890210e-01  1.0002227916731221e-01  1.0001396478988391e-01  1.0006059573574527e-01  9.9995811751778851e-02  1.0003329901865379e-01  1.0001736236301492e-01  1.0001367403191531e-01  1.0001242438848677e-01  1.0001169484103277e-01  1.0000388308339737e-01  1.0000484678783085e-01  1.0000274612008581e-01  9.9999061106710793e-02  9.9998632462008130e-02  9.9997753285129012e-02  9.9995291077655951e-02  9.9995054118775309e-02  9.9994210473337605e-02  9.9992753005332391e-02  9.9992014529342726e-02  9.9991672573280121e-02  9.9989839660555274e-02  9.9990345079270460e-02  9.9987545565889291e-02  9.9990216501857535e-02  9.9983407089699244e-02  9.9992764965490519e-02  9.9975605745513396e-02  1.0000000000000003e-01  9.9996903407738855e-02  1.0000000000000003e-01  9.9997659876239611e-02  9.9997052268304409e-02  9.9996951554833138e-02  9.9995546417404574e-02  9.9995832026889844e-02  9.9994777884447536e-02  9.9992300418174987e-02  9.9992862787832315e-02  9.9991837685744753e-02  9.9987687299581449e-02  9.9990725585724541e-02  9.9986536743682505e-02  9.9990747124242566e-02  9.9980986610951950e-02  9.9986012839273816e-02  9.9979371003678943e-02  9.9983685615555415e-02  9.9978088038731774e-02  9.9971140778978534e-02  9.9973465194346550e-02  9.9965199033933569e-02  9.9959372369176958e-02  9.9956688101241392e-02  9.9956495684142568e-02  9.9936174260465305e-02  9.9964292646125122e-02  9.9909717652215582e-02  1.0000287075560273e-01  9.9834249701686834e-02  9.9994970148826648e-02  1.0008006861831832e-01  1.0004630461984296e-01  1.0003643465046017e-01  1.0001292773797896e-01  1.0004222254765745e-01  1.0002157495277013e-01  1.0001845259595203e-01  1.0001678236197434e-01  1.0001985214374649e-01  1.0000619882040813e-01  1.0000942681651691e-01  1.0000608456065196e-01  1.0000057130473160e-01  1.0000035485954070e-01  9.9999183852706258e-02  9.9995282011661357e-02  9.9995124297462795e-02  9.9994256748266994e-02  9.9991886964728965e-02  9.9991523429528648e-02  9.9990538672650661e-02  9.9989192748360295e-02  9.9987928497480588e-02  9.9988017704749826e-02  9.9985111171246088e-02  9.9987123584690682e-02  9.9981085030619435e-02  9.9989442812562002e-02  9.9971763810556211e-02  1.0000000000000003e-01  9.9996096717619165e-02  1.0000000000000003e-01  9.9997373716906063e-02  9.9996035866707245e-02  9.9995035666074067e-02  9.9994932030904052e-02  9.9994236785607565e-02  9.9991785661383739e-02  9.9992047766773326e-02  9.9990715643342040e-02  9.9987218720179641e-02  9.9988228363874165e-02  9.9985645026013814e-02  9.9983443593566396e-02  9.9982735389053404e-02  9.9989911542682081e-02  9.9969687544608873e-02  9.9982627047932704e-02  9.9976081089748550e-02  9.9971529775474036e-02  9.9973621451320868e-02  9.9967993405357614e-02  9.9957115836485796e-02  9.9963015354650200e-02  9.9949857858168623e-02  9.9949030536101865e-02  9.9938066862998678e-02  9.9957207124238251e-02  9.9903348239721634e-02  1.0000501891587824e-01  9.9821934487478378e-02  1.0002435861350423e-01  1.0005377993457870e-01  1.0006180555060032e-01  1.0001265291970526e-01  1.0004022483986272e-01  1.0003377318555583e-01  1.0003604084424529e-01  1.0001663023441258e-01  1.0003617333499575e-01  1.0001080813881780e-01  1.0002125538766538e-01  1.0001537607747943e-01  1.0000840157784542e-01  1.0000808363966453e-01  1.0000709349196656e-01  1.0000142429388206e-01  1.0000166959698790e-01  1.0000038330364223e-01  9.9997168063520783e-02  9.9996806122864518e-02  9.9996146500126878e-02  9.9993647286670012e-02  9.9993407245839258e-02  9.9991848771619166e-02  9.9991211348330306e-02  9.9988490251813764e-02  9.9990547738794414e-02  9.9983948058766495e-02  9.9992102893649418e-02  9.9975336410557253e-02  1.0000000000000003e-01  9.9995673161583171e-02  1.0000000000000003e-01  9.9996837965593541e-02  9.9994523663886073e-02  9.9994784131174616e-02  9.9993744644762364e-02  9.9991572113079685e-02  9.9991912283729972e-02  9.9990572704209357e-02  9.9987184071907542e-02  9.9988204651976095e-02  9.9985614334278203e-02  9.9981552478136393e-02  9.9982769049230660e-02  9.9982680047867603e-02  9.9973440726548748e-02  9.9988126542833414e-02  9.9967135475257596e-02  9.9970737687849920e-02  9.9973133983556409e-02  9.9969199479105292e-02  9.9959701647292690e-02  9.9963313250611252e-02  9.9956416038220211e-02  9.9942226013889607e-02  9.9953420703302751e-02  9.9931667143743283e-02  9.9948257357355449e-02  9.9907313266025699e-02  9.9994845939849170e-02  9.9817149515192813e-02  1.0003749218165005e-01  1.0006649842830671e-01  1.0003881740825991e-01  1.0003675979084488e-01  1.0005050721157369e-01  1.0002187193252747e-01  1.0002762255585999e-01  1.0005036470809475e-01  1.0000870469335107e-01  1.0002955031069942e-01  1.0002056680588092e-01  1.0001448180829597e-01  1.0001267809438548e-01  1.0001276766426534e-01  1.0000440324508174e-01  1.0000511829228670e-01  1.0000374190232604e-01  9.9999318055273567e-02  9.9998894099145613e-02  9.9998034652990425e-02  9.9995184625327679e-02  9.9994549757962611e-02  9.9993895651341064e-02  9.9991278173446801e-02  9.9991307660056553e-02  9.9988576151874994e-02  9.9989781015343074e-02  9.9983708606032701e-02  9.9991360005779170e-02  9.9974581371434001e-02  1.0000000000000003e-01  9.9995166296488844e-02  1.0000000000000003e-01  9.9996042060550183e-02  9.9994427731451480e-02  9.9993984454043214e-02  9.9991643128216401e-02  9.9991765170586125e-02  9.9990449713373147e-02  9.9987445441439338e-02  9.9988181152420197e-02  9.9986425287915848e-02  9.9981697259640678e-02  9.9982951893005961e-02  9.9981037634014891e-02  9.9974456113089083e-02  9.9980364516138689e-02  9.9972261721574210e-02  9.9978552344048274e-02  9.9963089226071791e-02  9.9970098601829274e-02  9.9958449080085485e-02  9.9967683093840742e-02  9.9957112646487087e-02  9.9948803556062921e-02  9.9950179344196546e-02  9.9947591051436149e-02  9.9924073679407269e-02  9.9954117837814216e-02  9.9902410521299570e-02  9.9986343811626577e-02  9.9824399790028204e-02  1.0002176100944216e-01  1.0007697248601731e-01  1.0005592343872008e-01  1.0005005794746104e-01  1.0003620697863340e-01  1.0003551151454942e-01  1.0004482413682714e-01  1.0001728364888315e-01  1.0004342346933419e-01  1.0002123308916984e-01  1.0002353015736283e-01  1.0001708909684245e-01  1.0002240300838593e-01  1.0000921742627886e-01  1.0001152916412601e-01  1.0000940117381904e-01  1.0000368093783096e-01  1.0000349142051171e-01  1.0000274746660297e-01  9.9998436589223333e-02  9.9998304682499567e-02  9.9997236320363045e-02  9.9994928417993817e-02  9.9993626244985992e-02  9.9993510727927545e-02  9.9989875951291121e-02  9.9991554323561369e-02  9.9985476654857880e-02  9.9992479782891400e-02  9.9976427008032553e-02  1.0000000000000003e-01  9.9994604318957681e-02  1.0000000000000003e-01  9.9996062472903435e-02  9.9993892622273442e-02  9.9992525077783501e-02  9.9991887996230822e-02  9.9990826254748005e-02  9.9987882797789751e-02  9.9988175701741733e-02  9.9986889610330532e-02  9.9983026590438548e-02  9.9983667234313206e-02  9.9981590358494021e-02  9.9975776921338091e-02  9.9978850390680274e-02  9.9974608717857474e-02  9.9970573563907580e-02  9.9969960720552017e-02  9.9979926969072833e-02  9.9948700981414049e-02  9.9968257651113834e-02  9.9959112440778153e-02  9.9949925151118349e-02  9.9958224926841269e-02  9.9945367723157222e-02  9.9938285621648998e-02  9.9935235683768373e-02  9.9947328313638770e-02  9.9896748758771983e-02  9.9989770257903787e-02  9.9825529785910611e-02  1.0003161871479559e-01  1.0006495784602662e-01  1.0006697763532992e-01  1.0003500529621921e-01  1.0004891849746708e-01  1.0005041994656357e-01  1.0002853351680353e-01  1.0003274974104284e-01  1.0003158757824122e-01  1.0003346990758875e-01  1.0001482706338712e-01  1.0003144108999951e-01  1.0001139067626870e-01  1.0001796729158133e-01  1.0001429124227137e-01  1.0000760117539220e-01  1.0000689377930486e-01  1.0000647305879645e-01  1.0000112289852094e-01  1.0000097055263346e-01  9.9999950658093362e-02  9.9996424393698741e-02  9.9996149650143140e-02  9.9994751406104698e-02  9.9993138561332642e-02  9.9990680173245736e-02  9.9992050782838404e-02  9.9985612615156358e-02  9.9992542233435483e-02  9.9976836757526485e-02  1.0000000000000003e-01  9.9994362103113618e-02  1.0000000000000003e-01  9.9995827834815781e-02  9.9992809029624874e-02  9.9992840827435703e-02  9.9991283824322083e-02  9.9988771443443647e-02  9.9988639700522630e-02  9.9987245378917219e-02  9.9983627322865129e-02  9.9984742223991979e-02  9.9982657546605708e-02  9.9977418659211975e-02  9.9979479050872178e-02  9.9976454581229113e-02  9.9970221266231035e-02  9.9972354205686786e-02  9.9972130119227814e-02  9.9957293557783225e-02  9.9980067713711096e-02  9.9948454492634592e-02  9.9952953858645305e-02  9.9957382799725603e-02  9.9953775668124134e-02  9.9935537681998296e-02  9.9952162936851260e-02  9.9930098294201117e-02  9.9937747478488284e-02  9.9910408173105467e-02  9.9981201228545785e-02  9.9825720107567711e-02  1.0004132566863674e-01  1.0007602651983924e-01  1.0005449485384929e-01  1.0004463637154164e-01  1.0006149997079461e-01  1.0003647364861000e-01  1.0004135555769715e-01  1.0004159249670276e-01  1.0002552860528384e-01  1.0002155367487979e-01  1.0004308770587700e-01  1.0000886479021523e-01  1.0002539513261205e-01  1.0001819685161881e-01  1.0001370869663039e-01  1.0001095054493997e-01  1.0001185385658659e-01  1.0000432058002380e-01  1.0000455947841441e-01  1.0000370290414809e-01  9.9999526993512569e-02  9.9998552748676250e-02  9.9998071273305622e-02  9.9994628550165943e-02  9.9994687292384296e-02  9.9992075800363595e-02  9.9992479636889287e-02  9.9986845508393457e-02  9.9993333187421582e-02  9.9978027369176076e-02  1.0000000000000003e-01  9.9994129592055253e-02  1.0000000000000003e-01  9.9995379250716263e-02  9.9993138204164486e-02  9.9992619150482687e-02  9.9989914540369165e-02  9.9989680148547200e-02  9.9988169258990636e-02  9.9984858898057943e-02  9.9985350108915752e-02  9.9983892268589850e-02  9.9979220706334637e-02  9.9980821918020726e-02  9.9978517123678806e-02  9.9972328032473551e-02  9.9974770171923216e-02  9.9971969318811069e-02  9.9962050368549785e-02  9.9971106706817234e-02  9.9959653790232042e-02  9.9966724911884908e-02  9.9947858473473886e-02  9.9954904947178222e-02  9.9940485056143460e-02  9.9952202994106176e-02  9.9945729587734469e-02  9.9920981372342815e-02  9.9952892897929330e-02  9.9907863171096289e-02  9.9968824702963019e-02  9.9845767548324707e-02  1.0002582440680419e-01  1.0009951319873223e-01  1.0006036720980635e-01  1.0005578496972246e-01  1.0004834252169793e-01  1.0004442142630786e-01  1.0005179948596175e-01  1.0003222498485925e-01  1.0003062436342748e-01  1.0003458644436718e-01  1.0001483708457314e-01  1.0003357384927919e-01  1.0001637528685098e-01  1.0001959086735486e-01  1.0001293663424535e-01  1.0001807304362680e-01  1.0000715517986765e-01  1.0000834053917487e-01  1.0000705051475799e-01  1.0000182447041868e-01  1.0000151872352164e-01  1.0000068998792279e-01  9.9996891943287702e-02  9.9995860896277280e-02  9.9995667809715763e-02  9.9991796764064583e-02  9.9993109807049563e-02  9.9987685700265033e-02  9.9993317059365400e-02  9.9978823713073720e-02  1.0000000000000003e-01  9.9993768965186094e-02  1.0000000000000003e-01  9.9995586828842062e-02  9.9992991158924793e-02  9.9991698557673939e-02  9.9990635121350355e-02  9.9989481323106755e-02  9.9986353697023383e-02  9.9986328480260303e-02  9.9984926821947873e-02  9.9981058774890746e-02  9.9981723638716255e-02  9.9980223051102407e-02  9.9974851066220422e-02  9.9976875363878420e-02  9.9974395604439187e-02  9.9965853888809519e-02  9.9970844567350434e-02  9.9964859440076589e-02  9.9958948867995334e-02  9.9958946015125075e-02  9.9972747353900521e-02  9.9927889909749379e-02  9.9958809758241798e-02  9.9942133292872201e-02  9.9936094151569621e-02  9.9939899328662471e-02  9.9948228320387231e-02  9.9897571038881888e-02  9.9984375260519551e-02  9.9847588941443161e-02  1.0001781006832187e-01  1.0010751953642850e-01  1.0007574180567526e-01  1.0004350202451494e-01  1.0005247057070626e-01  1.0005515768511475e-01  1.0004038242478232e-01  1.0003742254127063e-01  1.0004267908006503e-01  1.0002285177576241e-01  1.0002434541324906e-01  1.0002239937978233e-01  1.0002703329358614e-01  1.0000962060519177e-01  1.0002477930536700e-01  1.0000868087690985e-01  1.0001335168171817e-01  1.0001070371973621e-01  1.0000521481287405e-01  1.0000402148510734e-01  1.0000391844592463e-01  9.9999202565703452e-02  9.9998883887504025e-02  9.9997274025925703e-02  9.9994991057747562e-02  9.9992787065157601e-02  9.9994026861470200e-02  9.9987881326684680e-02  9.9993866531968026e-02  9.9979929012919341e-02  1.0000000000000003e-01  9.9993868053162224e-02  1.0000000000000003e-01  9.9995742666421333e-02  9.9992515064739468e-02  9.9992527248337751e-02  9.9990812163578843e-02  9.9988400602553415e-02  9.9987915110127945e-02  9.9986507181157605e-02  9.9982989814723755e-02  9.9983609463047532e-02  9.9981860544864992e-02  9.9977137679171282e-02  9.9979010605391355e-02  9.9977240419495794e-02  9.9970187261052321e-02  9.9973217356025129e-02  9.9969662327346456e-02  9.9960617704233423e-02  9.9964749369145595e-02  9.9964362576748983e-02  9.9944187131593129e-02  9.9975146308224766e-02  9.9935080313629673e-02  9