<?xml version="1.0"?>
<VTKFile type="UnstructuredGrid"  version="0.1"  >
<UnstructuredGrid>
<Piece  NumberOfPoints="1933" NumberOfCells="3640">
<Points>
<DataArray  type="Float64"  NumberOfComponents="3"  format="ascii">0.4754542495471601 0.0004161553155711843 0  5.475454259098358 0.0003955889028459346 0  5.47548513123082 7.500395626877838 0  0.4754851074237749 7.500416168109507 0  10.47545426846502 0.0003749833091140527 0  10.47548517724951 7.500375031015552 0  15.47545429852327 0.0003543117315905936 0  15.47548525828227 7.500354362904096 0  20.47545437404641 0.0003335664000359503 0  20.4754853873235 7.500333618552168 0  25.47545451936774 0.0003127513233214542 0  25.47548557772302 7.500312803662398 0  30.47545475711365 0.0002918780903608761 0  30.47548584289551 7.500291930611426 0  35.47545510820073 0.0002709634215774818 0  35.47548619610881 7.500271016492422 0  40.47545559232702 0.0002500278259035949 0  40.47548665042441 7.500250081996928 0  45.47545622862638 0.0002290949951397666 0  45.47548721875486 7.500229150917432 0  50.47545703635103 0.0002081917194817187 0  50.4754879139835 7.500208250116575 0  55.4754580355328 0.0001873482036578164 0  55.47548874910093 7.50018740987063 0  60.47545924761322 0.0001665987284908964 0  60.47548973731951 7.500166664545177 0  65.4754606960456 0.0001459826519429112 0  65.47549089213018 7.500146053603022 0  70.47546240687389 0.0001255457863227326 0  70.47549222726265 7.500125622982715 0  75.47546440928971 0.0001053422320389428 0  75.47549375649837 7.50010542692608 0  80.47546673615383 8.543680076486613e-05 0  80.4754954932645 7.500085530380519 0  85.47546942444356 6.590823155933989e-05 0  85.47549744990295 7.500066012163674 0  90.47547251554099 4.685350548710521e-05 0  90.47549963645761 7.500046969161478 0  95.47547605519112 2.839371770806923e-05 0  95.47550205875019 7.500028521946726 0  100.4754800927891 1.068220227680558e-05 0  100.4755047154158 7.500010822364144 0  105.4754846793397 -6.084026543429406e-06 0  105.4755075934484 7.499994063837822 0  110.4754898628132 -2.164787509326409e-05 0  110.475510661693 7.499978495407757 0  115.4754956784114 -3.566827186379855e-05 0  115.4755138617241 7.499964440736562 0  120.4755021288909 -4.768485380812944e-05 0  120.4755170959253 7.499952323350721 0  125.4755091454076 -5.706532348414607e-05 0  125.4755202140465 7.499942698679553 0  130.4755165100893 -6.292701436334751e-05 0  130.475523003686 7.499936290793142 0  135.4755237030482 -6.402236223149139e-05 0  135.4755252009083 7.499934024471179 0  140.4755295990577 -5.858375695507318e-05 0  140.4755265636499 7.499937027014047 0  145.4755318594795 -4.417168499252673e-05 0  145.4755271154619 7.499946549698316 0  150.4755256748517 -1.784638741246105e-05 0  150.4755278358085 7.499963789787718 0  160.4755282581476 1.041324715525803e-18 0  165.475480195855 -6.507177914599863e-05 0  165.4755191129894 7.499925050680054 0  160.4755332840484 7.499975706019753 0  170.4754534134242 -0.0001207223869559662 0  170.4755045647309 7.49987438774235 0  175.4754380750552 -0.000169826888442657 0  175.4754924909854 7.499827489303057 0  180.4754292088256 -0.0002138396037916546 0  180.4754832015645 7.499784605122851 0  185.4754241366445 -0.0002538379353269797 0  185.4754763220079 7.499745228149831 0  190.4754213566351 -0.000290668940315479 0  190.4754713542769 7.49970875389265 0  195.4754199978278 -0.0003249901280554987 0  195.4754678466301 7.499674644134779 0  200.4754195382876 -0.0003573059710190906 0  200.4754654337181 7.499642457400313 0  205.4754196546284 -0.0003880029249672188 0  205.4754638337387 7.499611841716711 0  210.4754201397211 -0.0004173789046287612 0  210.4754628337016 7.499582518490977 0  215.4754208566406 -0.0004456661228907013 0  215.4754622737474 7.499554266562613 0  220.4754217122469 -0.0004730480453646554 0  220.4754620338908 7.499526908926667 0  225.4754226416057 -0.0004996717402404997 0  225.4754620237364 7.499500302382525 0  230.4754235985293 -0.0005256568329325743 0  230.4754621748156 7.499474329681308 0  235.475424549657 -0.0005511020269814478 0  235.4754624349727 7.499448893621468 0  240.4754254706376 -0.000576089899889462 0  240.4754627642826 7.499423912603954 0  245.475426343606 -0.000600690477716434 0  245.4754631320802 7.499399317261708 0  250.4754271554743 -0.0006249639407529297 0  250.4754635147957 7.49937504787587 0  255.4754278967665 -0.0006489627050250806 0  255.4754638943758 7.49935105236979 0  260.4754285608227 -0.0006727330489777509 0  260.4754642571272 7.499327284731625 0  265.4754291432805 -0.0006963164011066013 0  265.47546459288 7.499303703761337 0  270.4754296417658 -0.0007197503643025888 0  270.4754648943895 7.499280272072651 0  275.4754300557789 -0.0007430695192232754 0  275.4754651569139 7.499256955310388 0  280.475430386752 -0.0007663060151038106 0  280.4754653779385 7.499233721572397 0  285.4754306382982 -0.0007894899131800238 0  285.4754655569867 7.499210541059059 0  290.4754308166491 -0.0008126491811645421 0  290.4754656955034 7.499187386017812 0  295.4754309312815 -0.0008358091215293754 0  295.4754657967557 7.499164231111937 0  300.4754309956486 -0.0008589908023936212 0  300.4754658657343 7.499141054427962 0  305.4754310277365 -0.0008822076486569527 0  305.4754659091137 7.4991178394394 0  310.4754310496405 -0.0009054585485432029 0  310.4754659356145 7.499094578337632 0  5.475515868404665 15.00039571963483 0  0.4755158411717339 15.00041620235358 0  10.47551591782056 15.0003751453332 0  15.47551600116331 15.00035448190682 0  20.47551612688007 15.00033373555408 0  25.47551630218906 15.00031291694622 0  30.47551653391026 15.00029204078708 0  35.4755168287151 15.00027112518981 0  40.47551719313598 15.00025019123551 0  45.47551763348316 15.00022926281374 0  50.4755181557225 15.00020836675494 0  55.47551876531975 15.00018753324428 0  60.47551946703638 15.00016679651452 0  65.47552026465078 15.00014619583381 0  70.47552116056816 15.00012577682677 0  75.47552215527995 15.00010559319445 0  80.47552324661891 15.00008570892843 0  85.47552442875873 15.00006620114871 0  90.47552569090142 15.0000471637333 0  95.47552701562009 15.00002871194099 0  100.4755283768812 15.0000109882438 0  105.475529737916 14.99999416954141 0  110.4755310494061 14.99997847573941 0  115.4755322490415 14.99996417915514 0  120.4755332645882 14.99995161299827 0  125.4755340244699 14.99994117452358 0  130.4755344827865 14.99993331294494 0  135.4755346695251 14.99992848104733 0  140.4755347795435 14.99992700683731 0  145.4755353074973 14.99992879246195 0  150.4755371901908 14.99993261539034 0  165.4755413246804 14.99989895351014 0  160.4755438086963 14.99993617792009 0  170.4755361570597 14.9998584719059 0  175.4755299465034 14.99981785929389 0  180.4755238583019 14.99977870542555 0  185.4755184508695 14.99974154125252 0  190.4755139103608 14.99970639629323 0  195.4755102331603 14.99967310008801 0  200.4755073322771 14.99964142240834 0  205.4755050931239 14.99961113308012 0  210.4755034004095 14.99958202443361 0  215.4755021496618 14.99955391718616 0  220.4755012510053 14.99952665948821 0  225.4755006292952 14.99950012355276 0  230.4755002227209 14.9994742017864 0  235.4754999809319 14.99944880318312 0  240.4754998631575 14.9994238502237 0  245.4754998365237 14.99939927630509 0  250.4754998746285 14.99937502364263 0  255.4754999563687 14.99935104156684 0  260.4755000649918 14.99932728514046 0  265.4755001873352 14.99930371403402 0  270.4755003132212 14.99928029161391 0  275.4755004349672 14.99925698421252 0  280.4755005469851 14.99923376056498 0  285.4755006454539 14.99921059141072 0  290.4755007280344 14.99918744926546 0  295.4755007936603 14.99916430836029 0  300.4755008424468 14.99914114468647 0  305.4755008758828 14.99911793589538 0  310.4755008976102 14.99909466026442 0  5.475546445163288 22.5003959166163 0  0.4755464179282834 22.50041633973967 0  10.47554648761214 22.50037536471602 0  15.47554655443132 22.50035470409433 0  20.47554665112804 22.50033395192972 0  25.47554678116794 22.50031312521072 0  30.47554694693241 22.500292242024 0  35.4755471501752 22.50027132213242 0  40.47554739215959 22.5002503872811 0  45.47554767360631 22.50022946147077 0  50.47554799452924 22.50020857131948 0  55.47554835399465 22.50018774657393 0  60.47554874981677 22.50016702080782 0  65.47554917818908 22.50014643233804 0  70.47554963324353 22.50012602539198 0  75.47555010653342 22.50010585156625 0  80.47555058644247 22.500085971622 0  85.47555105754371 22.50006645766141 0  90.47555149997227 22.50004739571418 0  95.47555188894238 22.50002888871715 0  100.4755521946579 22.50001105976372 0  105.4755523830502 22.49999405528367 0  110.4755524180663 22.49997804739482 0  115.4755522666273 22.49996323389844 0  120.4755519078791 22.49994983302783 0  125.4755513488032 22.49993806775718 0  130.4755506482143 22.49992813080973 0  135.4755499495451 22.49992011621858 0  140.4755495172278 22.49991389726623 0  145.4755497573385 22.49990892950179 0  150.4755511735608 22.49990398727997 0  165.4755596943116 22.49987003681979 0  160.4755566854259 22.49989893655378 0  170.4755601363611 22.49983737943856 0  175.4755587426985 22.49980302328455 0  180.4755562938985 22.4997684192558 0  185.4755534075468 22.49973442017934 0  190.4755504884589 22.49970143767768 0  195.4755477671993 22.49966961326873 0  200.4755453547887 22.49963894168537 0  205.4755432881631 22.49960934651008 0  210.4755415620096 22.49958072266161 0  215.4755401491958 22.49955295869062 0  220.4755390131151 22.49952594759264 0  225.4755381147605 22.49949959139475 0  230.475537416524 22.49947380251722 0  235.4755368840452 22.49944850356136 0  240.4755364869397 22.49942362640358 0  245.4755361989131 22.49939911104726 0  250.4755359975559 22.49937490445429 0  255.4755358639983 22.49935095945535 0  260.4755357825083 22.49932723377784 0  265.4755357400935 22.49930368919903 0  270.4755357261191 22.49928029082004 0  275.4755357319598 22.4992570064512 0  280.4755357506796 22.4992338060955 0  285.4755357767489 22.4992106615111 0  290.4755358058032 22.4991875458158 0  295.4755358344774 22
[...]
<PointData  Scalars="p"> 
<DataArray  type="Float64"  Name="p"  format="ascii">1.0000000000000001e-01  1.0000000000000003e-01  9.9999711938218563e-02  1.0000000000000003e-01  1.0000000000000003e-01  9.9998538286554139e-02  1.0000000000000003e-01  9.9997796980557663e-02  1.0000000000000003e-01  9.9996921189388063e-02  1.0000000000000003e-01  9.9996294256144425e-02  1.0000000000000003e-01  9.9996076021278954e-02  1.0000000000000003e-01  9.9995389293909775e-02  1.0000000000000003e-01  9.9995234355957127e-02  1.0000000000000003e-01  9.9995061990925074e-02  1.0000000000000003e-01  9.9993504878197373e-02  1.0000000000000003e-01  9.9995991606705456e-02  1.0000000000000003e-01  9.9994745917908301e-02  1.0000000000000003e-01  9.9995202995323093e-02  1.0000000000000003e-01  9.9994872914907051e-02  1.0000000000000003e-01  9.9996445429165831e-02  1.0000000000000003e-01  9.9996546351481988e-02  1.0000000000000003e-01  9.9998465440519907e-02  1.0000000000000003e-01  1.0000110292673686e-01  1.0000000000000003e-01  1.0000254791181389e-01  1.0000000000000003e-01  1.0000671905874310e-01  1.0000000000000003e-01  1.0000974693032784e-01  1.0000000000000003e-01  1.0001498903017131e-01  1.0000000000000003e-01  1.0001693728465648e-01  1.0000000000000003e-01  1.0002769252590206e-01  1.0000000000000003e-01  1.0002319374870781e-01  1.0000000000000003e-01  1.0004390229576557e-01  1.0000000000000003e-01  1.0002697173639701e-01  1.0000000000000003e-01  1.0006376001045923e-01  1.0000000000000003e-01  1.0002574249659509e-01  1.0000000000000001e-01  1.0009255081117187e-01  1.0000000000000001e-01  1.0000000000000003e-01  9.9978347735600812e-02  9.9895435260267423e-02  1.0000000000000003e-01  1.0001811482507270e-01  1.0000000000000003e-01  9.9987162745865887e-02  1.0000000000000003e-01  1.0000898461452448e-01  1.0000000000000003e-01  1.0000514048022982e-01  1.0000000000000003e-01  1.0001143125903560e-01  1.0000000000000003e-01  1.0001177875916421e-01  1.0000000000000003e-01  1.0001722311048364e-01  1.0000000000000003e-01  1.0001782804188994e-01  1.0000000000000003e-01  1.0002050478220571e-01  1.0000000000000003e-01  1.0002251574501506e-01  1.0000000000000003e-01  1.0002388109591855e-01  1.0000000000000003e-01  1.0002499099886529e-01  1.0000000000000003e-01  1.0002639972258641e-01  1.0000000000000003e-01  1.0002701244172571e-01  1.0000000000000003e-01  1.0002763430172089e-01  1.0000000000000003e-01  1.0002834398470517e-01  1.0000000000000003e-01  1.0002858278507058e-01  1.0000000000000003e-01  1.0002893061699911e-01  1.0000000000000003e-01  1.0002905150057403e-01  1.0000000000000003e-01  1.0002941222439589e-01  1.0000000000000003e-01  1.0002896033700713e-01  1.0000000000000003e-01  1.0002987131807731e-01  1.0000000000000003e-01  1.0002833838007129e-01  1.0000000000000003e-01  1.0003089062723446e-01  1.0000000000000003e-01  1.0002640090320167e-01  1.0000000000000003e-01  1.0003379810945634e-01  1.0000000000000003e-01  1.0002133231979939e-01  1.0000000000000003e-01  1.0004323598280471e-01  1.0000000000000001e-01  1.0000000000000003e-01  1.0000074917914266e-01  1.0000000000000003e-01  1.0000005236165260e-01  9.9999946175177878e-02  9.9999952904675393e-02  1.0000045309590933e-01  1.0000025752444139e-01  1.0000058025266180e-01  1.0000153848340282e-01  1.0000070977196876e-01  1.0000138502000476e-01  1.0000052072145288e-01  1.0000451682197899e-01  1.0000122795935877e-01  1.0000408206824329e-01  1.0000208528110248e-01  1.0000445556071663e-01  1.0000657145326254e-01  1.0000683980655412e-01  1.0000929963549446e-01  1.0001346498964107e-01  1.0001287368832172e-01  1.0001840276681441e-01  1.0001941582546682e-01  1.0002495035869514e-01  1.0002091205181080e-01  1.0003802214324253e-01  1.0001257527533941e-01  1.0006089707008320e-01  9.9986717200603287e-02  1.0009266907836332e-01  1.0006465574300061e-01  9.9879643323926182e-02  9.9934178300612395e-02  9.9999197419781152e-02  9.9985756815847426e-02  9.9988862478552806e-02  9.9985990347894974e-02  9.9995716549629493e-02  9.9992416357626582e-02  9.9996009519230517e-02  9.9998893324274876e-02  9.9999584932856489e-02  1.0000061174645565e-01  1.0000299735021931e-01  1.0000323189171723e-01  1.0000398549438642e-01  1.0000525331828257e-01  1.0000559408281770e-01  1.0000599557198260e-01  1.0000693519078820e-01  1.0000709232439352e-01  1.0000770528562444e-01  1.0000788652911433e-01  1.0000887819053801e-01  1.0000809592601888e-01  1.0001047546704976e-01  1.0000734564684477e-01  1.0001396031969785e-01  1.0000351210526268e-01  1.0002069125585310e-01  1.0000000000000003e-01  1.0000169669468219e-01  1.0000000000000003e-01  1.0000049743506353e-01  1.0000049474654296e-01  1.0000085297674936e-01  1.0000045597348600e-01  1.0000082708194717e-01  1.0000208533795384e-01  1.0000161640416173e-01  1.0000223915317766e-01  1.0000310621685272e-01  1.0000383634232324e-01  1.0000013594713503e-01  1.0000963527985608e-01  1.0000297697685019e-01  1.0000586888525170e-01  1.0000794844612791e-01  1.0000720357190697e-01  1.0001060360180657e-01  1.0001555477510775e-01  1.0001544530722480e-01  1.0002008426185595e-01  1.0002758061067918e-01  1.0002529708123351e-01  1.0003632756996157e-01  1.0003422500940568e-01  1.0004741431248781e-01  1.0003158144810276e-01  1.0007364003536261e-01  9.9996333667125389e-02  1.0014228413274115e-01  1.0000346696808111e-01  9.9948781022083530e-02  9.9945602773608949e-02  9.9996038405533089e-02  9.9983990811564380e-02  9.9977599682576287e-02  9.9999623276326499e-02  9.9987355210743797e-02  9.9995339018039017e-02  1.0000065898920431e-01  1.0000123751017428e-01  1.0000298162612528e-01  1.0000780388062419e-01  1.0000785891951534e-01  1.0000936256748129e-01  1.0001194847467976e-01  1.0001228718289794e-01  1.0001303581705119e-01  1.0001467147630172e-01  1.0001507208840926e-01  1.0001554426438651e-01  1.0001683661068587e-01  1.0001689635215677e-01  1.0001804675978160e-01  1.0001772956481909e-01  1.0001999340320081e-01  1.0001756593451613e-01  1.0002318227629989e-01  1.0001441081399796e-01  1.0003272961456236e-01  1.0000000000000003e-01  1.0000239245595385e-01  1.0000000000000003e-01  1.0000123579225959e-01  1.0000240611196035e-01  1.0000184540297269e-01  1.0000238775903242e-01  1.0000394226394735e-01  1.0000367519621604e-01  1.0000478345809062e-01  1.0000674894690893e-01  1.0000614385614727e-01  1.0000666185875309e-01  1.0001129930026276e-01  1.0000334170124382e-01  1.0001462423131668e-01  1.0001144690007951e-01  1.0001114352211399e-01  1.0001240238287375e-01  1.0001838386835243e-01  1.0001616978571266e-01  1.0002217060802952e-01  1.0002751000983699e-01  1.0002833055785169e-01  1.0003195444619993e-01  1.0004353657008436e-01  1.0003361093100771e-01  1.0005630072067352e-01  1.0003110054250743e-01  1.0007905223225338e-01  9.9994089595387720e-02  1.0014732374654525e-01  9.9982318239443563e-02  9.9919108214158489e-02  9.9977730768856826e-02  9.9986035356944836e-02  9.9939411738743988e-02  1.0000418949183357e-01  9.9966704813577584e-02  9.9982640746957466e-02  9.9986329164860041e-02  9.9987578276677036e-02  9.9988308154152911e-02  9.9996119559141561e-02  9.9995155644295078e-02  9.9997256362839904e-02  1.0000094121877290e-01  1.0000136959005000e-01  1.0000224878660915e-01  1.0000471085425339e-01  1.0000494761424085e-01  1.0000579122170998e-01  1.0000724855979097e-01  1.0000798686800461e-01  1.0000832874305471e-01  1.0001016155134887e-01  1.0000965595654122e-01  1.0001245543537353e-01  1.0000978428339090e-01  1.0001659374247632e-01  1.0000723548459174e-01  1.0002439504274128e-01  1.0000000000000003e-01  1.0000309608579269e-01  1.0000000000000003e-01  1.0000233967919869e-01  1.0000294728937839e-01  1.0000304815668165e-01  1.0000445277838525e-01  1.0000416749668238e-01  1.0000522178442604e-01  1.0000769834396145e-01  1.0000713661650704e-01  1.0000816201647110e-01  1.0001231080444914e-01  1.0000927401747943e-01  1.0001346228325471e-01  1.0000925239066646e-01  1.0001901092694543e-01  1.0001398682819181e-01  1.0002062582533307e-01  1.0001631381800996e-01  1.0002191095913622e-01  1.0002885555925942e-01  1.0002653366255861e-01  1.0003479941645767e-01  1.0004062321349486e-01  1.0004330985478029e-01  1.0004350271367345e-01  1.0006382002619341e-01  1.0003570641798391e-01  1.0009027797773273e-01  9.9997128690901271e-02  1.0016574304881463e-01  1.0000501840666208e-01  9.9919970010533501e-02  9.9953707025400698e-02  9.9963567515335305e-02  9.9987078656058812e-02  9.9957781903424262e-02  9.9978429180042558e-02  9.9981551660909343e-02  9.9983220983541718e-02  9.9980151990795949e-02  9.9993804598515285e-02  9.9990576419888497e-02  9.9993918703361648e-02  9.9999431753001813e-02  9.9999647866576113e-02  1.0000081891360173e-01  1.0000472053017803e-01  1.0000487797576955e-01  1.0000574550254381e-01  1.0000811512981839e-01  1.0000847842512689e-01  1.0000946312369044e-01  1.0001080887914095e-01  1.0001207295379549e-01  1.0001198361683353e-01  1.0001489005236092e-01  1.0001287739225605e-01  1.0001891598244296e-01  1.0001055778627627e-01  1.0002823714270720e-01  1.0000000000000003e-01  1.0000390259317778e-01  1.0000000000000003e-01  1.0000262589556398e-01  1.0000396371962197e-01  1.0000496348002742e-01  1.0000506733979961e-01  1.0000576280541246e-01  1.0000821302336253e-01  1.0000795140670617e-01  1.0000928383616239e-01  1.0001277939126813e-01  1.0001177066722709e-01  1.0001435406001394e-01  1.0001655414332877e-01  1.0001726296621173e-01  1.0001008975397974e-01  1.0003030684643821e-01  1.0001737216870148e-01  1.0002391735632242e-01  1.0002846605620380e-01  1.0002637704354654e-01  1.0003200497249187e-01  1.0004287847489536e-01  1.0003698277166660e-01  1.0005013933730637e-01  1.0005096362434998e-01  1.0006192928597762e-01  1.0004279171589071e-01  1.0009664236306239e-01  9.9994983859462622e-02  1.0017805417735177e-01  9.9975628435587049e-02  9.9946263181529493e-02  9.9938209451205656e-02  9.9987348538199669e-02  9.9959782283844070e-02  9.9966232227065521e-02  9.9963966081445088e-02  9.9983372910917495e-02  9.9963832365713934e-02  9.9989195897697211e-02  9.9978748729237440e-02  9.9984627990925876e-02  9.9991602281716510e-02  9.9991919642387475e-02  9.9992909934794746e-02  9.9998578891800319e-02  9.9998333183077354e-02  9.9999619449651828e-02  1.0000283449905666e-01  1.0000319611361316e-01  1.0000385569391138e-01  1.0000635472248046e-01  1.0000659449221594e-01  1.0000815288451001e-01  1.0000879009687599e-01  1.0001151103753209e-01  1.0000945332211478e-01  1.0001605300539212e-01  1.0000789771084870e-01  1.0002466454648049e-01  1.0000000000000003e-01  1.0000432611751971e-01  1.0000000000000003e-01  1.0000316167343364e-01  1.0000547544886838e-01  1.0000521520030545e-01  1.0000625481871964e-01  1.0000842654939017e-01  1.0000808681978730e-01  1.0000942664771591e-01  1.0001281397175439e-01  1.0001179426102383e-01  1.0001438473792226e-01  1.0001844479939437e-01  1.0001722936525498e-01  1.0001731935369200e-01  1.0002655495146690e-01  1.0001187448668848e-01  1.0003286060037314e-01  1.0002925791353667e-01  1.0002686391615781e-01  1.0003079878913444e-01  1.0004029231322241e-01  1.0003668447643406e-01  1.0004358136888482e-01  1.0005776631415204e-01  1.0004657682964566e-01  1.0006832802975468e-01  1.0005173719763959e-01  1.0009267896768681e-01  1.0000515802052577e-01  1.0018283156499974e-01  9.9962495203406651e-02  9.9933548462284583e-02  9.9961199314002658e-02  9.9963241570018332e-02  9.9949502182427041e-02  9.9978133758039850e-02  9.9972383608930543e-02  9.9949642593436180e-02  9.9991300015553078e-02  9.9970454806995665e-02  9.9979438079097691e-02  9.9985523074844929e-02  9.9987325872277724e-02  9.9987236622739839e-02  9.9995600620634006e-02  9.9994885092878946e-02  9.9996261552192364e-02  1.0000068513197445e-01  1.0000110862941708e-01  1.0000196806296820e-01  1.0000481785920257e-01  1.0000545241641991e-01  1.0000610641874423e-01  1.0000872370712756e-01  1.0000869392409679e-01  1.0001142534967361e-01  1.0001022019409854e-01  1.0001629256392419e-01  1.0000864070387816e-01  1.0002541969293254e-01  1.0000000000000003e-01  1.0000483294449225e-01  1.0000000000000003e-01  1.0000395731528575e-01  1.0000557152747480e-01  1.0000601497249427e-01  1.0000835560427281e-01  1.0000823386474512e-01  1.0000954952592049e-01  1.0001255265345872e-01  1.0001181763333848e-01  1.0001357378470369e-01  1.0001829996240895e-01  1.0001704647004546e-01  1.0001896117886980e-01  1.0002553988495082e-01  1.0001963427852641e-01  1.0002773588269491e-01  1.0002144562272275e-01  1.0003690583770514e-01  1.0002989964278593e-01  1.0004154397591737e-01  1.0003231484516155e-01  1.0004288420177314e-01  1.0005118873876546e-01  1.0004981688839865e-01  1.0005240594758781e-01  1.0007591556998270e-01  1.0004588079908372e-01  1.0009757997345448e-01  1.0001365711825919e-01  1.0017558001367029e-01  9.9978225652796293e-02  9.9923081236314160e-02  9.9944094122037377e-02  9.9949945209280688e-02  9.9963803571633092e-02  9.9964493758488537e-02  9.9955184088840410e-02  9.9982723185005867e-02  9.9956583546571609e-02  9.9978772097853649e-02  9.9976476037908726e-02  9.9982915393794392e-02  9.9977602310950944e-02  9.9990787184283073e-02  9.9988474906220370e-02  9.9990602922986560e-02  9.9996322868652024e-02  9.9996511886715739e-02  9.9997255832552326e-02  1.0000156638519597e-01  1.0000169789587521e-01  1.0000276619139126e-01  1.0000507384988590e-01  1.0000637571469048e-01  1.0000649107286749e-01  1.0001012567543779e-01  1.0000844694606245e-01  1.0001452462310403e-01  1.0000752097596390e-01  1.0002357410200570e-01  1.0000000000000003e-01  1.0000539478614476e-01  1.0000000000000003e-01  1.0000393698578348e-01  1.0000610672368324e-01  1.0000747379848637e-01  1.0000811102226609e-01  1.0000917297829640e-01  1.0001211538108490e-01  1.0001182295551510e-01  1.0001310943648760e-01  1.0001697085863842e-01  1.0001633100414435e-01  1.0001840833518719e-01  1.0002421931182152e-01  1.0002114766051103e-01  1.0002538938744626e-01  1.0002942206660130e-01  1.0003003609152075e-01  1.0002007416602382e-01  1.0005128909516586e-01  1.0003174005413226e-01  1.0004088415177369e-01  1.0005006645341372e-01  1.0004177202933713e-01  1.0005462788980456e-01  1.0006170501994892e-01  1.0006475816331548e-01  1.0005267027232470e-01  1.0010323440198028e-01  1.0001023665897910e-01  1.0017444544043203e-01  9.9968364553471925e-02  9.9935103003720216e-02  9.9933043459307855e-02  9.9964998831159044e-02  9.9951091872957157e-02  9.9949587481389282e-02  9.9971475390392181e-02  9.9967256793761242e-02  9.9968420198587690e-02  9.9966538052459669e-02  9.9985177663186556e-02  9.9968565427625167e-02  9.9988614695073169e-02  9.9982037594102693e-02  9.9985713608799931e-02  9.9992403432397875e-02  9.9993110039471797e-02  9.9993530857180171e-02  9.9998880748197155e-02  9.9999032539983754e-02  1.0000005233965355e-01  1.0000357835692464e-01  1.0000385267618299e-01  1.0000525084434199e-01  1.0000686340476085e-01  1.0000932153164663e-01  1.0000795065405761e-01  1.0001438877137304e-01  1.0000745858330487e-01  1.0002316444414987e-01  1.0000000000000003e-01  1.0000563700003923e-01  1.0000000000000003e-01  1.0000417167089837e-01  1.0000718988174846e-01  1.0000715825899797e-01  1.0000871535244715e-01  1.0001122688260727e-01  1.0001135894850458e-01  1.0001275353874638e-01  1.0001637020156021e-01  1.0001525607662433e-01  1.0001734109460325e-01  1.0002257775451168e-01  1.0002051871720406e-01  1.0002354364324700e-01  1.0002977398979965e-01  1.0002764285848002e-01  1.0002786844731830e-01  1.0004269886534083e-01  1.0001993303875058e-01  1.0005153880681414e-01  1.0004703795696311e-01  1.0004261300786271e-01  1.0004622089501992e-01  1.0006445075683154e-01  1.0004783399929384e-01  1.0006989442672774e-01  1.0006224435460824e-01  1.0008957919429773e-01  1.0001880719611067e-01  1.0017424447050380e-01  9.9958657358801162e-02  9.9924037927025380e-02  9.9945529690526891e-02  9.9955366154107772e-02  9.9938512999668522e-02  9.9963534945425661e-02  9.9958652887515750e-02  9.9958415696947286e-02  9.9974479991973800e-02  9.9978452922946284e-02  9.9956920530311411e-02  9.9991140991423089e-02  9.9974610753337620e-02  9.9981808650706133e-02  9.9986296855845605e-02  9.9989053852117468e-02  9.9988150793611133e-02  9.9995683634605856e-02  9.9995444097813233e-02  9.9996300725525553e-02  1.0000047629753725e-01  1.0000144998251956e-01  1.0000193138433323e-01  1.0000537384128416e-01  1.0000531469909327e-01  1.0000792609430044e-01  1.0000752190032547e-01  1.0001315591800711e-01  1.0000666770779933e-01  1.0002197389400116e-01  1.0000000000000003e-01  1.0000586952633855e-01  1.0000000000000003e-01  1.0000462004693592e-01  1.0000686087552287e-01  1.0000738008369364e-01  1.0001008398534227e-01  1.0001031858617052e-01  1.0001182966230580e-01  1.0001513883842729e-01  1.0001464815546392e-01  1.0001610639541994e-01  1.0002077604828942e-01  1.0001917584783890e-01  1.0002148108274363e-01  1.0002766744134951e-01  1.0002522703407402e-01  1.0002802858893525e-01  1.0003794307288294e-01  1.0002889096648555e-01  1.0004034225115686e-01  1.0003327069018397e-01  1.0005213401242347e-01  1.0004509127642963e-01  1.0005950358424409e-01  1.0004779251131556e-01  1.0005426639366688e-01  1.0007900305152857e-01  1.0004710626135939e-01  1.0009212260319555e-01  1.0003117814242432e-01  1.0015419816643847e-01  9.9974158663850260e-02  9.9900559365775271e-02  9.9939656956781864e-02  9.9944219221137900e-02  9.9951672677860828e-02  9.9955585942378702e-02  9.9948211046703678e-02  9.9967784397528403e-02  9.9969383287587615e-02  9.9965421754233952e-02  9.9985170923082983e-02  9.9966433407418800e-02  9.9983630554609487e-02  9.9980415794434521e-02  9.9987068241427696e-02  9.9981932469433141e-02  9.9992849701103420e-02  9.9991663625367863e-02  9.9992953636583115e-02  9.9998179350996502e-02  9.9998484542641805e-02  9.9999313209216456e-02  1.0000311085495514e-01  1.0000414148399869e-01  1.0000433441075308e-01  1.0000820524163011e-01  1.0000689174891067e-01  1.0001231585852753e-01  1.0000668389573654e-01  1.0002117760896707e-01  1.0000000000000003e-01  1.0000623005795720e-01  1.0000000000000003e-01  1.0000441254282928e-01  1.0000700802904443e-01  1.0000830019475244e-01  1.0000936367099082e-01  1.0001051765135241e-01  1.0001364426297900e-01  1.0001366980328379e-01  1.0001507182421453e-01  1.0001893829514419e-01  1.0001827406820314e-01  1.0001977522557816e-01  1.0002514479112916e-01  1.0002312174616285e-01  1.0002560226201601e-01  1.0003414022158408e-01  1.0002915218074084e-01  1.0003513745970817e-01  1.0004104410492216e-01  1.0004104892730528e-01  1.0002725356034201e-01  1.0007209463514867e-01  1.0004118674895079e-01  1.0005786019363941e-01  1.0006389367721692e-01  1.0006009298443366e-01  1.0005177089001938e-01  1.0010240420225310e-01  1.0001563712004043e-01  1.0015237201090335e-01  9.9982167268385838e-02  9.9892562874772578e-02  9.9924286229510106e-02  9.9956504110472605e-02  9.9947543191339902e-02  9.9944851673249915e-02  9.9959629821352244e-02  9.9962585598250844e-02  9.9957330466736091e-02  9.9977157137083272e-02  9.9975661808182556e-02  9.9977608336158347e-02  9.9972974959875088e-02  9.9990384380302860e-02  9.9975227197172792e-02  9.9991324624542174e-02  9.9986653154652078e-02  9.9989301025164290e-02  9.9994789676283308e-02  9.9995982155184071e-02  9.9996085216930722e-02  1.0000080083777839e-01  1.0000111890143451e-01  1.0000272861235369e-01  1.0000501126632295e-01  1.0000721489043257e-01  1.0000597484200807e-01  1.0001212029222584e-01  1.0000613443655453e-01  1.0002007237069661e-01  1.0000000000000003e-01  1.0000613104044370e-01  1.0000000000000003e-01  1.0000425680935725e-01  1.0000748382495546e-01  1.0000747175238620e-01  1.0000918686897586e-01  1.0001159766250139e-01  1.0001208334158471e-01  1.0001349151125211e-01  1.0001700758531136e-01  1.0001638846161226e-01  1.0001813774684630e-01  1.0002285860122055e-01  1.0002098666396443e-01  1.0002275755660141e-01  1.0002980754653784e-01  1.0002677919586636e-01  1.0003033506410246e-01  1.0003937523496859e-01  1.0003524624412329e-01  1.0003563519870372e-01  1.0005580168972034e-01  1.0002485400603049e-01  1.0006491072183757e-01  1