<?xml version="1.0"?>
<VTKFile type="UnstructuredGrid"  version="0.1"  >
<UnstructuredGrid>
<Piece  NumberOfPoints="1933" NumberOfCells="3640">
<Points>
<DataArray  type="Float64"  NumberOfComponents="3"  format="ascii">-0.2935534275312667 -0.002885140569515724 0  4.70644660919046 -0.002799255140790981 0  4.706317736582905 7.497200813215316 0  -0.2936822999219054 7.497114931344506 0  9.706446681734969 -0.002713409279501356 0  9.706317789043741 7.497286650483943 0  14.70644681123879 -0.002627560984011716 0  14.70631785846738 7.497372490778248 0  19.70644700611547 -0.002541661831590067 0  19.7063179421395 7.497458383586332 0  24.70644726507238 -0.002455662734952816 0  24.70631803342259 7.49754437777479 0  29.70644757968274 -0.002369515572073899 0  29.70631812156456 7.497630520966488 0  34.70644793603803 -0.002283173114695373 0  34.70631819154263 7.497716859900148 0  39.70644831556609 -0.00219658827008578 0  39.70631822382749 7.497803441246259 0  44.70644869519104 -0.002109713062330103 0  44.70631819397523 7.497890312612464 0  49.70644904697667 -0.002022497519110098 0  49.70631807198622 7.497977523623756 0  54.70644933733313 -0.001934888509524315 0  54.70631782138297 7.498065127045802 0  59.70644952580921 -0.001846828519411706 0  59.70631739795731 7.498153179964931 0  64.7064495634387 -0.001758254317168284 0  64.7063167481174 7.498241745065484 0  69.7064493905483 -0.001669095437517616 0  69.70631580674055 7.498330892064739 0  74.70644893387154 -0.001579272383145426 0  74.70631449439564 7.498420699384165 0  79.70644810271142 -0.001488694407232774 0  79.70631271374815 7.498511256156164 0  84.70644678375531 -0.001397256686840615 0  84.70631034489107 7.498602664687579 0  89.70644483390727 -0.001304836620324716 0  89.70630723926071 7.498695043519216 0  94.70644207012452 -0.001211288873872985 0  94.70630321170371 7.498788531217315 0  99.70643825457955 -0.001116438659554601 0  99.70629803018836 7.498883290964011 0  104.7064330723275 -0.00102007256502121 0  104.7062914026776 7.498979515778084 0  109.7064260966267 -0.0009219261454737825 0  109.7062829609899 7.499077433562478 0  114.7064167334273 -0.0008216676647899287 0  114.706272242519 7.499177309640836 0  119.7064041299763 -0.0007188784959131036 0  119.7062586733971 7.499279440929324 0  124.7063870205962 -0.0006130345454893768 0  124.7062415631435 7.499384128133326 0  129.7063634611754 -0.0005035044185908862 0  129.706220135215 7.499491595757916 0  134.706330365191 -0.0003896118781014855 0  134.7061936485695 7.499601795424429 0  139.7062826849434 -0.0002709000225247703 0  139.7061617285475 7.499713961275102 0  144.7062119575146 -0.0001480024518356747 0  144.7061251519074 7.499825674943215 0  149.7061036955102 -2.54115502131814e-05 0  149.7060875835663 7.499931111151114 0  159.7061073738538 1.426753980836114e-18 0  164.7061439622826 3.891044041220863e-06 0  164.7061149524197 7.49999780551885 0  159.7060964179682 7.499985994575958 0  169.7061817607812 3.1604370953992e-05 0  169.7061332802054 7.500028955301454 0  174.7062167541256 7.536392931158492e-05 0  174.7061513274666 7.500074277241482 0  179.7062477064019 0.0001302173355992469 0  179.7061686136555 7.500129852442652 0  184.7062745154002 0.0001928971232383353 0  184.7061847447922 7.500192862774029 0  189.7062975076727 0.0002611955398636703 0  189.7061994970449 7.500261306570651 0  194.7063171376178 0.0003335894140715315 0  194.7062127889824 7.500333757942292 0  199.7063338638291 0.0004090066086150703 0  199.706224635222 7.500409191358892 0  204.7063481031374 0.0004866777654531885 0  204.7062351073226 7.500486859936705 0  209.7063602179493 0.00056604069410566 0  209.7062443062948 7.500566212321955 0  214.7063705170959 0.0006466776787755568 0  214.7062523449649 7.500646835984855 0  219.7063792615128 0.000728273613848595 0  219.7062593373971 7.500728418254636 0  224.7063866710658 0.0008105874986116508 0  224.7062653929639 7.500810719228578 0  229.7063929310818 0.0008934326391297129 0  229.7062706133445 7.500893552667716 0  234.7063981981037 0.0009766626294934601 0  234.7062750913024 7.50097677231998 0  239.7064026047973 0.001060161246349723 0  239.7062789105123 7.501060261984295 0  244.7064062640945 0.001143835050791677 0  244.7062821459785 7.501143928197319 0  249.7064092726912 0.0012276079082079 0  249.7062848647758 7.501227694796397 0  254.7064117140386 0.001311416905150564 0  254.7062871269491 7.501311498858638 0  259.7064136609327 0.001395209320968339 0  259.7062889864675 7.501395287683303 0  264.706415177815 0.001478940437144539 0  264.7062904921833 7.501479016603066 0  269.7064163228465 0.001562572062522753 0  269.7062916887568 7.501562647499257 0  274.7064171498359 0.001646071734467583 0  274.7062926175025 7.501646147970561 0  279.7064177100268 0.001729412637730937 0  279.7062933171391 7.50172949117342 0  284.7064180537378 0.001812574376012205 0  284.7062938243809 7.501812656421701 0  289.7064182317075 0.001895544845684684 0  289.7062941743355 7.501895630705273 0  294.7064182958349 0.001978323596880618 0  294.7062944006561 7.501978411353988 0  299.7064182985984 0.002060927181204775 0  299.7062945354867 7.502061010116695 0  304.7064182897012 0.00214339685696396 0  304.7062946094576 7.502143458924477 0  309.7064183069805 0.002225807674736444 0  309.7062946525861 7.50222581771682 0  4.706188828266747 14.99720094175741 0  -0.2938112027161847 14.99711510453235 0  9.706188854048486 14.99728673455271 0  14.70618886945468 14.99737253835673 0  19.70618886656506 14.99745840245229 0  24.70618883537647 14.99754437337222 0  29.70618876349674 14.99763049620361 0  34.70618863560025 14.99771681545518 0  39.70618843283904 14.99780337589529 0  44.70618813222237 14.99789022342924 0  49.70618770592865 14.997977406013 0  54.70618712050432 14.9980649745974 0  59.7061863359078 14.9981529841084 0  64.70618530436414 14.99824149447845 0  69.7061839689995 14.99833057174777 0  74.70618226224155 14.99842028925082 0  79.70618010399031 14.99851072888703 0  84.70617739962107 14.9986019824348 0  89.70617403797415 14.99869415278406 0  94.70616988968015 14.99878735479099 0  99.70616480650907 14.99888171512067 0  104.7061586230501 14.99897736979369 0  109.7061511630672 14.99907445692465 0  114.7061422545958 14.99917309987623 0  119.7061317604716 14.99927337198771 0  124.7061196346047 14.99937522702914 0  129.7061060182189 14.99947836821891 0  134.7060913914023 14.99958201253626 0  139.7060767845306 14.99968449057442 0  144.706064007928 14.99978262595067 0  149.7060557212582 14.99987092088863 0  164.7060737984375 14.99998124568934 0  159.7060665323561 14.99994963494234 0  169.7060800900971 15.00002198981132 0  174.7060865856062 15.00007189341296 0  179.7060934971034 15.0001295967143 0  184.7061006780501 15.00019353867201 0  189.7061078958944 15.00026233651912 0  194.7061149391844 15.00033486937492 0  199.7061216497308 15.00041026161131 0  204.706127923921 15.00048783937383 0  209.7061337033717 15.00056708622716 0  214.7061389635553 15.00064760572648 0  219.706143703655 15.00072909205835 0  224.7061479385482 15.00081130773671 0  229.7061516928733 15.00089406687835 0  234.7061549968342 15.00097722270212 0  239.706157883331 15.00106065816712 0  244.7061603860667 15.00114427893251 0  249.7061625383534 15.00122800804314 0  254.7061643724017 15.00131178191365 0  259.7061659189393 15.0013955473121 0  264.7061672070439 15.00147925913784 0  269.706168264112 15.00156287886216 0  274.7061691159003 15.00164637355655 0  279.7061697866071 15.00172971547752 0  284.7061702989948 15.00181288220997 0  289.7061706745716 15.0018958573832 0  294.7061709339731 15.0019786319539 0  299.7061710977705 15.00206120597417 0  304.7061711882006 15.0021435906042 0  309.7061712326563 15.00222580990234 0  4.706060046322793 22.49720112853507 0  -0.2939399796078445 22.49711540738767 0  9.706060055149008 22.49728682885912 0  14.70606003647773 22.49737255822239 0  19.70605998019791 22.49745836092967 0  24.70605987565737 22.49754427855326 0  29.70605971107364 22.49763035156223 0  34.70605947295994 22.49771662031618 0  39.7060591455766 22.49780312580792 0  44.70605871042108 22.49788991032452 0  49.70605814575541 22.49797701808562 0  54.70605742616255 22.4980644958703 0  59.7060565221328 22.49815239362462 0  64.70605539970006 22.49824076502915 0  69.70605402017358 22.49832966798776 0  74.70605234005706 22.4984191649696 0  79.70605031130778 22.49850932308208 0  84.70604788218961 22.49860021365998 0  89.70604499912019 22.49869191099944 0  94.70604161013046 22.49878448960258 0  99.70603767086723 22.4988780188656 0  104.7060331544846 22.4989725534431 0  109.7060280672769 22.49906811642195 0  114.7060224723894 22.49916467079177 0  119.7060165240913 22.49926207242622 0  124.7060105141935 22.49935999514216 0  129.7060049287706 22.49945781665375 0  134.706000504826 22.49955445732455 0  139.7059982592527 22.49964818178866 0  144.7059994337125 22.49973643082037 0  149.706005266637 22.49981590019202 0  164.7060147868472 22.49996114455719 0  159.7060144729692 22.49991440258678 0  169.7060143980209 22.50001178697292 0  174.7060140836466 22.50006758167543 0  179.706014283178 22.50012858586192 0  184.7060151282551 22.50019427034878 0  189.7060165707743 22.50026391056704 0  194.7060184835211 22.50033678187611 0  199.7060207199942 22.50041223987182 0  204.706023144351 22.50048974291362 0  209.7060256434305 22.50056884889809 0  214.706028129252 22.50064920240153 0  219.7060305370492 22.50073051967496 0  224.7060328216222 22.50081257461845 0  229.7060349534009 22.50089518679525 0  234.7060369148554 22.5009782116297 0  239.7060386974721 22.50106153257597 0  244.7060402993241 22.5011450549397 0  249.7060417231727 22.50122870104012 0  254.7060429750169 22.5013124064441 0  259.7060440629915 22.50139611705774 0  264.7060449965443 22.5014797869093 0  269.7060457858244 22.50156337649969 0  274.7060464412416 22.50164685162673 0  279.7060469731836 22.50173018260616 0  284.7060473919033 22.50181334381171 0  289.7060477076432 22.50189631342735 0  294.7060479311239 22.50197907323341 0  299.7060480745881 22.502061608108
[...]
<PointData  Scalars="p"> 
<DataArray  type="Float64"  Name="p"  format="ascii">1.0000000000000001e-01  1.0000000000000003e-01  9.9996279274345165e-02  1.0000000000000003e-01  1.0000000000000003e-01  9.9996371121870695e-02  1.0000000000000003e-01  9.9994517251653259e-02  1.0000000000000003e-01  9.9993884661605290e-02  1.0000000000000003e-01  9.9992605674176449e-02  1.0000000000000003e-01  9.9990002991325724e-02  1.0000000000000003e-01  9.9989203008562844e-02  1.0000000000000003e-01  9.9987422520393832e-02  1.0000000000000003e-01  9.9984441744172689e-02  1.0000000000000003e-01  9.9984948226882003e-02  1.0000000000000003e-01  9.9975753105390017e-02  1.0000000000000003e-01  9.9972296606413075e-02  1.0000000000000003e-01  9.9967493618548411e-02  1.0000000000000003e-01  9.9964054441000608e-02  1.0000000000000003e-01  9.9955705115906637e-02  1.0000000000000003e-01  9.9952659955682019e-02  1.0000000000000003e-01  9.9946046836644611e-02  1.0000000000000003e-01  9.9936088354419569e-02  1.0000000000000003e-01  9.9932729766270142e-02  1.0000000000000003e-01  9.9921854677346586e-02  1.0000000000000003e-01  9.9914927780901150e-02  1.0000000000000003e-01  9.9902627332412328e-02  1.0000000000000003e-01  9.9903554819252796e-02  1.0000000000000003e-01  9.9874233128046136e-02  1.0000000000000003e-01  9.9897778862289122e-02  1.0000000000000003e-01  9.9838707570727131e-02  1.0000000000000003e-01  9.9901746199530156e-02  1.0000000000000003e-01  9.9791186286844746e-02  1.0000000000000003e-01  9.9919744587197698e-02  1.0000000000000001e-01  9.9713647233608135e-02  1.0000000000000001e-01  1.0000000000000003e-01  1.0019940838899473e-01  1.0044706582509547e-01  1.0000000000000003e-01  1.0004302068084621e-01  1.0000000000000003e-01  1.0015489208157718e-01  1.0000000000000003e-01  1.0009156192064098e-01  1.0000000000000003e-01  1.0010891796978096e-01  1.0000000000000003e-01  1.0009217702801501e-01  1.0000000000000003e-01  1.0009805899278126e-01  1.0000000000000003e-01  1.0008383353901304e-01  1.0000000000000003e-01  1.0008509975665152e-01  1.0000000000000003e-01  1.0007978565241121e-01  1.0000000000000003e-01  1.0007537178788921e-01  1.0000000000000003e-01  1.0007220175327167e-01  1.0000000000000003e-01  1.0006997377532621e-01  1.0000000000000003e-01  1.0006589254358704e-01  1.0000000000000003e-01  1.0006400339419987e-01  1.0000000000000003e-01  1.0006197023979856e-01  1.0000000000000003e-01  1.0005948610637722e-01  1.0000000000000003e-01  1.0005783894728489e-01  1.0000000000000003e-01  1.0005663585562609e-01  1.0000000000000003e-01  1.0005462046525106e-01  1.0000000000000003e-01  1.0005398787002083e-01  1.0000000000000003e-01  1.0005216815950695e-01  1.0000000000000003e-01  1.0005240807609936e-01  1.0000000000000003e-01  1.0004916641896094e-01  1.0000000000000003e-01  1.0005262950564198e-01  1.0000000000000003e-01  1.0004465587492843e-01  1.0000000000000003e-01  1.0005611162743097e-01  1.0000000000000003e-01  1.0003544126850566e-01  1.0000000000000003e-01  1.0007041201278430e-01  1.0000000000000001e-01  1.0000000000000003e-01  9.9993117694812533e-02  1.0000000000000003e-01  9.9993607016900271e-02  9.9993214914613257e-02  9.9992324203968211e-02  9.9989699996128792e-02  9.9989991293754368e-02  9.9989357276126442e-02  9.9985415557880833e-02  9.9987478031525384e-02  9.9985720331710257e-02  9.9983196256469287e-02  9.9972827581667228e-02  9.9977147415578199e-02  9.9966844145131836e-02  9.9971821507562550e-02  9.9967063651200713e-02  9.9959042349680630e-02  9.9960786300661769e-02  9.9957060940216502e-02  9.9944429917336375e-02  9.9951102064489039e-02  9.9938854435971322e-02  9.9939018681830208e-02  9.9925358502310144e-02  9.9946982826730243e-02  9.9890454377020557e-02  9.9981255137954694e-02  9.9820615876623900e-02  1.0006600575355881e-01  9.9710216760259457e-02  9.9798424164924876e-02  1.0066041626620288e-01  1.0021656872759339e-01  1.0002839346085889e-01  1.0006051034133724e-01  1.0004846101915500e-01  1.0007043257239091e-01  1.0004070558861934e-01  1.0005444896385957e-01  1.0004927545905672e-01  1.0004278049791625e-01  1.0004212616444190e-01  1.0004207836751527e-01  1.0003571152782068e-01  1.0003547278376221e-01  1.0003445837723110e-01  1.0003083340565709e-01  1.0003007091070920e-01  1.0002927855749605e-01  1.0002693498852024e-01  1.0002596614896196e-01  1.0002559521789212e-01  1.0002327380708274e-01  1.0002363170463559e-01  1.0002104431184321e-01  1.0002305894941746e-01  1.0001673721139133e-01  1.0002621364160715e-01  1.0000795501644415e-01  1.0003457669129773e-01  1.0000000000000003e-01  9.9989471551705469e-02  1.0000000000000003e-01  9.9993282530476596e-02  9.9990153166792189e-02  9.9987544210284898e-02  9.9987335079931378e-02  9.9986628131497973e-02  9.9980968653308924e-02  9.9982414024595054e-02  9.9981762334574467e-02  9.9975657300949705e-02  9.9974024251362856e-02  9.9979985528380333e-02  9.9951206715409566e-02  9.9963168090751467e-02  9.9956594166278084e-02  9.9944909099346418e-02  9.9950128607367267e-02  9.9943729150709010e-02  9.9927540568591086e-02  9.9932663256524668e-02  9.9926584282948094e-02  9.9903513664985094e-02  9.9920276822901263e-02  9.9892995973238891e-02  9.9906477213489789e-02  9.9866532489984602e-02  9.9933956906236548e-02  9.9783866676787403e-02  1.0005578499548025e-01  9.9547228471596430e-02  9.9881123968028979e-02  1.0057402273013871e-01  1.0031591974752214e-01  1.0006114102442452e-01  1.0008381904272243e-01  1.0013428650009100e-01  1.0005730892585722e-01  1.0010056522356274e-01  1.0008784292276321e-01  1.0007508790723782e-01  1.0007593356771528e-01  1.0007759280658081e-01  1.0006457822507465e-01  1.0006580396643990e-01  1.0006419931402294e-01  1.0005697440002161e-01  1.0005610048838738e-01  1.0005526774267137e-01  1.0005032927483513e-01  1.0004953824963748e-01  1.0004834599934705e-01  1.0004549870658357e-01  1.0004389375894469e-01  1.0004387544430908e-01  1.0003995546405625e-01  1.0004187584781063e-01  1.0003601194732438e-01  1.0004282396654385e-01  1.0002679846859998e-01  1.0005473505680419e-01  1.0000000000000003e-01  9.9987159646546267e-02  1.0000000000000003e-01  9.9991960234753333e-02  9.9985877570194309e-02  9.9986774850396989e-02  9.9985903092038322e-02  9.9979870882948699e-02  9.9981381637104919e-02  9.9980708319894140e-02  9.9973233410716969e-02  9.9976210231647530e-02  9.9976172457951248e-02  9.9959899413568323e-02  9.9976815462860774e-02  9.9951288179251183e-02  9.9947241998092171e-02  9.9951224759523671e-02  9.9950325338397039e-02  9.9930788879449534e-02  9.9942793091922610e-02  9.9932498908256034e-02  9.9916681716965550e-02  9.9921365121881864e-02  9.9922869422911717e-02  9.9885110346734585e-02  9.9931606124223624e-02  9.9859674889874087e-02  9.9955748736670083e-02  9.9779940441812751e-02  1.0009285041398218e-01  9.9521594040870853e-02  9.9890254482925919e-02  1.0071898372224158e-01  1.0020132296485675e-01  1.0002636691714485e-01  1.0022811021547970e-01  9.9996020023566320e-02  1.0011268141505394e-01  1.0007836102774288e-01  1.0007106326542631e-01  1.0006954664067662e-01  1.0007850267404832e-01  1.0005725319785733e-01  1.0006269994176463e-01  1.0006128260359311e-01  1.0005162753467883e-01  1.0005109992272028e-01  1.0005071200574124e-01  1.0004390070729874e-01  1.0004329693680264e-01  1.0004255066120692e-01  1.0003805560795966e-01  1.0003744038564093e-01  1.0003580686748233e-01  1.0003396967802318e-01  1.0003095533335854e-01  1.0003313176186888e-01  1.0002531454087889e-01  1.0003413785368685e-01  1.0001647518492393e-01  1.0004193733116255e-01  1.0000000000000003e-01  9.9984792149840213e-02  1.0000000000000003e-01  9.9989281553961779e-02  9.9985175361946982e-02  9.9985959885763961e-02  9.9978990128553241e-02  9.9980701504946756e-02  9.9979305595964824e-02  9.9970975866380304e-02  9.9974285316350373e-02  9.9974206850465236e-02  9.9959981079779270e-02  9.9968361162211833e-02  9.9960532364997523e-02  9.9959758034411761e-02  9.9939915448043218e-02  9.9947780644405321e-02  9.9924550908522439e-02  9.9939853316634686e-02  9.9932380115623998e-02  9.9908358034646760e-02  9.9925373521155200e-02  9.9909946970173386e-02  9.9895446990922884e-02  9.9893497200727432e-02  9.9913920805546577e-02  9.9837509902581653e-02  9.9957662317031723e-02  9.9750909200931590e-02  1.0010617728526990e-01  9.9447115647523995e-02  9.9764020307186466e-02  1.0080751399018952e-01  1.0027081181774036e-01  1.0010138075053869e-01  1.0011627641655919e-01  1.0013716007209632e-01  1.0009488373281059e-01  1.0008853512605494e-01  1.0007835621319375e-01  1.0010640551056567e-01  1.0006750020804564e-01  1.0008076436299081e-01  1.0007901636586893e-01  1.0006512178451261e-01  1.0006555564172318e-01  1.0006641419920048e-01  1.0005558382251144e-01  1.0005552040175525e-01  1.0005481111384884e-01  1.0004851153226606e-01  1.0004740462801291e-01  1.0004690049463814e-01  1.0004204388804579e-01  1.0004183088279973e-01  1.0003901735012080e-01  1.0003886020943840e-01  1.0003282663222607e-01  1.0003994674210137e-01  1.0002271096882717e-01  1.0004894753236449e-01  1.0000000000000003e-01  9.9982001098621195e-02  1.0000000000000003e-01  9.9989025087361114e-02  9.9983988364489823e-02  9.9980648297593594e-02  9.9980042781487422e-02  9.9979519756285634e-02  9.9971020748777728e-02  9.9973159333298756e-02  9.9973376287565752e-02  9.9961278481312407e-02  9.9966080306874719e-02  9.9963392054862057e-02  9.9950746009812907e-02  9.9953092341891453e-02  9.9969461714720875e-02  9.9913013099909798e-02  9.9942142127862649e-02  9.9931369255756949e-02  9.9910650186200323e-02  9.9926070529325867e-02  9.9921456141693787e-02  9.9885094115394313e-02  9.9918126659545498e-02  9.9886775165156913e-02  9.9894341017434940e-02  9.9853495605250225e-02  9.9957232369281904e-02  9.9726226741745805e-02  1.0014460258312417e-01  9.9388279750192599e-02  9.9790236451479358e-02  1.0076788145249700e-01  1.0033365400057064e-01  9.9990846191438068e-02  1.0015680036209129e-01  1.0012637469491387e-01  1.0013662124559367e-01  1.0004664735643358e-01  1.0013331003618547e-01  1.0005454020616805e-01  1.0008991260221307e-01  1.0008429021249245e-01  1.0006721700313247e-01  1.0006786391933781e-01  1.0007210820444826e-01  1.0005648623752410e-01  1.0005807264019979e-01  1.0005775715068871e-01  1.0004851817847991e-01  1.0004807869367545e-01  1.0004761284536944e-01  1.0004183291194976e-01  1.0004038313558514e-01  1.0004039380120394e-01  1.0003467421852362e-01  1.0003642917210785e-01  1.0002989464220094e-01  1.0003612987964593e-01  1.0001957436316843e-01  1.0004401606413610e-01  1.0000000000000003e-01  9.9980484656978397e-02  1.0000000000000003e-01  9.9988533134271029e-02  9.9979225796383450e-02  9.9981418164727220e-02  9.9979308709523276e-02  9.9971993685513821e-02  9.9972868604524090e-02  9.9973080459541661e-02  9.9961108498831469e-02  9.9966137488905413e-02  9.9964287374884095e-02  9.9948279277660187e-02  9.9954922535460650e-02  9.9958768054430214e-02  9.9929104896399987e-02  9.9964375971315758e-02  9.9920661493169624e-02  9.9909389269178583e-02  9.9924615590543150e-02  9.9920315985479763e-02  9.9889933454725549e-02  9.9909982379640314e-02  9.9908232945876405e-02  9.9856568647251578e-02  9.9916922835816865e-02  9.9842758105484652e-02  9.9931853006402366e-02  9.9737649347390406e-02  1.0014576422615414e-01  9.9334190825934449e-02  9.9815146424699477e-02  1.0083432513470642e-01  1.0026511979477112e-01  1.0002937911347591e-01  1.0020047341301005e-01  1.0007459478724573e-01  1.0011680161298353e-01  1.0017482122591749e-01  1.0004297247383157e-01  1.0010675756849344e-01  1.0009056712798542e-01  1.0007912062595915e-01  1.0007482035565758e-01  1.0008548896454023e-01  1.0006296640365847e-01  1.0006685604741174e-01  1.0006750500603818e-01  1.0005585799869100e-01  1.0005498376685572e-01  1.0005527624279205e-01  1.0004698898526947e-01  1.0004654533185071e-01  1.0004523337214152e-01  1.0004104072589627e-01  1.0003819448362734e-01  1.0003956942060151e-01  1.0003153563528201e-01  1.0003835099639027e-01  1.0002197609871570e-01  1.0004582854361209e-01  1.0000000000000003e-01  9.9979076006501924e-02  1.0000000000000003e-01  9.9986021581904103e-02  9.9979503625154245e-02  9.9981140942447880e-02  9.9972934680948145e-02  9.9974271705654108e-02  9.9973352706697688e-02  9.9962453261742468e-02  9.9966455513428837e-02  9.9965983251815174e-02  9.9949683789551796e-02  9.9956075835528291e-02  9.9956316246570365e-02  9.9933512933348664e-02  9.9952580512042408e-02  9.9940352971085084e-02  9.9938979217795154e-02  9.9911560807544167e-02  9.9925249413030146e-02  9.9884219128718990e-02  9.9919625204276497e-02  9.9902281268807180e-02  9.9875898624211881e-02  9.9888103840519354e-02  9.9911038560424451e-02  9.9810128843624585e-02  9.9962505741645558e-02  9.9724331026554924e-02  1.0013621900141297e-01  9.9323142428656933e-02  9.9736092320209815e-02  1.0090338888369069e-01  1.0030416063768519e-01  1.0006503049253873e-01  1.0013969153071198e-01  1.0008403993659185e-01  1.0016261699538809e-01  1.0008211799648699e-01  1.0014590045671085e-01  1.0007558636560544e-01  1.0009316610277708e-01  1.0006875148926622e-01  1.0009939171238305e-01  1.0006324776966773e-01  1.0007239626842206e-01  1.0007325361686721e-01  1.0005873999736159e-01  1.0005880279232775e-01  1.0006064607763222e-01  1.0004920315330018e-01  1.0004866951121827e-01  1.0004870330607908e-01  1.0004134281202637e-01  1.0004111375711415e-01  1.0003865279956756e-01  1.0003689782390963e-01  1.0003079414039576e-01  1.0003742651263370e-01  1.0002035354438392e-01  1.0004365199678515e-01  1.0000000000000003e-01  9.9977070372475926e-02  1.0000000000000003e-01  9.9986339449848097e-02  9.9979225316869674e-02  9.9976376879534645e-02  9.9974534995691644e-02  9.9974942635177186e-02  9.9964617702984315e-02  9.9966997928744666e-02  9.9967053814058071e-02  9.9953361976510308e-02  9.9957066449860910e-02  9.9957354074258431e-02  9.9936609622348752e-02  9.9948646846815578e-02  9.9946512758214520e-02  9.9926102020612931e-02  9.9933899276717766e-02  9.9958972426035575e-02  9.9872601579238829e-02  9.9919078504921821e-02  9.9907849197298434e-02  9.9866687907525162e-02  9.9911019755612632e-02  9.9882713977953577e-02  9.9870041992465297e-02  9.9848723901201877e-02  9.9955443364720342e-02  9.9688339975449819e-02  1.0017070509908946e-01  9.9297654281300871e-02  9.9738675741172469e-02  1.0088231873166238e-01  1.0034985661013407e-01  1.0000491057382221e-01  1.0016210622643634e-01  1.0012792233053380e-01  1.0010330704061085e-01  1.0010544034301645e-01  1.0013399081355667e-01  1.0012538628838724e-01  1.0005288692786819e-01  1.0011903663573871e-01  1.0005922737317019e-01  1.0008215955827272e-01  1.0008025799668388e-01  1.0006429277651666e-01  1.0006309780467244e-01  1.0006815575374181e-01  1.0005348953743141e-01  1.0005417201430260e-01  1.0005407534545906e-01  1.0004520099013231e-01  1.0004374406704145e-01  1.0004426817670822e-01  1.0003685050958531e-01  1.0003819717398892e-01  1.0003244798373950e-01  1.0003669581863060e-01  1.0002125775703981e-01  1.0004383643507249e-01  1.0000000000000003e-01  9.9976273913991470e-02  1.0000000000000003e-01  9.9986373276029994e-02  9.9975286948403741e-02  9.9977718002602037e-02  9.9975032856203086e-02  9.9967570620619506e-02  9.9968130591147050e-02  9.9968335812592332e-02  9.9955801233114011e-02  9.9959655135096928e-02  9.9959648658346612e-02  9.9940095668882373e-02  9.9948630511638464e-02  9.9949229332572456e-02  9.9925357146029209e-02  9.9938180898204346e-02  9.9946298889916865e-02  9.9899163086801385e-02  9.9957247289141862e-02  9.9893023853406551e-02  9.9875471485135772e-02  9.9900020582244051e-02  9.9905997935115703e-02  9.9837247578193553e-02  9.9917517516826593e-02  9.9842684813531354e-02  9.9911705033285364e-02  9.9730293712174553e-02  1.0016706882497187e-01  9.9254353059379449e-02  9.9759977827000329e-02  1.0091333282982054e-01  1.0030859977429905e-01  1.0001546339461105e-01  1.0020260114664906e-01  1.0007429664483242e-01  1.0011998283157776e-01  1.0012870784234922e-01  1.0010085114289638e-01  1.0009303551437020e-01  1.0015579729897338e-01  1.0004116029960966e-01  1.0009456962843837e-01  1.0007861668419403e-01  1.0007187101789952e-01  1.0006437672642210e-01  1.0007510702241978e-01  1.0005536934128632e-01  1.0005736955621977e-01  1.0005922771774597e-01  1.0004819384328743e-01  1.0004688191883694e-01  1.0004672336380031e-01  1.0003995950187018e-01  1.0003739812745295e-01  1.0003890162447993e-01  1.0003015063516946e-01  1.0003616977706840e-01  1.0002106684133129e-01  1.0004213623478969e-01  1.0000000000000003e-01  9.9975624277548844e-02  1.0000000000000003e-01  9.9984571918282181e-02  9.9976167592480500e-02  9.9978449234018399e-02  9.9969665765416008e-02  9.9970667480321032e-02  9.9969652980305149e-02  9.9959208061887711e-02  9.9961699772299573e-02  9.9962540709011824e-02  9.9945092516453587e-02  9.9951171625367444e-02  9.9951459695942310e-02  9.9928937911780036e-02  9.9941043683115668e-02  9.9943617791285688e-02  9.9909612438089518e-02  9.9939860075419690e-02  9.9925278326679273e-02  9.9916926508345175e-02  9.9890313585708893e-02  9.9902613765355974e-02  9.9852162559357638e-02  9.9891711886583176e-02  9.9908231161502922e-02  9.9793602016768179e-02  9.9962760600888101e-02  9.9729557173668507e-02  1.0011803850027608e-01  9.9298461486665004e-02  9.9708539505333385e-02  1.0097014463134912e-01  1.0031901769623454e-01  1.0004787006579936e-01  1.0015900470094169e-01  1.0008459431950274e-01  1.0015372498289170e-01  1.0009033900196662e-01  1.0009992845588832e-01  1.0012732600672856e-01  1.0008407595269114e-01  1.0012309690979150e-01  1.0006609911058234e-01  1.0008334432453440e-01  1.0005969525795477e-01  1.0008567776832629e-01  1.0005636354313088e-01  1.0006181909394657e-01  1.0006360123001852e-01  1.0005107073473760e-01  1.0005037551216371e-01  1.0005253297968003e-01  1.0004166519412143e-01  1.0004146163026272e-01  1.0003969669593830e-01  1.0003614955043146e-01  1.0003060173522181e-01  1.0003667376105756e-01  1.0002032048551705e-01  1.0004151536565704e-01  1.0000000000000003e-01  9.9974248871043628e-02  1.0000000000000003e-01  9.9985079589585857e-02  9.9976540299675898e-02  9.9974602619275862e-02  9.9971680299204294e-02  9.9972232368653283e-02  9.9962206583278757e-02  9.9963686903156254e-02  9.9964434910310859e-02  9.9950617837895078e-02  9.9953648162442010e-02  9.9954655576911647e-02  9.9934432742696006e-02  9.9942507330901098e-02  9.9945881337855064e-02  9.9916139166163889e-02  9.9935691363488982e-02  9.9934415594572890e-02  9.9904363165948765e-02  9.9918229668565423e-02  9.9956925475561315e-02  9.9829158471777479e-02  9.9912310124480555e-02  9.9878039712224809e-02  9.9852525797460637e-02  9.9858154132817831e-02  9.9956782017719778e-02  9.9674783717816295e-02  1.0016987964161728e-01  9.9304414788801185e-02  9.9689376831825868e-02  1.0095804861072274e-01  1.0035917822328498e-01  1.0000681347091153e-01  1.0016296292058570e-01  1.0011754828710138e-01  1.0011488878207798e-01  1.0009341964767828e-01  1.0013283151734174e-01  1.0008354230238695e-01  1.0009481098166109e-01  1.0010662624450689e-01  1.0011089994706759e-01  1.0004217107269593e-01  1.0009921560965451e-01  1.0005094248350653e-01  1.0006779855793856e-01  1.0006662616307108e-01  1.0005394852542902e-01  1.0005167809072865e-01  1.0005621911044250e-01  1.0004460395325675e-01  1.0004382708223737e-01  1.0004430964047747e-01  1.0003535874156291e-01  1.0003616172778464e-01  1.0003154966343007e-01  1.0003401896102555e-01  1.0002012355616562e-01  1.0004038688014290e-01  1.0000000000000003e-01  9.9974085208312274e-02  1.0000000000000003e-01  9.9985630159948380e-02  9.9973762239460265e-02  9.9976413175708212e-02  9.9973103669996136e-02  9.9966598598128259e-02  9.9966065351538444e-02  9.9966490113958348e-02  9.9954796373272467e-02  9.9957638635099766e-02  9.9957943967755772e-02  9.9940253346726626e-02  9.9945815448489683e-02  9.9949133309002208e-02  9.9923293315614378e-02  9.9935930531670450e-02  9.9940267707585642e-02  9.9905389191659227e-02  9.9926535140723124e-02  9.9938880185664297e-02  9.9873398509632325e-02  9.9953194397990663e-02  9.9880468666003683e-02  9