<?xml version="1.0"?>
<VTKFile type="UnstructuredGrid"  version="0.1"  >
<UnstructuredGrid>
<Piece  NumberOfPoints="1933" NumberOfCells="3640">
<Points>
<DataArray  type="Float64"  NumberOfComponents="3"  format="ascii">-0.4754320583252317 -0.0009817452596418592 0  4.524567967632209 -0.0009594323793071194 0  4.524534495484543 7.499040631786485 0  -0.475465541826533 7.499018300357404 0  9.524568010289485 -0.0009371695780325967 0  9.524534558148535 7.499062898359894 0  14.52456809634757 -0.000914958632980623 0  14.52453465692219 7.499085108333624 0  19.52456824965637 -0.0008927830407328447 0  19.52453480097503 7.499107281750978 0  24.52456848916436 -0.000870616557759656 0  24.52453499793457 7.499129446113518 0  29.52456882912642 -0.0008484273385586368 0  29.52453525357216 7.499151633665814 0  34.5245692798941 -0.0008261798628602894 0  34.52453557156844 7.499173879999032 0  39.52456984871092 -0.0008038356487386931 0  39.52453595336451 7.499196223545975 0  44.52457054033025 -0.0007813532483210438 0  44.52453639802625 7.49921870566639 0  49.52457135741533 -0.000758687777499953 0  49.52453690205054 7.499241371145177 0  54.52457230072041 -0.0007357900969625728 0  54.5245374590538 7.499264269015466 0  59.52457336905726 -0.0007126056808982442 0  59.52453805928907 7.499287453680822 0  64.52457455903611 -0.0006890731536882464 0  64.52453868893025 7.499310986358134 0  69.52457586454382 -0.0006651224276084839 0  69.52453932904801 7.499334936903895 0  74.5245772758897 -0.0006406723250643077 0  74.5245399541721 7.499359386128612 0  79.52457877848907 -0.0006156275072252439 0  79.52454053029328 7.499384428754364 0  84.52458035087346 -0.0005898744459560476 0  84.52454101209688 7.49941017723321 0  89.52458196166185 -0.0005632760528844699 0  89.52454133913723 7.499436766724866 0  94.52458356488692 -0.0005356643974614199 0  94.52454143055675 7.499464361630873 0  99.52458509261687 -0.0005068306762311195 0  99.52454117783456 7.499493164188912 0  104.5245864430225 -0.0004765112022187117 0  104.5245404349552 7.499523425706029 0  109.5245874605775 -0.0004443676327628228 0  109.524539005429 7.499555460938993 0  114.5245879023817 -0.0004099589539443062 0  114.5245366260713 7.499589665637139 0  119.5245873795586 -0.0003727020593932966 0  119.5245329490033 7.499626535688254 0  124.5245852532198 -0.0003318177862086274 0  124.5245275275317 7.49966668218268 0  129.5245804466768 -0.0002862622461849999 0  129.5245198216956 7.499710826882982 0  134.5245711019551 -0.0002346562997127289 0  134.5245092625207 7.499759740792392 0  139.52455394465 -0.0001752725647114832 0  139.524495465631 7.499814044563602 0  144.5245230951399 -0.0001063067631571195 0  144.5244787987716 7.499873719819154 0  149.5244677869588 -2.732197967797072e-05 0  149.5244617705595 7.499937179675157 0  159.5244717418524 1.340702527851282e-18 0  164.5244484251038 -5.337740472757084e-05 0  164.5244682901688 7.4999355426656 0  159.524471379067 7.499973713026001 0  169.5244436735659 -8.789575704648263e-05 0  169.524464834771 7.49990672886314 0  174.5244473151677 -0.000109377132295853 0  174.5244633206266 7.499887830165675 0  179.5244545448782 -0.0001213230373125533 0  179.5244637796578 7.499877180258483 0  184.5244630319865 -0.0001261729621602281 0  184.524465712718 7.499873015381808 0  189.5244716495679 -0.0001256849712446408 0  189.5244685953258 7.499873876521101 0  194.524479869968 -0.0001211370054700273 0  194.5244720083101 7.499878632273333 0  199.5244874660524 -0.0001134650330631514 0  199.5244756505282 7.499886422200816 0  204.524494360808 -0.0001033618106615854 0  204.5244793183633 7.499896593573216 0  209.5245005508812 -9.134677709087837e-05 0  209.5244828804013 7.499908648586676 0  214.5245060675107 -7.781500599753598e-05 0  214.5244862558384 7.49992220407715 0  219.5245109565657 -6.307140510920968e-05 0  219.5244893982309 7.499936961821155 0  224.5245152684251 -4.735471801631448e-05 0  224.5244922839518 7.499952686908136 0  229.5245190529669 -3.085453145123304e-05 0  229.5244949042519 7.49996919200321 0  234.5245223572318 -1.372348019561048e-05 0  234.5244972599076 7.499986325831512 0  239.5245252244875 3.91386897929545e-06 0  239.5244993576692 7.500003964674988 0  244.5245276940436 2.195445674596898e-05 0  244.5245012079369 7.5000220060268 0  249.5245298014591 4.031182120007204e-05 0  249.5245028232764 7.500040363806101 0  254.5245315789748 5.891238357773711e-05 0  254.5245042175084 7.500058964718941 0  259.5245330560714 7.769262340316359e-05 0  259.5245054051848 7.500077745480621 0  264.524534260126 9.659694148372627e-05 0  264.5245064013374 7.500096650709065 0  269.5245352171387 0.0001155760882118361 0  269.5245072214132 7.50011563137063 0  274.5245359525525 0.0001345861017033004 0  274.5245078813225 7.500134643720188 0  279.5245364921512 0.0001535877675425737 0  279.5245083975602 7.500153648734124 0  284.5245368630452 0.000172546692169909 0  284.5245087873329 7.500172612096002 0  289.5245370946701 0.0001914341915706485 0  289.5245090686458 7.500191504865643 0  294.5245372196543 0.0002102293567144268 0  294.5245092602937 7.500210305045161 0  299.5245372741413 0.000228922887070734 0  299.5245093817526 7.500229000345967 0  304.5245372966408 0.0002475235588117193 0  304.5245094531458 7.500247592545253 0  309.5245373233369 0.0002660682063256039 0  309.5245094959722 7.500266103949404 0  4.524500898112604 14.99904076826181 0  -0.4754991393512106 14.99901841086343 0  9.52450095093633 14.9990630312357 0  14.52450102610299 14.99908522786136 0  19.52450112666236 14.9991073862761 0  24.52450125371018 14.9991295368763 0  29.52450140691554 14.99915171258482 0  34.52450158446882 14.99917394876748 0  39.52450178281501 14.99919628328312 0  44.52450199629771 14.99921875678069 0  49.52450221673906 14.99924141325089 0  54.52450243293882 14.99926430082201 0  59.52450263006033 14.99928747280284 0  64.52450278886472 14.99931098899444 0  69.5245028847491 14.99933491731429 0  74.52450288654731 14.9993593357968 0  79.52450275505142 14.99938433505304 0  84.52450244123551 14.99941002128364 0  89.52450188420575 14.99943651993305 0  94.52450100900681 14.99946398002537 0  99.52449972461906 14.99949257908026 0  104.5244979228898 14.9995225281746 0  109.5244954798689 14.99955407599199 0  114.5244922623179 14.99958750922423 0  119.5244881442947 14.99962314378791 0  124.5244830419865 14.9996612958385 0  129.5244769792916 14.9997022116506 0  134.5244702005291 14.99974591844683 0  139.5244633443149 14.99979193113523 0  144.5244576663591 14.99983870864371 0  149.5244551975747 14.99988267336799 0  164.5244685614949 14.99990549152203 0  159.5244669154884 14.99992262927288 0  169.5244673934149 14.99988988489178 0  174.524465403081 14.99987849952445 0  179.5244636841807 14.99987203369433 0  184.5244626440727 14.99987019704511 0  189.5244623340851 14.99987236051662 0  194.5244626543451 14.99987784949133 0  199.5244634589764 14.99988605441338 0  204.524464604057 14.99989646106453 0  209.5244659661073 14.99990864878153 0  214.524467446573 14.99992227783932 0  219.5244689702932 14.99993707479484 0  224.5244704818629 14.99995281908207 0  229.524471941666 14.99996933180507 0  234.5244733223178 14.99998646674466 0  239.5244746057233 15.00000410327745 0  244.5244757807644 15.00002214084455 0  249.5244768415324 15.00004049464076 0  254.5244777860047 15.0000590922562 0  259.5244786150659 15.00007787106571 0  264.5244793317901 15.00009677621624 0  269.524479940918 15.00011575911076 0  274.5244804484665 15.00013477632655 0  279.5244808614332 15.00015378893972 0  284.524481187581 15.00017276225443 0  289.5244814352884 15.00019166594779 0  294.5244816135578 15.00021047462423 0  299.5244817323259 15.00022916868964 0  304.5244818034465 15.00024773522465 0  309.5244818429986 15.00026616798744 0  4.524467231404073 22.49904101582133 0  -0.4755328036710408 22.4990186652556 0  9.524467270596425 22.49906325330312 0  14.52446731632255 22.49908541730066 0  19.52446736820512 22.49910754243034 0  24.52446742397888 22.49912966182836 0  29.52446747998201 22.49915180896434 0  34.52446753125092 22.49917401858427 0  39.52446757136949 22.49919632731743 0  44.52446759218304 22.49921877422006 0  49.52446758343817 22.49924140138173 0  54.52446753237257 22.49926425465049 0  59.52446742326496 22.49928738450464 0  64.52446723695253 22.49931084708812 0  69.52446695032998 22.49933470542113 0  74.52446653586875 22.49935903078977 0  79.52446596122691 22.49938390429829 0  84.52446518908867 22.4994094185245 0  89.52446417746857 22.49943567913435 0  94.52446288087776 22.49946280615175 0  99.52446125299167 22.49949093429078 0  104.524459251809 22.49952021125125 0  109.5244568487726 22.49955079201504 0  114.5244540438933 22.49958282576353 0  119.5244508894144 22.49961642982043 0  124.5244475245467 22.49965164181954 0  129.5244442222093 22.49968833730968 0  134.5244414434456 22.49972609679681 0  139.5244398824707 22.49976400916632 0  144.5244404599328 22.49980042325926 0  149.5244441812753 22.49983275259876 0  164.5244572228638 22.49987133343944 0  159.524454174381 22.49987416488907 0  169.5244576875249 22.49986710435607 0  174.5244565768725 22.49986384166372 0  179.524454775542 22.49986281421955 0  184.5244528780487 22.49986449880758 0  189.524451210691 22.49986890350597 0  194.5244499131838 22.49987580656365 0  199.5244490138224 22.49988489930106 0  204.5244484824236 22.49989586107084 0  209.5244482631726 22.49990839389067 0  214.524448293254 22.49992223536216 0  219.5244485124889 22.4999371607991 0  224.5244488676798 22.49995298050897 0  229.5244493140218 22.49996953528484 0  234.5244498150096 22.49998669158441 0  239.5244503416513 22.50000433704732 0  244.5244508714346 22.50002237658741 0  249.5244513872701 22.50004072910205 0  254.5244518765232 22.50005932475694 0  259.524452330161 22.50007810277798 0  264.5244527420322 22.50009700967837 0  269.5244531082622 22.50011599785871 0  274.5244534267528 22.50013502452686 0  279.5244536967849 22.50015405089027 0  284.5244539187293 22.50017304156747 0  289.524454093908 22.50019196413675 0  294.5244542246896 22.
[...]
<PointData  Scalars="p"> 
<DataArray  type="Float64"  Name="p"  format="ascii">1.0000000000000001e-01  1.0000000000000003e-01  1.0000028807041370e-01  1.0000000000000003e-01  1.0000000000000003e-01  1.0000146189013993e-01  1.0000000000000003e-01  1.0000220323043983e-01  1.0000000000000003e-01  1.0000307917546951e-01  1.0000000000000003e-01  1.0000370624921680e-01  1.0000000000000003e-01  1.0000392442973045e-01  1.0000000000000003e-01  1.0000461136945521e-01  1.0000000000000003e-01  1.0000476642844967e-01  1.0000000000000003e-01  1.0000493877135279e-01  1.0000000000000003e-01  1.0000649647832788e-01  1.0000000000000003e-01  1.0000400915608457e-01  1.0000000000000003e-01  1.0000525505805652e-01  1.0000000000000003e-01  1.0000479802240743e-01  1.0000000000000003e-01  1.0000512843508039e-01  1.0000000000000003e-01  1.0000355555092198e-01  1.0000000000000003e-01  1.0000345512510832e-01  1.0000000000000003e-01  1.0000153605188396e-01  1.0000000000000003e-01  9.9998898299216071e-02  1.0000000000000003e-01  9.9997453744427992e-02  1.0000000000000003e-01  9.9993282635536182e-02  1.0000000000000003e-01  9.9990254425391376e-02  1.0000000000000003e-01  9.9985012752963495e-02  1.0000000000000003e-01  9.9983064550546855e-02  1.0000000000000003e-01  9.9972308964966200e-02  1.0000000000000003e-01  9.9976808079908483e-02  1.0000000000000003e-01  9.9956099835865855e-02  1.0000000000000003e-01  9.9973029573896158e-02  1.0000000000000003e-01  9.9936242670821920e-02  1.0000000000000003e-01  9.9974258676791536e-02  1.0000000000000001e-01  9.9907452953686929e-02  1.0000000000000001e-01  1.0000000000000003e-01  1.0002165381872681e-01  1.0010457844322279e-01  1.0000000000000003e-01  9.9981883907492367e-02  1.0000000000000003e-01  1.0001283902205771e-01  1.0000000000000003e-01  9.9991015811495956e-02  1.0000000000000003e-01  9.9994860657020124e-02  1.0000000000000003e-01  9.9988569571203112e-02  1.0000000000000003e-01  9.9988222427441570e-02  1.0000000000000003e-01  9.9982777946145726e-02  1.0000000000000003e-01  9.9982173128757401e-02  1.0000000000000003e-01  9.9979496430214587e-02  1.0000000000000003e-01  9.9977485513702904e-02  1.0000000000000003e-01  9.9976120144862166e-02  1.0000000000000003e-01  9.9975010297571554e-02  1.0000000000000003e-01  9.9973601573976972e-02  1.0000000000000003e-01  9.9972988848755245e-02  1.0000000000000003e-01  9.9972367009894883e-02  1.0000000000000003e-01  9.9971657328853311e-02  1.0000000000000003e-01  9.9971418512073223e-02  1.0000000000000003e-01  9.9971070694556866e-02  1.0000000000000003e-01  9.9970949797675179e-02  1.0000000000000003e-01  9.9970589073188093e-02  1.0000000000000003e-01  9.9971040939474662e-02  1.0000000000000003e-01  9.9970129983781630e-02  1.0000000000000003e-01  9.9971662847338522e-02  1.0000000000000003e-01  9.9969110696089228e-02  1.0000000000000003e-01  9.9973600224938855e-02  1.0000000000000003e-01  9.9966203302769702e-02  1.0000000000000003e-01  9.9978668571158086e-02  1.0000000000000003e-01  9.9956765778361406e-02  1.0000000000000001e-01  1.0000000000000003e-01  9.9999250681053656e-02  1.0000000000000003e-01  9.9999947514724019e-02  1.0000005377735378e-01  1.0000004711170132e-01  9.9999546695694996e-02  9.9999742446880688e-02  9.9999419797082018e-02  9.9998461173328446e-02  9.9999290319280856e-02  9.9998615064825880e-02  9.9999479425214005e-02  9.9995482444162717e-02  9.9998772412630749e-02  9.9995917194854358e-02  9.9997914981652919e-02  9.9995544505275452e-02  9.9993427841784860e-02  9.9993160249521679e-02  9.9990700393212895e-02  9.9986533980016432e-02  9.9987126269527007e-02  9.9981597035024489e-02  9.9980583011787749e-02  9.9975049255446702e-02  9.9979087736899799e-02  9.9961976456439686e-02  9.9987424345940143e-02  9.9939102921388995e-02  1.0001328121353804e-01  9.9907332393223705e-02  9.9935336252958626e-02  1.0012038078239506e-01  1.0006582778921913e-01  1.0000080322374551e-01  1.0001424501044703e-01  1.0001113891483764e-01  1.0001401168430919e-01  1.0000428491075306e-01  1.0000758528009027e-01  1.0000399206707841e-01  1.0000110821658931e-01  1.0000041648736005e-01  9.9999389725365526e-02  9.9997004029248326e-02  9.9996769394452567e-02  9.9996015798395815e-02  9.9994747915812032e-02  9.9994407056503309e-02  9.9994005552929324e-02  9.9993065874883602e-02  9.9992908655239132e-02  9.9992295671999895e-02  9.9992114352251193e-02  9.9991122650618491e-02  9.9991904824414515e-02  9.9989525305851701e-02  9.9992654922344021e-02  9.9986040453590247e-02  9.9996488171508996e-02  9.9979309647782538e-02  1.0000000000000003e-01  9.9998302964347280e-02  1.0000000000000003e-01  9.9999502420109243e-02  9.9999505217452975e-02  9.9999146710196940e-02  9.9999543944623265e-02  9.9999172980868439e-02  9.9997914199235330e-02  9.9998383534858015e-02  9.9997760966473545e-02  9.9996893371392115e-02  9.9996163415628420e-02  9.9999865282887526e-02  9.9990362737420874e-02  9.9997023399736887e-02  9.9994131177428128e-02  9.9992050538060373e-02  9.9992796608993989e-02  9.9989396605342118e-02  9.9984443670681641e-02  9.9984554785397056e-02  9.9979915705110375e-02  9.9972417418518020e-02  9.9974702790403144e-02  9.9963671990187034e-02  9.9965773065486277e-02  9.9952584848792977e-02  9.9968418684963825e-02  9.9926357403215108e-02  1.0000366679477186e-01  9.9857716153390924e-02  9.9996524226926953e-02  1.0005124646038314e-01  1.0005440751333070e-01  1.0000396287521335e-01  1.0001601160477182e-01  1.0002240410296490e-01  1.0000037893450550e-01  1.0001264770612575e-01  1.0000466375623647e-01  9.9999343678971009e-02  9.9998764911182161e-02  9.9997020959021993e-02  9.9992198551549838e-02  9.9992143333325997e-02  9.9990639710848733e-02  9.9988053710228300e-02  9.9987714827970101e-02  9.9986966205099503e-02  9.9985330446130422e-02  9.9984929693191255e-02  9.9984457479687788e-02  9.9983165049049486e-02  9.9983105170959347e-02  9.9981954734176426e-02  9.9982271792537075e-02  9.9980007929347650e-02  9.9982435199186537e-02  9.9976818982973836e-02  9.9985589967992131e-02  9.9967271820790946e-02  1.0000000000000003e-01  9.9997607115754006e-02  1.0000000000000003e-01  9.9998764038563823e-02  9.9997593366310242e-02  9.9998154293234012e-02  9.9997612078732145e-02  9.9996056971262737e-02  9.9996324413210505e-02  9.9995216304489001e-02  9.9993249996002329e-02  9.9993855677581539e-02  9.9993338068401619e-02  9.9988698798310002e-02  9.9996659222854764e-02  9.9985374029535459e-02  9.9988551488040853e-02  9.9988855787516526e-02  9.9987597359206690e-02  9.9981613614134379e-02  9.9983829688002762e-02  9.9977828537369917e-02  9.9972486933529239e-02  9.9971668344714590e-02  9.9968044416835614e-02  9.9956459586345497e-02  9.9966387869080547e-02  9.9943697103095211e-02  9.9968896670674309e-02  9.9920944723321720e-02  1.0000591128925029e-01  9.9852670798228821e-02  1.0001767278354860e-01  1.0008092465980607e-01  1.0002227941014488e-01  1.0001396514174414e-01  1.0006059594373011e-01  9.9995812183185206e-02  1.0003329930958160e-01  1.0001736271311609e-01  1.0001367434566913e-01  1.0001242468672772e-01  1.0001169514896817e-01  1.0000388337955024e-01  1.0000484707308058e-01  1.0000274641174001e-01  9.9999061388533983e-02  9.9998632736334761e-02  9.9997753560462657e-02  9.9995291345592513e-02  9.9995054379514614e-02  9.9994210734301633e-02  9.9992753257860112e-02  9.9992014780245997e-02  9.9991672816311689e-02  9.9989839908368766e-02  9.9990345305421738e-02  9.9987545820664769e-02  9.9990216697395676e-02  9.9983407375489067e-02  9.9992765095153965e-02  9.9975606124020261e-02  1.0000000000000003e-01  9.9996903406623025e-02  1.0000000000000003e-01  9.9997659874444769e-02  9.9997052266352096e-02  9.9996951556009100e-02  9.9995546414597319e-02  9.9995832025981959e-02  9.9994777888019637e-02  9.9992300413564675e-02  9.9992862786892192e-02  9.9991837690517171e-02  9.9987687292107941e-02  9.9990725581766485e-02  9.9986536746296692e-02  9.9990747105210054e-02  9.9980986608701111e-02  9.9986012839464261e-02  9.9979370984406096e-02  9.9983685606220618e-02  9.9978088042868091e-02  9.9971140757704052e-02  9.9973465191766933e-02  9.9965199036616298e-02  9.9959372356761583e-02  9.9956688081208861e-02  9.9956495715759403e-02  9.9936174188030094e-02  9.9964292739997934e-02  9.9909717523770591e-02  1.0000287101300918e-01  9.9834249468732553e-02  9.9994970531614130e-02  1.0008006889619100e-01  1.0004630500201508e-01  1.0003643510337137e-01  1.0001292812679262e-01  1.0004222286206677e-01  1.0002157541319341e-01  1.0001845301347710e-01  1.0001678274438479e-01  1.0001985254083795e-01  1.0000619920098262e-01  1.0000942717622228e-01  1.0000608493222933e-01  1.0000057166279637e-01  1.0000035520676338e-01  9.9999184203737462e-02  9.9995282351991677e-02  9.9995124629112780e-02  9.9994257079280641e-02  9.9991887287804684e-02  9.9991523743672803e-02  9.9990538987601310e-02  9.9989193050811734e-02  9.9987928802870552e-02  9.9988017992118552e-02  9.9985111476886157e-02  9.9987123842560713e-02  9.9981085361622660e-02  9.9989442998889622e-02  9.9971764246874706e-02  1.0000000000000003e-01  9.9996096714867019e-02  1.0000000000000003e-01  9.9997373715261142e-02  9.9996035866542127e-02  9.9995035661931145e-02  9.9994932027842223e-02  9.9994236788362320e-02  9.9991785655749149e-02  9.9992047763917735e-02  9.9990715646790518e-02  9.9987218711348969e-02  9.9988228360195733e-02  9.9985645030445755e-02  9.9983443577527004e-02  9.9982735380467813e-02  9.9989911538290274e-02  9.9969687528706094e-02  9.9982627035444901e-02  9.9976081091390445e-02  9.9971529747401325e-02  9.9973621438848539e-02  9.9967993410730954e-02  9.9957115803352703e-02  9.9963015349317688e-02  9.9949857846435522e-02  9.9949030527475752e-02  9.9938066803035588e-02  9.9957207220116501e-02  9.9903348061768343e-02  1.0000501923938304e-01  9.9821934086953321e-02  1.0002435889182794e-01  1.0005378026931837e-01  1.0006180599690220e-01  1.0001265329565857e-01  1.0004022513923017e-01  1.0003377355013332e-01  1.0003604110834753e-01  1.0001663061152864e-01  1.0003617368401718e-01  1.0001080848746342e-01  1.0002125569480852e-01  1.0001537640740021e-01  1.0000840188906629e-01  1.0000808393732416e-01  1.0000709379951395e-01  1.0000142459039782e-01  1.0000166988277812e-01  1.0000038359411448e-01  9.9997168343734774e-02  9.9996806396130497e-02  9.9996146772031960e-02  9.9993647553695483e-02  9.9993407501255238e-02  9.9991849034419558e-02  9.9991211588226298e-02  9.9988490514006365e-02  9.9990547950851397e-02  9.9983948343893167e-02  9.9992103039485039e-02  9.9975336784916213e-02  1.0000000000000003e-01  9.9995673158262688e-02  1.0000000000000003e-01  9.9996837965037860e-02  9.9994523659125950e-02  9.9994784127580671e-02  9.9993744644826035e-02  9.9991572106557847e-02  9.9991912280028461e-02  9.9990572707002998e-02  9.9987184062509671e-02  9.9988204646034376e-02  9.9985614338582149e-02  9.9981552464700654e-02  9.9982769041876182e-02  9.9982680049193390e-02  9.9973440704912736e-02  9.9988126522829721e-02  9.9967135485763289e-02  9.9970737657223072e-02  9.9973133970631720e-02  9.9969199478469398e-02  9.9959701615665919e-02  9.9963313231776180e-02  9.9956416046430782e-02  9.9942225964884335e-02  9.9953420709652033e-02  9.9931667100834065e-02  9.9948257417497091e-02  9.9907313105965095e-02  9.9994846291604531e-02  9.9817149000978267e-02  1.0003749249713537e-01  1.0006649877550430e-01  1.0003881786081924e-01  1.0003676013708167e-01  1.0005050762562290e-01  1.0002187228641246e-01  1.0002762287444680e-01  1.0005036500164405e-01  1.0000870509907202e-01  1.0002955064467206e-01  1.0002056716827222e-01  1.0001448214487570e-01  1.0001267841233902e-01  1.0001276799370674e-01  1.0000440356210037e-01  1.0000511859625698e-01  1.0000374221394261e-01  9.9999318356109701e-02  9.9998894389999843e-02  9.9998034947085826e-02  9.9995184908813373e-02  9.9994550036638860e-02  9.9993895924456427e-02  9.9991278446929288e-02  9.9991307913497821e-02  9.9988576426001730e-02  9.9989781240908640e-02  9.9983708899243864e-02  9.9991360166361551e-02  9.9974581752782649e-02  1.0000000000000003e-01  9.9995166292902379e-02  1.0000000000000003e-01  9.9996042057405629e-02  9.9994427727017901e-02  9.9993984453143100e-02  9.9991643121156479e-02  9.9991765165314828e-02  9.9990449713844048e-02  9.9987445432420136e-02  9.9988181146208235e-02  9.9986425289654526e-02  9.9981697245181383e-02  9.9982951885367016e-02  9.9981037637187492e-02  9.9974456092968428e-02  9.9980364502989916e-02  9.9972261724146139e-02  9.9978552305330759e-02  9.9963089221616327e-02  9.9970098602619475e-02  9.9958449043446876e-02  9.9967683076456093e-02  9.9957112645183768e-02  9.9948803519419885e-02  9.9950179314419990e-02  9.9947591072100939e-02  9.9924073601078911e-02  9.9954117906510639e-02  9.9902410385020332e-02  9.9986344115956000e-02  9.9824399268992781e-02  1.0002176127900453e-01  1.0007697287524635e-01  1.0005592384523619e-01  1.0005005832608470e-01  1.0003620734046292e-01  1.0003551182391349e-01  1.0004482446843860e-01  1.0001728396161776e-01  1.0004342369028876e-01  1.0002123346952421e-01  1.0002353047511353e-01  1.0001708939942036e-01  1.0002240331904236e-01  1.0000921772459953e-01  1.0001152944281012e-01  1.0000940146592266e-01  1.0000368121733516e-01  1.0000349168978184e-01  1.0000274774108525e-01  9.9998436854792233e-02  9.9998304938128113e-02  9.9997236580266852e-02  9.9994928664810398e-02  9.9993626493330406e-02  9.9993510960487766e-02  9.9989876200288194e-02  9.9991554526074319e-02  9.9985476923422703e-02  9.9992479923385474e-02  9.9976427355167388e-02  1.0000000000000003e-01  9.9994604313672367e-02  1.0000000000000003e-01  9.9996062469927094e-02  9.9993892619936298e-02  9.9992525071366148e-02  9.9991887990144607e-02  9.9990826254315227e-02  9.9987882787744425e-02  9.9988175694430900e-02  9.9986889611831054e-02  9.9983026576400860e-02  9.9983667224969416e-02  9.9981590360176426e-02  9.9975776901959773e-02  9.9978850379254150e-02  9.9974608722196948e-02  9.9970573534207949e-02  9.9969960706895025e-02  9.9979926961400345e-02  9.9948700956706410e-02  9.9968257630701787e-02  9.9959112446458234e-02  9.9949925101646436e-02  9.9958224910218899e-02  9.9945367717529751e-02  9.9938285591137876e-02  9.9935235632095026e-02  9.9947328393120052e-02  9.9896748598525251e-02  9.9989770547075335e-02  9.9825529310011069e-02  1.0003161895363392e-01  1.0006495817458491e-01  1.0006697808964432e-01  1.0003500563743321e-01  1.0004891882521827e-01  1.0005042030293065e-01  1.0002853384709634e-01  1.0003275000997004e-01  1.0003158789375587e-01  1.0003347014721629e-01  1.0001482739553801e-01  1.0003144140809557e-01  1.0001139098460936e-01  1.0001796756881698e-01  1.0001429153852094e-01  1.0000760145507911e-01  1.0000689404548670e-01  1.0000647333538809e-01  1.0000112316399720e-01  1.0000097080869277e-01  9.9999950917382938e-02  9.9996424646321344e-02  9.9996149890772310e-02  9.9994751654447420e-02  9.9993138788917080e-02  9.9990680416393238e-02  9.9992050984844774e-02  9.9985612875901395e-02  9.9992542373894294e-02  9.9976837094351650e-02  1.0000000000000003e-01  9.9994362097250364e-02  1.0000000000000003e-01  9.9995827833016485e-02  9.9992809022737356e-02  9.9992840821858539e-02  9.9991283822013360e-02  9.9988771433985962e-02  9.9988639692513315e-02  9.9987245378097236e-02  9.9983627309033665e-02  9.9984742214137889e-02  9.9982657547451198e-02  9.9977418639824983e-02  9.9979479037120803e-02  9.9976454583964383e-02  9.9970221240846827e-02  9.9972354191831425e-02  9.9972130121433078e-02  9.9957293524016125e-02  9.9980067684323728e-02  9.9948454508132320e-02  9.9952953813446432e-02  9.9957382775835074e-02  9.9953775674827147e-02  9.9935537622407561e-02  9.9952162927484309e-02  9.9930098275570464e-02  9.9937747493460169e-02  9.9910408055030625e-02  9.9981201496362707e-02  9.9825719646776681e-02  1.0004132597408960e-01  1.0007602675830905e-01  1.0005449524998866e-01  1.0004463666075929e-01  1.0006150033428091e-01  1.0003647396129464e-01  1.0004135583043312e-01  1.0004159281319511e-01  1.0002552887885953e-01  1.0002155392371137e-01  1.0004308793551110e-01  1.0000886511658670e-01  1.0002539539666579e-01  1.0001819714425238e-01  1.0001370896388408e-01  1.0001095079713219e-01  1.0001185411951212e-01  1.0000432083215734e-01  1.0000455971821064e-01  1.0000370315294924e-01  9.9999527231048407e-02  9.9998552980136185e-02  9.9998071503176758e-02  9.9994628779118730e-02  9.9994687502001856e-02  9.9992076029482346e-02  9.9992479822502853e-02  9.9986845750252795e-02  9.9993333316476085e-02  9.9978027680952153e-02  1.0000000000000003e-01  9.9994129586095465e-02  1.0000000000000003e-01  9.9995379246652250e-02  9.9993138197747189e-02  9.9992619147885917e-02  9.9989914531403518e-02  9.9989680140891962e-02  9.9988169256854539e-02  9.9984858885481254e-02  9.9985350098342196e-02  9.9983892267303712e-02  9.9979220689007706e-02  9.9980821905061246e-02  9.9978517123737051e-02  9.9972328006754180e-02  9.9974770157362849e-02  9.9971969322861134e-02  9.9962050338018513e-02  9.9971106687250427e-02  9.9959653797426162e-02  9.9966724856684813e-02  9.9947858464565123e-02  9.9954904949739659e-02  9.9940485005982377e-02  9.9952202961983844e-02  9.9945729608552150e-02  9.9920981296358374e-02  9.9952892928204112e-02  9.9907863103695871e-02  9.9968824871042181e-02  9.9845767182804204e-02  1.0002582468938613e-01  1.0009951346478399e-01  1.0006036753560599e-01  1.0005578531189911e-01  1.0004834284174843e-01  1.0004442168853078e-01  1.0005179980328970e-01  1.0003222526593260e-01  1.0003062461361607e-01  1.0003458671789772e-01  1.0001483734183093e-01  1.0003357403130285e-01  1.0001637560629330e-01  1.0001959113249449e-01  1.0001293688563480e-01  1.0001807330367270e-01  1.0000715542720512e-01  1.0000834077024418e-01  1.0000705075741941e-01  1.0000182470287375e-01  1.0000151894545789e-01  1.0000069021745253e-01  9.9996892160079218e-02  9.9995861112302797e-02  9.9995668014853378e-02  9.9991796981026060e-02  9.9993109983697051e-02  9.9987685931929415e-02  9.9993317182652114e-02  9.9978824008387132e-02  1.0000000000000003e-01  9.9993768957833545e-02  1.0000000000000003e-01  9.9995586825051316e-02  9.9992991154698591e-02  9.9991698550197239e-02  9.9990635113529805e-02  9.9989481320738441e-02  9.9986353685280638e-02  9.9986328470225108e-02  9.9984926820073108e-02  9.9981058757772384e-02  9.9981723625372512e-02  9.9980223051059622e-02  9.9974851043103635e-02  9.9976875346976399e-02  9.9974395605529204e-02  9.9965853859461121e-02  9.9970844550401922e-02  9.9964859448129190e-02  9.9958948826682451e-02  9.9958945994250162e-02  9.9972747354094782e-02  9.9927889863390809e-02  9.9958809736583693e-02  9.9942133297918706e-02  9.9936094100129005e-02  9.9939899287202927e-02  9.9948228382033044e-02  9.9897570919941184e-02  9.9984375415539922e-02  9.9847588678850172e-02  1.0001781029424826e-01  1.0010751973461524e-01  1.0007574217329795e-01  1.0004350232503678e-01  1.0005247082564760e-01  1.0005515799218451e-01  1.0004038269760802e-01  1.0003742277236025e-01  1.0004267935959785e-01  1.0002285203355697e-01  1.0002434562366984e-01  1.0002239963185529e-01  1.0002703348056090e-01  1.0000962087128976e-01  1.0002477956078087e-01  1.0000868112200545e-01  1.0001335190020506e-01  1.0001070395522174e-01  1.0000521503321169e-01  1.0000402169506319e-01  1.0000391866359949e-01  9.9999202776483567e-02  9.9998884085821735e-02  9.9997274233988895e-02  9.9994991246806011e-02  9.9992787265709787e-02  9.9994027028656091e-02  9.9987881541412874e-02  9.9993866645440341e-02  9.9979929287412880e-02  1.0000000000000003e-01  9.9993868045523529e-02  1.0000000000000003e-01  9.9995742663931714e-02  9.9992515056830739e-02  9.9992527241896390e-02  9.9990812159682849e-02  9.9988400592392654e-02  9.9987915100617067e-02  9.9986507178405112e-02  9.9982989799569280e-02  9.9983609450049776e-02  9.9981860542503173e-02  9.9977137657983439e-02  9.9979010589347758e-02  9.9977240419233754e-02  9.9970187232688149e-02  9.9973217335789691e-02  9.9969662333156115e-02  9.9960617669171928e-02  9.9964749350526072e-02  9.9964362584247998e-02  9.9944187083448280e-02  9.9975146275076518e-02  9.9935080336277723e-02  9