<?xml version="1.0"?>
<VTKFile type="UnstructuredGrid"  version="0.1"  >
<UnstructuredGrid>
<Piece  NumberOfPoints="1933" NumberOfCells="3640">
<Points>
<DataArray  type="Float64"  NumberOfComponents="3"  format="ascii">-0.4752629672236109 -0.002294430867770722 0  4.52473706576211 -0.002227964407250756 0  4.524637333780213 7.497772101097866 0  -0.4753627020254398 7.497705632303729 0  9.524737128540936 -0.002161539139488076 0  9.524637387548966 7.497838521255794 0  14.52473724310403 -0.002095125725822264 0  14.52463746281279 7.497904928736548 0  19.52473742166676 -0.002028685483135448 0  19.52463756004705 7.497971363906584 0  24.52473766827209 -0.001962176706528151 0  24.52463767653907 7.49803786864386 0  29.52473798067009 -0.001895556910749758 0  29.52463780617024 7.498104485184086 0  34.52473835169771 -0.001828783285392121 0  34.52463793924426 7.498171256009011 0  39.52473877006797 -0.00176181234488872 0  39.52463806228137 7.4982382242919 0  44.52473922064604 -0.00169459920596456 0  44.52463815769404 7.498305434631891 0  49.52473968430181 -0.001627096676225163 0  49.5246382032825 7.498372933949325 0  54.52474013739592 -0.001559254217023845 0  54.52463817150034 7.498440772496454 0  59.52474055091587 -0.001491016780629701 0  59.52463802844122 7.498509004986273 0  64.52474088923772 -0.001422323483305125 0  64.52463773248139 7.498577691873913 0  69.52474110843791 -0.001353106045429991 0  69.52463723249181 7.498646900849606 0  74.52474115402734 -0.001283286897330369 0  74.52463646549612 7.498716708626434 0  79.52474095789208 -0.001212776807204385 0  79.52463535360356 7.498787203133651 0  84.52474043410476 -0.001141471827677159 0  84.52463379998132 7.498858486258551 0  89.52473947306275 -0.001069249270883781 0  89.52463168354839 7.498930677313783 0  94.52473793307793 -0.000995962297690783 0  94.52462885198105 7.499003917430726 0  99.52473562795385 -0.0009214325348077129 0  99.52462511253597 7.499078375058993 0  104.5247323080722 -0.0008454399152379213 0  104.5246202201901 7.499154252605527 0  109.5247276306901 -0.00076770871488488 0  109.524613862825 7.499231793780051 0  114.5247211118736 -0.0006878886976344444 0  114.5246056440461 7.499311290000642 0  119.5247120465301 -0.0006055308939178789 0  119.524595066555 7.499393081315782 0  124.5246993721115 -0.0005200602631493231 0  124.5245815246553 7.499477540734998 0  129.5246814316741 -0.0004307562790356194 0  129.5245643272979 7.499565016545989 0  134.5246555557805 -0.0003367783458203785 0  134.5245428008707 7.499655677220069 0  139.5246173170574 -0.0002373484945878842 0  139.5245165791653 7.499749144734393 0  144.5245591904526 -0.0001324361614756637 0  144.5244863072784 7.499843704721117 0  149.5244681108417 -2.50844067814395e-05 0  149.5244552335488 7.499934818081907 0  159.5244717418524 1.377533698840187e-18 0  164.5244913525302 -1.150499160143131e-05 0  164.5244762217329 7.499981245504775 0  159.5244639215362 7.499983066621944 0  169.5245167638624 -1.186270403277648e-06 0  169.5244882642694 7.499995514355962 0  174.5245424321455 2.391256751301347e-05 0  174.5245006200306 7.500022403327741 0  179.5245662061634 5.93681655011102e-05 0  179.5245129607917 7.50005871273981 0  184.5245873931103 0.0001022291471186468 0  184.5245248766563 7.50010198899992 0  189.5246059229025 0.0001504722715522918 0  189.5245360705934 7.500150433902696 0  194.524621975133 0.0002026842423630959 0  194.5245463738615 7.500202741724588 0  199.5246358124157 0.0002578604082578399 0  199.5245557167813 7.500257960751512 0  204.5246477079639 0.0003152740830306268 0  204.5245640957385 7.500315390780255 0  209.5246579163044 0.0003743906276820928 0  209.5245715470815 7.500374510563095 0  214.5246666634629 0.0004348102827143493 0  214.524578128951 7.500434927164037 0  219.5246741456384 0.0004962295889540619 0  219.5245839095028 7.500496340619263 0  224.5246805313093 0.0005584149260609244 0  224.5245889596571 7.500558519103383 0  229.5246859644919 0.0006211840417734952 0  229.5245933488704 7.50062128128525 0  234.5246905681678 0.0006843929278297246 0  234.5245971428481 7.50068448362806 0  239.5246944474884 0.0007479263349472911 0  239.5246004024766 7.50074801112512 0  244.5246976926425 0.0008116908126363909 0  244.5246031834999 7.500811770456651 0  249.5247003813748 0.0008756095391972689 0  249.5246055366458 7.5008756848834 0  254.5247025812089 0.0009396184542327602 0  254.5246075080177 7.500939690414841 0  259.5247043514207 0.001003663371312719 0  259.5246091396281 7.501003732941991 0  264.5247057448357 0.001067697864461156 0  264.5246104700083 7.501067766133354 0  269.5247068094859 0.001131681810282641 0  269.524611534843 7.501131749974631 0  274.5247075901883 0.001195580543128282 0  274.5246123675809 7.501195649901427 0  279.5247081300459 0.001259364656281464 0  279.5246129999958 7.501259436537777 0  284.5247084718681 0.001323010569351075 0  284.5246134626373 7.501323086118542 0  289.5247086593857 0.001386502092121693 0  289.5246137851346 7.501386581743508 0  294.5247087380034 0.001449833353512986 0  294.5246139963001 7.501449915680256 0  299.524708754471 0.001513013605923923 0  299.5246141240614 7.501513092987306 0  304.5247087542018 0.001576074397122379 0  304.524614195447 7.501576136751058 0  309.5247087735872 0.001639078649954031 0  309.5246142374169 7.501639095341673 0  4.524537543661131 14.99777222824841 0  -0.4754624882667153 14.99770578433239 0  9.524537575923507 14.99783861590347 0  14.52453760667869 14.99790499399154 0  19.52453763110597 14.99797140485443 0  24.52453764239484 14.99803788947318 0  29.52453763166612 14.99810448846266 0  34.52453758757246 14.99817124266415 0  39.52453749581107 14.99823819375207 0  44.52453733859077 14.99830538493306 0  49.52453709403458 14.99837286173742 0  54.52453673548099 14.99844067289583 0  59.52453623064601 14.99850887130611 0  64.52453554061138 14.9985775151063 0  69.52453461860568 14.99864666887875 0  74.52453340855732 14.99871640501294 0  79.52453184341178 14.99878680524804 0  84.52452984325191 14.99885796239105 0  89.52452731333652 14.99892998214572 0  94.52452414233798 14.9990029848533 0  99.52452020135296 14.99907710667096 0  104.5245153448047 14.99915249916653 0  109.5245094152802 14.99922932525108 0  114.5245022559016 14.99930774738248 0  119.524493736248 14.9993879003383 0  124.5244838012623 14.99946983446389 0  129.5244725564729 14.99955340469871 0  134.524460404678 14.99963806482983 0  139.5244482409875 14.99972250762779 0  144.5244376735416 14.99980408334489 0  149.5244311137862 14.99987796675881 0  164.5244473474985 14.99996158761356 0  159.5244417428461 14.99994389574575 0  169.524451514702 14.99998612539516 0  174.5244556014298 15.00001824080018 0  179.5244600488076 15.00005716285815 0  184.5244648627868 15.0001017151652 0  189.5244698937691 15.00015075626283 0  194.524474966623 15.00020331680578 0  199.524479931396 15.00025861742142 0  204.5244846770398 15.00031604620628 0  209.524489129768 15.00037512704166 0  214.5244932462494 15.0004354898885 0  219.5244970060625 15.0004968462153 0  224.5245004050842 15.00055896972331 0  229.5245034502586 15.00062168158379 0  234.5245061556961 15.00068483923776 0  239.524508539871 15.00074832791466 0  244.5245106236731 15.00081205419838 0  249.524512429097 15.00087594113369 0  254.5245139783903 15.00093992450094 0  259.5245152935246 15.00100394999432 0  264.5245163958876 15.0010679711192 0  269.524517306122 15.00113194768934 0  274.5245180440518 15.00119584485443 0  279.5245186286605 15.0012596326289 0  284.5245190781209 15.00132328592329 0  289.5245194098837 15.00138678509098 0  294.5245196409494 15.00145011698494 0  299.5245197885225 15.00151327644258 0  304.5245198714972 15.00157626794345 0  309.5245199135404 15.00163910687869 0  4.5244378250483 22.49777242581868 0  -0.4755622026691409 22.49770606606065 0  9.524437841710164 22.49783874117504 0  14.5244378405758 22.49790505788819 0  19.52443781437234 22.49797141646675 0  24.5244377549483 22.49803785509141 0  29.52443765298435 22.49810441124529 0  34.52443749761101 22.4981711226655 0  39.52443727598012 22.49823802802833 0  44.52443697282808 22.49830516755976 0  49.52443657004638 22.49837258364632 0  54.52443604625923 22.49844032146868 0  59.52443537641217 22.49850842965985 0  64.52443453138714 22.49857696097785 0  69.52443347768006 22.49864597296833 0  74.52443217721589 22.49871552857031 0  79.52443058742762 22.49878569657409 0  84.52442866181472 22.49885655176412 0  89.52442635132599 22.49892817444669 0  94.52442360710741 22.49900064883434 0  99.52442038544109 22.49907405937756 0  104.5244166560856 22.49914848350634 0  109.5244124157139 22.49922397824021 0  114.5244077086347 22.49930055659046 0  119.5244026572211 22.49937814748864 0  124.5243975038278 22.49945653026273 0  129.5243926631445 22.49953523239643 0  134.5243887765217 22.49961338064266 0  139.5243867442568 22.49968950917773 0  144.5243876848523 22.49976137553358 0  149.5243927366845 22.49982596518001 0  164.5244028433989 22.49993834952407 0  159.5244017801789 22.4999062046173 0  169.5244027235806 22.49997288038893 0  174.5244022351963 22.50001130458158 0  179.5244019225336 22.50005399839344 0  184.5244020364878 22.50010071521767 0  189.5244026301896 22.50015094633029 0  194.5244036514361 22.50020412183981 0  199.5244050047755 22.50025970524998 0  204.5244065866759 22.50031722928 0  209.5244083027343 22.50037630281653 0  214.5244100743994 22.50043660530099 0  219.5244118401552 22.50049787672955 0  224.5244135541115 22.50055990705084 0  229.5244151836097 22.50062252652244 0  234.5244167066718 22.50068559752147 0  239.5244181096632 22.50074900783266 0  244.524419385307 22.50081266525364 0  249.5244205310668 22.50087649330857 0  254.5244215478681 22.5009404278702 0  259.5244224390952 22.50100441452131 0  264.5244232098211 22.50106840651928 0  269.5244238662144 22.50113236326044 0  274.5244244150982 22.50119624916359 0  279.5244248636434 22.50126003290634 0  284.5244252192146 22.50132368694497 0  289.5244254894208 22.50138718722062 0  294.5244256824876 22.50145051288601 0  299.5244258081161 22
[...]
<PointData  Scalars="p"> 
<DataArray  type="Float64"  Name="p"  format="ascii">1.0000000000000001e-01  1.0000000000000003e-01  9.9997878424480838e-02  1.0000000000000003e-01  1.0000000000000003e-01  9.9998660722092750e-02  1.0000000000000003e-01  9.9997973113967339e-02  1.0000000000000003e-01  9.9998123572137124e-02  1.0000000000000003e-01  9.9997720712268298e-02  1.0000000000000003e-01  9.9996246943202485e-02  1.0000000000000003e-01  9.9996177172224324e-02  1.0000000000000003e-01  9.9995172640826080e-02  1.0000000000000003e-01  9.9993436887278409e-02  1.0000000000000003e-01  9.9994712905324787e-02  1.0000000000000003e-01  9.9987492312641410e-02  1.0000000000000003e-01  9.9986126166008257e-02  1.0000000000000003e-01  9.9982875239188182e-02  1.0000000000000003e-01  9.9980954054513613e-02  1.0000000000000003e-01  9.9974821501271682e-02  1.0000000000000003e-01  9.9972877647186473e-02  1.0000000000000003e-01  9.9967604405344440e-02  1.0000000000000003e-01  9.9959819280496270e-02  1.0000000000000003e-01  9.9956850965621208e-02  1.0000000000000003e-01  9.9947551860496170e-02  1.0000000000000003e-01  9.9941399020782959e-02  1.0000000000000003e-01  9.9930557572846870e-02  1.0000000000000003e-01  9.9929926739062980e-02  1.0000000000000003e-01  9.9905157315595669e-02  1.0000000000000003e-01  9.9922490259700014e-02  1.0000000000000003e-01  9.9873183663297296e-02  1.0000000000000003e-01  9.9922606793882915e-02  1.0000000000000003e-01  9.9831541479380073e-02  1.0000000000000003e-01  9.9934490266106166e-02  1.0000000000000001e-01  9.9765826731810822e-02  1.0000000000000001e-01  1.0000000000000003e-01  1.0013662527434268e-01  1.0034093836554697e-01  1.0000000000000003e-01  1.0001539261768613e-01  1.0000000000000003e-01  1.0010366483972032e-01  1.0000000000000003e-01  1.0005103694818536e-01  1.0000000000000003e-01  1.0006413997078732e-01  1.0000000000000003e-01  1.0004990527652823e-01  1.0000000000000003e-01  1.0005332605029181e-01  1.0000000000000003e-01  1.0004116934114594e-01  1.0000000000000003e-01  1.0004157807618387e-01  1.0000000000000003e-01  1.0003663949641378e-01  1.0000000000000003e-01  1.0003266876665855e-01  1.0000000000000003e-01  1.0002986568947006e-01  1.0000000000000003e-01  1.0002780280295691e-01  1.0000000000000003e-01  1.0002440981697334e-01  1.0000000000000003e-01  1.0002286354502718e-01  1.0000000000000003e-01  1.0002122266575218e-01  1.0000000000000003e-01  1.0001924877458242e-01  1.0000000000000003e-01  1.0001808315305416e-01  1.0000000000000003e-01  1.0001712463734390e-01  1.0000000000000003e-01  1.0001580432502032e-01  1.0000000000000003e-01  1.0001519041193788e-01  1.0000000000000003e-01  1.0001434501422259e-01  1.0000000000000003e-01  1.0001393030576755e-01  1.0000000000000003e-01  1.0001287415133349e-01  1.0000000000000003e-01  1.0001343721119543e-01  1.0000000000000003e-01  1.0001128376490083e-01  1.0000000000000003e-01  1.0001379248020598e-01  1.0000000000000003e-01  1.0000872105141374e-01  1.0000000000000003e-01  1.0001679816813759e-01  1.0000000000000001e-01  1.0000000000000003e-01  9.9995283202283153e-02  1.0000000000000003e-01  9.9996016315831035e-02  9.9995839688907517e-02  9.9995285106144957e-02  9.9993353845053964e-02  9.9993654958062742e-02  9.9993063757526063e-02  9.9990034948718165e-02  9.9991822321981186e-02  9.9990318668793848e-02  9.9989292881477704e-02  9.9980413774971938e-02  9.9985117540619867e-02  9.9976984468671509e-02  9.9981295936609024e-02  9.9976890265706622e-02  9.9970624197280686e-02  9.9971537071061323e-02  9.9967714376921313e-02  9.9957332359525461e-02  9.9961822610704631e-02  9.9950835802365148e-02  9.9950310077775259e-02  9.9938448021605369e-02  9.9954308623997346e-02  9.9908796075960843e-02  9.9980642453660173e-02  9.9851497360887498e-02  1.0004900152637028e-01  9.9763631885148640e-02  9.9835454144924479e-02  1.0048256562613368e-01  1.0017453224203653e-01  1.0001804543611917e-01  1.0004620252629130e-01  1.0003683574368130e-01  1.0005219053203138e-01  1.0002780669708593e-01  1.0003834022309592e-01  1.0003292208941378e-01  1.0002712567081391e-01  1.0002629365431449e-01  1.0002562954501779e-01  1.0002022016106048e-01  1.0001992751418315e-01  1.0001883482691763e-01  1.0001581086322724e-01  1.0001512888853438e-01  1.0001439103578190e-01  1.0001236185944892e-01  1.0001166586296240e-01  1.0001105776234565e-01  1.0000951095268615e-01  1.0000911922300770e-01  1.0000800347878151e-01  1.0000777800492822e-01  1.0000580502425262e-01  1.0000757398644168e-01  1.0000274621500950e-01  1.0000858290762733e-01  1.0000000000000003e-01  9.9992443878829967e-02  1.0000000000000003e-01  9.9995540678658568e-02  9.9993608344635540e-02  9.9991774192898522e-02  9.9991890551517595e-02  9.9991224446532259e-02  9.9986948405096782e-02  9.9988131985389375e-02  9.9987344569717321e-02  9.9983034916139024e-02  9.9981574531791878e-02  9.9987547503989221e-02  9.9963886263822799e-02  9.9975396666305144e-02  9.9969546059754708e-02  9.9961037737213695e-02  9.9964725352276823e-02  9.9958668962716740e-02  9.9945601732564976e-02  9.9948837349551345e-02  9.9942213148861481e-02  9.9923319387492993e-02  9.9935093119997320e-02  9.9911415003196891e-02  9.9921044602414563e-02  9.9888207266173465e-02  9.9939664152733934e-02  9.9820906573794180e-02  1.0003674297165759e-01  9.9632234115263590e-02  9.9924381054296116e-02  1.0038644732331461e-01  1.0022887827196572e-01  1.0004023807745224e-01  1.0006170032098358e-01  1.0009684215812874e-01  1.0003565489293843e-01  1.0006997116222537e-01  1.0005717401237307e-01  1.0004600300963247e-01  1.0004616772858656e-01  1.0004611541694997e-01  1.0003509155498128e-01  1.0003581480220124e-01  1.0003389378122780e-01  1.0002783028873162e-01  1.0002708060869256e-01  1.0002610326913786e-01  1.0002204014540460e-01  1.0002130349166173e-01  1.0002027477489196e-01  1.0001771625723137e-01  1.0001668725212798e-01  1.0001596491516573e-01  1.0001373811120966e-01  1.0001352582899496e-01  1.0001140174219947e-01  1.0001214090687066e-01  1.0000765703107937e-01  1.0001360207724284e-01  1.0000000000000003e-01  9.9990584894041099e-02  1.0000000000000003e-01  9.9994267076926172e-02  9.9989784000435872e-02  9.9990685350237293e-02  9.9989811537849804e-02  9.9985121951768230e-02  9.9986221151050048e-02  9.9985120271236794e-02  9.9979284798774562e-02  9.9981499248187181e-02  9.9981156221338505e-02  9.9968230562763660e-02  9.9983606675542944e-02  9.9960853582860693e-02  9.9960316729874099e-02  9.9962966796079286e-02  9.9961633459497767e-02  9.9945859776359933e-02  9.9954649575814930e-02  9.9944578324033570e-02  9.9931500194186187e-02  9.9933889938133888e-02  9.9932579938276589e-02  9.9902082181015497e-02  9.9936955743695682e-02  9.9878475545943410e-02  9.9953426328763584e-02  9.9815134808536141e-02  1.0006103795476359e-01  9.9613271040259396e-02  9.9943093771143729e-02  1.0049438351310440e-01  1.0013819835698624e-01  1.0002492782210488e-01  1.0017843304632262e-01  9.9994953975364148e-02  1.0009022310744879e-01  1.0005916254995280e-01  1.0005237284307318e-01  1.0005066279940948e-01  1.0005574714387121e-01  1.0003778627397097e-01  1.0004174789852632e-01  1.0003957368863568e-01  1.0003132902689907e-01  1.0003073781423300e-01  1.0002995470700789e-01  1.0002422332212298e-01  1.0002370357697486e-01  1.0002272093231798e-01  1.0001904201697760e-01  1.0001820528168458e-01  1.0001698431748066e-01  1.0001471603931664e-01  1.0001316530136159e-01  1.0001278024912284e-01  1.0000959945940424e-01  1.0001084430222230e-01  1.0000571118434974e-01  1.0001084329607512e-01  1.0000000000000003e-01  9.9988686693314413e-02  1.0000000000000003e-01  9.9991928970993446e-02  9.9989015602332768e-02  9.9989438341813730e-02  9.9984262012236771e-02  9.9985496416015229e-02  9.9983982281254519e-02  9.9977302518256123e-02  9.9979695813536135e-02  9.9979013969688099e-02  9.9967655885669748e-02  9.9974713676876895e-02  9.9967286002480046e-02  9.9969409808388962e-02  9.9951112723956279e-02  9.9959081308442291e-02  9.9940617938632584e-02  9.9952743482935369e-02  9.9944665090051232e-02  9.9925523400927710e-02  9.9937477635381772e-02  9.9922834522221018e-02  9.9910270307220300e-02  9.9907407701542536e-02  9.9919911586415541e-02  9.9860125314280804e-02  9.9951764528125195e-02  9.9790252851949646e-02  1.0006739456269326e-01  9.9555854857908854e-02  9.9851045175410671e-02  1.0054857368926949e-01  1.0019599443615525e-01  1.0008517682998251e-01  1.0007985646114755e-01  1.0011086721391931e-01  1.0007197831373622e-01  1.0006612515155704e-01  1.0005880137746076e-01  1.0007803422448470e-01  1.0004555112685429e-01  1.0005574349628776e-01  1.0005259757593034e-01  1.0004060284316446e-01  1.0004073695059536e-01  1.0004054384629243e-01  1.0003143876272289e-01  1.0003130188473761e-01  1.0003032732380125e-01  1.0002496930749200e-01  1.0002406035922343e-01  1.0002314014533724e-01  1.0001930668518942e-01  1.0001839359161085e-01  1.0001670976731787e-01  1.0001481630591859e-01  1.0001233087167360e-01  1.0001299945855753e-01  1.0000751209088124e-01  1.0001280157967980e-01  1.0000000000000003e-01  9.9986463014662894e-02  1.0000000000000003e-01  9.9991593620724017e-02  9.9987653815762259e-02  9.9984971147483157e-02  9.9984532965279246e-02  9.9983780165172245e-02  9.9977012056811282e-02  9.9978496040240727e-02  9.9977807036336769e-02  9.9968168132517798e-02  9.9971760332079121e-02  9.9968502352860700e-02  9.9959325258875853e-02  9.9960337991368886e-02  9.9974891662942780e-02  9.9927501053691206e-02  9.9953503638518293e-02  9.9942799586533876e-02  9.9927180081328781e-02  9.9938004708948314e-02  9.9931674546960919e-02  9.9902476458875761e-02  9.9926540110217607e-02  9.9899031516618053e-02  9.9903194443871177e-02  9.9871175824543454e-02  9.9947119607855225e-02  9.9771058941185417e-02  1.0009247218684909e-01  9.9511878886724470e-02  9.9885408558867517e-02  1.0050783702704419e-01  1.0024441500899219e-01  1.0000216506353825e-01  1.0012177220811413e-01  1.0009898012473989e-01  1.0010671486213894e-01  1.0003911034278699e-01  1.0010474972124767e-01  1.0004039054673521e-01  1.0006870820662107e-01  1.0006159980878317e-01  1.0004673751285716e-01  1.0004694040289111e-01  1.0004895161488475e-01  1.0003579293855333e-01  1.0003692467465397e-01  1.0003593469097354e-01  1.0002823750769524e-01  1.0002774196773795e-01  1.0002704635792756e-01  1.0002192949812033e-01  1.0002088494694920e-01  1.0001992831915098e-01  1.0001599934370013e-01  1.0001540218037727e-01  1.0001263500855079e-01  1.0001240990779935e-01  1.0000721751187550e-01  1.0001196164014373e-01  1.0000000000000003e-01  9.9985263966506227e-02  1.0000000000000003e-01  9.9990958465112093e-02  9.9983775471142525e-02  9.9985291574712490e-02  9.9983345469962251e-02  9.9977481359996664e-02  9.9978232551045987e-02  9.9977535754298241e-02  9.9968041581740025e-02  9.9971780926140716e-02  9.9969036689055171e-02  9.9956631665862633e-02  9.9961489953983629e-02  9.9963812225076429e-02  9.9939766892394796e-02  9.9970645066314173e-02  9.9930651729417938e-02  9.9925911013879182e-02  9.9936803742888630e-02  9.9931715085154138e-02  9.9907065129082054e-02  9.9921690402561755e-02  9.9916346395247088e-02  9.9875643177419704e-02  9.9919865964191917e-02  9.9860583836230934e-02  9.9925900496907347e-02  9.9780569904869776e-02  1.0008690349761654e-01  9.9475488472355794e-02  9.9908919818403594e-02  1.0055676541848077e-01  1.0018785320773495e-01  1.0004087788602647e-01  1.0015511974588472e-01  1.0005962377811180e-01  1.0008926271470248e-01  1.0013917632428170e-01  1.0003194188249348e-01  1.0008424604628834e-01  1.0006868771486425e-01  1.0005785273695997e-01  1.0005407966975229e-01  1.0006072867972783e-01  1.0004163941962564e-01  1.0004448487949770e-01  1.0004403534892305e-01  1.0003410293742740e-01  1.0003330028229143e-01  1.0003294985789868e-01  1.0002606654600590e-01  1.0002539977528779e-01  1.0002418461190850e-01  1.0001997565511186e-01  1.0001823459564342e-01  1.0001739618211770e-01  1.0001317545101233e-01  1.0001363470919354e-01  1.0000824281828326e-01  1.0001261524229063e-01  1.0000000000000003e-01  9.9984080049731694e-02  1.0000000000000003e-01  9.9988914165917972e-02  9.9983887938406332e-02  9.9984626051826495e-02  9.9978106820657581e-02  9.9979008755754648e-02  9.9977627908769420e-02  9.9969034229488482e-02  9.9971962856376467e-02  9.9970585983924456e-02  9.9957589131300609e-02  9.9962315684026359e-02  9.9961281484446787e-02  9.9943118949156806e-02  9.9958556602972606e-02  9.9945991077480367e-02  9.9949029997802252e-02  9.9922525786021704e-02  9.9935319709737680e-02  9.9902758670922423e-02  9.9930350709197271e-02  9.9913098130746739e-02  9.9891654799704785e-02  9.9900050679470262e-02  9.9912626046572459e-02  9.9835721294898885e-02  9.9948469265144835e-02  9.9769307641154645e-02  1.0007574786041352e-01  9.9473140294348075e-02  9.9850338546564485e-02  1.0060592789303879e-01  1.0022255432218749e-01  1.0007113086024842e-01  1.0010871771270886e-01  1.0007389035769554e-01  1.0012821024187696e-01  1.0006143799557565e-01  1.0011701229208511e-01  1.0005984119298239e-01  1.0007212610043811e-01  1.0005305538005549e-01  1.0007527645904332e-01  1.0004478904949299e-01  1.0005187136809177e-01  1.0005108609271464e-01  1.0003858082294140e-01  1.0003850216139494e-01  1.0003918156138779e-01  1.0002944505512718e-01  1.0002903343906996e-01  1.0002839400024983e-01  1.0002241849327716e-01  1.0002147195446315e-01  1.0001987949265827e-01  1.0001654840240602e-01  1.0001381312806022e-01  1.0001415607175645e-01  1.0000793207936079e-01  1.0001241068819169e-01  1.0000000000000003e-01  9.9982493055572219e-02  1.0000000000000003e-01  9.9989123264819665e-02  9.9983385245757880e-02  9.9980779396552588e-02  9.9979247338115682e-02  9.9978843237199688e-02  9.9970642262271980e-02  9.9972294621825872e-02  9.9971534551063237e-02  9.9960684082750134e-02  9.9963369928719834e-02  9.9962264399022213e-02  9.9945849212939308e-02  9.9955189197263275e-02  9.9951248852466368e-02  9.9936138954369078e-02  9.9940579825725365e-02  9.9962237947766777e-02  9.9889552236125459e-02  9.9930367667023678e-02  9.9917774940646534e-02  9.9886654846642720e-02  9.9919186229979293e-02  9.9893745431246100e-02  9.9881533834210404e-02  9.9866475490377082e-02  9.9939908274464931e-02  9.9743560404794679e-02  1.0009918254919623e-01  9.9458083372812617e-02  9.9858024318664848e-02  1.0058548670015030e-01  1.0025763005213921e-01  1.0002467248592604e-01  1.0013042652989890e-01  1.0011022594609759e-01  1.0008148752094634e-01  1.0008541009731098e-01  1.0010233746904917e-01  1.0009818300619645e-01  1.0004185282509723e-01  1.0009300406582114e-01  1.0004364795708108e-01  1.0006188478360083e-01  1.0005843765847729e-01  1.0004443590696675e-01  1.0004325965287592e-01  1.0004612564259772e-01  1.0003375481495701e-01  1.0003408206334198e-01  1.0003339191671276e-01  1.0002572782731242e-01  1.0002465730347339e-01  1.0002411702548125e-01  1.0001853571044129e-01  1.0001784849509111e-01  1.0001514217071400e-01  1.0001378856025361e-01  1.0000852953571436e-01  1.0001277794553466e-01  1.0000000000000003e-01  9.9981851078582137e-02  1.0000000000000003e-01  9.9988999173235643e-02  9.9980281208669780e-02  9.9981803496935473e-02  9.9979181712806217e-02  9.9973016558797909e-02  9.9973281379096043e-02  9.9972546658063724e-02  9.9962562927027890e-02  9.9965634240356968e-02  9.9964342052002886e-02  9.9949018442986731e-02  9.9955567426673511e-02  9.9954068612959218e-02  9.9935460594325135e-02  9.9944705405213982e-02  9.9949585080226624e-02  9.9911280323795468e-02  9.9961258421516319e-02  9.9902023485121824e-02  9.9893955250591956e-02  9.9911867019873452e-02  9.9913332511088263e-02  9.9859565948118484e-02  9.9919455593853027e-02  9.9859567378307479e-02  9.9906951115913509e-02  9.9777933624963858e-02  1.0009164013123382e-01  9.9431433009580864e-02  9.9877187668759457e-02  1.0061149865281599e-01  1.0022441997733218e-01  1.0003714524025480e-01  1.0016323084768423e-01  1.0006846520804141e-01  1.0009971753253903e-01  1.0010525610820201e-01  1.0007811220376454e-01  1.0007082390139735e-01  1.0012292192353928e-01  1.0003092120236080e-01  1.0007414570891840e-01  1.0005983743834851e-01  1.0005289462515685e-01  1.0004655757685867e-01  1.0005374760948564e-01  1.0003689315168504e-01  1.0003827654108501e-01  1.0003889560353187e-01  1.0002949531712603e-01  1.0002808200954270e-01  1.0002768638970447e-01  1.0002137827089343e-01  1.0001983128086722e-01  1.0001914648321365e-01  1.0001398741758512e-01  1.0001422539481473e-01  1.0000890039895842e-01  1.0001246299358070e-01  1.0000000000000003e-01  9.9981305855433009e-02  1.0000000000000003e-01  9.9987608491696425e-02  9.9981028984885409e-02  9.9982118496018679e-02  9.9975017981128345e-02  9.9975492343514077e-02  9.9973931670896771e-02  9.9965429723538599e-02  9.9967273561011510e-02  9.9966892552917880e-02  9.9953220587008840e-02  9.9957967849731238e-02  9.9956721724306044e-02  9.9938975758649962e-02  9.9947967874737711e-02  9.9947828234844813e-02  9.9920678835093590e-02  9.9944972535952456e-02  9.9928881316480173e-02  9.9928089428279174e-02  9.9899979472310829e-02  9.9911938570875686e-02  9.9871841467578992e-02  9.9903530515007194e-02  9.9909739677118595e-02  9.9823592902600150e-02  9.9947869780021598e-02  9.9775904581625857e-02  1.0005368516641154e-01  9.9471084088020995e-02  9.9835816255762946e-02  1.0066113189317093e-01  1.0023448770815291e-01  1.0006406434413913e-01  1.0012815679901185e-01  1.0007974036201973e-01  1.0012702702182522e-01  1.0007575440778163e-01  1.0008069056829193e-01  1.0010007200788928e-01  1.0006113645452154e-01  1.0009683165690228e-01  1.0005097567798893e-01  1.0006362142487622e-01  1.0004489203600359e-01  1.0006412474669966e-01  1.0003925984408492e-01  1.0004336360466955e-01  1.0004366775349074e-01  1.0003269351968848e-01  1.0003207453139844e-01  1.0003289568650006e-01  1.0002383151999969e-01  1.0002306821523189e-01  1.0002185797443183e-01  1.0001727321965266e-01  1.0001465565677632e-01  1.0001505619036380e-01  1.0000842918678939e-01  1.0001257144556401e-01  1.0000000000000003e-01  9.9980232834693830e-02  1.0000000000000003e-01  9.9988050567894199e-02  9.9981168496140901e-02  9.9979171886091872e-02  9.9976708500484693e-02  9.9976336752284359e-02  9.9968206852387775e-02  9.9969106334628535e-02  9.9968702588116964e-02  9.9957771615642010e-02  9.9960055692629890e-02  9.9959751233989480e-02  9.9943931280489631e-02  9.9950173432538120e-02  9.9950726619328897e-02  9.9927063604792407e-02  9.9942233494250590e-02  9.9937746207760178e-02  9.9915517470096027e-02  9.9924086791054828e-02  9.9956535431089066e-02  9.9849837513597578e-02  9.9920344568667552e-02  9.9888855995727763e-02  9.9869351769189374e-02  9.9875184770023953e-02  9.9941291932275494e-02  9.9735685441651775e-02  1.0009534099462736e-01  9.9475886324042861e-02  9.9819015411354628e-02  1.0065861170661795e-01  1.0026881267900835e-01  1.0003109993535481e-01  1.0013315326351215e-01  1.0010674325777433e-01  1.0009597014580464e-01  1.0008086956431850e-01  1.0010847684137150e-01  1.0006576055658499e-01  1.0007364683340382e-01  1.0007974655670901e-01  1.0008525196437139e-01  1.0003201226737715e-01  1.0007663670915933e-01  1.0003685276594090e-01  1.0005015646032435e-01  1.0004779535396767e-01  1.0003656776732316e-01  1.0003442651511292e-01  1.0003716933267087e-01  1.0002707616720191e-01  1.0002639866872767e-01  1.0002570186656788e-01  1.0001875879582020e-01  1.0001789271087419e-01  1.0001580833873164e-01  1.0001353635954180e-01  1.0000864705369088e-01  1.0001255711599814e-01  1.0000000000000003e-01  9.9980192931918149e-02  1.0000000000000003e-01  9.9988487203290330e-02  9.9979157106552030e-02  9.9980803151176842e-02  9.9977697738158622e-02  9.9972186508829788e-02  9.9971556960697761e-02  9.9970949492798319e-02  9.9961547711570550e-02  9.9963687572772977e-02  9.9962795607416263e-02  9.9948942057311516e-02  9.9953537679954158e-02  9.9954494663134039e-02  9.9934163636736406e-02  9.9943847573366190e-02  9.9944331558916563e-02  9.9917182875220514e-02  9.9932806877066946e-02  9.9940198894448759e-02  9.9887254445068727e-02  9.9955711612112211e-02  9.9885996753091608e-02  9