<?xml version="1.0"?>
<VTKFile type="UnstructuredGrid"  version="0.1"  >
<UnstructuredGrid>
<Piece  NumberOfPoints="1933" NumberOfCells="3640">
<Points>
<DataArray  type="Float64"  NumberOfComponents="3"  format="ascii">0.0002865498115122711 -0.00238443170962335 0  5.000286576616403 -0.002311556967319234 0  5.000177224658268 7.497688489124077 0  0.0001772008559215998 7.49761562219898 0  10.00028663196386 -0.002238705947694633 0  10.00017725674999 7.497761331378525 0  15.00028672854383 -0.002165839911230543 0  15.00017729539597 7.49783419034913 0  20.00028686814309 -0.002092918751112859 0  20.00017733585101 7.497907106238703 0  25.00028704488873 -0.00201990413301331 0  25.00017737015735 7.497980116869461 0  30.00028724752931 -0.001946759965189687 0  30.00017738704085 7.498053257779148 0  35.00028746073449 -0.001873451866926463 0  35.0001773718207 7.498126562883754 0  40.00028766563333 -0.001799946313295934 0  40.00017730622499 7.49820006533372 0  45.00028783979601 -0.001726209722239556 0  45.00017716804683 7.498273798394604 0  50.00028795679749 -0.001652207573804928 0  50.00017693060219 7.498347796290746 0  55.00028798543551 -0.0015779035752363 0  55.00017656196137 7.498422095003612 0  60.00028788862182 -0.001503258852303986 0  60.00017602392185 7.498496733041882 0  65.00028762191971 -0.001428231131258842 0  65.00017527067536 7.498571752212578 0  70.00028713165293 -0.00135277386512719 0  70.00017424710271 7.498647198429484 0  75.00028635246075 -0.001276835246462813 0  75.00017288660023 7.498723122600307 0  80.00028520409762 -0.001200357032171785 0  80.0001711083062 7.498799581638425 0  85.00028358716855 -0.001123273081413528 0  85.00016881354898 7.498876639647457 0  90.0002813773154 -0.001045507472210589 0  90.00016588128307 7.498954369319571 0  95.00027841708626 -0.0009669720152528573 0  95.00016216222703 7.499032853556097 0  100.000274504231 -0.0008875629298497921 0  100.0001574713809 7.499112187222749 0  105.0002693743337 -0.0008071564116759429 0  105.0001515786535 7.499192478708485 0  110.0002626742258 -0.0007256028820448159 0  110.0001441976093 7.499273850383355 0  115.0002539200216 -0.0006427200784702129 0  115.0001349731799 7.499356435759483 0  120.0002424289678 -0.0005582863903412912 0  120.0001234712737 7.499440368332188 0  125.0002272059734 -0.0004720394124956794 0  125.0001091780235 7.499525751028258 0  130.0002067508197 -0.0003836943092588001 0  130.000091526897 7.499612582510401 0  135.0001787258032 -0.000293022004798601 0  135.0000699937792 7.49970059069596 0  140.0001393780468 -0.0002000951095565761 0  140.000044344055 7.499788873194113 0  145.0000825334592 -0.0001059984726098107 0  145.000015199962 7.499875154353217 0  149.9999978475763 -1.486993111267379e-05 0  149.9999852504796 7.499954352865869 0  160 7.583819439678956e-19 0  165.000039770861 1.81862001616976e-05 0  165.00000748439 7.500015549101845 0  159.9999896355606 7.499993726055324 0  170.0000756044162 5.317635539121916e-05 0  170.0000251658292 7.5000522180217 0  175.0001065736442 9.928291164050472e-05 0  175.0000420527239 7.500099059296685 0  180.0001328675768 0.0001529110929691117 0  180.0000577082739 7.500152991633152 0  185.0001550363777 0.0002117439117002999 0  185.0000719104407 7.50021193691142 0  190.0001736895404 0.0002742504344131051 0  190.0000845982533 7.500274472705035 0  195.0001893870653 0.0003393931139124212 0  195.0000958117762 7.50033961026925 0  200.0002026093301 0.0004064514925868708 0  200.0001056463441 7.500406650827307 0  205.000213756968 0.0004749139652288057 0  205.0001142224633 7.500475092170887 0  210.0002231606045 0.0005444098690512325 0  210.0001216676816 7.500544567504653 0  215.0002310925095 0.000614665874470912 0  215.0001281064461 7.5006148049139 0  220.0002377773268 0.0006854772989097488 0  220.0001336549379 7.500685600076349 0  225.0002434011066 0.0007566887762857357 0  225.0001384188498 7.500756797561486 0  230.0002481186424 0.0008281809234176376 0  230.0001424928378 7.500828277776053 0  235.0002520593579 0.0008998609410445211 0  235.00014596088 7.50089994768472 0  240.0002553320303 0.0009716558593899106 0  240.0001488970945 7.500971734104207 0  245.0002580286113 0.001043507606191981 0  245.0001513667577 7.501043578788778 0  250.0002602273524 0.001115369364797187 0  250.0001534273839 7.501115434792972 0  255.000261995407 0.001187202874166983 0  255.000155129793 7.501187263770988 0  260.0002633910354 0.0012589764443761 0  260.0001565191212 7.501259033988966 0  265.0002644655208 0.001330663546388198 0  265.0001576357639 7.5013307189082 0  270.0002652648619 0.00140224190004329 0  270.0001585162333 7.501402296259168 0  275.0002658313099 0.001473693040671367 0  275.0001591939171 7.50147374757788 0  280.0002662047609 0.001545002401366715 0  280.0001596997297 7.501545058223328 0  285.0002664239897 0.00161616001195686 0  285.0001600626147 7.501616217942172 0  290.0002665276147 0.00168716199177825 0  290.0001603098821 7.501687222093834 0  295.0002665545461 0.001758013096232988 0  295.0001604673464 7.501758073688971 0  300.0002665433707 0.00182873062277781 0  300.0001605593004 7.501828786410393 0  305.0002665295848 0.001899349796141759 0  305.000160608515 7.501899388763527 0  310.0002665385044 0.001969929525306032 0  310.0001606368681 7.501969929570135 0  5.000067871057554 14.99768857225043 0  6.785232459183277e-05 14.99761575241442 0  10.00006788127581 14.99776137483349 0  15.0000678765556 14.99783420377002 0  20.00006784893348 14.99790709707769 0  25.0000677890182 14.99798008973863 0  30.00006768557922 14.99805321481282 0  35.00006752506158 14.99812650423857 0  40.00006729111433 14.9981999895717 0  45.0000669641126 14.99827370269722 0  50.00006652063541 14.99834767650845 0  55.00006593286129 14.99842194554931 0  60.0000651678532 14.99849654662276 0  65.00006418671103 14.99857151937152 0  70.00006294357581 14.99864690683455 0  75.00006138448509 14.99872275597404 0  80.00005944609508 14.99879911814636 0  85.00005705433325 14.99887604945032 0  90.0000541231189 14.99895361080916 0  95.00005055343809 14.99903186749636 0  100.0000462333204 14.99911088754084 0  105.0000410397159 14.9991907379376 0  110.0000348440341 14.99927147665433 0  115.0000275243227 14.99935313674154 0  120.0000189888918 14.99943569590512 0  125.0000092185985 14.99951901995329 0  129.9999983373579 14.99960276084742 0  134.9999867202819 14.99968617996894 0  139.9999751392499 14.99976785972736 0  144.9999649096969 14.99984528294308 0  149.9999579031894 14.99991436748424 0  164.9999694637577 15.00000879781155 0  159.9999633683003 14.99997502481986 0  169.9999754976193 15.00005053073856 0  174.9999819532211 15.00009946787037 0  179.9999887196567 15.00015418140651 0  184.9999955511531 15.0002133306282 0  190.0000022210435 15.00027582814606 0  195.0000085631952 15.00034083691513 0  200.0000144726361 15.00040772524848 0  205.0000198936575 15.00047601903776 0  210.0000248062321 15.0005453618701 0  215.0000292144176 15.00061548441082 0  220.0000331375283 15.00068618169733 0  225.0000366038241 15.00075729651641 0  230.0000396461912 15.00082870725813 0  235.0000422992931 15.0009003190064 0  240.00004459776 15.00097205696015 0  245.0000465750956 15.00104386154121 0  250.0000482630715 15.00111568473659 0  255.000049691439 15.00118748736099 0  260.0000508878474 15.00125923702365 0  265.000051877885 15.00133090665483 0  270.0000526851928 15.00140247350069 0  275.0000533316039 15.00147391853628 0  280.0000538372979 15.00154522627725 0  285.0000542209675 15.00161638499376 0  290.000054500022 15.00168738733747 0  295.0000546909333 15.00175823137917 0  300.0000548098919 15.00182892200509 0  305.000054874129 15.00189947253446 0  310.0000549045086 15.00196990635146 0  4.999958649708626 22.49768868109336 0  -4.136501942941795e-05 22.49761596532864 0  9.999958647884059 22.49776140562444 0  14.99995861948004 22.49783417460231 0  19.99995855541032 22.49790701991448 0  24.99995844655489 22.49797997135219 0  29.99995828310284 22.49805305763579 0  34.99995805400768 22.49812630707653 0  39.99995774652746 22.49819974809142 0  44.99995734583414 22.49827340965783 0  49.99995683467688 22.49834732172935 0  54.99995619308503 22.49842151560825 0  59.99995539811073 22.49849602425934 0  64.99995442362713 22.49857088254057 0  69.9999532402209 22.49864612731022 0  74.99995181525344 22.49872179734558 0  79.99995011321307 22.49879793296317 0  84.99994809655288 22.49887457515683 0  89.99994572732004 22.49895176394847 0  94.99994297003619 22.49902953544817 0  99.9999397965083 22.49910791680051 0  104.9999361935352 22.49918691768913 0  109.9999321748047 22.49926651629956 0  114.9999277985561 22.49934663651956 0  119.9999231925719 22.4994271116877 0  124.9999185872117 22.49950762867734 0  129.9999143544559 22.49958764565956 0  134.9999110444853 22.49966628078041 0  139.9999093988842 22.49974218530969 0  144.9999103002216 22.4998134617442 0  149.9999145999516 22.49987780114544 0  164.9999184043401 22.49999998210026 0  159.9999191065055 22.49995643778847 0  169.9999178217894 22.50004754542504 0  174.9999177734965 22.50009958931854 0  179.9999184041639 22.50015580198161 0  184.9999196638088 22.50021556384125 0  189.9999214151871 22.50027820899438 0  194.9999235015134 22.50034313557584 0  199.9999257797184 22.50040983911498 0  204.999928132931 22.50047791228522 0  209.9999304722761 22.50054703237012 0  214.9999327339529 22.50061694595833 0  219.9999348747436 22.50068745466631 0  224.9999368674632 22.50075840309585 0  229.9999386969608 22.50082966914723 0  234.9999403568583 22.50090115641018 0  239.9999418469993 22.5009727882582 0  244.9999431715106 22.50104450329019 0  249.999944337354 22.50111625182372 0  254.9999453532666 22.50118799320612 0  259.9999462289838 22.50125969376774 0  264.9999469746841 22.50133132528559 0  269.9999476005921 22.50140286386257 0  274.9999481167127 22.50147428915139 0  279.999948532676 22.50154558386676 0  284.999948857715 22.50161673352923 0  289.9999491008137 22.50168772636518 0  294.9999492711307 22.50175855323939 0  299.9999493788374 22.50182920740539 0  304.99
[...]
<PointData  Scalars="p"> 
<DataArray  type="Float64"  Name="p"  format="ascii">1.0000000000000001e-01  1.0000000000000003e-01  9.9996101359243403e-02  1.0000000000000003e-01  1.0000000000000003e-01  9.9995467670882396e-02  1.0000000000000003e-01  9.9993155651982635e-02  1.0000000000000003e-01  9.9991981652731071e-02  1.0000000000000003e-01  9.9990315072988278e-02  1.0000000000000003e-01  9.9987577586665252e-02  1.0000000000000003e-01  9.9986352977230089e-02  1.0000000000000003e-01  9.9984476598215383e-02  1.0000000000000003e-01  9.9981389333057377e-02  1.0000000000000003e-01  9.9980932965288094e-02  1.0000000000000003e-01  9.9973275398848538e-02  1.0000000000000003e-01  9.9969048982266592e-02  1.0000000000000003e-01  9.9964528523734955e-02  1.0000000000000003e-01  9.9960885110964737e-02  1.0000000000000003e-01  9.9953508125591950e-02  1.0000000000000003e-01  9.9950524940603566e-02  1.0000000000000003e-01  9.9945097937328059e-02  1.0000000000000003e-01  9.9936769899724845e-02  1.0000000000000003e-01  9.9934304019538941e-02  1.0000000000000003e-01  9.9926006869441003e-02  1.0000000000000003e-01  9.9920951762659110e-02  1.0000000000000003e-01  9.9911890740443182e-02  1.0000000000000003e-01  9.9914022350713352e-02  1.0000000000000003e-01  9.9891348173071867e-02  1.0000000000000003e-01  9.9912113222649424e-02  1.0000000000000003e-01  9.9865840370539555e-02  1.0000000000000003e-01  9.9918415904746830e-02  1.0000000000000003e-01  9.9830591699017104e-02  1.0000000000000003e-01  9.9935654386074407e-02  1.0000000000000001e-01  9.9770846287528761e-02  1.0000000000000001e-01  1.0000000000000003e-01  1.0018602481709885e-01  1.0038243289494393e-01  1.0000000000000003e-01  1.0005421567181721e-01  1.0000000000000003e-01  1.0014695654297472e-01  1.0000000000000003e-01  1.0009711341541742e-01  1.0000000000000003e-01  1.0011209336421159e-01  1.0000000000000003e-01  1.0009924052938313e-01  1.0000000000000003e-01  1.0010533707370484e-01  1.0000000000000003e-01  1.0009447641567577e-01  1.0000000000000003e-01  1.0009611651225414e-01  1.0000000000000003e-01  1.0009245666010605e-01  1.0000000000000003e-01  1.0008928558810892e-01  1.0000000000000003e-01  1.0008695942636127e-01  1.0000000000000003e-01  1.0008541736045307e-01  1.0000000000000003e-01  1.0008220674739297e-01  1.0000000000000003e-01  1.0008069630022183e-01  1.0000000000000003e-01  1.0007904745251293e-01  1.0000000000000003e-01  1.0007700191182609e-01  1.0000000000000003e-01  1.0007550236045708e-01  1.0000000000000003e-01  1.0007451422213114e-01  1.0000000000000003e-01  1.0007257354917247e-01  1.0000000000000003e-01  1.0007216389248809e-01  1.0000000000000003e-01  1.0007006492766631e-01  1.0000000000000003e-01  1.0007086782196226e-01  1.0000000000000003e-01  1.0006667885595169e-01  1.0000000000000003e-01  1.0007171918713742e-01  1.0000000000000003e-01  1.0006097101549635e-01  1.0000000000000003e-01  1.0007699810283363e-01  1.0000000000000003e-01  1.0004862416589848e-01  1.0000000000000003e-01  1.0009713092314569e-01  1.0000000000000001e-01  1.0000000000000003e-01  9.9993581065442080e-02  1.0000000000000003e-01  9.9993639637645473e-02  9.9993181839876308e-02  9.9992295207357682e-02  9.9989980360214240e-02  9.9990150590718960e-02  9.9989715899556519e-02  9.9986366780091235e-02  9.9987916618998154e-02  9.9986576190094031e-02  9.9983518070032834e-02  9.9975620092680226e-02  9.9977906307888276e-02  9.9969368078561799e-02  9.9973110361908632e-02  9.9969817528598182e-02  9.9963104767104641e-02  9.9965013783657339e-02  9.9962808674733700e-02  9.9952753102120220e-02  9.9959058809693815e-02  9.9950228417342080e-02  9.9951019809600181e-02  9.9940779265242238e-02  9.9959907670550352e-02  9.9913954835491842e-02  9.9989027701899061e-02  9.9858252683216742e-02  1.0005779786223246e-01  9.9767489531345038e-02  9.9838387145834345e-02  1.0058601411216379e-01  1.0017588594181785e-01  1.0002789638385838e-01  1.0005170600934779e-01  1.0004157646917665e-01  1.0006177253173228e-01  1.0003805679828887e-01  1.0004976066891713e-01  1.0004680780814407e-01  1.0004209510344052e-01  1.0004186837875895e-01  1.0004245513888142e-01  1.0003756269939688e-01  1.0003746904275873e-01  1.0003692036636329e-01  1.0003407896127818e-01  1.0003352717080660e-01  1.0003298294978856e-01  1.0003122011663768e-01  1.0003034847554479e-01  1.0003035637823494e-01  1.0002814703816731e-01  1.0002911783944117e-01  1.0002604707309300e-01  1.0002953228074063e-01  1.0002127644790280e-01  1.0003484066388245e-01  1.0001012532007290e-01  1.0004736340736615e-01  1.0000000000000003e-01  9.9990520826567494e-02  1.0000000000000003e-01  9.9993590246820918e-02  9.9990459190541101e-02  9.9988071881214780e-02  9.9987617180191946e-02  9.9987139384832530e-02  9.9982258095609594e-02  9.9983413216432587e-02  9.9983146114281801e-02  9.9977577545315222e-02  9.9976395567737839e-02  9.9980068543552153e-02  9.9957164030935117e-02  9.9965008223856511e-02  9.9960221767398799e-02  9.9949823142251135e-02  9.9954581032392908e-02  9.9950282805754798e-02  9.9937156105261146e-02  9.9942209462264037e-02  9.9938997575846289e-02  9.9920561988605133e-02  9.9935911987055204e-02  9.9915448516857130e-02  9.9927631950158913e-02  9.9895837303658030e-02  9.9953475927819363e-02  9.9829381309017723e-02  1.0005351966831852e-01  9.9635165648332691e-02  9.9883273608326412e-02  1.0054234234970524e-01  1.0028229298864960e-01  1.0005869073308944e-01  1.0007392277075741e-01  1.0012043923782077e-01  1.0005707344359220e-01  1.0009274780956241e-01  1.0008495962279509e-01  1.0007549247755868e-01  1.0007669607610101e-01  1.0007943308435327e-01  1.0006939879464632e-01  1.0007065884012854e-01  1.0006998345178375e-01  1.0006435672053123e-01  1.0006369235773076e-01  1.0006332226443308e-01  1.0005939471959281e-01  1.0005885143803274e-01  1.0005795102654300e-01  1.0005590248299964e-01  1.0005433459802411e-01  1.0005502727760823e-01  1.0005091138269627e-01  1.0005423088851938e-01  1.0004686695234273e-01  1.0005714984920784e-01  1.0003570387761998e-01  1.0007496118841393e-01  1.0000000000000003e-01  9.9988639108553531e-02  1.0000000000000003e-01  9.9992724334545979e-02  9.9987365422097421e-02  9.9987915904563116e-02  9.9987379166345397e-02  9.9982308316889104e-02  9.9983653619243870e-02  9.9983664985577203e-02  9.9977405652293613e-02  9.9980007866982801e-02  9.9980289787965332e-02  9.9966884748622045e-02  9.9978880132157624e-02  9.9960328457728953e-02  9.9954318850835194e-02  9.9958113051721281e-02  9.9957991089696968e-02  9.9942153700834646e-02  9.9952787485714137e-02  9.9946202178564175e-02  9.9933687260211346e-02  9.9938875714690012e-02  9.9942619640540964e-02  9.9912021397980194e-02  9.9952380193959828e-02  9.9894472612022514e-02  9.9974972990276856e-02  9.9828799908368418e-02  1.0008919776414324e-01  9.9612649502919176e-02  9.9879335228599458e-02  1.0066895835621720e-01  1.0018755033166946e-01  1.0001773579039176e-01  1.0019065969518731e-01  9.9998606609043861e-02  1.0009210087236221e-01  1.0006762930475549e-01  1.0006261093172880e-01  1.0006186697543722e-01  1.0007127383602095e-01  1.0005485211738031e-01  1.0005970354062720e-01  1.0005958441004006e-01  1.0005220673881186e-01  1.0005194422859200e-01  1.0005209965509160e-01  1.0004681004684673e-01  1.0004635283776400e-01  1.0004612795033878e-01  1.0004253365331846e-01  1.0004237489937287e-01  1.0004095274189369e-01  1.0004024833700832e-01  1.0003692172364625e-01  1.0004082828317505e-01  1.0003136049450870e-01  1.0004439205195383e-01  1.0002094631286880e-01  1.0005701282404982e-01  1.0000000000000003e-01  9.9986706651197771e-02  1.0000000000000003e-01  9.9990728218205843e-02  9.9986997676166575e-02  9.9987844259601014e-02  9.9981743206100981e-02  9.9983277899154538e-02  9.9982533366865148e-02  9.9975735168484348e-02  9.9978696761256675e-02  9.9979251607510422e-02  9.9967591610348044e-02  9.9974093396603042e-02  9.9968853493967808e-02  9.9965477227926217e-02  9.9951667744346870e-02  9.9956425962227965e-02  9.9937302239982997e-02  9.9949936995837541e-02  9.9945923179918766e-02  9.9926195933840584e-02  9.9941773756006047e-02  9.9931455912265210e-02  9.9920558283892416e-02  9.9920266360115334e-02  9.9940808615183105e-02  9.9876958475050903e-02  9.9979731327494381e-02  9.9806707737380457e-02  1.0010440440655807e-01  9.9549556274839163e-02  9.9767132515704779e-02  1.0075801248399265e-01  1.0024219031255259e-01  1.0007886257893775e-01  1.0010828400848200e-01  1.0011106458680316e-01  1.0008154815433054e-01  1.0007712900512250e-01  1.0006798282485439e-01  1.0009413486221733e-01  1.0006366745340105e-01  1.0007493705305254e-01  1.0007525458171741e-01  1.0006476726162809e-01  1.0006533512641710e-01  1.0006691738077440e-01  1.0005849842777180e-01  1.0005853266309431e-01  1.0005835954083683e-01  1.0005352453649782e-01  1.0005264242975691e-01  1.0005274690286270e-01  1.0004872213861320e-01  1.0004929053980494e-01  1.0004642193103143e-01  1.0004806108513162e-01  1.0004078393556087e-01  1.0005163590509251e-01  1.0002923513448486e-01  1.0006639730595621e-01  1.0000000000000003e-01  9.9984414329187810e-02  1.0000000000000003e-01  9.9990648628946771e-02  9.9986438872022090e-02  9.9983717057036403e-02  9.9983175537364244e-02  9.9983082022740213e-02  9.9976098289580664e-02  9.9978074678348960e-02  9.9979114666583768e-02  9.9969178672588158e-02  9.9973356159967025e-02  9.9972264310363240e-02  9.9960979531682481e-02  9.9963763207317285e-02  9.9975696458840690e-02  9.9931749839547598e-02  9.9952880349152923e-02  9.9946153013892675e-02  9.9928248040086473e-02  9.9942374390239702e-02  9.9941238099593058e-02  9.9911600516338864e-02  9.9940985335558299e-02  9.9917765641034079e-02  9.9925844228134567e-02  9.9891773595529795e-02  9.9983680204929079e-02  9.9785963598088834e-02  1.0014150079484563e-01  9.9498332430346267e-02  9.9775189107801018e-02  1.0073462107168954e-01  1.0029545090743310e-01  9.9983025142863266e-02  1.0013193823831391e-01  1.0010550040815898e-01  1.0011434506052394e-01  1.0003636787011157e-01  1.0011095237971197e-01  1.0004785842251906e-01  1.0007677484546455e-01  1.0007478585952427e-01  1.0006202294811425e-01  1.0006286674541730e-01  1.0006772292052808e-01  1.0005560455629897e-01  1.0005703964012581e-01  1.0005751911516288e-01  1.0005026722523720e-01  1.0005005161732350e-01  1.0004999343523399e-01  1.0004575807619256e-01  1.0004445678769609e-01  1.0004543063110227e-01  1.0004010505441291e-01  1.0004354174770931e-01  1.0003573577329342e-01  1.0004604966214725e-01  1.0002445459322425e-01  1.0005925797677322e-01  1.0000000000000003e-01  9.9983159760516166e-02  1.0000000000000003e-01  9.9990487792406879e-02  9.9982611175453109e-02  9.9984642362407700e-02  9.9983175276833480e-02  9.9977203257232861e-02  9.9977867795299546e-02  9.9978907314494520e-02  9.9969030224080838e-02  9.9973428109465662e-02  9.9973178689116468e-02  9.9959681813197629e-02  9.9965572693107171e-02  9.9969472659213202e-02  9.9945521221391248e-02  9.9971714205291065e-02  9.9940974598082710e-02  9.9927477046360638e-02  9.9941221214513543e-02  9.9939352825606773e-02  9.9914842063632076e-02  9.9932657236340400e-02  9.9935170282508506e-02  9.9892278035587423e-02  9.9945711364882464e-02  9.9884991485176947e-02  9.9963833870508501e-02  9.9794935018441971e-02  1.0014894893712561e-01  9.9447203729111588e-02  9.9791984038408638e-02  1.0079320055668846e-01  1.0024112146105810e-01  1.0000666082259958e-01  1.0016925558481368e-01  1.0006107492854943e-01  1.0009972815255423e-01  1.0014369302552904e-01  1.0003759020472305e-01  1.0008849313128555e-01  1.0007785446234782e-01  1.0007016848144604e-01  1.0006698344005585e-01  1.0007759664963936e-01  1.0006024338541161e-01  1.0006369147534945e-01  1.0006519101049020e-01  1.0005627801989536e-01  1.0005566607995389e-01  1.0005648971901804e-01  1.0004996385818866e-01  1.0004991272957885e-01  1.0004900505047130e-01  1.0004643007873441e-01  1.0004356575891173e-01  1.0004662882264363e-01  1.0003785053714186e-01  1.0004841872860457e-01  1.0002731539524663e-01  1.0006153704357448e-01  1.0000000000000003e-01  9.9982064454210443e-02  1.0000000000000003e-01  9.9988468285443152e-02  9.9982948303032462e-02  9.9984859329471862e-02  9.9978100438444517e-02  9.9979361874635478e-02  9.9979255698579350e-02  9.9970213494327317e-02  9.9973760762507705e-02  9.9974373433640809e-02  9.9960996906522506e-02  9.9966613110892791e-02  9.9968036236480914e-02  9.9949301716188654e-02  9.9964716600364045e-02  9.9957496912790822e-02  9.9952235852802745e-02  9.9934375195312758e-02  9.9943730859332003e-02  9.9909902472641671e-02  9.9939599559985631e-02  9.9928788407278119e-02  9.9907543091007328e-02  9.9918896179269079e-02  9.9943429893386435e-02  9.9857057795083776e-02  9.9990862854821894e-02  9.9784647169248689e-02  1.0014465945965220e-01  9.9431675009607007e-02  9.9722653343619377e-02  1.0085578559131850e-01  1.0026959016040878e-01  1.0003409369577509e-01  1.0011731021453504e-01  1.0006209135193150e-01  1.0013491213249862e-01  1.0007143347996914e-01  1.0011906210171601e-01  1.0006246171469102e-01  1.0007862159347120e-01  1.0005818826365699e-01  1.0008554434166825e-01  1.0005754920114146e-01  1.0006526948843675e-01  1.0006744192365456e-01  1.0005646347765139e-01  1.0005664368337006e-01  1.0005894674865166e-01  1.0005016806739023e-01  1.0004971618668144e-01  1.0005041026849348e-01  1.0004447614229639e-01  1.0004505199832826e-01  1.0004266249307110e-01  1.0004315389187549e-01  1.0003601312571275e-01  1.0004640154819615e-01  1.0002500079719276e-01  1.0005821988338606e-01  1.0000000000000003e-01  9.9980406271338890e-02  1.0000000000000003e-01  9.9988773537478551e-02  9.9983000691953539e-02  9.9980997497387883e-02  9.9979549367214079e-02  9.9980612971352897e-02  9.9972107667780877e-02  9.9974306655432707e-02  9.9975157100587297e-02  9.9963853448869169e-02  9.9967161725742951e-02  9.9968732581839428e-02  9.9951582139088446e-02  9.9961719127953819e-02  9.9962206144555379e-02  9.9944290478816200e-02  9.9952465804337753e-02  9.9971377919904861e-02  9.9904310356509263e-02  9.9938698218429753e-02  9.9933120774496426e-02  9.9897639809898187e-02  9.9936839637498207e-02  9.9916480039372493e-02  9.9908187260875816e-02  9.9888752485962809e-02  9.9987996234572510e-02  9.9752158520217321e-02  1.0017702525325504e-01  9.9405490345763653e-02  9.9719148200274332e-02  1.0084213424866095e-01  1.0030845259396363e-01  9.9983276019043194e-02  1.0013186949609570e-01  1.0009675965424884e-01  1.0008566901125857e-01  1.0008519821904950e-01  1.0011446648926335e-01  1.0010469866961669e-01  1.0004372147996017e-01  1.0009960333501143e-01  1.0005218532041890e-01  1.0007105369451393e-01  1.0007142390982979e-01  1.0005959319858371e-01  1.0005883584228692e-01  1.0006415376977926e-01  1.0005279398193449e-01  1.0005357093097027e-01  1.0005410462102406e-01  1.0004740958912067e-01  1.0004612269484287e-01  1.0004751095859060e-01  1.0004109012856691e-01  1.0004395622873334e-01  1.0003736009664374e-01  1.0004558678600135e-01  1.0002586640241543e-01  1.0005815106659584e-01  1.0000000000000003e-01  9.9979759574407967e-02  1.0000000000000003e-01  9.9988952359893107e-02  9.9979732263699606e-02  9.9982143437372661e-02  9.9980420542390952e-02  9.9974511353329520e-02  9.9975152640099901e-02  9.9976219338209063e-02  9.9965921441928771e-02  9.9969086022113518e-02  9.9970367653815395e-02  9.9954053525774064e-02  9.9961314470728299e-02  9.9963782041296509e-02  9.9943763596263613e-02  9.9955268272852837e-02  9.9963523846020072e-02  9.9925560028492746e-02  9.9969566227294498e-02  9.9924883225185668e-02  9.9904551854837362e-02  9.9926361718733953e-02  9.9934567609682015e-02  9.9877092272285431e-02  9.9947083611171050e-02  9.9885888560969582e-02  9.9950182205571864e-02  9.9785668589572801e-02  1.0017868376303220e-01  9.9362076379981276e-02  9.9734453235286388e-02  1.0086630404972298e-01  1.0027490774907269e-01  9.9987878419205811e-02  1.0016458796709249e-01  1.0005175211233225e-01  1.0009442133530413e-01  1.0010300024483078e-01  1.0008507064292158e-01  1.0007971269616174e-01  1.0012916613573342e-01  1.0003567900766329e-01  1.0007887305654743e-01  1.0006736862419578e-01  1.0006339661436899e-01  1.0005760743599411e-01  1.0006777943461258e-01  1.0005269739666936e-01  1.0005455034353121e-01  1.0005693781982013e-01  1.0004848475784189e-01  1.0004777524208926e-01  1.0004791428922453e-01  1.0004327813490158e-01  1.0004068066087109e-01  1.0004379811300577e-01  1.0003479767490429e-01  1.0004429881759365e-01  1.0002518664894232e-01  1.0005571504300656e-01  1.0000000000000003e-01  9.9979253679216118e-02  1.0000000000000003e-01  9.9987428357595165e-02  9.9980409453122046e-02  9.9983011597719149e-02  9.9975900052002964e-02  9.9977046495625763e-02  9.9976965620394778e-02  9.9968567099133446e-02  9.9970755021727808e-02  9.9972496627328059e-02  9.9957936517238888e-02  9.9963025678459827e-02  9.9964737815526603e-02  9.9946042331966342e-02  9.9956638052063118e-02  9.9960942547461878e-02  9.9933069323436680e-02  9.9957718156906031e-02  9.9950214688478659e-02  9.9937493804973715e-02  9.9922541924841235e-02  9.9930486040623767e-02  9.9888949969008170e-02  9.9921254213925809e-02  9.9941773302477527e-02  9.9842444223521065e-02  9.9991874381411869e-02  9.9786505255001406e-02  1.0013730499903936e-01  9.9393794695818938e-02  9.9692596015946322e-02  1.0090859521530487e-01  1.0028169657453911e-01  1.0001339516723033e-01  1.0012912150769923e-01  1.0005713913554913e-01  1.0012170833855306e-01  1.0007041982591934e-01  1.0008099940434471e-01  1.0010594835390671e-01  1.0007490328438068e-01  1.0010234576514689e-01  1.0005597661297633e-01  1.0007123437310626e-01  1.0005169833616977e-01  1.0007450641264362e-01  1.0005193952655585e-01  1.0005666298307288e-01  1.0005924233559332e-01  1.0004994160807631e-01  1.0004943561688315e-01  1.0005210527347562e-01  1.0004358483999440e-01  1.0004401871327415e-01  1.0004237318020884e-01  1.0004121843220092e-01  1.0003485935073776e-01  1.0004428351350800e-01  1.0002445023715814e-01  1.0005460200990385e-01  1.0000000000000003e-01  9.9978101239093689e-02  1.0000000000000003e-01  9.9987807729694858e-02  9.9980872996355705e-02  9.9979734182842575e-02  9.9977469186053991e-02  9.9978734119981510e-02  9.9970641775827901e-02  9.9972137537410369e-02  9.9973751522679219e-02  9.9962325726909551e-02  9.9964944946983172e-02  9.9966879391089919e-02  9.9949977732462322e-02  9.9956800784916297e-02  9.9961706738322692e-02  9.9937245274915334e-02  9.9953711999440031e-02  9.9956134607688374e-02  9.9929737038690750e-02  9.9943604204653091e-02  9.9973768075697744e-02  9.9873731185832523e-02  9.9937769383707922e-02  9.9913805825257385e-02  9.9892027060942010e-02  9.9895301239505033e-02  9.9988778245855989e-02  9.9738097504531525e-02  1.0017953140560526e-01  9.9398624095090593e-02  9.9678390575077228e-02  1.0089154476558791e-01  1.0031235357780134e-01  9.9979928860625289e-02  1.0013052955295171e-01  1.0008345753159492e-01  1.0008992692071780e-01  1.0007028931308140e-01  1.0010645197168225e-01  1.0006941609594239e-01  1.0007976278005810e-01  1.0009278053367969e-01  1.0009419031665476e-01  1.0003622340043143e-01  1.0008389950054175e-01  1.0004557528379819e-01  1.0005954533914461e-01  1.0006000936404282e-01  1.0005072391925225e-01  1.0004919138701868e-01  1.0005379606412132e-01  1.0004509534340923e-01  1.0004451573591017e-01  1.0004599328135169e-01  1.0003845338311425e-01  1.0004061865192362e-01  1.0003524048293876e-01  1.0004150778368935e-01  1.0002391374064096e-01  1.0005279041559843e-01  1.0000000000000003e-01  9.9977876356910481e-02  1.0000000000000003e-01  9.9988261949352605e-02  9.9978389360343867e-02  9.9981032527999128e-02  9.9978783028953494e-02  9.9973768643016034e-02  9.9973535415477932e-02  9.9974830087269526e-02  9.9965310760839449e-02  9.9967769874376250e-02  9.9969155802573900e-02  9.9954385001551724e-02  9.9958789261178030e-02  9.9963200605591399e-02  9.9941721129791397e-02  9.9952484971108327e-02  9.9959018479667788e-02  9.9929731860848581e-02  9.9948323091890764e-02  9.9960905837972042e-02  9.9907896970628352e-02  9.9968555075652887e-02  9.9920594223535969e-02  9