<?xml version="1.0"?>
<VTKFile type="UnstructuredGrid"  version="0.1"  >
<UnstructuredGrid>
<Piece  NumberOfPoints="1933" NumberOfCells="3640">
<Points>
<DataArray  type="Float64"  NumberOfComponents="3"  format="ascii">-0.2939955894298268 0.0004417867259891152 0  4.706004436415578 0.0004117761251203325 0  4.706049489908582 7.500411863017759 0  -0.2939505637898644 7.500441824917494 0  9.70600446707479 0.0003816832150699927 0  9.706049589352574 7.500381787885847 0  14.70600454638992 0.0003514616519452007 0  14.70604975971372 7.500351571974776 0  19.70600472400059 0.0003211031415177822 0  19.7060500260325 7.500321214541146 0  24.70600504734857 0.0002906224144741511 0  24.70605041353604 7.500290733598087 0  29.70600555962157 0.0002600487948063064 0  29.70605094706931 7.500260159939941 0  34.70600630003298 0.0002294214513872978 0  34.70605165068368 7.500229533397953 0  39.70600730494657 0.0001987869206467607 0  39.70605254751244 7.500198900811868 0  44.70600860922716 0.0001681981180700695 0  44.70605365984923 7.500168315251885 0  49.7060102475762 0.0001377143935144934 0  49.7060550093165 7.500137836174813 0  54.70601225577162 0.0001074023917886081 0  54.7060566170256 7.500107530333255 0  59.70601467179701 7.733761843595644e-05 0  59.70605850364709 7.500077473363588 0  64.70601753686711 4.760671431599302e-05 0  64.70606068930898 7.500047752067071 0  69.70602089634721 1.831053302845461e-05 0  69.70606319323171 7.500018467479751 0  74.70602480055216 -1.043179053440723e-05 0  74.70606603297649 7.49998973891204 0  79.70602930536074 -3.847747717991643e-05 0  79.70606922313044 7.499961709241783 0  84.7060344725199 -6.565298625053667e-05 0  84.70607277317423 7.499934551877693 0  89.70604036937543 -9.174445790045941e-05 0  89.70607668415562 7.499908479990697 0  94.70604706754352 -0.000116484687846712 0  94.70608094362282 7.499883758857966 0  99.70605463959116 -0.0001395350856669803 0  99.70608551805724 7.499860722496048 0  104.7060631519851 -0.0001604602608318242 0  104.7060903417787 7.499839796180542 0  109.7060726509909 -0.0001786916344568858 0  109.7060953010979 7.499821526911846 0  114.7060831351979 -0.000193474577112796 0  114.7061002126035 7.49980662420766 0  119.7060945024834 -0.0002037907870987345 0  119.7061047955927 7.499796013243126 0  124.7061064478258 -0.0002082438790769665 0  124.7061086425087 7.499790899969862 0  129.7061182659988 -0.0002048923222583448 0  129.7061112018073 7.499792840309979 0  134.7061284690137 -0.000191014885106918 0  134.70611181418 7.499803786495695 0  139.7061340392327 -0.0001628222875643343 0  139.706109906968 7.499826043932499 0  144.7061289502518 -0.0001152919665429301 0  144.7061056063679 7.49986202150225 0  149.7061011284414 -4.31456609133468e-05 0  149.7061014289012 7.499913796331048 0  159.7061073738541 1.010938398430417e-18 0  164.7060147205089 -0.0001336852570188089 0  164.7060916218418 7.499845395834509 0  159.7061176175075 7.499950408935875 0  169.7059660403104 -0.000244893249750103 0  169.7060650665795 7.49974461474725 0  174.7059405394105 -0.0003400398640942707 0  174.706043550247 7.499654216608918 0  179.705927727498 -0.0004227985389556717 0  179.7060276008459 7.499573909284141 0  184.7059220277288 -0.0004959260685244587 0  184.7060163824362 7.499502128746064 0  189.7059203773102 -0.0005615552712576891 0  189.7060088342328 7.499437267189434 0  194.7059210489391 -0.0006213154204528398 0  194.7060040138583 7.499377957243378 0  199.7059230432812 -0.0006764409220511853 0  199.7060011730942 7.499323103173313 0  204.7059257671794 -0.0007278678368607748 0  204.7059997459211 7.49927184461918 0  209.705928859662 -0.0007763113730770839 0  209.7059993135466 7.49922350857181 0  214.7059320959604 -0.0008223243286506052 0  214.70599956895 7.499177566217681 0  219.7059353333935 -0.0008663397877524392 0  219.7060002875768 7.499133598392072 0  224.7059384801112 -0.000908701920571329 0  224.7060013049852 7.499091269192946 0  229.7059414765745 -0.0009496881805152198 0  229.7060025004297 7.499050306205942 0  234.70594428429 -0.000989525403542948 0  234.7060037850201 7.499010485753271 0  239.7059468787822 -0.00102840161175581 0  239.7060050932383 7.498971621853348 0  244.7059492451218 -0.001066474784119243 0  244.7060063768772 7.498933557891512 0  249.7059513750357 -0.001103879469309479 0  249.7060076007047 7.498896160269229 0  254.705953265051 -0.001140731844586028 0  254.7060087393715 7.498859313506704 0  259.7059549153295 -0.001177133636061255 0  259.7060097752049 7.498822916427001 0  264.7059563290181 -0.001213175182256555 0  264.7060106966616 7.498786879164554 0  269.7059575119886 -0.001248937823169893 0  269.7060114972625 7.498751120828687 0  274.7059584729374 -0.001284495713977157 0  274.7060121748846 7.498715567726935 0  279.705959223813 -0.001319917079415539 0  279.7060127313195 7.498680152123772 0  284.7059597805956 -0.001355264821975247 0  284.7060131720083 7.498644811590562 0  289.7059601643995 -0.001390596244293531 0  289.7060135058624 7.498609489103351 0  294.7059604028586 -0.001425961393088269 0  294.7060137451057 7.498574134180584 0  299.7059605314953 -0.001461399087718969 0  299.7060139050708 7.498538705529226 0  304.7059605942829 -0.00149692890196623 0  304.7060140041351 7.49850317587369 0  309.7059606413075 -0.001532536002219357 0  309.7060140645997 7.498467539847022 0  4.706094274324354 15.00041206570879 0  -0.2939057852651475 15.0004419197673 0  9.706094376473306 15.00038202632125 0  14.70609454333384 15.00035181448849 0  19.70609479023888 15.00032144936774 0  24.70609512985843 15.00029095834594 0  29.7060955737897 15.0002603763991 0  34.70609613297438 15.00022974503587 0  39.70609681763658 15.00019911159713 0  44.70609763703408 15.00016852912083 0  49.70609859911877 15.00013805679297 0  54.70609971011186 15.00010776096801 0  59.70610097395453 15.00007771676058 0  64.70610239157567 15.00004801024944 0  69.70610395989685 15.0000187413826 0  74.70610567048705 14.99999002772764 0  79.70610750776 14.99996200927322 0  84.70610944660645 14.99993485455535 0  89.70611144936525 14.99990876845249 0  94.70611346210598 14.99988400204519 0  99.70611541035721 14.99986086492792 0  104.7061171948067 14.99983974018748 0  109.7061186882505 14.99982110171094 0  114.7061197365537 14.99980553211029 0  119.7061201690143 14.99979373647315 0  124.7061198279751 14.99978654067327 0  129.706118634312 14.99978484990928 0  134.7061167139564 14.99978951751509 0  139.7061146159167 14.99980102390498 0  144.7061136345239 14.99981875927141 0  149.7061161374774 14.99983941304775 0  164.7061324561052 14.99978820294203 0  159.7061356973242 14.99986082741253 0  169.7061232711275 14.99971033102562 0  174.7061119000662 14.99963379513213 0  179.7061008027149 14.99956161631062 0  184.7060911112486 14.99949460365218 0  189.7060831749393 14.99943257091153 0  194.7060769549793 14.99937496766969 0  199.7060722491346 14.99932116405468 0  204.7060688070821 14.99927056636781 0  209.7060663844286 14.99922265568198 0  214.7060647646306 14.99917699340502 0  219.706063765095 14.99913321407466 0  224.7060632360917 14.99909101436917 0  229.7060630568537 14.99905014206531 0  234.7060631309809 14.99901038629325 0  239.7060633820665 14.99897156940511 0  244.7060637498999 14.99893354036426 0  249.7060641873267 14.99889616943132 0  254.706064657712 14.99885934390655 0  259.7060651329317 14.99882296471976 0  264.7060655917854 14.99878694370093 0  269.7060660187511 14.99875120141037 0  274.7060664029999 14.99871566544899 0  279.7060667375937 14.99868026920776 0  284.706067018844 14.99864495104899 0  289.7060672457714 14.99860965393033 0  294.7060674197475 14.99857432546102 0  299.7060675444498 14.99853891825375 0  304.7060676265302 14.99850339003406 0  309.7060676777492 14.99846770186485 0  4.706138763674486 22.50041248048675 0  -0.2938612951437647 22.50044223512982 0  9.70613884955457 22.5003824716017 0  14.70613897872902 22.50035225496686 0  19.70613916035605 22.50032187047061 0  24.70613939954654 22.50029135711356 0  29.70613969914706 22.50026075580661 0  34.70614006054205 22.50023011068547 0  39.70614048383224 22.50019946985971 0  44.70614096764468 22.50016888609087 0  49.70614150872416 22.50013841764926 0  54.70614210137295 22.5001081294748 0  59.70614273676289 22.50007809471838 0  64.70614340211739 22.50004839672772 0  69.7061440797539 22.50001913154493 0  74.70614474598797 22.49999041099454 0  79.70614536992433 22.49996236644414 0  84.70614591221791 22.49993515330721 0  89.70614632399028 22.49990895630496 0  94.7061465462599 22.49988399537376 0  99.70614651053224 22.49986053182468 0  104.7061461416479 22.49983887381454 0  109.7061453646621 22.49981937915863 0  114.7061441184546 22.49980245166941 0  119.7061423798576 22.49978852401484 0  124.7061402029703 22.49977801483612 0  129.7061377778622 22.49977123977073 0  134.7061355084325 22.49976824495034 0  139.7061340952226 22.49976852033844 0  144.7061345751352 22.49977055315707 0  149.7061382014826 22.49977125944794 0  164.7061621691455 22.49972440097254 0  159.7061550792004 22.49977677820136 0  169.7061636107808 22.49966469952638 0  174.7061611227807 22.49960225650995 0  179.7061564463584 22.49954012971954 0  184.7061509077544 22.49948000566414 0  189.7061453511583 22.49942261500835 0  194.7061402417799 22.49936812729108 0  199.7061357915852 22.49931642170878 0  204.7061320594598 22.49926724801848 0  209.7061290196611 22.49922031409627 0  214.7061266048316 22.49917532992822 0  219.7061247314123 22.49913202739562 0  224.7061233137845 22.49909016730241 0  229.7061222715412 22.4990495400632 0  234.706121532755 22.49900996350832 0  239.7061210350045 22.49897127959877 0  244.7061207252213 22.49893335093574 0  249.7061205589655 22.49889605746926 0  254.7061204994781 22.4988592935653 0  259.706120516679 22.49882296547182 0  264.7061205862159 22.49878698917009 0  269.7061206885867 22.49875128857871 0  274.7061208083537 22.49871579407166 0  279.7061209334508 22.49868044126956 0  284.7061210545889 22.49864517005009 0  289.7061211647911 22.49860992368402 0  294.7061212591345 22.4985746479
[...]
<PointData  Scalars="p"> 
<DataArray  type="Float64"  Name="p"  format="ascii">1.0000000000000001e-01  1.0000000000000003e-01  1.0000258760270692e-01  1.0000000000000003e-01  1.0000000000000003e-01  1.0000370449564483e-01  1.0000000000000003e-01  1.0000559152402029e-01  1.0000000000000003e-01  1.0000685828656557e-01  1.0000000000000003e-01  1.0000827568537003e-01  1.0000000000000003e-01  1.0001010239030561e-01  1.0000000000000003e-01  1.0001128356734874e-01  1.0000000000000003e-01  1.0001253891098084e-01  1.0000000000000003e-01  1.0001455343058170e-01  1.0000000000000003e-01  1.0001579771711337e-01  1.0000000000000003e-01  1.0001899364000194e-01  1.0000000000000003e-01  1.0002237556656549e-01  1.0000000000000003e-01  1.0002488688170230e-01  1.0000000000000003e-01  1.0002734257010001e-01  1.0000000000000003e-01  1.0003093002462939e-01  1.0000000000000003e-01  1.0003271128157862e-01  1.0000000000000003e-01  1.0003487929962125e-01  1.0000000000000003e-01  1.0003839634464377e-01  1.0000000000000003e-01  1.0003902723228748e-01  1.0000000000000003e-01  1.0004157726534750e-01  1.0000000000000003e-01  1.0004283025814963e-01  1.0000000000000003e-01  1.0004519044778269e-01  1.0000000000000003e-01  1.0004266894890451e-01  1.0000000000000003e-01  1.0005003537938237e-01  1.0000000000000003e-01  1.0003998219972586e-01  1.0000000000000003e-01  1.0005578184496181e-01  1.0000000000000003e-01  1.0003375206878054e-01  1.0000000000000003e-01  1.0006529399028291e-01  1.0000000000000003e-01  1.0002385777427557e-01  1.0000000000000001e-01  1.0008442495085960e-01  1.0000000000000001e-01  1.0000000000000003e-01  9.9898410223829379e-02  9.9828271354878040e-02  1.0000000000000003e-01  9.9955294852933280e-02  1.0000000000000003e-01  9.9917108307259930e-02  1.0000000000000003e-01  9.9934425839453958e-02  1.0000000000000003e-01  9.9927543768459526e-02  1.0000000000000003e-01  9.9931599302735388e-02  1.0000000000000003e-01  9.9927616805590036e-02  1.0000000000000003e-01  9.9930964192803451e-02  1.0000000000000003e-01  9.9929576829509981e-02  1.0000000000000003e-01  9.9930184432309652e-02  1.0000000000000003e-01  9.9930901449638856e-02  1.0000000000000003e-01  9.9931495323086164e-02  1.0000000000000003e-01  9.9931762449340183e-02  1.0000000000000003e-01  9.9932876093886139e-02  1.0000000000000003e-01  9.9933430966203093e-02  1.0000000000000003e-01  9.9934065700645086e-02  1.0000000000000003e-01  9.9934891320137581e-02  1.0000000000000003e-01  9.9935670539104848e-02  1.0000000000000003e-01  9.9936066282385716e-02  1.0000000000000003e-01  9.9937190994280084e-02  1.0000000000000003e-01  9.9937221246844898e-02  1.0000000000000003e-01  9.9938797793703280e-02  1.0000000000000003e-01  9.9937738541482260e-02  1.0000000000000003e-01  9.9941274947838180e-02  1.0000000000000003e-01  9.9936582390499379e-02  1.0000000000000003e-01  9.9946000114926034e-02  1.0000000000000003e-01  9.9931522830743233e-02  1.0000000000000003e-01  9.9956763666084261e-02  1.0000000000000003e-01  9.9913246785599916e-02  1.0000000000000001e-01  1.0000000000000003e-01  1.0000350432137614e-01  1.0000000000000003e-01  1.0000389865807485e-01  1.0000424720237662e-01  1.0000479096697508e-01  1.0000591250722655e-01  1.0000592809637898e-01  1.0000599722487401e-01  1.0000747492009157e-01  1.0000702910713044e-01  1.0000744016242329e-01  1.0000986442309209e-01  1.0001227623747384e-01  1.0001289569218459e-01  1.0001640888360094e-01  1.0001532987351193e-01  1.0001590003108476e-01  1.0001874121217366e-01  1.0001739536154378e-01  1.0001723790971957e-01  1.0002087848768131e-01  1.0001734656873219e-01  1.0001938689716024e-01  1.0001827182241106e-01  1.0002118012604511e-01  1.0001185382663363e-01  1.0002967974670304e-01  9.9999009031235639e-02  1.0004996776303421e-01  9.9972487897307213e-02  1.0008642647614206e-01  1.0005991752166439e-01  9.9712214227641663e-02  9.9931978020439377e-02  9.9983254127875232e-02  9.9976845941238568e-02  9.9981187027116183e-02  9.9970480449022653e-02  9.9979126131942944e-02  9.9973932655979605e-02  9.9973536874814597e-02  9.9974667156374167e-02  9.9974379924370527e-02  9.9973382697324600e-02  9.9974931974397441e-02  9.9974844972856955e-02  9.9974718318895262e-02  9.9975690829457814e-02  9.9975821286172287e-02  9.9975909498038279e-02  9.9976418260454544e-02  9.9976859877773633e-02  9.9976476152985536e-02  9.9977729599810217e-02  9.9976516718951136e-02  9.9978898068865008e-02  9.9975273384001404e-02  9.9982310244956768e-02  9.9969838769347591e-02  9.9991571459992976e-02  9.9957939108852006e-02  1.0000000000000003e-01  1.0000481021239178e-01  1.0000000000000003e-01  1.0000365413698523e-01  1.0000559092874203e-01  1.0000684495978716e-01  1.0000737128532951e-01  1.0000743712630150e-01  1.0000967636482901e-01  1.0000925214372236e-01  1.0000903220972769e-01  1.0001193799798820e-01  1.0001221724200283e-01  1.0001223392374407e-01  1.0002051963956887e-01  1.0001978630945174e-01  1.0002095718716192e-01  1.0002609887431858e-01  1.0002361841334576e-01  1.0002417347156663e-01  1.0002922659737505e-01  1.0002617077827748e-01  1.0002528876170058e-01  1.0003204998790792e-01  1.0002397404834963e-01  1.0002980398043763e-01  1.0002357385310320e-01  1.0003507239040488e-01  1.0000923482180997e-01  1.0005993617760663e-01  9.9969188885159044e-02  1.0013754353157187e-01  1.0006999264508938e-01  9.9696472964064975e-02  9.9859154435176692e-02  9.9966172950641571e-02  9.9964206379459894e-02  9.9939407627914895e-02  9.9964957681537223e-02  9.9950492514926562e-02  9.9950371444473565e-02  9.9952934436080998e-02  9.9951833234326423e-02  9.9949063771086255e-02  9.9952284880741010e-02  9.9951472282194934e-02  9.9950960395243788e-02  9.9952839698197682e-02  9.9953041060942188e-02  9.9952807110141512e-02  9.9954223558527899e-02  9.9954311789623537e-02  9.9954576460673489e-02  9.9955043806660746e-02  9.9955975943117753e-02  9.9954836836474950e-02  9.9957576687174518e-02  9.9954125948390662e-02  9.9960177493575497e-02  9.9950351047199723e-02  9.9969026814483289e-02  9.9933442154162139e-02  1.0000000000000003e-01  1.0000554329533637e-01  1.0000000000000003e-01  1.0000373302362427e-01  1.0000632187585265e-01  1.0000632807539807e-01  1.0000632455452969e-01  1.0000849788402252e-01  1.0000783138406477e-01  1.0000713930638763e-01  1.0000979319051168e-01  1.0000855873004186e-01  1.0000806423982242e-01  1.0001348335005307e-01  1.0001098736282274e-01  1.0001548064128225e-01  1.0002115858470113e-01  1.0001900089455178e-01  1.0001829806060709e-01  1.0002438979005836e-01  1.0001918569422172e-01  1.0001954691509518e-01  1.0002398206224779e-01  1.0002026789331282e-01  1.0001571420960469e-01  1.0002746734687024e-01  1.0000865800159782e-01  1.0003042392370570e-01  9.9996246561095167e-02  1.0005695073328909e-01  9.9948525321140055e-02  1.0014834523026217e-01  1.0008549813606589e-01  9.9636558432028399e-02  9.9897850709759872e-02  9.9997667041245047e-02  9.9919611978702541e-02  9.9998269751387939e-02  9.9963655438482873e-02  9.9968930306624432e-02  9.9969752131674930e-02  9.9969440186342476e-02  9.9963175401806603e-02  9.9968496666953371e-02  9.9966094307945744e-02  9.9964869582552601e-02  9.9967151814543409e-02  9.9967049452664866e-02  9.9966410025890462e-02  9.9968157510807384e-02  9.9968293845071901e-02  9.9967911450730765e-02  9.9969232157944690e-02  9.9968874019980003e-02  9.9969541691893662e-02  9.9968844280047153e-02  9.9971212796758538e-02  9.9967068172251636e-02  9.9974570601252907e-02  9.9962307974327633e-02  9.9982582353955074e-02  9.9949686236904950e-02  1.0000000000000003e-01  1.0000630287117909e-01  1.0000000000000003e-01  1.0000428456281034e-01  1.0000621475952988e-01  1.0000562904510159e-01  1.0000853174973530e-01  1.0000775944726986e-01  1.0000756793930113e-01  1.0001023902609653e-01  1.0000875564018828e-01  1.0000777884920367e-01  1.0001242139854361e-01  1.0001027961599257e-01  1.0001092963637677e-01  1.0001561816717228e-01  1.0001812243197661e-01  1.0001828638565045e-01  1.0002600294050332e-01  1.0002085861381188e-01  1.0001988000991127e-01  1.0002778068316460e-01  1.0001958750569159e-01  1.0002085576397107e-01  1.0002399208828494e-01  1.0002251160324165e-01  1.0000969629918197e-01  1.0003660192158725e-01  9.9990458926687453e-02  1.0006366696373922e-01  9.9937249064077679e-02  1.0017595601807684e-01  1.0014081277236107e-01  9.9580985523432433e-02  9.9878928848960907e-02  9.9973774733292622e-02  9.9941061238532913e-02  9.9957449299989398e-02  9.9962930862775315e-02  9.9963731680694654e-02  9.9968352961714149e-02  9.9954087074551529e-02  9.9964478789859174e-02  9.9959509324830095e-02  9.9957247396424767e-02  9.9960321563183560e-02  9.9959837218502642e-02  9.9958135599051812e-02  9.9960927423768151e-02  9.9960809101707168e-02  9.9960379942849120e-02  9.9961903606616456e-02  9.9962224340441538e-02  9.9961551193909176e-02  9.9963206925825041e-02  9.9962074428919453e-02  9.9963902592402384e-02  9.9961093217980912e-02  9.9966834783560679e-02  9.9956395674267659e-02  9.9975406131828856e-02  9.9941511608350242e-02  1.0000000000000003e-01  1.0000722129480977e-01  1.0000000000000003e-01  1.0000415689638321e-01  1.0000593199326892e-01  1.0000699626772799e-01  1.0000726673014317e-01  1.0000689458877410e-01  1.0000969665689025e-01  1.0000863673904677e-01  1.0000717034947505e-01  1.0001115104886382e-01  1.0000919246158234e-01  1.0000827055802103e-01  1.0001388555005523e-01  1.0001172693475863e-01  1.0000878445812937e-01  1.0002345188156656e-01  1.0001838574761737e-01  1.0001849831748688e-01  1.0002675348996831e-01  1.0001931338113647e-01  1.0001653725530699e-01  1.0002813495131652e-01  1.0001361701114529e-01  1.0001983645748332e-01  1.0001433466094170e-01  1.0002861399516928e-01  9.9983639407791078e-02  1.0007255529475775e-01  9.9915647106390240e-02  1.0020000645236139e-01  1.0015399937136694e-01  9.9579188459753679e-02  9.9855589773908113e-02  1.0001830685960052e-01  9.9943312721248692e-02  9.9955665501912427e-02  9.9951599749824649e-02  9.9987798019061380e-02  9.9953779586651192e-02  9.9977097416543675e-02  9.9965683504026362e-02  9.9963279064856969e-02  9.9966856461928488e-02  9.9966139106624829e-02  9.9962525803478169e-02  9.9966511611664213e-02  9.9965776760842687e-02  9.9964685481202020e-02  9.9967180348521714e-02  9.9967090247827725e-02  9.9966718569542895e-02  9.9967791657407296e-02  9.9968447812124536e-02  9.9966882790848685e-02  9.9969780408299749e-02  9.9965974769876634e-02  9.9972071003527688e-02  9.9961617667522942e-02  9.9980004779608542e-02  9.9948132083605673e-02  1.0000000000000003e-01  1.0000773501038987e-01  1.0000000000000003e-01  1.0000392519950156e-01  1.0000736353610014e-01  1.0000626885156458e-01  1.0000653302745653e-01  1.0000888186652573e-01  1.0000868103615682e-01  1.0000721038299212e-01  1.0001122157553609e-01  1.0000913353282674e-01  1.0000768659085565e-01  1.0001351930494126e-01  1.0001062946306105e-01  1.0000816323539904e-01  1.0001725895226085e-01  1.0001014279891499e-01  1.0001617202987412e-01  1.0002674094510342e-01  1.0001972559523649e-01  1.0001844818342680e-01  1.0002773019050364e-01  1.0001894876087766e-01  1.0001313293356417e-01  1.0003087610870108e-01  1.0000476674922192e-01  1.0002885117079238e-01  9.9990377462540719e-02  1.0006946010654671e-01  9.9904755507703585e-02  1.0022865516018722e-01  1.0015173749649377e-01  9.9550840575392652e-02  9.9874956735543308e-02  1.0001859909099881e-01  9.9926602639517859e-02  9.9975765316021412e-02  9.9955431213275520e-02  9.9942314440734703e-02  9.9982142911647184e-02  9.9963567007854609e-02  9.9964589928285413e-02  9.9965579213414438e-02  9.9966433795813492e-02  9.9959929684804036e-02  9.9965485156995354e-02  9.9963796629715759e-02  9.9962019125005852e-02  9.9964793672705041e-02  9.9964910336560589e-02  9.9963870149172060e-02  9.9966142064957561e-02  9.9965781597048442e-02  9.9965938397997542e-02  9.9965912224545206e-02  9.9967700989986710e-02  9.9964119756281070e-02  9.9970289989633254e-02  9.9960005423499448e-02  9.9977777463039638e-02  9.9946256802621744e-02  1.0000000000000003e-01  1.0000809880442101e-01  1.0000000000000003e-01  1.0000468169461273e-01  1.0000709584481489e-01  1.0000564049479818e-01  1.0000837134600148e-01  1.0000766685148321e-01  1.0000691926132807e-01  1.0001065186861907e-01  1.0000891363093362e-01  1.0000744949135799e-01  1.0001279615828960e-01  1.0001009961913060e-01  1.0000803654742009e-01  1.0001554987626336e-01  1.0000967220596625e-01  1.0000912727610813e-01  1.0001626648572430e-01  1.0001775099864212e-01  1.0001629840620518e-01  1.0003000998775617e-01  1.0001735898696536e-01  1.0001750840912921e-01  1.0002550714568360e-01  1.0001933756690924e-01  1.0000257429161134e-01  1.0004142717082190e-01  9.9977291365106108e-02  1.0007278979574012e-01  9.9902154361820136e-02  1.0024273496845339e-01  1.0018486460688014e-01  9.9518626693399490e-02  9.9867933895824643e-02  1.0000986257281796e-01  9.9949866723830771e-02  9.9983567806013710e-02  9.9944316250951168e-02  9.9966527289926679e-02  9.9953247417151184e-02  9.9974514701435493e-02  9.9965946260145919e-02  9.9974595225505544e-02  9.9960972101440990e-02  9.9970125006730789e-02  9.9966783071460424e-02  9.9964125204598492e-02  9.9967375034549583e-02  9.9967147033727402e-02  9.9965263890561665e-02  9.9968025316433326e-02  9.9968223487782296e-02  9.9967134284418072e-02  9.9969375566797039e-02  9.9968215151056888e-02  9.9969620701509040e-02  9.9967070644078240e-02  9.9972521561066202e-02  9.9962344798953773e-02  9.9979900025554708e-02  9.9949447628796817e-02  1.0000000000000003e-01  1.0000877649771216e-01  1.0000000000000003e-01  1.0000450562327388e-01  1.0000673273224879e-01  1.0000712582667697e-01  1.0000762703221706e-01  1.0000631321814082e-01  1.0000975154129522e-01  1.0000857308023990e-01  1.0000725224006518e-01  1.0001185216177401e-01  1.0001020285977573e-01  1.0000794799300783e-01  1.0001495675242404e-01  1.0001058973226741e-01  1.0000766703425489e-01  1.0001624777307974e-01  1.0001081537863961e-01  1.0000528291886915e-01  1.0002744387858051e-01  1.0001827167376358e-01  1.0001606732586395e-01  1.0003232185221571e-01  1.0001321997819496e-01  1.0001785760179292e-01  1.0001860983082345e-01  1.0002873365318148e-01  9.9974866897848208e-02  1.0008937598565809e-01  9.9884263979851867e-02  1.0025962045388920e-01  1.0019312807129220e-01  9.9519629376217597e-02  9.9850744285646609e-02  1.0003196528902759e-01  9.9948725468581787e-02  9.9971354279240532e-02  9.9964680626602145e-02  9.9967579543217139e-02  9.9948771859803498e-02  9.9955971655512135e-02  9.9982137974741217e-02  9.9957868253929272e-02  9.9974782522334715e-02  9.9967186686871268e-02  9.9964685885048185e-02  9.9967862987850320e-02  9.9967894632423865e-02  9.9964347892606706e-02  9.9968062079822700e-02  9.9967488311995215e-02  9.9966528230579568e-02  9.9968486762073219e-02  9.9969112729465140e-02  9.9967390609979667e-02  9.9970362317110040e-02  9.9967071794461862e-02  9.9971995796163379e-02  9.9962932297799484e-02  9.9979403612259030e-02  9.9949743348046030e-02  1.0000000000000003e-01  1.0000902656120328e-01  1.0000000000000003e-01  1.0000425007560279e-01  1.0000808347697254e-01  1.0000661261868510e-01  1.0000671512335120e-01  1.0000881513321837e-01  1.0000833711857815e-01  1.0000681581751827e-01  1.0001094536676348e-01  1.0000967795080555e-01  1.0000759712924873e-01  1.0001444395889132e-01  1.0001122872093085e-01  1.0000783394697375e-01  1.0001635614715987e-01  1.0001056253414309e-01  1.0000532039880980e-01  1.0001961900419354e-01  1.0000649008363813e-01  1.0001457409682676e-01  1.0002992198805712e-01  1.0001917658768417e-01  1.0001187478657268e-01  1.0003613149433845e-01  1.0000314223996795e-01  1.0002732948187915e-01  9.9992321771149528e-02  1.0007710430985377e-01  9.9877941718840138e-02  1.0028657852515441e-01  1.0018966989904289e-01  9.9511527798931534e-02  9.9863757403259243e-02  1.0003507559553207e-01  9.9936278172055470e-02  9.9990549685881294e-02  9.9967196891022903e-02  9.9962041337016583e-02  9.9963193666184058e-02  9.9964050315379763e-02  9.9946794443882658e-02  9.9983422536258526e-02  9.9966944129573507e-02  9.9969605494027766e-02  9.9969286376229399e-02  9.9971160654186125e-02  9.9965432163389684e-02  9.9970097661568752e-02  9.9969100789639775e-02  9.9967095765594774e-02  9.9969739362154295e-02  9.9969576296685875e-02  9.9969192867188306e-02  9.9969930592973627e-02  9.9971572619472537e-02  9.9968031955860584e-02  9.9973844447515142e-02  9.9964490306122339e-02  9.9980312526693538e-02  9.9951984731746421e-02  1.0000000000000003e-01  1.0000919557986342e-01  1.0000000000000003e-01  1.0000491493348145e-01  1.0000786831472690e-01  1.0000593896654145e-01  1.0000866330259113e-01  1.0000780966163485e-01  1.0000692568752539e-01  1.0001007132969778e-01  1.0000902225737367e-01  1.0000704447705772e-01  1.0001315762466535e-01  1.0001100114354940e-01  1.0000851811316730e-01  1.0001624983022023e-01  1.0001120916527312e-01  1.0000681707318068e-01  1.0001791717356097e-01  1.0000827692898230e-01  1.0000583719942373e-01  1.0001806993252005e-01  1.0001565365285524e-01  1.0001509592697927e-01  1.0003186092260016e-01  1.0001913210029725e-01  1.0000244898014085e-01  1.0004855211398132e-01  9.9975909160180204e-02  1.0007501557859691e-01  9.9895870971785386e-02  1.0027936477396178e-01  1.0020595974928867e-01  9.9499896845862329e-02  9.9863191489099362e-02  1.0002619472532720e-01  9.9950063430048294e-02  9.9992134097715429e-02  9.9956785807571599e-02  9.9976386317249741e-02  9.9968860399641299e-02  9.9955889419175575e-02  9.9962870249987457e-02  9.9957491108421281e-02  9.9975520095160211e-02  9.9968077022999216e-02  9.9976039768532823e-02  9.9965117790910038e-02  9.9972317431277574e-02  9.9970131557625408e-02  9.9967740110538994e-02  9.9970258527622285e-02  9.9970382797005861e-02  9.9968220718198178e-02  9.9971139578152596e-02  9.9970234606715142e-02  9.9971132419006792e-02  9.9969453741093658e-02  9.9974195831374971e-02  9.9965018955738491e-02  9.9980757643845744e-02  9.9953164778838158e-02  1.0000000000000003e-01  1.0000968509795920e-01  1.0000000000000003e-01  1.0000480872630581e-01  1.0000749090006258e-01  1.0000739602572060e-01  1.0000813870460465e-01  1.0000664358911099e-01  1.0000971285721440e-01  1.0000877254388463e-01  1.0000690840549721e-01  1.0001158070525541e-01  1.0001037235038131e-01  1.0000824886361274e-01  1.0001537670435355e-01  1.0001240988976165e-01  1.0000784449361748e-01  1.0001768662891250e-01  1.0001059181314231e-01  1.0000539518629278e-01  1.0001806020575074e-01  1.0000948640276967e-01  9.9999368735314939e-02  1.0003348575073019e-01  1.0001300792562760e-01  1.0001751372264991e-01  1.0002724601283733e-01  1.0002757033065930e-01  9.9974939823066669e-02  1.0009858122632538e-01  9.9879376853904148e-02  1.0027750945912652e-01  1.0020979292935411e-01  9.9515372335709562e-02  9.9853742681993776e-02  1.0003928521591399e-01  9.9951746260956958e-02  9.9982502416054927e-02  9.9969369833442401e-02  9.9979680870720400e-02  9.9960578789063920e-02  9.9971214175043899e-02  9.9965744478192162e-02  9.9956495944571483e-02  9.9958488114703412e-02  9.9983554311169509e-02  9.9963456651669572e-02  9.9977193166418080e-02  9.9971446837206684e-02  9.9969523474910338e-02  9.9971869929508711e-02  9.9972080330985674e-02  9.9969170777596733e-02  9.9971633586737052e-02  9.9971795438367123e-02  9.9969887428956253e-02  9.9973136618817487e-02  9.9970436574922106e-02  9.9974526961110519e-02  9.9966855321088080e-02  9.9981428833089622e-02  9.9954967508144935e-02  1.0000000000000003e-01  1.0000988533221743e-01  1.0000000000000003e-01  1.0000462425203265e-01  1.0000873195145556e-01  1.0000710560555041e-01  1.0000743595659455e-01  1.0000904518193207e-01  1.0000888915546037e-01  1.0000721858127166e-01  1.0001092911587159e-01  1.0000979182445342e-01  1.0000785403766772e-01  1.0001406577151081e-01  1.0001250053921013e-01  1.0000867945266169e-01  1.0001759815253135e-01  1.0001281696499850e-01  1.0000658100868197e-01  1.0001909505273149e-01  1.0001015625587806e-01  1.0000213859594113e-01  1.0002243835085124e-01  1.0000407394851220e-01  1.0000896122187504e-01  1