<?xml version="1.0"?>
<VTKFile type="UnstructuredGrid"  version="0.1"  >
<UnstructuredGrid>
<Piece  NumberOfPoints="1933" NumberOfCells="3640">
<Points>
<DataArray  type="Float64"  NumberOfComponents="3"  format="ascii">0.2940298538293545 -0.001392042052311677 0  5.294029886076847 -0.001358367617594331 0  5.293979368232913 7.498641710619655 0  0.2939793229572836 7.498608015109537 0  10.29402993987945 -0.001324753335476817 0  10.29397944368694 7.498675328673127 0  15.29403004731485 -0.001291198474835456 0  15.29397956174387 7.498708881898388 0  20.29403023635153 -0.001257680878859072 0  20.29397973276186 7.498742396588007 0  25.29403052869457 -0.001224167150239909 0  25.29397996507057 7.498775907568771 0  30.29403094019446 -0.001190617505205701 0  30.29398026459606 7.49880945504882 0  35.29403148186282 -0.001156987974485266 0  35.29398063457818 7.498843083045375 0  40.29403216083698 -0.001123231163197839 0  40.29398107537988 7.498876838867516 0  45.29403298109586 -0.001089296168005727 0  45.29398158429839 7.498910773290985 0  50.29403394388878 -0.001055127950744666 0  50.29398215529206 7.498944941214078 0  55.2940350478816 -0.001020666305663304 0  55.29398277855007 7.498979402692078 0  60.29403628902369 -0.000985844460371298 0  60.29398343983944 7.499014224322184 0  65.29403766012062 -0.0009505872838396791 0  65.29398411955191 7.49904948100724 0  70.29403915006044 -0.0009148090185996867 0  70.29398479135656 7.499085258175082 0  75.29404074259942 -0.0008784103953137907 0  75.29398542032567 7.499121654580093 0  80.29404241453526 -0.0008412749142825622 0  80.29398596034763 7.499158785872575 0  85.29404413299038 -0.0008032639769094552 0  85.29398635056846 7.499196789194968 0  90.2940458513302 -0.000764210403209982 0  90.2939865104981 7.499235829157263 0  95.29404750293202 -0.0007239096548922719 0  95.29398633329055 7.49927610565577 0  100.2940489914425 -0.0006821077645216265 0  100.293985676565 7.499317864113493 0  105.2940501751586 -0.0006384845107152501 0  105.2939843500292 7.499361408783019 0  110.2940508413135 -0.0005926297466293865 0  110.2939820992436 7.499407119612576 0  115.2940506626485 -0.0005440100168082039 0  115.2939785854969 7.499455472471738 0  120.29404912232 -0.0004919219460653123 0  120.2939733637868 7.499507060416581 0  125.2940453813466 -0.0004354293192078322 0  125.2939658662453 7.499562608273957 0  130.2940380405837 -0.0003732853663830125 0  130.2939554111791 7.499622960166464 0  135.2940247074276 -0.000303860130875045 0  135.2939412870819 7.499688991915208 0  140.2940011981417 -0.0002251567856643442 0  140.2939230253997 7.499761345470649 0  145.2939600504398 -0.0001352292421292352 0  145.2939011173002 7.499839800064816 0  150.2938876732677 -3.421662743509982e-05 0  150.2938787562922 7.499922123814514 0  160.2938926261461 1.106220044688785e-18 0  165.2938700420003 -5.91448701977471e-05 0  165.2938891509916 7.499927870698765 0  160.2938911617588 7.499969361752767 0  170.2938683124834 -9.476046140933899e-05 0  170.2938867989458 7.499898962292916 0  175.2938756761087 -0.0001141459607578649 0  175.2938866358428 7.499882622347311 0  180.2938866430528 -0.000121738255986337 0  180.2938886340401 7.499876553011712 0  185.2938986029021 -0.0001206097997056602 0  185.2938921887742 7.499878481019659 0  190.2939103332584 -0.0001129571391828282 0  190.293896687284 7.499886565317698 0  195.2939212933234 -0.0001003663438865096 0  195.2939016504512 7.499899393827811 0  200.2939312774992 -8.399295822486387e-05 0  200.293906741583 7.499915900324051 0  205.2939402428327 -6.46885856412308e-05 0  205.293911739145 7.49993528028616 0  210.2939482224996 -4.308939391905656e-05 0  210.293916505467 7.499956922843495 0  215.2939552824273 -1.967758550625097e-05 0  215.2939209607178 7.499980359627129 0  220.2939614997199 5.175907071754951e-06 0  220.293925063626 7.500005227411709 0  225.2939669521565 3.118158039409674e-05 0  225.2939287979594 7.500031241077381 0  230.2939717133401 5.811028030334585e-05 0  230.2939321633472 7.50005817402195 0  235.2939758507278 8.577811106483745e-05 0  235.2939351691776 7.500085843875711 0  240.2939794251237 0.0001140354735482634 0  240.2939378306151 7.500114101982315 0  245.2939824909157 0.0001427589859752546 0  245.29394016605 7.50014282556816 0  250.2939850966758 0.0001718454494407298 0  250.293942195516 7.50017191185144 0  255.2939872859522 0.0002012072933121249 0  255.2939439397634 7.500201273573576 0  260.2939890981531 0.000230769120814804 0  260.293945419769 7.500230835598447 0  265.2939905695063 0.000260465105384855 0  265.2939466565476 7.500260532342847 0  270.2939917340717 0.0002902370864499475 0  270.2939476711693 7.500290305891032 0  275.2939926248369 0.0003200332962742523 0  275.2939484848935 7.500320104721203 0  280.2939932748876 0.0003498077322510297 0  280.2939491193761 7.50034988304169 0  285.2939937186583 0.0003795202870800871 0  285.2939495968708 7.500379600809433 0  290.2939939931751 0.0004091378818593004 0  290.2939499403648 7.500409224589045 0  295.2939941391032 0.0004386370377530077 0  295.2939501735923 7.500438729509614 0  300.2939942010795 0.0004680085899093913 0  300.2939503209161 7.500468102681997 0  305.293994226182 0.0004972655483642457 0  305.2939504072982 7.500497348534919 0  310.2939942579777 0.0005264550237711661 0  310.2939504591955 7.50052649668257 0  5.2939287041638 14.99864187591313 0  0.2939286590827492 14.99860815351796 0  10.29392876653305 14.99867548691072 0  15.29392885386504 14.998709022417 0  20.29392896913631 14.99874251800226 0  25.29392911294114 14.99877601165831 0  30.29392928407502 14.99880954419877 0  35.29392947943626 14.99884315922759 0  40.2939296936772 14.99887690325978 0  45.29392991875007 14.99891082612994 0  50.29393014337306 14.99894498169675 0  55.2939303523949 14.9989794288324 0  60.29393052601701 14.99901423270011 0  65.29393063882679 14.99904946634681 0  70.29393065858872 14.99908521266191 0  75.29393054474484 14.99912156677696 0  80.29393024657737 14.99915863900025 0  85.29392970101866 14.99919655838993 0  90.29392883014867 14.99923547705485 0  95.29392753856169 14.99927557520109 0  100.2939257110449 14.99931706675092 0  105.2939232115352 14.99936020492108 0  110.2939198852414 14.99940528621236 0  115.293915567456 14.99945264937478 0  120.2939101052462 14.99950266224484 0  125.2939034022671 14.99955568249361 0  130.2938955022268 14.99961196606158 0  135.2938867310901 14.99967147638949 0  140.2938779146039 14.99973351543568 0  145.2938706541094 14.99979605068136 0  150.2938675169822 14.99985452242692 0  165.293884779039 14.99989249994728 0  160.2938825253997 14.99990819705319 0  170.2938837963902 14.99987940255729 0  175.2938819490259 14.99987194878944 0  180.2938804806714 14.99987077870094 0  185.293879827363 14.99987540422021 0  190.2938800185311 14.99988497873498 0  195.2938809175504 14.99989863325283 0  200.2938823425688 14.9999155977733 0  205.2938841200713 14.99993523018985 0  210.2938861044288 14.99995700941269 0  215.2938881816209 14.99998051721126 0  220.2938902663996 15.00000541869065 0  225.2938922973432 15.00003144494829 0  230.2938942317802 15.00005837879743 0  235.2938960413559 15.0000860434216 0  240.2938977084369 15.00011429350275 0  245.2938992233204 15.00014300832687 0  250.2939005821297 15.00017208643453 0  255.2939017852554 15.00020144146952 0  260.2939028362186 15.00023099896422 0  265.2939037408485 15.00026069387187 0  270.2939045066886 15.00029046871705 0  275.2939051425659 15.0003202722862 0  280.2939056582642 15.00035005882168 0  285.2939060642951 15.00037978771669 0  290.2939063717453 15.00040942372322 0  295.2939065923191 15.00043893766519 0  300.2939067387513 15.00046830754921 0  305.2939068260483 15.00049751969387 0  310.2939068743532 15.00052656886369 0  5.29387796882298 22.4986421726597 0  0.2938779268253958 22.49860846577589 0  10.29387801439977 22.4986757483003 0  15.29387806563664 22.49870924145366 0  20.29387812142722 22.49874269478874 0  25.29387817846196 22.49877614910322 0  30.29387823175211 22.49880964551921 0  35.29387827469932 22.4988432266373 0  40.2938782988852 22.49887693728868 0  45.29387829370797 22.49891082520979 0  50.29387824593707 22.49894494178858 0  55.29387813921231 22.49897934294737 0  60.29387795350076 22.49901409019348 0  65.29387766452119 22.49904925185576 0  70.29387724315694 22.49908490451692 0  75.29387665491002 22.49912113463987 0  80.29387585949068 22.49915804035892 0  85.29387481072344 22.49919573334843 0  90.29387345707521 22.49923434057137 0  95.29387174331444 22.4992740055046 0  100.2938696141126 22.49931488806785 0  105.2938670208413 22.49935716184507 0  110.2938639334055 22.49940100610277 0  115.2938603596523 22.49944658834956 0  120.2938563754712 22.49949403045413 0  125.2938521686143 22.49954334745804 0  130.2938480971508 22.49959434353012 0  135.2938447567151 22.4996464461237 0  140.293843034718 22.49969846427763 0  145.293844098211 22.49974828989767 0  150.2938492125288 22.49979267880152 0  165.2938653189053 22.4998521427416 0  160.293862102497 22.49985020756261 0  170.2938655809189 22.49985284200759 0  175.2938641020026 22.49985510216618 0  180.2938619211573 22.4998603616248 0  185.2938597175146 22.49986910533133 0  190.2938578499555 22.49988127128647 0  195.2938564599892 22.4998965397086 0  200.2938555625121 22.49991450170982 0  205.2938551082896 22.49993474556489 0  210.2938550219728 22.49995689508324 0  215.2938552231738 22.49998062267951 0  220.2938556370083 22.50000565016565 0  225.293856198543 22.50003174424177 0  230.2938568539407 22.50005871021212 0  235.2938575599622 22.50008638558802 0  240.2938582827591 22.5001146342794 0  245.2938589964546 22.50014334160411 0  250.293859681758 22.50017241012655 0  255.2938603247256 22.50020175625013 0  260.293860915689 22.50023130746325 0  265.2938614483632 22.50026100014055 0  270.2938619191017 22.5002907778163 0  275.2938623262947 22.50032058986006 0  280.2938626698885 22.50035039049363 0  285.2938629510493 22.50038013808199 0  290.2938631720106 22.50040979459666 0  295.2938633362163 22.500439325068 0  300.29386
[...]
<PointData  Scalars="p"> 
<DataArray  type="Float64"  Name="p"  format="ascii">1.0000000000000001e-01  1.0000000000000003e-01  9.9997412516273587e-02  1.0000000000000003e-01  1.0000000000000003e-01  9.9996295489440890e-02  1.0000000000000003e-01  9.9994408442962895e-02  1.0000000000000003e-01  9.9993141585548340e-02  1.0000000000000003e-01  9.9991724096002987e-02  1.0000000000000003e-01  9.9989897380172943e-02  1.0000000000000003e-01  9.9988716076132203e-02  1.0000000000000003e-01  9.9987460616883517e-02  1.0000000000000003e-01  9.9985446070805645e-02  1.0000000000000003e-01  9.9984201617544968e-02  1.0000000000000003e-01  9.9981005957940267e-02  1.0000000000000003e-01  9.9977624098492687e-02  1.0000000000000003e-01  9.9975112809448027e-02  1.0000000000000003e-01  9.9972657054103922e-02  1.0000000000000003e-01  9.9969069804338812e-02  1.0000000000000003e-01  9.9967288430274068e-02  1.0000000000000003e-01  9.9965120436850269e-02  1.0000000000000003e-01  9.9961603595967161e-02  1.0000000000000003e-01  9.9960972609420259e-02  1.0000000000000003e-01  9.9958422615414710e-02  1.0000000000000003e-01  9.9957169845747970e-02  1.0000000000000003e-01  9.9954809567795802e-02  1.0000000000000003e-01  9.9957331098042529e-02  1.0000000000000003e-01  9.9949964885906198e-02  1.0000000000000003e-01  9.9960017967307524e-02  1.0000000000000003e-01  9.9944218373226687e-02  1.0000000000000003e-01  9.9966248213581257e-02  1.0000000000000003e-01  9.9934706343673477e-02  1.0000000000000003e-01  9.9976142308856486e-02  1.0000000000000001e-01  9.9915575542196586e-02  1.0000000000000001e-01  1.0000000000000003e-01  1.0010158795454463e-01  1.0017172948722053e-01  1.0000000000000003e-01  1.0004470290095512e-01  1.0000000000000003e-01  1.0008289021965104e-01  1.0000000000000003e-01  1.0006557215404832e-01  1.0000000000000003e-01  1.0007245438740978e-01  1.0000000000000003e-01  1.0006839880771765e-01  1.0000000000000003e-01  1.0007238136974614e-01  1.0000000000000003e-01  1.0006903388654907e-01  1.0000000000000003e-01  1.0007042135020376e-01  1.0000000000000003e-01  1.0006981371706127e-01  1.0000000000000003e-01  1.0006909669221302e-01  1.0000000000000003e-01  1.0006850285771844e-01  1.0000000000000003e-01  1.0006823573684195e-01  1.0000000000000003e-01  1.0006712208332366e-01  1.0000000000000003e-01  1.0006656724006914e-01  1.0000000000000003e-01  1.0006593250731081e-01  1.0000000000000003e-01  1.0006510688315659e-01  1.0000000000000003e-01  1.0006432768626687e-01  1.0000000000000003e-01  1.0006393194069109e-01  1.0000000000000003e-01  1.0006280724159070e-01  1.0000000000000003e-01  1.0006277698849600e-01  1.0000000000000003e-01  1.0006120047816137e-01  1.0000000000000003e-01  1.0006225969238328e-01  1.0000000000000003e-01  1.0005872338643601e-01  1.0000000000000003e-01  1.0006341581157960e-01  1.0000000000000003e-01  1.0005399835272653e-01  1.0000000000000003e-01  1.0006847523288183e-01  1.0000000000000003e-01  1.0004323511314306e-01  1.0000000000000003e-01  1.0008675076153201e-01  1.0000000000000001e-01  1.0000000000000003e-01  9.9996495986692302e-02  1.0000000000000003e-01  9.9996101506575674e-02  9.9995752932892853e-02  9.9995209097478041e-02  9.9994087621722932e-02  9.9994071920084748e-02  9.9994002676357205e-02  9.9992525091504122e-02  9.9992970686393332e-02  9.9992559537952080e-02  9.9990135454385204e-02  9.9987724072693532e-02  9.9987104319629136e-02  9.9983591521756884e-02  9.9984670141226875e-02  9.9984099934867371e-02  9.9981259110324752e-02  9.9982604644646561e-02  9.9982762044243972e-02  9.9979121928902584e-02  9.9982653448148023e-02  9.9980613099625165e-02  9.9981728552205940e-02  9.9978819871777314e-02  9.9988146073241704e-02  9.9970320377848004e-02  1.0000099086800854e-01  9.9950031810635678e-02  1.0002751206964497e-01  9.9913573297747166e-02  9.9940078995274462e-02  1.0028778605811783e-01  1.0006802312950808e-01  1.0001674486068313e-01  1.0002315332804397e-01  1.0001881229732916e-01  1.0002951894326713e-01  1.0002087297589582e-01  1.0002606671368533e-01  1.0002646241833470e-01  1.0002533208035901e-01  1.0002561940583203e-01  1.0002661663122904e-01  1.0002506731332879e-01  1.0002515439357422e-01  1.0002528103450985e-01  1.0002430849674167e-01  1.0002417807980511e-01  1.0002408985977931e-01  1.0002358107704432e-01  1.0002313949322741e-01  1.0002352320103229e-01  1.0002226977351672e-01  1.0002348263368574e-01  1.0002110134990665e-01  1.0002472593022842e-01  1.0001768927323973e-01  1.0003016040295296e-01  1.0000842831887434e-01  1.0004205972650757e-01  1.0000000000000003e-01  9.9995190319287122e-02  1.0000000000000003e-01  9.9996346054710986e-02  9.9994409286877015e-02  9.9993155293427519e-02  9.9992628879410295e-02  9.9992562876154503e-02  9.9990323825625713e-02  9.9990747826252141e-02  9.9990967524409072e-02  9.9988061975848350e-02  9.9987782646478479e-02  9.9987765548208166e-02  9.9979481231820280e-02  9.9980213935010415e-02  9.9979042972511839e-02  9.9973901804692358e-02  9.9976381724250787e-02  9.9975826537891749e-02  9.9970774186718986e-02  9.9973829366611686e-02  9.9974711298658717e-02  9.9967950908314313e-02  9.9976026082792324e-02  9.9970196135607634e-02  9.9976426829334053e-02  9.9964927733994680e-02  9.9990765161863809e-02  9.9940064131212605e-02  1.0003081151976112e-01  9.9862456290026727e-02  9.9930005587295534e-02  1.0030352192845345e-01  1.0014084507942163e-01  1.0003382495441578e-01  1.0003579251653026e-01  1.0006059108240624e-01  1.0003504034408141e-01  1.0004950614779776e-01  1.0004962698993827e-01  1.0004706387176940e-01  1.0004816530821785e-01  1.0005093474952266e-01  1.0004771351251776e-01  1.0004852629671393e-01  1.0004903817265642e-01  1.0004715882093396e-01  1.0004695757012674e-01  1.0004719150636486e-01  1.0004577502898571e-01  1.0004568686198154e-01  1.0004542219263010e-01  1.0004495482659786e-01  1.0004402275693461e-01  1.0004516183526549e-01  1.0004242205450854e-01  1.0004587272539726e-01  1.0003982135924631e-01  1.0004964754216214e-01  1.0003097230877944e-01  1.0006655599144572e-01  1.0000000000000003e-01  9.9994457402998241e-02  1.0000000000000003e-01  9.9996267224635518e-02  9.9993678623856247e-02  9.9993672255502139e-02  9.9993675668274135e-02  9.9991502568295754e-02  9.9992168881170906e-02  9.9992860746247511e-02  9.9990207172025350e-02  9.9991441332423367e-02  9.9991935589092293e-02  9.9986517253780244e-02  9.9989012439101729e-02  9.9984520104306043e-02  9.9978842574189847e-02  9.9980999752077263e-02  9.9981702244130388e-02  9.9975611404306483e-02  9.9980814684841990e-02  9.9980453386194004e-02  9.9976019178790759e-02  9.9979732531838963e-02  9.9984286009570267e-02  9.9972533922329132e-02  9.9991342173967976e-02  9.9969576333305984e-02  1.0000375413182878e-01  9.9943049496690597e-02  1.0005147482627197e-01  9.9851655112748502e-02  9.9914501967763164e-02  1.0036343355497485e-01  1.0010214662652143e-01  1.0000233143511916e-01  1.0008038790157021e-01  1.0000172805518673e-01  1.0003634371604421e-01  1.0003106830549549e-01  1.0003024631600681e-01  1.0003055857823737e-01  1.0003682336356014e-01  1.0003150189243054e-01  1.0003390453727662e-01  1.0003512920394592e-01  1.0003284690168987e-01  1.0003294944604701e-01  1.0003358886930076e-01  1.0003184134151254e-01  1.0003170511707228e-01  1.0003208749945672e-01  1.0003076678144496e-01  1.0003112497619761e-01  1.0003045733162004e-01  1.0003115471203003e-01  1.0002878630942796e-01  1.0003293083618076e-01  1.0002542862674638e-01  1.0003769094789332e-01  1.0001741714692391e-01  1.0005031237976558e-01  1.0000000000000003e-01  9.9993697983707289e-02  1.0000000000000003e-01  9.9995715862542731e-02  9.9993785819783715e-02  9.9994371290990217e-02  9.9991468858583205e-02  9.9992240967920989e-02  9.9992432326451400e-02  9.9989761584853565e-02  9.9991244649797584e-02  9.9992221162058637e-02  9.9987579289613909e-02  9.9989720548516334e-02  9.9989070532566532e-02  9.9984382273422448e-02  9.9981878793296008e-02  9.9981714284447507e-02  9.9973998821032140e-02  9.9979142087947726e-02  9.9980120512319137e-02  9.9972221012162063e-02  9.9980413097264506e-02  9.9979144758615246e-02  9.9976009594079568e-02  9.9977489093079450e-02  9.9990303904776659e-02  9.9963399853667451e-02  1.0000954112453755e-01  9.9936333794896748e-02  1.0006275153901750e-01  9.9824045249689311e-02  9.9859187683007652e-02  1.0041900166195088e-01  1.0012106798780654e-01  1.0002622404672017e-01  1.0005893609503881e-01  1.0004254961051544e-01  1.0003706757147492e-01  1.0003626624406094e-01  1.0003164538746634e-01  1.0004591133981218e-01  1.0003551923753456e-01  1.0004048915706228e-01  1.0004275101415938e-01  1.0003967671973278e-01  1.0004016129084992e-01  1.0004186290684391e-01  1.0003907103095494e-01  1.0003918953410973e-01  1.0003961869383338e-01  1.0003809499512764e-01  1.0003777437776273e-01  1.0003844751658486e-01  1.0003679180199770e-01  1.0003792434154823e-01  1.0003609625214341e-01  1.0003890555569131e-01  1.0003316420246021e-01  1.0004360305505365e-01  1.0002459314392864e-01  1.0005848677788025e-01  1.0000000000000003e-01  9.9992779760780970e-02  1.0000000000000003e-01  9.9995843568530307e-02  9.9994068633723593e-02  9.9993004403372984e-02  9.9992733884944104e-02  9.9993105808719424e-02  9.9990304128486723e-02  9.9991363823552698e-02  9.9992829905186778e-02  9.9988849779894085e-02  9.9990808022561342e-02  9.9991729697757548e-02  9.9986115417340427e-02  9.9988273675138017e-02  9.9991215161358074e-02  9.9976550615355028e-02  9.9981615402296942e-02  9.9981502672934264e-02  9.9973248699519429e-02  9.9980687564112422e-02  9.9983463378156501e-02  9.9971867405480030e-02  9.9986383700900044e-02  9.9980164297649679e-02  9.9985667265699588e-02  9.9971387101970691e-02  1.0001636035118100e-01  9.9927447501231045e-02  1.0008435203420407e-01  9.9799996366370963e-02  9.9846004426782181e-02  1.0042079223580168e-01  1.0014440592804477e-01  9.9981690994328604e-02  1.0005668527155992e-01  1.0004433280270460e-01  1.0004839834315188e-01  1.0001220027328141e-01  1.0004621898540672e-01  1.0002290034978538e-01  1.0003431503594901e-01  1.0003671931244890e-01  1.0003314171448478e-01  1.0003385943580737e-01  1.0003747271999960e-01  1.0003348674042042e-01  1.0003422187341326e-01  1.0003531316126239e-01  1.0003281824673182e-01  1.0003290852641838e-01  1.0003328021021490e-01  1.0003220708888233e-01  1.0003155106867448e-01  1.0003311606840073e-01  1.0003021852211466e-01  1.0003402413571109e-01  1.0002792810499316e-01  1.0003838117715834e-01  1.0001999462273584e-01  1.0005186649127920e-01  1.0000000000000003e-01  9.9992266177123382e-02  1.0000000000000003e-01  9.9996075281533495e-02  9.9992637402903706e-02  9.9993731829795998e-02  9.9993467576352774e-02  9.9991119015668262e-02  9.9991319692061861e-02  9.9992790065688439e-02  9.9988779443757364e-02  9.9990867120011137e-02  9.9992313811720371e-02  9.9986481956961373e-02  9.9989371298331617e-02  9.9991836931951045e-02  9.9982742695405427e-02  9.9989857184368994e-02  9.9983829590890888e-02  9.9973261747870051e-02  9.9980275939479890e-02  9.9981552850776825e-02  9.9972272553039324e-02  9.9981052400090989e-02  9.9986867843923743e-02  9.9969126849487916e-02  9.9995233899345268e-02  9.9971150130823430e-02  1.0000962400851304e-01  9.9930542358305854e-02  1.0009524257024309e-01  9.9771351346719661e-02  9.9848268584305691e-02  1.0044913592655197e-01  1.0012503612054856e-01  9.9981400253304528e-02  1.0007339479261562e-01  1.0002423192860037e-01  1.0004456666024583e-01  1.0005768418300687e-01  1.0001785451420660e-01  1.0003643137583622e-01  1.0003540820749476e-01  1.0003441866461270e-01  1.0003356452138663e-01  1.0004006864063511e-01  1.0003451294459070e-01  1.0003620183319439e-01  1.0003797927646281e-01  1.0003520464945999e-01  1.0003508825375040e-01  1.0003612845118309e-01  1.0003385651545783e-01  1.0003421712977079e-01  1.0003406035738624e-01  1.0003408650088429e-01  1.0003229789109881e-01  1.0003587905966385e-01  1.0002970901517040e-01  1.0003999337129608e-01  1.0002222186091889e-01  1.0005374170799089e-01  1.0000000000000003e-01  9.9991902494735010e-02  1.0000000000000003e-01  9.9995318951791826e-02  9.9992905131893559e-02  9.9994360163086965e-02  9.9991629675598062e-02  9.9992333980954584e-02  9.9993081369200598e-02  9.9989349245000206e-02  9.9991087186198882e-02  9.9992551038717126e-02  9.9987205226038364e-02  9.9989901329479089e-02  9.9991964000927747e-02  9.9984451846636707e-02  9.9990328431304953e-02  9.9990873340216835e-02  9.9983734718785050e-02  9.9982251277979314e-02  9.9983703029631971e-02  9.9969993512257244e-02  9.9982642477778078e-02  9.9982492866437303e-02  9.9974496038046354e-02  9.9980663929437746e-02  9.9997426247605714e-02  9.9958576735806048e-02  1.0002270843719582e-01  9.9927213255085842e-02  1.0009784457068023e-01  9.9757272973289429e-02  9.9815142640125309e-02  1.0048134411808497e-01  1.0013205876100324e-01  9.9990137258095704e-02  1.0005012916216255e-01  1.0001643040321183e-01  1.0005568156862729e-01  1.0003346976237323e-01  1.0004675108296895e-01  1.0002548336658480e-01  1.0003405150852726e-01  1.0002540296616814e-01  1.0003902618885484e-01  1.0002987291287882e-01  1.0003321535165230e-01  1.0003587315997338e-01  1.0003262319351187e-01  1.0003285145833671e-01  1.0003473461006594e-01  1.0003197315342829e-01  1.0003177521843751e-01  1.0003286443044025e-01  1.0003062315447703e-01  1.0003178367707911e-01  1.0003037820147083e-01  1.0003292818575958e-01  1.0002747751588241e-01  1.0003765404196879e-01  1.0002009933529786e-01  1.0005055096650196e-01  1.0000000000000003e-01  9.9991224959926614e-02  1.0000000000000003e-01  9.9995495036984516e-02  9.9993268243229100e-02  9.9992875144651064e-02  9.9992373971150336e-02  9.9993687513469737e-02  9.9990249663184760e-02  9.9991427892598225e-02  9.9992748406940155e-02  9.9988149194650711e-02  9.9989798250123163e-02  9.9992052732525344e-02  9.9985045079314147e-02  9.9989411378346743e-02  9.9992333611784362e-02  9.9983754089678870e-02  9.9989185790826496e-02  9.9994716722828753e-02  9.9972560349216977e-02  9.9981730376649758e-02  9.9983934413623049e-02  9.9967682145978926e-02  9.9986781508889580e-02  9.9982143869135870e-02  9.9981393590321752e-02  9.9971268557074972e-02  1.0002513247925474e-01  9.9910630415075211e-02  1.0011573224480014e-01  9.9740389910006652e-02  9.9806883220100034e-02  1.0048033427078558e-01  1.0014924676367748e-01  9.9968033784671770e-02  1.0005127108026678e-01  1.0002864397458038e-01  1.0003531591887499e-01  1.0003241839676789e-01  1.0005122581717064e-01  1.0004402600194735e-01  1.0001786011045831e-01  1.0004212997937673e-01  1.0002521509829772e-01  1.0003281165003386e-01  1.0003531234170750e-01  1.0003213504378737e-01  1.0003210379420878e-01  1.0003565051518663e-01  1.0003193616050490e-01  1.0003251023254188e-01  1.0003347035913991e-01  1.0003151179609306e-01  1.0003088605501703e-01  1.0003260816238607e-01  1.0002963650728149e-01  1.0003292706530874e-01  1.0002800324457931e-01  1.0003706651096021e-01  1.0002059573671586e-01  1.0005025523913540e-01  1.0000000000000003e-01  9.9990974986507136e-02  1.0000000000000003e-01  9.9995750574318365e-02  9.9991917769066005e-02  9.9993388334555608e-02  9.9993285808837304e-02  9.9991186086349465e-02  9.9991663996224694e-02  9.9993184996259338e-02  9.9989056045170513e-02  9.9990323180507837e-02  9.9992403684388609e-02  9.9985557925556967e-02  9.9988772662951697e-02  9.9992166901927637e-02  9.9983646044609506e-02  9.9989438802927447e-02  9.9994679966516092e-02  9.9980383828762107e-02  9.9993510065296859e-02  9.9985428417899119e-02  9.9970082419458706e-02  9.9980825882485580e-02  9.9988126718752235e-02  9.9963873346222948e-02  9.9996858844821582e-02  9.9972672797583595e-02  1.0000768062873128e-01  9.9922900620661018e-02  1.0012205321016028e-01  9.9713437102731797e-02  9.9810343990865288e-02  1.0048843177030448e-01  1.0013623078420954e-01  9.9964925442108055e-02  1.0006371785519416e-01  1.0000944749187150e-01  1.0003280062152857e-01  1.0003795647670420e-01  1.0003680320205513e-01  1.0003594748399137e-01  1.0005320385628316e-01  1.0001657490923305e-01  1.0003305419940833e-01  1.0003039261336488e-01  1.0003071153059814e-01  1.0002883769730990e-01  1.0003456619711092e-01  1.0002990050107108e-01  1.0003089773469087e-01  1.0003290268845341e-01  1.0003025904234311e-01  1.0003042239012305e-01  1.0003080587025155e-01  1.0003006812056020e-01  1.0002842630504247e-01  1.0003196690824084e-01  1.0002615458494611e-01  1.0003550856452056e-01  1.0001968683525103e-01  1.0004801389363173e-01  1.0000000000000003e-01  9.9990806033155036e-02  1.0000000000000003e-01  9.9995085845867193e-02  9.9992132941341183e-02  9.9994061921251390e-02  9.9991337996071891e-02  9.9992191478692496e-02  9.9993075280072577e-02  9.9989930111142378e-02  9.9990978976218156e-02  9.9992956391378951e-02  9.9986844158499399e-02  9.9989000311881043e-02  9.9991482934041184e-02  9.9983752456291014e-02  9.9988792386271341e-02  9.9993183779671785e-02  9.9982085545072846e-02  9.9991724134917984e-02  9.9994163753470588e-02  9.9981932241900121e-02  9.9984349560868921e-02  9.9984906280158478e-02  9.9968144335419590e-02  9.9980870304549094e-02  9.9997552113361407e-02  9.9951454058896660e-02  1.0002409043054906e-01  9.9924989636232503e-02  1.0010412637732956e-01  9.9720651064635207e-02  9.9794055389255995e-02  1.0050005710386968e-01  1.0013679679072475e-01  9.9973806807488658e-02  1.0004993087943975e-01  1.0000786443155828e-01  1.0004321141217887e-01  1.0002361054838295e-01  1.0003113730766842e-01  1.0004410835271792e-01  1.0003712674560784e-01  1.0004250727383086e-01  1.0002447792498852e-01  1.0003192076130510e-01  1.0002395846765713e-01  1.0003488050653517e-01  1.0002768057757140e-01  1.0002986692173216e-01  1.0003225831658154e-01  1.0002973978213713e-01  1.0002961576024905e-01  1.0003177784626081e-01  1.0002885901933581e-01  1.0002976419373687e-01  1.0002886646642165e-01  1.0003054507614446e-01  1.0002580325206238e-01  1.0003497991065816e-01  1.0001924170052960e-01  1.0004683386440631e-01  1.0000000000000003e-01  9.9990316626265729e-02  1.0000000000000003e-01  9.9995192055278154e-02  9.9992510326174400e-02  9.9992605126177247e-02  9.9991862561458630e-02  9.9993357411305980e-02  9.9990288618617210e-02  9.9991228777077390e-02  9.9993092589711868e-02  9.9988420987652482e-02  9.9989629154350806e-02  9.9991752225658134e-02  9.9984625518618406e-02  9.9987591893601110e-02  9.9992156597172865e-02  9.9982316099635621e-02  9.9989409855928288e-02  9.9994605752607629e-02  9.9981942670129206e-02  9.9990515389383972e-02  1.0000063079272163e-01  9.9966520558904703e-02  9.9986994654548952e-02  9.9982489006108594e-02  9.9972759253901172e-02  9.9972432866890393e-02  1.0002505936094190e-01  9.9901428745526266e-02  1.0012061677350000e-01  9.9722508105189331e-02  9.9790226701501020e-02  1.0048457500471925e-01  1.0014624402642262e-01  9.9960715550247992e-02  1.0004824913927360e-01  1.0001749605688054e-01  1.0003062611740224e-01  1.0002031712008681e-01  1.0003941878552512e-01  1.0002878274555443e-01  1.0003425344354813e-01  1.0004350178786331e-01  1.0004150958677124e-01  1.0001644389316904e-01  1.0003654163566396e-01  1.0002280465041824e-01  1.0002855163080203e-01  1.0003047489509315e-01  1.0002812829094009e-01  1.0002791824286095e-01  1.0003082777987546e-01  1.0002836481526980e-01  1.0002820326049115e-01  1.0003011130939315e-01  1.0002686217998932e-01  1.0002956233552956e-01  1.0002547211526799e-01  1.0003314353688711e-01  1.0001857054631719e-01  1.0004503115995501e-01  1.0000000000000003e-01  9.9990116437971163e-02  1.0000000000000003e-01  9.9995376500620792e-02  9.9991269483554523e-02  9.9992895514386407e-02  9.9992565211444798e-02  9.9990956223158414e-02  9.9991112227364717e-02  9.9992782529377780e-02  9.9989072565681653e-02  9.9990209670511601e-02  9.9992147135554627e-02  9.9985936352423227e-02  9.9987501286584055e-02  9.9991321780769624e-02  9.9982404531633179e-02  9.9987185045072799e-02  9.9993420118171875e-02  9.9980908104714800e-02  9.9989845683841505e-02  9.9997861909091559e-02  9.9977565837525331e-02  9.9995926415727909e-02  9.9991041811766185e-02  9