<?xml version="1.0"?>
<VTKFile type="UnstructuredGrid"  version="0.1"  >
<UnstructuredGrid>
<Piece  NumberOfPoints="1933" NumberOfCells="3640">
<Points>
<DataArray  type="Float64"  NumberOfComponents="3"  format="ascii">0.2940399858314837 -0.001741928330642395 0  5.294040039016967 -0.00170667276336586 0  5.293987160529738 7.49829346387058 0  0.2939870801305744 7.498258163019837 0  10.29404012276915 -0.001671526609174366 0  10.29398729738642 7.498328621304279 0  15.29404029540918 -0.001636505123673232 0  15.29398751615973 7.498363642600227 0  20.29404061179556 -0.001601581575641074 0  20.29398783951134 7.498398562677949 0  25.29404111766347 -0.001566706155297547 0  25.29398828748095 7.498433434412211 0  30.2940418494761 -0.001531815418186336 0  30.29398887679576 7.498468322331241 0  35.29404283590543 -0.001496836877014305 0  35.29398962035878 7.498503299219676 0  40.29404409953847 -0.001461690861737203 0  40.29399052695851 7.498538444741285 0  45.29404565832985 -0.00142629072357629 0  45.29399160105261 7.498573845431897 0  50.29404752666428 -0.001390541938475294 0  50.29399284246687 7.498609595670979 0  55.29404971600948 -0.001354340374970899 0  55.29399424588046 7.49864579943295 0  60.29405223515807 -0.001317569811850436 0  60.29399579997738 7.498682572758414 0  65.29405509004154 -0.001280098663847925 0  65.2939974861313 7.498720046992752 0  70.29405828304577 -0.001241775764899077 0  70.29399927646305 7.498758372934795 0  75.29406181169406 -0.001202424943909137 0  75.29400113104556 7.498797726137393 0  80.29406566644536 -0.001161837985406774 0  80.29400299393792 7.498838313719876 0  85.29406982718218 -0.001119765371231275 0  85.29400478760617 7.498880383201949 0  90.29407425765511 -0.001075903915011362 0  90.29400640509476 7.498924234063569 0  95.29407889663851 -0.001029879979399855 0  95.29400769907954 7.498970232980732 0  100.2940836436153 -0.0009812263369518262 0  100.2940084666622 7.499018833968443 0  105.2940883351485 -0.0009293498069333419 0  105.2940084285105 7.499070604909265 0  110.2940927049974 -0.0008734854724766483 0  110.2940072009866 7.499126261938156 0  115.2940963153341 -0.0008126315191661652 0  115.2940042607813 7.499186712337278 0  120.2940984356548 -0.0007454568020577476 0  120.2939989047037 7.499253103628437 0  125.2940978257236 -0.0006701724377607687 0  125.2939902159157 7.499326868420439 0  130.2940923404883 -0.0005843636047398813 0  130.2939770690908 7.499409734806547 0  135.2940782018425 -0.0004848036349428898 0  135.2939582562138 7.499503628141375 0  140.2940486411339 -0.0003673735170591034 0  140.293932925592 7.499610303577674 0  145.2939913311797 -0.0002276006317733002 0  145.2939017766694 7.499730430550727 0  150.2938833650384 -6.397975985668809e-05 0  150.2938700544128 7.499862006063538 0  160.2938926261449 7.966314185799667e-19 0  165.2938292959908 -0.0001280290275152966 0  165.293882929604 7.499847012544807 0  160.2938949751629 7.499941939643912 0  170.2938099586436 -0.0002161727670553054 0  170.2938704030012 7.499771533244398 0  175.2938112421031 -0.0002763578536586963 0  175.2938626747203 7.499717173073384 0  180.2938219144428 -0.0003159299854245555 0  180.2938598645705 7.499680557398367 0  185.2938364215067 -0.0003400947365161636 0  185.2938608430768 7.499657969456464 0  190.293852005688 -0.0003526397909653739 0  190.2938643947029 7.499646290395567 0  195.2938673194496 -0.0003563325742292397 0  195.2938695302813 7.499643084039933 0  200.293881733525 -0.0003532051717484813 0  200.2938755252723 7.499646490361318 0  205.2938949853131 -0.000344763266631032 0  205.2938818778831 7.499655095412678 0  210.293906998159 -0.0003321361086897928 0  210.2938882535599 7.499667819793508 0  215.2939177877428 -0.0003161823899604592 0  215.2938944365908 7.499683832390888 0  220.2939274133415 -0.0002975645401617848 0  220.2939002931785 7.499702486331207 0  225.293935952441 -0.0002768009871616891 0  225.2939057449245 7.499723272152662 0  230.2939434876187 -0.000254303219998149 0  230.2939107504021 7.499745783660687 0  235.2939500999473 -0.0002304023854208168 0  235.2939152925945 7.499769692921728 0  240.2939558658965 -0.0002053686365318464 0  240.2939193704341 7.499794731796049 0  245.2939608561423 -0.0001794254103944876 0  245.2939229931782 7.499820678159508 0  250.2939651354302 -0.0001527601072346358 0  250.2939261767219 7.499847345515016 0  255.2939687630456 -0.000125532169365853 0  255.2939289412494 7.499874575089144 0  260.2939717936529 -9.78792344505699e-05 0  260.2939313098001 7.499902229789583 0  265.2939742784042 -6.99218101253182e-05 0  265.2939333074783 7.499930189602659 0  270.2939762662587 -4.176674627858628e-05 0  270.2939349611065 7.499958348165473 0  275.2939778055212 -1.350963782539697e-05 0  275.2939362991751 7.499986610375779 0  280.2939789456066 1.476385162208112e-05 0  280.2939373519717 7.500014891024226 0  285.2939797390162 4.297792434601469e-05 0  285.2939381517762 7.500043114563324 0  290.2939802434253 7.106825375500906e-05 0  290.2939387329881 7.500071216279367 0  295.2939805235975 9.898601884913592e-05 0  295.2939391321008 7.500099145315 0  300.2939806523154 0.0001267056430931954 0  300.2939393874793 7.500126870194388 0  305.2939807085244 0.0001542381940975359 0  305.2939395393113 7.500154387704138 0  310.2939807684603 0.0001816527495511833 0  310.2939396311368 7.500181736264379 0  5.293933991874969 14.99829375769417 0  0.2939339096821633 14.99825838311125 0  10.29393411209582 14.99832891821237 0  15.29393428835026 14.99836391730872 0  20.29393452997419 14.99839880930046 0  25.29393484219925 14.99843365457913 0  30.29393522749492 14.99846851994308 0  35.29393568558454 14.99850347820816 0  40.29393621295622 14.9985386081502 0  45.29393680216564 14.99857399503564 0  50.29393744099755 14.99860973176026 0  55.29393811145788 14.99864592057732 0  60.29393878852726 14.99868267542364 0  65.29393943859066 14.99872012489783 0  70.29394001744264 14.99875841599549 0  75.29394046776792 14.99879771875899 0  80.29394071599604 14.99883823204883 0  85.29394066846568 14.99888019068227 0  90.29394020691761 14.99892387419302 0  95.29393918354938 14.99896961739007 0  100.2939374162756 14.99901782263553 0  105.2939346856925 14.99906897310461 0  110.2939307367723 14.99912364482795 0  115.2939252910772 14.9991825122591 0  120.293918079876 14.99924633601611 0  125.2939089157212 14.99931590978195 0  130.2938978297759 14.99939192193173 0  135.2938853117269 14.99947465000199 0  140.2938726868539 14.99956334384931 0  145.2938626139978 14.99965504851377 0  150.2938594777686 14.99974237209132 0  165.2938915591829 14.99977795713283 0  160.2938894920765 14.99982517365894 0  170.2938869863044 14.99973246361425 0  175.2938804537278 14.99969526622834 0  180.293874541946 14.9996682801321 0  185.2938702448695 14.99965109579408 0  190.2938677229508 14.99964246892897 0  195.2938667731764 14.99964100160279 0  200.2938670737956 14.99964540742905 0  205.2938682982247 14.99965459098458 0  210.2938701607167 14.99966765128228 0  215.2938724290336 14.99968385828315 0  220.2938749225731 14.99970262315269 0  225.2938775051012 14.99972347027334 0  230.293880076339 14.9997460135272 0  235.2938825642103 14.99976993712064 0  240.2938849183335 14.99979498042001 0  245.2938871048363 14.99982092607318 0  250.2938891023511 14.99984759073407 0  255.2938908989771 14.99987481782227 0  260.2938924900155 14.99990247188016 0  265.2938938762804 14.99993043420319 0  270.2938950628537 14.99995859952087 0  275.293896058148 14.9999868735895 0  280.2938968731862 15.00001517162987 0  285.2938975210621 15.00004341759995 0  290.2938980165524 15.00007154432164 0  295.293898376049 15.0000994944451 0  300.2938986181057 15.00012722205701 0  305.2938987653564 15.00015469423425 0  310.2938988491392 15.0001818906043 0  5.293880624577181 22.4982943018476 0  0.2938805468118649 22.49825891338748 0  10.29388071649803 22.49832942573643 0  15.29388083095856 22.49836436667162 0  20.29388096960776 22.49839919572119 0  25.29388112973751 22.49843398108288 0  30.2938813056061 22.49846879203035 0  35.29388148880795 22.49850370094357 0  40.2938816680478 22.49853878460348 0  45.29388182858041 22.49857412536183 0  50.29388195146047 22.49860981247396 0  55.29388201266335 22.49864594372849 0  60.29388198210131 22.49868262744408 0  65.29388182254625 22.49871998488285 0  70.29388148848547 22.4987581531209 0  75.29388092497797 22.49879728840465 0  80.29388006665336 22.49883756998583 0  85.29387883712376 22.4988792043467 0  90.29387714929281 22.49892242955731 0  95.29387490738334 22.49896751918102 0  100.293872012022 22.49901478454171 0  105.2938683704874 22.49906457309756 0  110.2938639152793 22.49911725881701 0  115.2938586354604 22.49917321737866 0  120.2938526264323 22.49923277412956 0  125.2938461640367 22.49929610549858 0  130.2938398058924 22.49936306512527 0  135.293834512171 22.49943289705136 0  140.2938317512397 22.49950380016095 0  145.2938335002944 22.49957235203838 0  150.2938419573057 22.49963298549466 0  165.2938751639749 22.49969959507612 0  160.2938680333377 22.49971509311874 0  170.293876147121 22.49967969667008 0  175.2938732986717 22.49966093022271 0  180.2938686889761 22.49964637950466 0  185.2938637312896 22.49963731066884 0  190.2938592214999 22.49963389429301 0  195.2938555202271 22.49963574773308 0  200.2938527236531 22.49964226403946 0  205.2938507854302 22.4996527876134 0  210.2938495933582 22.49966669779494 0  215.2938490136341 22.49968344220158 0  220.293848914338 22.49970254463339 0  225.2938491765273 22.49972360120459 0  230.2938496983603 22.4997462718237 0  235.2938503955457 22.49977027052727 0  240.2938512000275 22.49979535626276 0  245.2938520579685 22.49982132474197 0  250.2938529275803 22.49984800152131 0  255.2938537770812 22.49987523625645 0  260.2938545828678 22.49990289800418 0  265.2938553279529 22.49993087143008 0  270.2938560006358 22.49995905379243 0  275.2938565933953 22.49998735259184 0  280.2938571019944 22.50001568378666 0  285.2938575248083 22.50004397046144 0  290.2938578624534 22.50007214177818 0  295.293858117881 22.5
[...]
<PointData  Scalars="p"> 
<DataArray  type="Float64"  Name="p"  format="ascii">1.0000000000000001e-01  1.0000000000000003e-01  9.9997412525872784e-02  1.0000000000000003e-01  1.0000000000000003e-01  9.9996295507334354e-02  1.0000000000000003e-01  9.9994408470291438e-02  1.0000000000000003e-01  9.9993141621518816e-02  1.0000000000000003e-01  9.9991724140418223e-02  1.0000000000000003e-01  9.9989897433395453e-02  1.0000000000000003e-01  9.9988716137692141e-02  1.0000000000000003e-01  9.9987460685222462e-02  1.0000000000000003e-01  9.9985446147241822e-02  1.0000000000000003e-01  9.9984201700520428e-02  1.0000000000000003e-01  9.9981006044209439e-02  1.0000000000000003e-01  9.9977624190341396e-02  1.0000000000000003e-01  9.9975112905371477e-02  1.0000000000000003e-01  9.9972657152979025e-02  1.0000000000000003e-01  9.9969069909021907e-02  1.0000000000000003e-01  9.9967288539035470e-02  1.0000000000000003e-01  9.9965120548986458e-02  1.0000000000000003e-01  9.9961603715218131e-02  1.0000000000000003e-01  9.9960972733914508e-02  1.0000000000000003e-01  9.9958422747385811e-02  1.0000000000000003e-01  9.9957169987280603e-02  1.0000000000000003e-01  9.9954809722378177e-02  1.0000000000000003e-01  9.9957331264309432e-02  1.0000000000000003e-01  9.9949965078948586e-02  1.0000000000000003e-01  9.9960018154424998e-02  1.0000000000000003e-01  9.9944218639877055e-02  1.0000000000000003e-01  9.9966248388763640e-02  1.0000000000000003e-01  9.9934706687073410e-02  1.0000000000000003e-01  9.9976142406943774e-02  1.0000000000000001e-01  9.9915575883217797e-02  1.0000000000000001e-01  1.0000000000000003e-01  1.0010158867366907e-01  1.0017172814677687e-01  1.0000000000000003e-01  1.0004470398388050e-01  1.0000000000000003e-01  1.0008289062920817e-01  1.0000000000000003e-01  1.0006557287344764e-01  1.0000000000000003e-01  1.0007245494062213e-01  1.0000000000000003e-01  1.0006839936958700e-01  1.0000000000000003e-01  1.0007238186461828e-01  1.0000000000000003e-01  1.0006903441013540e-01  1.0000000000000003e-01  1.0007042180763692e-01  1.0000000000000003e-01  1.0006981417045539e-01  1.0000000000000003e-01  1.0006909713015411e-01  1.0000000000000003e-01  1.0006850326861101e-01  1.0000000000000003e-01  1.0006823613051122e-01  1.0000000000000003e-01  1.0006712246754527e-01  1.0000000000000003e-01  1.0006656760136561e-01  1.0000000000000003e-01  1.0006593285551078e-01  1.0000000000000003e-01  1.0006510722099683e-01  1.0000000000000003e-01  1.0006432800744119e-01  1.0000000000000003e-01  1.0006393225139011e-01  1.0000000000000003e-01  1.0006280754201728e-01  1.0000000000000003e-01  1.0006277727894081e-01  1.0000000000000003e-01  1.0006120075618660e-01  1.0000000000000003e-01  1.0006225996875834e-01  1.0000000000000003e-01  1.0005872364296588e-01  1.0000000000000003e-01  1.0006341608044288e-01  1.0000000000000003e-01  1.0005399858076233e-01  1.0000000000000003e-01  1.0006847551290457e-01  1.0000000000000003e-01  1.0004323528968447e-01  1.0000000000000003e-01  1.0008675111189555e-01  1.0000000000000001e-01  1.0000000000000003e-01  9.9996495994717091e-02  1.0000000000000003e-01  9.9996101518198099e-02  9.9995752946353988e-02  9.9995209113513936e-02  9.9994087641616616e-02  9.9994071943176457e-02  9.9994002700315360e-02  9.9992525119646014e-02  9.9992970716781357e-02  9.9992559567525702e-02  9.9990135487332502e-02  9.9987724104214706e-02  9.9987104348852482e-02  9.9983591556002741e-02  9.9984670177062931e-02  9.9984099970091098e-02  9.9981259152507787e-02  9.9982604690083327e-02  9.9982762090997546e-02  9.9979121984866026e-02  9.9982653508175839e-02  9.9980613167000354e-02  9.9981728624855756e-02  9.9978819943589994e-02  9.9988146162601835e-02  9.9970320422172215e-02  1.0000099092936700e-01  9.9950031806221848e-02  1.0002751205969339e-01  9.9913573062526836e-02  9.9940080733415301e-02  1.0028778488430813e-01  1.0006802226033265e-01  1.0001674527485389e-01  1.0002315351360881e-01  1.0001881241553685e-01  1.0002951900145703e-01  1.0002087317514474e-01  1.0002606678060062e-01  1.0002646252855207e-01  1.0002533221275704e-01  1.0002561950472337e-01  1.0002661673172958e-01  1.0002506743502944e-01  1.0002515448969777e-01  1.0002528113311819e-01  1.0002430860374416e-01  1.0002417817282876e-01  1.0002408995230019e-01  1.0002358117453675e-01  1.0002313958133209e-01  1.0002352329038976e-01  1.0002226986173902e-01  1.0002348272195878e-01  1.0002110142939802e-01  1.0002472602317743e-01  1.0001768933839535e-01  1.0003016051292961e-01  1.0000842834702645e-01  1.0004205988283049e-01  1.0000000000000003e-01  9.9995190328986780e-02  1.0000000000000003e-01  9.9996346065420710e-02  9.9994409304968640e-02  9.9993155316160681e-02  9.9992628907824121e-02  9.9992562907269489e-02  9.9990323864321246e-02  9.9990747869512023e-02  9.9990967568370975e-02  9.9988062026864416e-02  9.9987782699324859e-02  9.9987765598275560e-02  9.9979481285481925e-02  9.9980213989620439e-02  9.9979043024352496e-02  9.9973901866125967e-02  9.9976381788616897e-02  9.9975826601129553e-02  9.9970774260006001e-02  9.9973829444255410e-02  9.9974711376234565e-02  9.9967950994184332e-02  9.9976026167206244e-02  9.9970196226885327e-02  9.9976426907884650e-02  9.9964927781180671e-02  9.9990765288840572e-02  9.9940064035321838e-02  1.0003081175870994e-01  9.9862456058120774e-02  9.9930006294643742e-02  1.0030352225930708e-01  1.0014084476187125e-01  1.0003382580097214e-01  1.0003579279860672e-01  1.0006059133171910e-01  1.0003504092777886e-01  1.0004950635381177e-01  1.0004962731402840e-01  1.0004706423034725e-01  1.0004816557747018e-01  1.0005093501992311e-01  1.0004771382773048e-01  1.0004852654666528e-01  1.0004903842675669e-01  1.0004715909093377e-01  1.0004695780350624e-01  1.0004719173675664e-01  1.0004577526641530e-01  1.0004568707629236e-01  1.0004542240250837e-01  1.0004495503930841e-01  1.0004402295268747e-01  1.0004516203112851e-01  1.0004242224077854e-01  1.0004587291455341e-01  1.0003982152311580e-01  1.0004964773606688e-01  1.0003097243124651e-01  1.0006655623885802e-01  1.0000000000000003e-01  9.9994457413708007e-02  1.0000000000000003e-01  9.9996267235098912e-02  9.9993678639913486e-02  9.9993672275686021e-02  9.9993675689300468e-02  9.9991502595028883e-02  9.9992168911993320e-02  9.9992860777105452e-02  9.9990207209301685e-02  9.9991441372384623e-02  9.9991935624804143e-02  9.9986517294765709e-02  9.9989012481115497e-02  9.9984520136239416e-02  9.9978842613790295e-02  9.9980999793653866e-02  9.9981702282052415e-02  9.9975611454232491e-02  9.9980814737128082e-02  9.9980453437234801e-02  9.9976019236987179e-02  9.9979732593415235e-02  9.9984286066693628e-02  9.9972533973222116e-02  9.9991342225984214e-02  9.9969576352226225e-02  1.0000375420619982e-01  9.9943049339207418e-02  1.0005147522263380e-01  9.9851654411192148e-02  9.9914502539435457e-02  1.0036343323758296e-01  1.0010214701081138e-01  1.0000233174281432e-01  1.0008038753954283e-01  1.0000172884064845e-01  1.0003634367722379e-01  1.0003106855659741e-01  1.0003024658340534e-01  1.0003055873986083e-01  1.0003682351962154e-01  1.0003150214280149e-01  1.0003390468757044e-01  1.0003512937626301e-01  1.0003284710572527e-01  1.0003294960280884e-01  1.0003358902831971e-01  1.0003184151955867e-01  1.0003170526363030e-01  1.0003208764685083e-01  1.0003076693574775e-01  1.0003112511352587e-01  1.0003045746457645e-01  1.0003115485129409e-01  1.0002878642930760e-01  1.0003293096667969e-01  1.0002542872951678e-01  1.0003769108457855e-01  1.0001741720958629e-01  1.0005031254882106e-01  1.0000000000000003e-01  9.9993697995789430e-02  1.0000000000000003e-01  9.9995715873296948e-02  9.9993785836992657e-02  9.9994371308462365e-02  9.9991468884144202e-02  9.9992240996318815e-02  9.9992432355432648e-02  9.9989761621441894e-02  9.9991244691137668e-02  9.9992221200372072e-02  9.9987579335083690e-02  9.9989720595218087e-02  9.9989070571957869e-02  9.9984382322685639e-02  9.9981878836954918e-02  9.9981714320157844e-02  9.9973998869158642e-02  9.9979142139650923e-02  9.9980120558464808e-02  9.9972221072067227e-02  9.9980413157326364e-02  9.9979144817026036e-02  9.9976009648377717e-02  9.9977489151218776e-02  9.9990303957815121e-02  9.9963399862434812e-02  1.0000954122010038e-01  9.9936333680492886e-02  1.0006275193685682e-01  9.9824044519946128e-02  9.9859188860493150e-02  1.0041900159353191e-01  1.0012106793213488e-01  1.0002622425365465e-01  1.0005893668434361e-01  1.0004254959378232e-01  1.0003706789303041e-01  1.0003626664377302e-01  1.0003164563719909e-01  1.0004591151163329e-01  1.0003551960140182e-01  1.0004048934173934e-01  1.0004275123593136e-01  1.0003967699468144e-01  1.0004016149386052e-01  1.0004186311135213e-01  1.0003907127023041e-01  1.0003918972411938e-01  1.0003961888414405e-01  1.0003809520086120e-01  1.0003777455314528e-01  1.0003844769076425e-01  1.0003679197947674e-01  1.0003792450451511e-01  1.0003609640464851e-01  1.0003890571733100e-01  1.0003316433367697e-01  1.0004360321264354e-01  1.0002459323519149e-01  1.0005848696931248e-01  1.0000000000000003e-01  9.9992779774489171e-02  1.0000000000000003e-01  9.9995843579889290e-02  9.9994068649245302e-02  9.9993004422296874e-02  9.9992733908022463e-02  9.9993105832367493e-02  9.9990304158176543e-02  9.9991363857305407e-02  9.9992829936652289e-02  9.9988849820303011e-02  9.9990808064738604e-02  9.9991729732565093e-02  9.9986115461366168e-02  9.9988273719414419e-02  9.9991215197993713e-02  9.9976550655268462e-02  9.9981615442729849e-02  9.9981502705024483e-02  9.9973248746689655e-02  9.9980687616923927e-02  9.9983463420208057e-02  9.9971867460851030e-02  9.9986383751870828e-02  9.9980164346484379e-02  9.9985667299395328e-02  9.9971387126636557e-02  1.0001636044552244e-01  9.9927447363942684e-02  1.0008435246463222e-01  9.9799995623538251e-02  9.9846004936988364e-02  1.0042079267067670e-01  1.0014440585626976e-01  9.9981691778197712e-02  1.0005668524843901e-01  1.0004433295255009e-01  1.0004839855235059e-01  1.0001220060188976e-01  1.0004621901746259e-01  1.0002290078896889e-01  1.0003431512743945e-01  1.0003671949779655e-01  1.0003314197592869e-01  1.0003385959480503e-01  1.0003747288296244e-01  1.0003348697020926e-01  1.0003422202660141e-01  1.0003531332279511e-01  1.0003281843750857e-01  1.0003290867392840e-01  1.0003328035731729e-01  1.0003220725222862e-01  1.0003155120243852e-01  1.0003311620444304e-01  1.0003021865510117e-01  1.0003402426411831e-01  1.0002792820839161e-01  1.0003838130995094e-01  1.0001999468821943e-01  1.0005186664400173e-01  1.0000000000000003e-01  9.9992266192538898e-02  1.0000000000000003e-01  9.9996075291690856e-02  9.9992637420413782e-02  9.9993731848525488e-02  9.9993467596295460e-02  9.9991119040616319e-02  9.9991319722691582e-02  9.9992790092895384e-02  9.9988779479174006e-02  9.9990867159577251e-02  9.9992313845690420e-02  9.9986481999322557e-02  9.9989371342865827e-02  9.9991836967579489e-02  9.9982742741219377e-02  9.9989857234583021e-02  9.9983829618444861e-02  9.9973261789000623e-02  9.9980275983609326e-02  9.9981552886223832e-02  9.9972272601473469e-02  9.9981052457689040e-02  9.9986867880168348e-02  9.9969126900163241e-02  9.9995233940658484e-02  9.9971150165429234e-02  1.0000962406744028e-01  9.9930542294464186e-02  1.0009524295319687e-01  9.9771350663522260e-02  9.9848269126424707e-02  1.0044913583458281e-01  1.0012503659850484e-01  9.9981400508101920e-02  1.0007339483755154e-01  1.0002423244046738e-01  1.0004456680980130e-01  1.0005768407637539e-01  1.0001785509432370e-01  1.0003643144253091e-01  1.0003540842987040e-01  1.0003441894082114e-01  1.0003356469358186e-01  1.0004006879708648e-01  1.0003451320368335e-01  1.0003620198670375e-01  1.0003797944579194e-01  1.0003520486021313e-01  1.0003508840773308e-01  1.0003612860743391e-01  1.0003385669414389e-01  1.0003421727319167e-01  1.0003406049828432e-01  1.0003408665405442e-01  1.0003229801639812e-01  1.0003587919136323e-01  1.0002970912836201e-01  1.0003999350017188e-01  1.0002222193117666e-01  1.0005374185920461e-01  1.0000000000000003e-01  9.9991902511126593e-02  1.0000000000000003e-01  9.9995318962938395e-02  9.9992905150100717e-02  9.9994360179170363e-02  9.9991629697363707e-02  9.9992334005765710e-02  9.9993081392071234e-02  9.9989349275928327e-02  9.9991087220219224e-02  9.9992551067439234e-02  9.9987205263735501e-02  9.9989901370665782e-02  9.9991964032655992e-02  9.9984451890072226e-02  9.9990328477794127e-02  9.9990873372433675e-02  9.9983734768901891e-02  9.9982251317357190e-02  9.9983703052172551e-02  9.9969993554284542e-02  9.9982642522603554e-02  9.9982492901601522e-02  9.9974496077303035e-02  9.9980663987416882e-02  9.9997426270057976e-02  9.9958576772874910e-02  1.0002270849777445e-01  9.9927213229183631e-02  1.0009784485180875e-01  9.9757272467562844e-02  9.9815143588493790e-02  1.0048134397456857e-01  1.0013205874043161e-01  9.9990137498488438e-02  1.0005012960128844e-01  1.0001643055938553e-01  1.0005568157144588e-01  1.0003347021822030e-01  1.0004675097075730e-01  1.0002548364909572e-01  1.0003405175205922e-01  1.0002540316282453e-01  1.0003902627984419e-01  1.0002987319028601e-01  1.0003321547118686e-01  1.0003587330519964e-01  1.0003262339965219e-01  1.0003285159368359e-01  1.0003473474566217e-01  1.0003197332952676e-01  1.0003177534438577e-01  1.0003286455884323e-01  1.0003062329847565e-01  1.0003178379552005e-01  1.0003037831131699e-01  1.0003292831049387e-01  1.0002747760587649e-01  1.0003765415397840e-01  1.0002009939478909e-01  1.0005055109389668e-01  1.0000000000000003e-01  9.9991224978256674e-02  1.0000000000000003e-01  9.9995495048521482e-02  9.9993268259809531e-02  9.9992875162375733e-02  9.9992373993604541e-02  9.9993687533016032e-02  9.9990249689454386e-02  9.9991427922331899e-02  9.9992748433266554e-02  9.9988149228245324e-02  9.9989798286710591e-02  9.9992052760723107e-02  9.9985045119706947e-02  9.9989411422157337e-02  9.9992333643071460e-02  9.9983754136641068e-02  9.9989185838026684e-02  9.9994716757276059e-02  9.9972560386300452e-02  9.9981730416566203e-02  9.9983934432549756e-02  9.9967682190353097e-02  9.9986781551006113e-02  9.9982143904684434e-02  9.9981393613136529e-02  9.9971268619604869e-02  1.0002513250726422e-01  9.9910630423553887e-02  1.0011573246396821e-01  9.9740389581900374e-02  9.9806883767674645e-02  1.0048033440809992e-01  1.0014924675050223e-01  9.9968034409492076e-02  1.0005127113271046e-01  1.0002864407754206e-01  1.0003531634046703e-01  1.0003241846437266e-01  1.0005122592938040e-01  1.0004402614496256e-01  1.0001786038841544e-01  1.0004213001589989e-01  1.0002521544568581e-01  1.0003281173192190e-01  1.0003531248406347e-01  1.0003213525974960e-01  1.0003210392000782e-01  1.0003565063938295e-01  1.0003193634910684e-01  1.0003251035120332e-01  1.0003347048241577e-01  1.0003151195049005e-01  1.0003088616644745e-01  1.0003260827663367e-01  1.0002963662903488e-01  1.0003292717114513e-01  1.0002800333101453e-01  1.0003706662253163e-01  1.0002059579009114e-01  1.0005025535700082e-01  1.0000000000000003e-01  9.9990975006548341e-02  1.0000000000000003e-01  9.9995750584964613e-02  9.9991917787823348e-02  9.9993388353080970e-02  9.9993285827747178e-02  9.9991186109257363e-02  9.9991664022976046e-02  9.9993185019122230e-02  9.9989056075205113e-02  9.9990323215161242e-02  9.9992403710044919e-02  9.9985557960130200e-02  9.9988772702442150e-02  9.9992166931420573e-02  9.9983646087616090e-02  9.9989438849943282e-02  9.9994679997745695e-02  9.9980383874501116e-02  9.9993510117532131e-02  9.9985428434403764e-02  9.9970082452292372e-02  9.9980825926332617e-02  9.9988126729694538e-02  9.9963873393421082e-02  9.9996858877350367e-02  9.9972672839270860e-02  1.0000768064522245e-01  9.9922900687500635e-02  1.0012205333312692e-01  9.9713436936239380e-02  9.9810344541956475e-02  1.0048843151957026e-01  1.0013623108257472e-01  9.9964925683044090e-02  1.0006371788125117e-01  1.0000944793875652e-01  1.0003280068029967e-01  1.0003795656236990e-01  1.0003680350002422e-01  1.0003594761887845e-01  1.0005320373828359e-01  1.0001657535515864e-01  1.0003305423071437e-01  1.0003039277856370e-01  1.0003071172467036e-01  1.0002883781862837e-01  1.0003456629597909e-01  1.0002990069141152e-01  1.0003089783552364e-01  1.0003290280056228e-01  1.0003025919311076e-01  1.0003042249272423e-01  1.0003080597179206e-01  1.0003006824621992e-01  1.0002842639387759e-01  1.0003196700400767e-01  1.0002615467071913e-01  1.0003550865542542e-01  1.0001968688054012e-01  1.0004801399667988e-01  1.0000000000000003e-01  9.9990806054451542e-02  1.0000000000000003e-01  9.9995085857841184e-02  9.9992132961645899e-02  9.9994061937542331e-02  9.9991338018044121e-02  9.9992191502783115e-02  9.9993075302007420e-02  9.9989930138540101e-02  9.9990979007734002e-02  9.9992956416359677e-02  9.9986844191973803e-02  9.9989000348037538e-02  9.9991482959559022e-02  9.9983752495209272e-02  9.9988792431505616e-02  9.9993183809705996e-02  9.9982085591272626e-02  9.9991724185793204e-02  9.9994163778525755e-02  9.9981932292470946e-02  9.9984349597696948e-02  9.9984906291608430e-02  9.9968144364899328e-02  9.9980870357741988e-02  9.9997552110632743e-02  9.9951454117828339e-02  1.0002409045797840e-01  9.9924989702772138e-02  1.0010412643758798e-01  9.9720651071851546e-02  9.9794056197165748e-02  1.0050005684015213e-01  1.0013679675468061e-01  9.9973807043334820e-02  1.0004993121484801e-01  1.0000786454528410e-01  1.0004321145892404e-01  1.0002361089211571e-01  1.0003113740079250e-01  1.0004410838399487e-01  1.0003712707307927e-01  1.0004250718090874e-01  1.0002447816039521e-01  1.0003192093580744e-01  1.0002395862269824e-01  1.0003488056695545e-01  1.0002768078682481e-01  1.0002986700704695e-01  1.0003225841743961e-01  1.0002973993630768e-01  1.0002961585546367e-01  1.0003177794095214e-01  1.0002885914646395e-01  1.0002976428310144e-01  1.0002886655006343e-01  1.0003054518020198e-01  1.0002580331908674e-01  1.0003497999400314e-01  1.0001924174597493e-01  1.0004683395465373e-01  1.0000000000000003e-01  9.9990316649498992e-02  1.0000000000000003e-01  9.9995192068224256e-02  9.9992510345620567e-02  9.9992605145009197e-02  9.9991862585079500e-02  9.9993357431639465e-02  9.9990288644657421e-02  9.9991228806554130e-02  9.9993092614048804e-02  9.9988421018943854e-02  9.9989629189197488e-02  9.9991752251344990e-02  9.9984625553746598e-02  9.9987591933754630e-02  9.9992156624759493e-02  9.9982316144148986e-02  9.9989409905509696e-02  9.9994605780798496e-02  9.9981942718239972e-02  9.9990515439099675e-02  1.0000063081340872e-01  9.9966520596606073e-02  9.9986994687236125e-02  9.9982489019002099e-02  9.9972759275789760e-02  9.9972432942015466e-02  1.0002505934546581e-01  9.9901428842011253e-02  1.0012061681423218e-01  9.9722508194346721e-02  9.9790227199180140e-02  1.0048457495740207e-01  1.0014624399396242e-01  9.9960716040872255e-02  1.0004824916744806e-01  1.0001749615845959e-01  1.0003062642638166e-01  1.0002031720046221e-01  1.0003941882525752e-01  1.0002878305821328e-01  1.0003425348652459e-01  1.0004350189144168e-01  1.0004150965944400e-01  1.0001644412147385e-01  1.0003654165005728e-01  1.0002280490939423e-01  1.0002855168150877e-01  1.0003047499188586e-01  1.0002812844433871e-01  1.0002791832788184e-01  1.0003082785971605e-01  1.0002836494918124e-01  1.0002820333706047e-01  1.0003011139111302e-01  1.0002686227963509e-01  1.0002956241063425e-01  1.0002547217490237e-01  1.0003314362099841e-01  1.0001857057962565e-01  1.0004503123768159e-01  1.0000000000000003e-01  9.9990116463039999e-02  1.0000000000000003e-01  9.9995376513339757e-02  9.9991269505773570e-02  9.9992895534934928e-02  9.9992565233038733e-02  9.9990956247392945e-02  9.9991112255734760e-02  9.9992782553641718e-02  9.9989072596157053e-02  9.9990209704477098e-02  9.9992147161520897e-02  9.9985936386139937e-02  9.9987501325726591e-02  9.9991321807364711e-02  9.9982404570494066e-02  9.9987185091867423e-02  9.9993420148154780e-02  9.9980908152216136e-02  9.9989845736093277e-02  9.9997861933930357e-02  9.9977565881789146e-02  9.9995926469382421e-02  9.9991041808894593e-02  9