<?xml version="1.0"?>
<VTKFile type="UnstructuredGrid"  version="0.1"  >
<UnstructuredGrid>
<Piece  NumberOfPoints="1933" NumberOfCells="3640">
<Points>
<DataArray  type="Float64"  NumberOfComponents="3"  format="ascii">-0.2940082353825288 0.0008790300124547454 0  4.705991764265111 0.0008470468138538055 0  4.70603976283227 7.500847060672098 0  -0.2939602469353591 7.500879025430813 0  9.705991757464068 0.0008150428825585011 0  9.706039785497023 7.500815065133494 0  14.70599175525195 0.0007829918612311051 0  14.70603982993676 7.500783017957064 0  19.70599177365476 0.000750879740012285 0  19.70603990581155 7.500750907617725 0  24.70599183007518 0.000718700735742436 0  24.70604002370992 7.500718729570036 0  29.70599194193315 0.0006864545978155256 0  29.70604019497384 7.500686484209319 0  34.70599212636466 0.0006541448484831629 0  34.70604043157432 7.500654175408248 0  39.70599240041917 0.0006217776808795811 0  39.70604074611062 7.500621809563749 0  44.70599278148983 0.0005893613291748295 0  44.70604115192422 7.500589395046237 0  49.70599328785624 0.0005569057862253161 0  49.70604166330081 7.500556941961303 0  54.70599393929137 0.0005244227899788175 0  54.70604229573687 7.500524462162732 0  59.70599475772173 0.0004919260351503784 0  59.70604306625404 7.500491969482624 0  64.70599576795107 0.0004594315949297093 0  64.70604399374966 7.50045948016899 0  69.70599699846865 0.0004269585622107803 0  69.7060450993757 7.500427013543845 0  74.70599848237551 0.0003945299446147858 0  74.70604640693867 7.500394592919037 0  79.70600025846876 0.0003621738763943509 0  79.70604794330669 7.500362246835425 0  84.70600237253825 0.0003299252483311397 0  84.70604973880478 7.50033001072909 0  89.7060048789408 0.000297827911602984 0  89.70605182755537 7.500297929182 0  94.70600784253661 0.0002659376956510633 0  94.70605424769508 7.500266058994634 0  99.70601134108506 0.0002343266144136714 0  99.70605704134201 7.500234473440708 0  104.7060154682059 0.0002030888571669375 0  104.7060602541023 7.500203268254425 0  109.7060203369872 0.0001723495373640847 0  109.7060639337671 7.500172570197483 0  114.7060260842035 0.0001422778315320114 0  114.7060681276525 7.500142549514511 0  119.7060328747713 0.0001131073226286246 0  119.7060728777644 7.500113438288029 0  124.7060409051837 8.516854940210735e-05 0  124.7060782127282 7.500085557726754 0  129.7060504025202 5.894295611697596e-05 0  129.7060841355087 7.500059358765002 0  134.7060616105509 3.515583984286032e-05 0  134.7060906074087 7.500035481676324 0  139.7060747426177 1.49436571721693e-05 0  139.7060975347001 7.500014840285271 0  144.7060898532787 1.706387702417588e-07 0  144.7061047833258 7.499998730554642 0  149.7061065139438 -5.940550270914006e-06 0  149.7061123057389 7.499988943091876 0  159.7061073738538 3.51538783520898e-19 0  164.7060656572973 -4.757515394988485e-05 0  164.7060993992354 7.499946474299414 0  159.7061128499643 7.499984688648821 0  169.7060389897055 -9.311866071592876e-05 0  169.7060855638231 7.499903910821097 0  174.7060210910581 -0.0001372617120373011 0  174.7060735055174 7.499861041949867 0  179.7060086489764 -0.0001800416006858388 0  179.7060635679133 7.499818921492706 0  184.7059997664499 -0.0002215486655125791 0  184.7060555709521 7.499777789806878 0  189.7059932997835 -0.0002619267810747561 0  189.706049207336 7.49973763635175 0  194.7059885301522 -0.0003013285160313577 0  194.7060441722755 7.499698373889101 0  199.7059849878421 -0.0003398925966565631 0  199.7060402023857 7.499659898942198 0  204.705982354282 -0.000377737483838574 0  204.7060370819925 7.49962211293583 0  209.7059804058067 -0.0004149620343125809 0  209.7060346384237 7.499584928522472 0  214.7059789804723 -0.0004516484356805747 0  214.7060327345255 7.499548270316946 0  219.7059779578919 -0.0004878654023737565 0  219.7060312614123 7.49951207371282 0  224.7059772465927 -0.0005236709506724697 0  224.7060301323598 7.499476283233554 0  229.7059767758261 -0.0005591146168332664 0  229.7060292779497 7.499440850953436 0  234.7059764900855 -0.0005942391742755853 0  234.7060286423061 7.49940573514792 0  239.7059763453202 -0.0006290819536468469 0  239.7060281802059 7.499370899188341 0  244.7059763062444 -0.0006636758656246175 0  244.7060278548632 7.499336310647109 0  249.7059763443746 -0.0006980502078867401 0  249.706027636224 7.499301940568937 0  254.7059764365692 -0.0007322313186074531 0  254.7060274996491 7.499267762866846 0  259.7059765639238 -0.0007662431231813065 0  259.7060274248909 7.499233753808605 0  264.7059767109312 -0.0008001076090731125 0  264.7060273952986 7.499199891566266 0  269.7059768648444 -0.0008338452548064605 0  269.7060273972037 7.499166155807826 0  274.7059770152139 -0.0008674754316252177 0  274.7060274194479 7.499132527316209 0  279.7059771535817 -0.0009010167878858123 0  279.706027453034 7.499098987628 0  284.7059772733442 -0.0009344876127025024 0  284.7060274908728 7.499065518695299 0  289.7059773698067 -0.0009679061484283598 0  289.7060275276123 7.499032102592532 0  294.7059774404844 -0.001001290762946521 0  294.7060275595292 7.498998721322081 0  299.7059774857164 -0.001034659759256642 0  299.706027584454 7.498965356825661 0  304.7059775096473 -0.001068030280530227 0  304.7060276017335 7.498931991382352 0  309.705977521523 -0.001101414948466721 0  309.7060276123164 7.498898608620743 0  4.70608767225468 15.00084710265873 0  -0.2939123409176234 15.00087901813953 0  9.706087702062028 15.00081513018646 0  14.70608775774176 15.00078309268749 0  19.70608784667657 15.0007509858868 0  24.70608797573871 15.00071880917264 0  29.70608815193176 15.00068656504087 0  34.70608838266476 15.00065425848575 0  39.70608867586566 15.00062189652246 0  44.7060890400363 15.00058948789931 0  49.7060894842936 15.00055704300605 0  54.70609001841017 15.0005245739707 0  59.70609065285091 15.00049209494073 0  64.706091398795 15.00045962255501 0  69.70609226812351 15.0004271766283 0  74.70609327334846 15.00039478108891 0  79.70609442744541 15.00036246523423 0  84.70609574354252 15.00033026539997 0  89.70609723439694 15.00029822718166 0  94.70609891156758 15.0002664084037 0  99.70610078416657 15.00023488310748 0  104.7061028570481 15.00020374692738 0  109.7061051282944 15.00017312433235 0  114.7061075859237 15.00014317829726 0  119.7061102039716 15.00011412292198 0  124.7061129386537 15.00008623904959 0  129.7061157265301 15.00005989131112 0  134.7061184889003 15.00003554038052 0  139.7061211504098 15.00001373173007 0  144.7061236836147 14.99999500848336 0  149.7061261848225 14.99997960013741 0  164.7061239794373 14.99993138921379 0  159.7061269872666 14.99996461206936 0  169.7061192828716 14.9998940156288 0  174.706113769141 14.99985466281412 0  179.7061082269304 14.99981475772711 0  184.7061030909913 14.99977501118985 0  189.7060985467831 14.99973573400994 0  194.7060946384727 14.99969703692983 0  199.7060913387012 14.99965893555338 0  204.706088588487 14.99962140282388 0  209.7060863185932 14.99958439468307 0  214.7060844602576 14.99954786229685 0  219.7060829500872 14.99951175762518 0  224.7060817318742 14.99947603573782 0  229.7060807568668 14.99944065557359 0  234.706079983323 14.99940557998249 0  239.706079375775 14.99937077545962 0  244.7060789042285 14.99933621176481 0  249.7060785433961 14.99930186151602 0  254.7060782720098 14.99926769979287 0  259.7060780722242 14.99923370376202 0  264.7060779291086 14.99919985232509 0  269.7060778302216 14.99916612578588 0  274.7060777652524 14.9991325055326 0  279.7060777257184 14.99909897373314 0  284.7060777047026 14.9990655130438 0  289.7060776966153 14.9990321063351 0  294.7060776969705 14.99899873643402 0  299.7060777021725 14.99896538585392 0  304.7060777093403 14.99893203637389 0  309.7060777162413 14.99889866797995 0  4.706135445835828 22.50084720813092 0  -0.293864568244643 22.5008790609388 0  9.706135473758589 22.5008152677473 0  14.70613552387572 22.50078324520361 0  19.70613560190014 22.50075114489004 0  24.70613571218991 22.50071897155766 0  29.70613585853186 22.50068673092814 0  34.70613604456848 22.50065442991333 0  39.70613627399535 22.5006220766856 0  44.7061365506177 22.50058968073744 0  49.70613687832242 22.50055725300474 0  54.70613726099067 22.5005248060944 0  59.70613770236121 22.50049235464285 0  64.70613820583894 22.50045991583071 0  69.70613877423465 22.50042751008262 0  74.70613940941479 22.50039516199294 0  79.7061401118322 22.50036290153125 0  84.70614087990445 22.5003307655995 0  89.70614170920382 22.50029880003314 0  94.70614259142725 22.50026706215771 0  99.70614351313266 22.50023562402563 0  104.7061444542731 22.50020457644641 0  109.7061453866584 22.50017403385211 0  114.7061462726472 22.5001441398346 0  119.7061470646842 22.50011507270277 0  124.7061477067656 22.50008704934773 0  129.7061481395419 22.50006032354432 0  134.7061483112731 22.50003517065235 0  139.7061481963536 22.500011843273 0  144.7061478190753 22.49999047145027 0  149.7061472670275 22.49997087488764 0  164.7061498590722 22.49991509486381 0  159.7061476620407 22.49994567835855 0  169.7061503993552 22.49988114332153 0  174.7061496235158 22.49984498679934 0  179.7061479835203 22.49980762622679 0  184.7061458878925 22.49976977149862 0  189.7061436345186 22.49973186249444 0  194.706141414693 22.49969414729565 0  199.7061393387592 22.4996567526558 0  204.7061374619886 22.49961973316228 0  209.7061358047005 22.49958310227085 0  214.7061343663069 22.49954685095912 0  219.7061331345471 22.49951095861961 0  224.7061320913163 22.49947539928581 0  229.7061312162162 22.49944014511478 0  234.706130488638 22.49940516827821 0  239.7061298889224 22.49937044193882 0  244.7061293989545 22.4993359407039 0  249.7061290024189 22.49930164078233 0  254.7061286848556 22.49926751997391 0  259.7061284336057 22.49923355756519 0  264.7061282376965 22.49919973417322 0  269.7061280876961 22.49916603156097 0  274.7061279755559 22.49913243243821 0  279.7061278944406 22.49909892025466 0  284.7061278385506 22.49906547898821 0  289.706127802934 22.49903209292151 0  294.7061277832817 22.4989987463835 0  299
[...]
<PointData  Scalars="p"> 
<DataArray  type="Float64"  Name="p"  format="ascii">1.0000000000000001e-01  1.0000000000000003e-01  1.0000258771479657e-01  1.0000000000000003e-01  1.0000000000000003e-01  1.0000370432452389e-01  1.0000000000000003e-01  1.0000559114301819e-01  1.0000000000000003e-01  1.0000685771420170e-01  1.0000000000000003e-01  1.0000827497440659e-01  1.0000000000000003e-01  1.0001010147121800e-01  1.0000000000000003e-01  1.0001128253195783e-01  1.0000000000000003e-01  1.0001253777611621e-01  1.0000000000000003e-01  1.0001455212244052e-01  1.0000000000000003e-01  1.0001579635417886e-01  1.0000000000000003e-01  1.0001899214939766e-01  1.0000000000000003e-01  1.0002237391598916e-01  1.0000000000000003e-01  1.0002488519050268e-01  1.0000000000000003e-01  1.0002734084459783e-01  1.0000000000000003e-01  1.0003092812428160e-01  1.0000000000000003e-01  1.0003270941959286e-01  1.0000000000000003e-01  1.0003487742572824e-01  1.0000000000000003e-01  1.0003839429190578e-01  1.0000000000000003e-01  1.0003902529901317e-01  1.0000000000000003e-01  1.0004157527938150e-01  1.0000000000000003e-01  1.0004282820478924e-01  1.0000000000000003e-01  1.0004518838081342e-01  1.0000000000000003e-01  1.0004266711040670e-01  1.0000000000000003e-01  1.0005003307648648e-01  1.0000000000000003e-01  1.0003998055537422e-01  1.0000000000000003e-01  1.0005577942593252e-01  1.0000000000000003e-01  1.0003375068141222e-01  1.0000000000000003e-01  1.0006529119565362e-01  1.0000000000000003e-01  1.0002385685670720e-01  1.0000000000000001e-01  1.0008442127707526e-01  1.0000000000000001e-01  1.0000000000000003e-01  9.9898428266854980e-02  9.9828281286149498e-02  1.0000000000000003e-01  9.9955307779962477e-02  1.0000000000000003e-01  9.9917122952054585e-02  1.0000000000000003e-01  9.9934439780300297e-02  1.0000000000000003e-01  9.9927557945002590e-02  1.0000000000000003e-01  9.9931613070446720e-02  1.0000000000000003e-01  9.9927630686037355e-02  1.0000000000000003e-01  9.9930977841063279e-02  1.0000000000000003e-01  9.9929590394954873e-02  1.0000000000000003e-01  9.9930197847935207e-02  1.0000000000000003e-01  9.9930914759240722e-02  1.0000000000000003e-01  9.9931508474085023e-02  1.0000000000000003e-01  9.9931775469712145e-02  1.0000000000000003e-01  9.9932888976627707e-02  1.0000000000000003e-01  9.9933443705698663e-02  1.0000000000000003e-01  9.9934078286660274e-02  1.0000000000000003e-01  9.9934903782855883e-02  1.0000000000000003e-01  9.9935682832433426e-02  1.0000000000000003e-01  9.9936078470403783e-02  1.0000000000000003e-01  9.9937202980857787e-02  1.0000000000000003e-01  9.9937233204874826e-02  1.0000000000000003e-01  9.9938809429883674e-02  1.0000000000000003e-01  9.9937750371817582e-02  1.0000000000000003e-01  9.9941286092878473e-02  1.0000000000000003e-01  9.9936594399221507e-02  1.0000000000000003e-01  9.9946010338399296e-02  1.0000000000000003e-01  9.9931535766931076e-02  1.0000000000000003e-01  9.9956771831989255e-02  1.0000000000000003e-01  9.9913263148944997e-02  1.0000000000000001e-01  1.0000000000000003e-01  1.0000350481118463e-01  1.0000000000000003e-01  1.0000389876459927e-01  1.0000424729857856e-01  1.0000479101603361e-01  1.0000591241073720e-01  1.0000592797974807e-01  1.0000599710379551e-01  1.0000747462299699e-01  1.0000702884621730e-01  1.0000743990607240e-01  1.0000986396092093e-01  1.0001227573662562e-01  1.0001289527063173e-01  1.0001640815509927e-01  1.0001532932303574e-01  1.0001589949442119e-01  1.0001874036846138e-01  1.0001739472968964e-01  1.0001723733275583e-01  1.0002087749917463e-01  1.0001734594912255e-01  1.0001938615551816e-01  1.0001827094798829e-01  1.0002117914895520e-01  1.0001185349542775e-01  1.0002967798867936e-01  9.9999009320629551e-02  1.0004996497309160e-01  9.9972489483642457e-02  1.0008642154433420e-01  1.0005992297271461e-01  9.9712233362043989e-02  9.9931982808720038e-02  9.9983259722396092e-02  9.9976851424260868e-02  9.9981191673773173e-02  9.9970485747524943e-02  9.9979131002698826e-02  9.9973937538884713e-02  9.9973541699507243e-02  9.9974671979984525e-02  9.9974384645285561e-02  9.9973387403950245e-02  9.9974936666741454e-02  9.9974849613045869e-02  9.9974722926503612e-02  9.9975695429460290e-02  9.9975825851865541e-02  9.9975914014021658e-02  9.9976422790156616e-02  9.9976864316920502e-02  9.9976480642756715e-02  9.9977733905870753e-02  9.9976521239658361e-02  9.9978902120071683e-02  9.9975278125537484e-02  9.9982313640509815e-02  9.9969844487602336e-02  9.9991573073088313e-02  9.9957947037708328e-02  1.0000000000000003e-01  1.0000481099499899e-01  1.0000000000000003e-01  1.0000365432008604e-01  1.0000559122927692e-01  1.0000684494143135e-01  1.0000737122644274e-01  1.0000743704522884e-01  1.0000967603973254e-01  1.0000925180942137e-01  1.0000903192443927e-01  1.0001193739392476e-01  1.0001221668222228e-01  1.0001223348667095e-01  1.0002051859446691e-01  1.0001978553767366e-01  1.0002095646240346e-01  1.0002609763156102e-01  1.0002361753123788e-01  1.0002417264328545e-01  1.0002922517529308e-01  1.0002616979390039e-01  1.0002528789986261e-01  1.0003204831965799e-01  1.0002397315598939e-01  1.0002980268997749e-01  1.0002357262059938e-01  1.0003507046452428e-01  1.0000923486821489e-01  1.0005993218982480e-01  9.9969191521647155e-02  1.0013753531259799e-01  1.0006999626162892e-01  9.9696498893577956e-02  9.9859168656941666e-02  9.9966183882393519e-02  9.9964214804306450e-02  9.9939418378141145e-02  9.9964967070647393e-02  9.9950502007731923e-02  9.9950380885804324e-02  9.9952943838171091e-02  9.9951842405213751e-02  9.9949072953376891e-02  9.9952294010347026e-02  9.9951481314116894e-02  9.9950969359219349e-02  9.9952848663905719e-02  9.9953049935714980e-02  9.9952815934321607e-02  9.9954232351458464e-02  9.9954320536440655e-02  9.9954585100382132e-02  9.9955052480850473e-02  9.9955984413842000e-02  9.9954845474341608e-02  9.9957584851060349e-02  9.9954134722850585e-02  9.9960185087148407e-02  9.9950360474340999e-02  9.9969032693497786e-02  9.9933454697043025e-02  1.0000000000000003e-01  1.0000554436621244e-01  1.0000000000000003e-01  1.0000373337878887e-01  1.0000632231892409e-01  1.0000632830717504e-01  1.0000632486251440e-01  1.0000849792342383e-01  1.0000783143726355e-01  1.0000713946133991e-01  1.0000979301592178e-01  1.0000855864237544e-01  1.0000806428527652e-01  1.0001348288480461e-01  1.0001098719660997e-01  1.0001548037252724e-01  1.0002115782075977e-01  1.0001900045999017e-01  1.0001829777398065e-01  1.0002438876807365e-01  1.0001918525648021e-01  1.0001954648969531e-01  1.0002398093197577e-01  1.0002026724154570e-01  1.0001571389690424e-01  1.0002746566147307e-01  1.0000865790882681e-01  1.0003042216285521e-01  9.9996246933581598e-02  1.0005694669125201e-01  9.9948529804220906e-02  1.0014833445704915e-01  1.0008549815083202e-01  9.9636591691142459e-02  9.9897863641916496e-02  9.9997672447411604e-02  9.9919620735539755e-02  9.9998275930016228e-02  9.9963662072628870e-02  9.9968936710792738e-02  9.9969758665205591e-02  9.9969446265075895e-02  9.9963181649122268e-02  9.9968502817720739e-02  9.9966100380144807e-02  9.9964875614987847e-02  9.9967157898594602e-02  9.9967055469217511e-02  9.9966416022206905e-02  9.9968163556420880e-02  9.9968299838229191e-02  9.9967917450895921e-02  9.9969238124596460e-02  9.9968880036215499e-02  9.9969547530918842e-02  9.9968850344712895e-02  9.9971218383402824e-02  9.9967074486016508e-02  9.9974575513618838e-02  9.9962315144010397e-02  9.9982585671274743e-02  9.9949695705473018e-02  1.0000000000000003e-01  1.0000630422990277e-01  1.0000000000000003e-01  1.0000428497142301e-01  1.0000621541806277e-01  1.0000562947676732e-01  1.0000853203514097e-01  1.0000775965210686e-01  1.0000756824409922e-01  1.0001023898525065e-01  1.0000875571261715e-01  1.0000777904445930e-01  1.0001242110154662e-01  1.0001027955299964e-01  1.0001092966203122e-01  1.0001561766914102e-01  1.0001812203702498e-01  1.0001828623476414e-01  1.0002600195253779e-01  1.0002085823443177e-01  1.0001987977431005e-01  1.0002777943360545e-01  1.0001958713827357e-01  1.0002085530318629e-01  1.0002399085937043e-01  1.0002251068308278e-01  1.0000969641187699e-01  1.0003659919876502e-01  9.9990460251106625e-02  1.0006366235727338e-01  9.9937254407023821e-02  1.0017594276035885e-01  1.0014080807461377e-01  9.9581027398516306e-02  9.9878944070928441e-02  9.9973782432598829e-02  9.9941071853561311e-02  9.9957457402757396e-02  9.9962938519190803e-02  9.9963740086058531e-02  9.9968360186752397e-02  9.9954094810907668e-02  9.9964486278685885e-02  9.9959516690563646e-02  9.9957254695899778e-02  9.9960328953675293e-02  9.9959844477386747e-02  9.9958142852307294e-02  9.9960934741735188e-02  9.9960816375845821e-02  9.9960387182616295e-02  9.9961910924822969e-02  9.9962231576574093e-02  9.9961558476082596e-02  9.9963214086990299e-02  9.9962081763415950e-02  9.9963909515009858e-02  9.9961100722669768e-02  9.9966841155882266e-02  9.9956403938569818e-02  9.9975410814649474e-02  9.9941522601114857e-02  1.0000000000000003e-01  1.0000722287734456e-01  1.0000000000000003e-01  1.0000415742549913e-01  1.0000593291893643e-01  1.0000699671719858e-01  1.0000726723022993e-01  1.0000689511057913e-01  1.0000969688601044e-01  1.0000863699753516e-01  1.0000717079594547e-01  1.0001115105583849e-01  1.0000919262299612e-01  1.0000827092141144e-01  1.0001388529264894e-01  1.0001172695585236e-01  1.0000878486746408e-01  1.0002345104405946e-01  1.0001838566291366e-01  1.0001849837512349e-01  1.0002675248329004e-01  1.0001931321247072e-01  1.0001653735841778e-01  1.0002813351546878e-01  1.0001361705411374e-01  1.0001983592782884e-01  1.0001433392072084e-01  1.0002861222200628e-01  9.9983641575093277e-02  1.0007254912389138e-01  9.9915654948186355e-02  1.0019999051543771e-01  1.0015398987028387e-01  9.9579236114051950e-02  9.9855607093822629e-02  1.0001831198755042e-01  9.9943322137945836e-02  9.9955672929156206e-02  9.9951608006700901e-02  9.9987803636215900e-02  9.9953786595683977e-02  9.9977103722937916e-02  9.9965689755272980e-02  9.9963285167292026e-02  9.9966862737129000e-02  9.9966145146433733e-02  9.9962531866344712e-02  9.9966517778805081e-02  9.9965782863747257e-02  9.9964691577404952e-02  9.9967186544985057e-02  9.9967096433837971e-02  9.9966724703668297e-02  9.9967797927427743e-02  9.9968453920185468e-02  9.9966889101603382e-02  9.9969786316062681e-02  9.9965981328780817e-02  9.9972076339933144e-02  9.9961624971614538e-02  9.9980008581778038e-02  9.9948141799162601e-02  1.0000000000000003e-01  1.0000773682862113e-01  1.0000000000000003e-01  1.0000392587797470e-01  1.0000736452771192e-01  1.0000626946206766e-01  1.0000653381357430e-01  1.0000888226584628e-01  1.0000868147707760e-01  1.0000721096802941e-01  1.0001122174835261e-01  1.0000913381694114e-01  1.0000768715459446e-01  1.0001351922442149e-01  1.0001062964652230e-01  1.0000816377770591e-01  1.0001725852365270e-01  1.0001014307568790e-01  1.0001617221552329e-01  1.0002674008447775e-01  1.0001972559310049e-01  1.0001844837950634e-01  1.0002772907082795e-01  1.0001894863873348e-01  1.0001313332171347e-01  1.0003087419923953e-01  1.0000476746305922e-01  1.0002884957834013e-01  9.9990378742792790e-02  1.0006945443506596e-01  9.9904765058824493e-02  1.0022863542607469e-01  1.0015172481123782e-01  9.9550892840600577e-02  9.9874975492052889e-02  1.0001860290591158e-01  9.9926613458018038e-02  9.9975773299746329e-02  9.9955439361719994e-02  9.9942322090184083e-02  9.9982149491551972e-02  9.9963573904162759e-02  9.9964596231385441e-02  9.9965585938038226e-02  9.9966440063326695e-02  9.9959936019846166e-02  9.9965491574934090e-02  9.9963802969477600e-02  9.9962025430944623e-02  9.9964800141876642e-02  9.9964916744330320e-02  9.9963876582610009e-02  9.9966148557625062e-02  9.9965788135239236e-02  9.9965944803472637e-02  9.9965918867220976e-02  9.9967707247815452e-02  9.9964126586606514e-02  9.9970295723072214e-02  9.9960013005367887e-02  9.9977781657574261e-02  9.9946266853865276e-02  1.0000000000000003e-01  1.0000810085557095e-01  1.0000000000000003e-01  1.0000468240553012e-01  1.0000709702873863e-01  1.0000564134350044e-01  1.0000837209302743e-01  1.0000766746290833e-01  1.0000692002998313e-01  1.0001065224119572e-01  1.0000891409595658e-01  1.0000745018448960e-01  1.0001279628564007e-01  1.0001010000120328e-01  1.0000803724180213e-01  1.0001554971922438e-01  1.0000967259409432e-01  1.0000912789996720e-01  1.0001626617241891e-01  1.0001775103022512e-01  1.0001629893378920e-01  1.0003000889945146e-01  1.0001735929726062e-01  1.0001750869136922e-01  1.0002550607657192e-01  1.0001933725265828e-01  1.0000257556808358e-01  1.0004142386010734e-01  9.9977294599305142e-02  1.0007278380600505e-01  9.9902164215397105e-02  1.0024271347263801e-01  1.0018484946549344e-01  9.9518681295059669e-02  9.9867953081322208e-02  1.0000986498518398e-01  9.9949877578842369e-02  9.9983574365979808e-02  9.9944324496421239e-02  9.9966534723588074e-02  9.9953254504643027e-02  9.9974520156978067e-02  9.9965952932683275e-02  9.9974600844522074e-02  9.9960977952171057e-02  9.9970130893953943e-02  9.9966788838140364e-02  9.9964130883239785e-02  9.9967380943756720e-02  9.9967152852229582e-02  9.9965269705123885e-02  9.9968031308143301e-02  9.9968229412086357e-02  9.9967140272055874e-02  9.9969381525474119e-02  9.9968221285579376e-02  9.9969626454068525e-02  9.9967077019629633e-02  9.9972526840831230e-02  9.9962351874069322e-02  9.9979903838044157e-02  9.9949457044730849e-02  1.0000000000000003e-01  1.0000877872356788e-01  1.0000000000000003e-01  1.0000450643403541e-01  1.0000673416529253e-01  1.0000712666220866e-01  1.0000762796920989e-01  1.0000631413685210e-01  1.0000975216973788e-01  1.0000857367199746e-01  1.0000725309011069e-01  1.0001185250510027e-01  1.0001020332470775e-01  1.0000794881120643e-01  1.0001495685168281e-01  1.0001059017076752e-01  1.0000766789525670e-01  1.0001624759516939e-01  1.0001081578933187e-01  1.0000528397857907e-01  1.0002744293286045e-01  1.0001827201076949e-01  1.0001606806917479e-01  1.0003232046059017e-01  1.0001322070518162e-01  1.0001785772716278e-01  1.0001860926121432e-01  1.0002873209300613e-01  9.9974871010732130e-02  1.0008936753420988e-01  9.9884276920935766e-02  1.0025959650141116e-01  1.0019311101646948e-01  9.9519686674595959e-02  9.9850763229712314e-02  1.0003196734031645e-01  9.9948736023591750e-02  9.9971360420054875e-02  9.9964689383440289e-02  9.9967586745659878e-02  9.9948778951159958e-02  9.9955978880711033e-02  9.9982143424173359e-02  9.9957874369251631e-02  9.9974788366584827e-02  9.9967192492328619e-02  9.9964691433766961e-02  9.9967868880100341e-02  9.9967900325599490e-02  9.9964353592853120e-02  9.9968067972244237e-02  9.9967494182592834e-02  9.9966534052300465e-02  9.9968492797122416e-02  9.9969118620986452e-02  9.9967396673786221e-02  9.9970368107539370e-02  9.9967078117628783e-02  9.9972001079541281e-02  9.9962939320839939e-02  9.9979407495219053e-02  9.9949752665183078e-02  1.0000000000000003e-01  1.0000902897218718e-01  1.0000000000000003e-01  1.0000425102000735e-01  1.0000808495697189e-01  1.0000661359944089e-01  1.0000671634907857e-01  1.0000881594871280e-01  1.0000833794710788e-01  1.0000681679667515e-01  1.0001094592432271e-01  1.0000967855711576e-01  1.0000759808000792e-01  1.0001444423405501e-01  1.0001122922124890e-01  1.0000783497464098e-01  1.0001635617840215e-01  1.0001056304315821e-01  1.0000532157400377e-01  1.0001961857404744e-01  1.0000649093563006e-01  1.0001457481282561e-01  1.0002992107702409e-01  1.0001917697440298e-01  1.0001187601157825e-01  1.0003612943718934e-01  1.0000314401364786e-01  1.0002732827835885e-01  9.9992324019235065e-02  1.0007709727624667e-01  9.9877956650730820e-02  1.0028654988151563e-01  1.0018965008627674e-01  9.9511585454612708e-02  9.9863777363996278e-02  1.0003507658736122e-01  9.9936287693448894e-02  9.9990555854186688e-02  9.9967204946007124e-02  9.9962047823737646e-02  9.9963201373933233e-02  9.9964056910177387e-02  9.9946800765664090e-02  9.9983427953636669e-02  9.9966950000485832e-02  9.9969610604415921e-02  9.9969292074592653e-02  9.9971165986056557e-02  9.9965437488211489e-02  9.9970103205659980e-02  9.9969106267521798e-02  9.9967101229784139e-02  9.9969744995579965e-02  9.9969581950224873e-02  9.9969198405588697e-02  9.9969936414628424e-02  9.9971578087569415e-02  9.9968037942800958e-02  9.9973849487425520e-02  9.9964496990405688e-02  9.9980316187309626e-02  9.9951993611176709e-02  1.0000000000000003e-01  1.0000919817729435e-01  1.0000000000000003e-01  1.0000491590507862e-01  1.0000786995567723e-01  1.0000594017289550e-01  1.0000866450019838e-01  1.0000781065532025e-01  1.0000692686691236e-01  1.0001007210984533e-01  1.0000902306134302e-01  1.0000704552767989e-01  1.0001315813284632e-01  1.0001100177764834e-01  1.0000851917326431e-01  1.0001625005803358e-01  1.0001120980637489e-01  1.0000681828952171e-01  1.0001791708418584e-01  1.0000827770070309e-01  1.0000583848457162e-01  1.0001806956211731e-01  1.0001565423363812e-01  1.0001509694161909e-01  1.0003185988823017e-01  1.0001913240430316e-01  1.0000245130072724e-01  1.0004854816796867e-01  9.9975914257919171e-02  1.0007500856453688e-01  9.9895884868247756e-02  1.0027933552820587e-01  1.0020594114550181e-01  9.9499951176872284e-02  9.9863211286113959e-02  1.0002619365401867e-01  9.9950073712294085e-02  9.9992139573945218e-02  9.9956792856841670e-02  9.9976393364962488e-02  9.9968867586409355e-02  9.9955895803954656e-02  9.9962877111907503e-02  9.9957497397587455e-02  9.9975524849747366e-02  9.9968082993184770e-02  9.9976044901076019e-02  9.9965122997872510e-02  9.9972322832050958e-02  9.9970136878440516e-02  9.9967745310314188e-02  9.9970264035173145e-02  9.9970388191032378e-02  9.9968226157498591e-02  9.9971145074519319e-02  9.9970240233826557e-02  9.9971137713983985e-02  9.9969459617148843e-02  9.9974200746386688e-02  9.9965025430005253e-02  9.9980761260049095e-02  9.9953173398326073e-02  1.0000000000000003e-01  1.0000968783049682e-01  1.0000000000000003e-01  1.0000480977737546e-01  1.0000749276052522e-01  1.0000739722919892e-01  1.0000814006254855e-01  1.0000664489206518e-01  1.0000971392865478e-01  1.0000877352132916e-01  1.0000690963302876e-01  1.0001158146361189e-01  1.0001037311909731e-01  1.0000825003056416e-01  1.0001537718720395e-01  1.0001241053699701e-01  1.0000784576893031e-01  1.0001768685553751e-01  1.0001059255186952e-01  1.0000539664282176e-01  1.0001806010497810e-01  1.0000948718685961e-01  9.9999370694839135e-02  1.0003348433979314e-01  1.0001300927323881e-01  1.0001751449663877e-01  1.0002724554915082e-01  1.0002756925628453e-01  9.9974945866020265e-02  1.0009857060350233e-01  9.9879394716514594e-02  1.0027747840101316e-01  1.0020977487235400e-01  9.9515427048496405e-02  9.9853759561740710e-02  1.0003928529475911e-01  9.9951756075831663e-02  9.9982506023767112e-02  9.9969377564241110e-02  9.9979687177365939e-02  9.9960585006240360e-02  9.9971221089257656e-02  9.9965751113079648e-02  9.9956501694171862e-02  9.9958494475545126e-02  9.9983559110516082e-02  9.9963461888862945e-02  9.9977198337038414e-02  9.9971452007718134e-02  9.9969528367089500e-02  9.9971875209228525e-02  9.9972085470926814e-02  9.9969175856318621e-02  9.9971638934447229e-02  9.9971800638775199e-02  9.9969892752313674e-02  9.9973141769836335e-02  9.9970442163565224e-02  9.9974531636406211e-02  9.9966861542185800e-02  9.9981432283987773e-02  9.9954975736873120e-02  1.0000000000000003e-01  1.0000988820795935e-01  1.0000000000000003e-01  1.0000462541647338e-01  1.0000873386027651e-01  1.0000710693231758e-01  1.0000743758309631e-01  1.0000904642027547e-01  1.0000889040127486e-01  1.0000721994216788e-01  1.0001093013483896e-01  1.0000979279372840e-01  1.0000785533523793e-01  1.0001406648253984e-01  1.0001250130785781e-01  1.0000868079043028e-01  1.0001759859717430e-01  1.0001281766958652e-01  1.0000658260516183e-01  1.0001909519033396e-01  1.0001015710473686e-01  1.0000214047313852e-01  1.0002243792576347e-01  1.0000407522719108e-01  1.0000896304073349e-01  1