<?xml version="1.0"?>
<VTKFile type="UnstructuredGrid"  version="0.1"  >
<UnstructuredGrid>
<Piece  NumberOfPoints="1933" NumberOfCells="3640">
<Points>
<DataArray  type="Float64"  NumberOfComponents="3"  format="ascii">-0.2935508941494764 -0.002972610741377202 0  4.706449147802706 -0.002886330081291418 0  4.706319685111953 7.497113752867976 0  -0.293680360169652 7.497027469713731 0  9.706449227830689 -0.002800101303762566 0  9.706319752919555 7.497199974929964 0  14.70644937363192 -0.002713886403797407 0  14.70631984751857 7.497286182190291 0  19.70644960034247 -0.002627635815005386 0  19.70631996927058 7.497372426293812 0  24.70644991267717 -0.002541296346927856 0  24.70632011446553 7.497458760619154 0  29.7064503073624 -0.00245481396231335 0  29.70632027505157 7.497545238869225 0  34.70645077490465 -0.002368134303349193 0  34.70632043842163 7.497631914974647 0  39.70645130059416 -0.002281202208467713 0  39.70632058715275 7.497718843694587 0  44.70645186484887 -0.002193960765352331 0  44.70632069859102 7.49780608157675 0  49.70645244301635 -0.002106350130171866 0  49.70632074420358 7.497893688116439 0  54.70645300470706 -0.002018306190560472 0  54.70632068863536 7.497981727059122 0  59.7064535126806 -0.001929759070116064 0  59.70632048840729 7.498070267852005 0  64.70645392125208 -0.001840631423641369 0  64.70632009017295 7.49815938729005 0  69.7064541741225 -0.001750836433679147 0  69.70631942842233 7.498249171433308 0  74.70645420146711 -0.001660275377446169 0  74.70631842247438 7.498339717902853 0  79.70645391600392 -0.001568834579153579 0  79.7063169725371 7.498431138698336 0  84.70645320761028 -0.001476381485949554 0  84.70631495453323 7.498523563720902 0  89.70645193578619 -0.001382759494578623 0  89.70631221328227 7.498617145228808 0  94.70644991883808 -0.001287780996461835 0  94.70630855351128 7.498712063483183 0  99.70644691789711 -0.001191217888680955 0  99.70630372805859 7.498808533814117 0  104.7064426125845 -0.001092788519094632 0  104.7062974226266 7.498906815147849 0  109.7064365627898 -0.0009921397504935635 0  109.7062892367339 7.499007219433967 0  114.7064281468205 -0.0008888227572031302 0  114.7062786616237 7.499110119849265 0  119.7064164585076 -0.0007822619700807319 0  119.7062650588808 7.49921595192643 0  124.7064001318595 -0.0006717201293826895 0  124.7062476507812 7.499325193316554 0  129.7063770362871 -0.0005562738284830293 0  129.7062255498736 7.499438289517892 0  134.706343738892 -0.0004348476547338835 0  134.7061978909893 7.499555454536158 0  139.7062945457481 -0.000306454165330615 0  139.7061642036873 7.499676200816306 0  144.7062197777178 -0.0001710953405621229 0  144.7061253167992 7.499798332548844 0  149.7061026184317 -3.285253107989078e-05 0  149.7060854081131 7.499916081704979 0  159.7061073738537 1.235111071578991e-18 0  164.706133775817 -1.333046444922219e-05 0  164.70611339716 7.499977590486597 0  159.7060973713671 7.499979138777689 0  169.7061671724528 1.250585136359569e-06 0  169.7061291813976 7.499997097405456 0  174.706200645843 3.481011722337364e-05 0  174.706145337449 7.500032914188478 0  179.7062315245362 8.166848903512235e-05 0  179.7061614216195 7.500080852728562 0  184.7062589703886 0.0001380249254064035 0  184.7061769087518 7.500137734011744 0  189.7062829261547 0.0002012738757632622 0  189.7061914243234 7.500201236917526 0  194.7063036445514 0.0002695968227640909 0  194.7062047593942 7.500269679527397 0  199.7063214782579 0.0003417024904770312 0  199.7062168316219 7.500341837858225 0  204.7063367891952 0.0004166579992690429 0  204.7062276425022 7.500416812667988 0  209.7063499123133 0.000493777887358997 0  209.7062372438269 7.500493935469445 0  214.7063611438827 0.0005725503162076131 0  214.7062457144526 7.500572703046202 0  219.706370740383 0.0006525873057895386 0  219.7062531453131 7.500652731815081 0  224.7063789216071 0.0007335906242859882 0  224.7062596302396 7.500733725787662 0  229.7063858751257 0.0008153279941096074 0  229.706265260648 7.500815453826775 0  234.7063917608863 0.0008976161966964586 0  234.7062701227007 7.500897733289359 0  239.7063967154711 0.0009803088703136857 0  239.7062742960145 7.500980418103492 0  244.7064008558845 0.001063287562350553 0  244.706277853311 7.501063389968239 0  249.7064042828654 0.00114645508798305 0  249.7062808606305 7.50114655179217 0  254.7064070837997 0.001229730565959636 0  254.7062833778763 7.501229822773745 0  259.7064093352976 0.001313045715519998 0  259.7062854595335 7.501313134723246 0  264.7064111055319 0.001396342147988609 0  264.7062871554767 7.501396429365811 0  269.7064124563884 0.001479569499985574 0  269.7062885118045 7.501479656471048 0  274.7064134455051 0.001562684352183007 0  274.7062895716391 7.501562772742622 0  279.7064141282076 0.001645649974180813 0  279.7062903758568 7.501645741482617 0  284.7064145593319 0.001728437047168116 0  284.7062909636796 7.501728533128872 0  289.7064147947788 0.001811025655684374 0  289.7062913730673 7.501811126851742 0  294.7064148924712 0.001893409014398916 0  294.7062916408631 7.50189351348452 0  299.7064149119247 0.001975599572056396 0  299.7062918027115 7.5019757001294 0  304.7064149108087 0.002057638101385726 0  304.7062918930499 7.502057716806946 0  309.7064149351281 0.002139605144696347 0  309.706291946165 7.502139625658076 0  4.706190150726731 14.99711391353626 0  -0.2938098895299429 14.99702766331593 0  9.706190190967453 14.99720009366002 0  14.70619022860057 14.99728626330989 0  19.70619025729563 14.99737247645541 0  24.70619026820875 14.99745878522939 0  29.70619024986621 14.99754524121508 0  34.70619018764858 14.99763189622422 0  39.70619006316674 14.99771880309038 0  44.70618985358076 14.99780601657683 0  49.70618953083559 14.99789359439883 0  54.70618906076681 14.99798159835247 0  59.70618840202759 14.99807009555714 0  64.7061875047922 14.99815915983317 0  69.70618630919418 14.99824887324733 0  74.7061847434716 14.9983393278618 0  79.7061827218112 14.99843062771402 0  84.70618014193953 14.99852289102218 0  89.70617688261187 14.99861625253239 0  94.7061728013592 14.99871086575157 0  99.70616773323289 14.9988069044548 0  104.7061614919867 14.99890456215235 0  109.7061538763249 14.99900404684145 0  114.7061446858498 14.99910556581091 0  119.7061337544472 14.99920929059592 0  124.7061210132513 14.9993152839702 0  129.7061066003503 14.99942335726191 0  134.7060910367639 14.99953280597584 0  139.7060754777533 14.99964194768217 0  144.7060619980203 14.99974737539176 0  149.706053711541 14.99984288328385 0  164.7060754936182 14.99995260928473 0  159.7060682740795 14.99992887831898 0  169.7060808877984 14.99998525436573 0  174.7060862120782 15.00002772202878 0  179.7060920127832 15.00007897128483 0  184.7060982828419 15.00013746073202 0  189.7061048224583 15.0002017081878 0  194.7061114035844 15.000270460537 0  199.7061178330586 15.00034271305513 0  204.7061239690022 15.00041767855842 0  209.7061297180039 15.00049474563697 0  214.7061350259821 15.00057343989359 0  219.7061398682829 15.00065339202974 0  224.7061442410809 15.00073431288051 0  229.7061481546132 15.00081597432978 0  234.7061516281538 15.00089819485205 0  239.7061546864157 15.00098082857752 0  244.7061573570602 15.00106375700583 0  249.7061596690266 15.00114688271014 0  254.7061616514533 15.00123012454912 0  259.7061633330125 15.00131341404335 0  264.7061647415287 15.00139669267778 0  269.7061659037828 15.001479909975 0  274.7061668454282 15.00156302224902 0  279.7061675909729 15.00164599200101 0  284.7061681638252 15.00172878795712 0  289.7061685864158 15.00181138576418 0  294.7061688805516 15.00189376933546 0  299.7061690682594 15.00197593274313 0  304.7061691736827 15.00205788233694 0  309.7061692270128 15.00213963839099 0  4.70606071087045 22.49711416215906 0  -0.2939393239978584 22.49702802066917 0  9.706060731278761 22.49720024949348 0  14.70606072840975 22.49728634075048 0  19.70606069284114 22.49737248733462 0  24.70606061407102 22.49745873766824 0  29.70606048012866 22.49754513925829 0  34.70606027707534 22.49763173990921 0  39.70605998845215 22.49771858860129 0  44.7060595947205 22.49780573627542 0  49.70605907271373 22.49789323661809 0  54.70605839509855 22.49798114687495 0  59.70605752985139 22.49806952869491 0  64.7060564397694 22.49815844899183 0  69.70605508206242 22.49824798079295 0  74.70605340812342 22.49833820401326 0  79.7060513636393 22.49842920603956 0  84.70604888932054 22.49852108190865 0  89.70604592269355 22.49861393369339 0  94.70604240165271 22.49870786841768 0  99.70603827083319 22.49880299332882 0  104.7060334923656 22.49889940655018 0  109.7060280631925 22.49899717984437 0  114.706022041763 22.49909632824397 0  119.7060155872243 22.49919675849281 0  124.7060090134097 22.49929818475531 0  129.706002856282 22.4993999971144 0  134.7059979439801 22.49950107008196 0  139.7059954386384 22.49959951575496 0  144.7059967844563 22.4996924463294 0  149.7060034530273 22.49977597682931 0  164.7060172483295 22.49992300677676 0  159.7060159558459 22.49988062297444 0  169.7060170398466 22.49996849983275 0  174.7060163831514 22.50001903789676 0  179.7060159755289 22.50007508952688 0  184.7060161321475 22.50013632085162 0  189.706016914154 22.50020206545249 0  194.7060182491116 22.50027158297683 0  199.7060200108416 22.50034417950707 0  204.7060220642232 22.50041925243546 0  209.7060242868844 22.50049629854181 0  214.7060265774913 22.50057490620341 0  219.7060288570195 22.50065474216851 0  224.7060310667668 22.50073553769083 0  229.7060331651633 22.50081707598464 0  234.7060351244162 22.50089918160568 0  239.7060369274602 22.50098171176747 0  244.7060385653788 22.5010645493742 0  249.7060400353087 22.50114759749311 0  254.7060413387902 22.50123077500414 0  259.706042480474 22.50131401320558 0  264.7060434671332 22.50139725319841 0  269.706044306902 22.50148044391464 0  274.7060450087139 22.50156354068488 0  279.7060455819104 22.50164650425901 0  284.7060460360469 22.50172930019077 0  289.7060463809613 22.50181189846174 0  294.7060466272511 22.50189427313377 0  299.7060467873752 22.501
[...]
<PointData  Scalars="p"> 
<DataArray  type="Float64"  Name="p"  format="ascii">1.0000000000000001e-01  1.0000000000000003e-01  9.9996279277143038e-02  1.0000000000000003e-01  1.0000000000000003e-01  9.9996371126732667e-02  1.0000000000000003e-01  9.9994517259750379e-02  1.0000000000000003e-01  9.9993884672042399e-02  1.0000000000000003e-01  9.9992605686574448e-02  1.0000000000000003e-01  9.9990003007060374e-02  1.0000000000000003e-01  9.9989203026547624e-02  1.0000000000000003e-01  9.9987422539973211e-02  1.0000000000000003e-01  9.9984441767840257e-02  1.0000000000000003e-01  9.9984948252483205e-02  1.0000000000000003e-01  9.9975753130499889e-02  1.0000000000000003e-01  9.9972296635531407e-02  1.0000000000000003e-01  9.9967493647962216e-02  1.0000000000000003e-01  9.9964054470884078e-02  1.0000000000000003e-01  9.9955705149127105e-02  1.0000000000000003e-01  9.9952659988762668e-02  1.0000000000000003e-01  9.9946046868424218e-02  1.0000000000000003e-01  9.9936088389759661e-02  1.0000000000000003e-01  9.9932729798333605e-02  1.0000000000000003e-01  9.9921854709286106e-02  1.0000000000000003e-01  9.9914927811562512e-02  1.0000000000000003e-01  9.9902627364342300e-02  1.0000000000000003e-01  9.9903554841779818e-02  1.0000000000000003e-01  9.9874233163952136e-02  1.0000000000000003e-01  9.9897778874119963e-02  1.0000000000000003e-01  9.9838707613938496e-02  1.0000000000000003e-01  9.9901746194861099e-02  1.0000000000000003e-01  9.9791186322877520e-02  1.0000000000000003e-01  9.9919744543735409e-02  1.0000000000000001e-01  9.9713647163826136e-02  1.0000000000000001e-01  1.0000000000000003e-01  1.0019940821618732e-01  1.0044706550883631e-01  1.0000000000000003e-01  1.0004302068816628e-01  1.0000000000000003e-01  1.0015489184505194e-01  1.0000000000000003e-01  1.0009156177550411e-01  1.0000000000000003e-01  1.0010891777227268e-01  1.0000000000000003e-01  1.0009217683501107e-01  1.0000000000000003e-01  1.0009805877583319e-01  1.0000000000000003e-01  1.0008383334121572e-01  1.0000000000000003e-01  1.0008509954050110e-01  1.0000000000000003e-01  1.0007978544090518e-01  1.0000000000000003e-01  1.0007537157973954e-01  1.0000000000000003e-01  1.0007220154326218e-01  1.0000000000000003e-01  1.0006997356641106e-01  1.0000000000000003e-01  1.0006589234023186e-01  1.0000000000000003e-01  1.0006400319048389e-01  1.0000000000000003e-01  1.0006197003900526e-01  1.0000000000000003e-01  1.0005948590969688e-01  1.0000000000000003e-01  1.0005783875248095e-01  1.0000000000000003e-01  1.0005663566305774e-01  1.0000000000000003e-01  1.0005462027749321e-01  1.0000000000000003e-01  1.0005398768258988e-01  1.0000000000000003e-01  1.0005216797780669e-01  1.0000000000000003e-01  1.0005240789236894e-01  1.0000000000000003e-01  1.0004916624622832e-01  1.0000000000000003e-01  1.0005262931979793e-01  1.0000000000000003e-01  1.0004465571744728e-01  1.0000000000000003e-01  1.0005611142771551e-01  1.0000000000000003e-01  1.0003544114271948e-01  1.0000000000000003e-01  1.0007041176010621e-01  1.0000000000000001e-01  1.0000000000000003e-01  9.9993117697262948e-02  1.0000000000000003e-01  9.9993607020921124e-02  9.9993214919318923e-02  9.9992324208783651e-02  9.9989700003773052e-02  9.9989991301774037e-02  9.9989357283395766e-02  9.9985415569102662e-02  9.9987478042978709e-02  9.9985720341877748e-02  9.9983196271537095e-02  9.9972827593153513e-02  9.9977147426216217e-02  9.9966844161457680e-02  9.9971821522394227e-02  9.9967063663238986e-02  9.9959042368641032e-02  9.9960786316978772e-02  9.9957060952726190e-02  9.9944429938959384e-02  9.9951102079538709e-02  9.9938854454435982e-02  9.9939018699842938e-02  9.9925358526535085e-02  9.9946982837836360e-02  9.9890454402254483e-02  9.9981255136362954e-02  9.9820615848062191e-02  1.0006600577517331e-01  9.9710216442961463e-02  9.9798424513787731e-02  1.0066041609587298e-01  1.0021656843952546e-01  1.0002839341399923e-01  1.0006051028496829e-01  1.0004846093499231e-01  1.0007043245833257e-01  1.0004070553946759e-01  1.0005444886828192e-01  1.0004927537651878e-01  1.0004278042961005e-01  1.0004212608554525e-01  1.0004207828848248e-01  1.0003571146070450e-01  1.0003547270916512e-01  1.0003445830392914e-01  1.0003083333881259e-01  1.0003007084038325e-01  1.0002927848827470e-01  1.0002693492297865e-01  1.0002596608265681e-01  1.0002559515101747e-01  1.0002327374511104e-01  1.0002363163805313e-01  1.0002104425261768e-01  1.0002305887982071e-01  1.0001673716207143e-01  1.0002621355508379e-01  1.0000795499351234e-01  1.0003457656831982e-01  1.0000000000000003e-01  9.9989471555389273e-02  1.0000000000000003e-01  9.9993282534582423e-02  9.9990153172217683e-02  9.9987544219208649e-02  9.9987335090280058e-02  9.9986628140871309e-02  9.9980968668508988e-02  9.9982414040079307e-02  9.9981762348311284e-02  9.9975657322753930e-02  9.9974024271599973e-02  9.9979985546253841e-02  9.9951206738619527e-02  9.9963168113412340e-02  9.9956594183918307e-02  9.9944909129266971e-02  9.9950128632435187e-02  9.9943729170935733e-02  9.9927540600017919e-02  9.9932663283123738e-02  9.9926584301198385e-02  9.9903513698867297e-02  9.9920276840507735e-02  9.9892996000168613e-02  9.9906477224156742e-02  9.9866532513654335e-02  9.9933956896939194e-02  9.9783866664910903e-02  1.0005578500641794e-01  9.9547228263517834e-02  9.9881123914798420e-02  1.0057402294244480e-01  1.0031591941913064e-01  1.0006114107276001e-01  1.0008381889453889e-01  1.0013428630203641e-01  1.0005730888022166e-01  1.0010056504549313e-01  1.0008784278114027e-01  1.0007508779196919e-01  1.0007593342379917e-01  1.0007759266102574e-01  1.0006457810493727e-01  1.0006580382625209e-01  1.0006419917611721e-01  1.0005697427482035e-01  1.0005610035394338e-01  1.0005526760890920e-01  1.0005032914960844e-01  1.0004953811905254e-01  1.0004834587045978e-01  1.0004549858149896e-01  1.0004389363370035e-01  1.0004387531615276e-01  1.0003995534513269e-01  1.0004187571714686e-01  1.0003601183451893e-01  1.0004282382437030e-01  1.0002679838039988e-01  1.0005473486212361e-01  1.0000000000000003e-01  9.9987159650779200e-02  1.0000000000000003e-01  9.9991960238345640e-02  9.9985877577525667e-02  9.9986774858563027e-02  9.9985903098924842e-02  9.9979870895151243e-02  9.9981381649739284e-02  9.9980708329754669e-02  9.9973233428329672e-02  9.9976210248593447e-02  9.9976172470533184e-02  9.9959899435642430e-02  9.9976815484380477e-02  9.9951288189162019e-02  9.9947242023580907e-02  9.9951224780038844e-02  9.9950325353448125e-02  9.9930788909367657e-02  9.9942793114873793e-02  9.9932498925987226e-02  9.9916681746764158e-02  9.9921365149175045e-02  9.9922869435795689e-02  9.9885110384853412e-02  9.9931606131393083e-02  9.9859674919546212e-02  9.9955748736555203e-02  9.9779940428331895e-02  1.0009285046986476e-01  9.9521593798528762e-02  9.9890254457312269e-02  1.0071898354069952e-01  1.0020132297095918e-01  1.0002636684164112e-01  1.0022810994934685e-01  9.9996020094107449e-02  1.0011268123320820e-01  1.0007836092889975e-01  1.0007106319426648e-01  1.0006954653560686e-01  1.0007850256119344e-01  1.0005725312994579e-01  1.0006269983959562e-01  1.0006128250670955e-01  1.0005162745625877e-01  1.0005109982945438e-01  1.0005071191285494e-01  1.0004390062633860e-01  1.0004329684721529e-01  1.0004255057186347e-01  1.0003805552623132e-01  1.0003744029798295e-01  1.0003580678257333e-01  1.0003396959295426e-01  1.0003095525281866e-01  1.0003313166933306e-01  1.0002531447092357e-01  1.0003413774602402e-01  1.0001647513634286e-01  1.0004193718377585e-01  1.0000000000000003e-01  9.9984792154493671e-02  1.0000000000000003e-01  9.9989281559113213e-02  9.9985175369547485e-02  9.9985959891875781e-02  9.9978990140361226e-02  9.9980701516780179e-02  9.9979305605514338e-02  9.9970975883849775e-02  9.9974285333444421e-02  9.9974206863180537e-02  9.9959981102690956e-02  9.9968361183337962e-02  9.9960532379355219e-02  9.9959758066084994e-02  9.9939915466324011e-02  9.9947780659279256e-02  9.9924550939578666e-02  9.9939853343001317e-02  9.9932380131993057e-02  9.9908358072023626e-02  9.9925373546821933e-02  9.9909946992528947e-02  9.9895447020851680e-02  9.9893497236056519e-02  9.9913920808641116e-02  9.9837509949580280e-02  9.9957662300465142e-02  9.9750909231333937e-02  1.0010617729466581e-01  9.9447115493857416e-02  9.9764020589614560e-02  1.0080751374572168e-01  1.0027081156280802e-01  1.0010138057946799e-01  1.0011627642700645e-01  1.0013715988737250e-01  1.0009488359833917e-01  1.0008853504897054e-01  1.0007835609545203e-01  1.0010640535292074e-01  1.0006750013762911e-01  1.0008076423205722e-01  1.0007901624319956e-01  1.0006512169110358e-01  1.0006555552540741e-01  1.0006641408138073e-01  1.0005558372487545e-01  1.0005552028915360e-01  1.0005481100178769e-01  1.0004851143098323e-01  1.0004740451956473e-01  1.0004690038528892e-01  1.0004204378717782e-01  1.0004183077441427e-01  1.0003901724781912e-01  1.0003886010045315e-01  1.0003282653819605e-01  1.0003994661711260e-01  1.0002271089948814e-01  1.0004894736111235e-01  1.0000000000000003e-01  9.9982001104727825e-02  1.0000000000000003e-01  9.9989025092542066e-02  9.9983988370271448e-02  9.9980648307362321e-02  9.9980042792149657e-02  9.9979519763963812e-02  9.9971020764007587e-02  9.9973159348351576e-02  9.9973376298015643e-02  9.9961278502828210e-02  9.9966080325770118e-02  9.9963392066198989e-02  9.9950746037248753e-02  9.9953092364329282e-02  9.9969461732384093e-02  9.9913013125011677e-02  9.9942142151620450e-02  9.9931369267563491e-02  9.9910650222337985e-02  9.9926070557525670e-02  9.9921456155591920e-02  9.9885094157863299e-02  9.9918126682826860e-02  9.9886775191966287e-02  9.9894341036577849e-02  9.9853495650491883e-02  9.9957232350794123e-02  9.9726226792517608e-02  1.0014460256570590e-01  9.9388279689795370e-02  9.9790236528651474e-02  1.0076788137130917e-01  1.0033365370041922e-01  9.9990846298044916e-02  1.0015680017743138e-01  1.0012637454546376e-01  1.0013662117896377e-01  1.0004664727322138e-01  1.0013330984935913e-01  1.0005454018423719e-01  1.0008991246353661e-01  1.0008429009878089e-01  1.0006721693095691e-01  1.0006786381347126e-01  1.0007210809461033e-01  1.0005648616102887e-01  1.0005807253884069e-01  1.0005775705010483e-01  1.0004851809558699e-01  1.0004807859725059e-01  1.0004761274961507e-01  1.0004183282556266e-01  1.0004038304387272e-01  1.0004039370625580e-01  1.0003467413542520e-01  1.0003642907448899e-01  1.0002989456308864e-01  1.0003612977084390e-01  1.0001957430653302e-01  1.0004401591266823e-01  1.0000000000000003e-01  9.9980484663920594e-02  1.0000000000000003e-01  9.9988533138281779e-02  9.9979225805572669e-02  9.9981418173891265e-02  9.9979308717044926e-02  9.9971993699122158e-02  9.9972868618633887e-02  9.9973080468687997e-02  9.9961108518613007e-02  9.9966137507883829e-02  9.9964287385824482e-02  9.9948279302717033e-02  9.9954922557301790e-02  9.9958768067965678e-02  9.9929104927606871e-02  9.9964376003231131e-02  9.9920661497243990e-02  9.9909389304672164e-02  9.9924615615168050e-02  9.9920316000262618e-02  9.9889933493277266e-02  9.9909982413481355e-02  9.9908232955516055e-02  9.9856568697307246e-02  9.9916922847982328e-02  9.9842758145129343e-02  9.9931852994853465e-02  9.9737649416838839e-02  1.0014576417241539e-01  9.9334190857747515e-02  9.9815146497282722e-02  1.0083432482748284e-01  1.0026511971100349e-01  1.0002937902498613e-01  1.0020047318883812e-01  1.0007459479225374e-01  1.0011680148764769e-01  1.0017482101579236e-01  1.0004297247536464e-01  1.0010675740442143e-01  1.0009056701048398e-01  1.0007912054510475e-01  1.0007482024341417e-01  1.0008548883947013e-01  1.0006296632721515e-01  1.0006685593571486e-01  1.0006750489645842e-01  1.0005585791203220e-01  1.0005498366293700e-01  1.0005527613801511e-01  1.0004698889563422e-01  1.0004654523071388e-01  1.0004523327321772e-01  1.0004104063175932e-01  1.0003819438967684e-01  1.0003956931752109e-01  1.0003153555242927e-01  1.0003835088141991e-01  1.0002197603562114e-01  1.0004582838762648e-01  1.0000000000000003e-01  9.9979076013845175e-02  1.0000000000000003e-01  9.9986021587786370e-02  9.9979503634220118e-02  9.9981140948915512e-02  9.9972934693348406e-02  9.9974271718177438e-02  9.9973352715182831e-02  9.9962453279277386e-02  9.9966455530384357e-02  9.9965983262132088e-02  9.9949683813014140e-02  9.9956075856066362e-02  9.9956316257261715e-02  9.9933512962668308e-02  9.9952580538021030e-02  9.9940352982121866e-02  9.9938979261380970e-02  9.9911560824476053e-02  9.9925249422056620e-02  9.9884219167351199e-02  9.9919625231919329e-02  9.9902281283535538e-02  9.9875898662071250e-02  9.9888103880790044e-02  9.9911038556771484e-02  9.9810128905897980e-02  9.9962505724088338e-02  9.9724331098161118e-02  1.0013621893375288e-01  9.9323142536937165e-02  9.9736092585517688e-02  1.0090338852864490e-01  1.0030416037742790e-01  1.0006503038082502e-01  1.0013969149570942e-01  1.0008403982278806e-01  1.0016261680491109e-01  1.0008211799957337e-01  1.0014590028509888e-01  1.0007558626169073e-01  1.0009316601931889e-01  1.0006875139550957e-01  1.0009939157147860e-01  1.0006324771119554e-01  1.0007239615734406e-01  1.0007325350863600e-01  1.0005873992095167e-01  1.0005880269312679e-01  1.0006064597565817e-01  1.0004920307279654e-01  1.0004866941611799e-01  1.0004870320961086e-01  1.0004134272935006e-01  1.0004111366326751e-01  1.0003865271131106e-01  1.0003689773236325e-01  1.0003079406133063e-01  1.0003742640495272e-01  1.0002035348842322e-01  1.0004365185077244e-01  1.0000000000000003e-01  9.9977070381456631e-02  1.0000000000000003e-01  9.9986339455671300e-02  9.9979225323973506e-02  9.9976376889865118e-02  9.9974535007528495e-02  9.9974942642740566e-02  9.9964617719015172e-02  9.9966997944387223e-02  9.9967053823364849e-02  9.9953361998163223e-02  9.9957066469547523e-02  9.9957354084130562e-02  9.9936609649883296e-02  9.9948646870536700e-02  9.9946512767872184e-02  9.9926102057182511e-02  9.9933899302733095e-02  9.9958972444595312e-02  9.9872601607985917e-02  9.9919078532773556e-02  9.9907849200947821e-02  9.9866687955248529e-02  9.9911019781076735e-02  9.9882713995552472e-02  9.9870042019777991e-02  9.9848723956664054e-02  9.9955443327634563e-02  9.9688340076513809e-02  1.0017070501261266e-01  9.9297654437336139e-02  9.9738675862969611e-02  1.0088231852247753e-01  1.0034985632541500e-01  1.0000491063954285e-01  1.0016210605396968e-01  1.0012792216951678e-01  1.0010330701921323e-01  1.0010544021577664e-01  1.0013399067571169e-01  1.0012538620957095e-01  1.0005288684936109e-01  1.0011903646853708e-01  1.0005922733705902e-01  1.0008215943265647e-01  1.0008025788482905e-01  1.0006429270388977e-01  1.0006309770328403e-01  1.0006815564589143e-01  1.0005348946196560e-01  1.0005417191593080e-01  1.0005407524721358e-01  1.0004520090829334e-01  1.0004374397468990e-01  1.0004426808118923e-01  1.0003685042897290e-01  1.0003819707813727e-01  1.0003244790355190e-01  1.0003669571526369e-01  1.0002125769864717e-01  1.0004383629116897e-01  1.0000000000000003e-01  9.9976273923841175e-02  1.0000000000000003e-01  9.9986373280766636e-02  9.9975286958978365e-02  9.9977718012559752e-02  9.9975032864366167e-02  9.9967570634810959e-02  9.9968130605860378e-02  9.9968335821684823e-02  9.9955801252915630e-02  9.9959655154177665e-02  9.9959648667784368e-02  9.9940095694046424e-02  9.9948630534751379e-02  9.9949229342335050e-02  9.9925357178225413e-02  9.9938180924375231e-02  9.9946298900887950e-02  9.9899163124927595e-02  9.9957247326979970e-02  9.9893023849420698e-02  9.9875471526004747e-02  9.9900020612507689e-02  9.9905997935180693e-02  9.9837247633021806e-02  9.9917517533695932e-02  9.9842684841766491e-02  9.9911705030138187e-02  9.9730293810929543e-02  1.0016706871109864e-01  9.9254353275199228e-02  9.9759977914050682e-02  1.0091333251366601e-01  1.0030859964815601e-01  1.0001546333477455e-01  1.0020260094388246e-01  1.0007429664772299e-01  1.0011998269661973e-01  1.0012870769502379e-01  1.0010085110546556e-01  1.0009303542395730e-01  1.0015579712029052e-01  1.0004116029247172e-01  1.0009456948975860e-01  1.0007861658349183e-01  1.0007187094338439e-01  1.0006437663108698e-01  1.0007510691205929e-01  1.0005536927406543e-01  1.0005736945983458e-01  1.0005922762090416e-01  1.0004819376852093e-01  1.0004688182807639e-01  1.0004672327361837e-01  1.0003995942200740e-01  1.0003739804376256e-01  1.0003890153259214e-01  1.0003015056407362e-01  1.0003616967614494e-01  1.0002106678620520e-01  1.0004213609926048e-01  1.0000000000000003e-01  9.9975624287836407e-02  1.0000000000000003e-01  9.9984571924841142e-02  9.9976167603207822e-02  9.9978449241293135e-02  9.9969665778674055e-02  9.9970667493651896e-02  9.9969652989620836e-02  9.9959208079737988e-02  9.9961699790370284e-02  9.9962540719188905e-02  9.9945092539720559e-02  9.9951171646847872e-02  9.9951459705720808e-02  9.9928937942163565e-02  9.9941043708930588e-02  9.9943617800500040e-02  9.9909612474505069e-02  9.9939860106488240e-02  9.9925278331691500e-02  9.9916926561986003e-02  9.9890313603175060e-02  9.9902613768827170e-02  9.9852162600678168e-02  9.9891711925923138e-02  9.9908231146839471e-02  9.9793602087136890e-02  9.9962760590673036e-02  9.9729557243634498e-02  1.0011803841941237e-01  9.9298461717539158e-02  9.9708539708927887e-02  1.0097014429650968e-01  1.0031901747410725e-01  1.0004786997508544e-01  1.0015900464775357e-01  1.0008459421640710e-01  1.0015372481821071e-01  1.0009033897957670e-01  1.0009992834809421e-01  1.0012732586219858e-01  1.0008407593536547e-01  1.0012309676816528e-01  1.0006609902241193e-01  1.0008334424321405e-01  1.0005969517648043e-01  1.0008567764396986e-01  1.0005636348616791e-01  1.0006181899615813e-01  1.0006360113206880e-01  1.0005107066415404e-01  1.0005037542374670e-01  1.0005253288685483e-01  1.0004166512170068e-01  1.0004146154305651e-01  1.0003969661273014e-01  1.0003614946882022e-01  1.0003060166165585e-01  1.0003667366293291e-01  1.0002032043375994e-01  1.0004151523440999e-01  1.0000000000000003e-01  9.9974248882813074e-02  1.0000000000000003e-01  9.9985079596277907e-02  9.9976540308712863e-02  9.9974602630402087e-02  9.9971680312218203e-02  9.9972232377368880e-02  9.9962206599886652e-02  9.9963686919988512e-02  9.9964434920456369e-02  9.9950617859972821e-02  9.9953648183367494e-02  9.9954655586641267e-02  9.9934432770160883e-02  9.9942507356146335e-02  9.9945881347522761e-02  9.9916139201055451e-02  9.9935691392358458e-02  9.9934415600478443e-02  9.9904363209774430e-02  9.9918229699190675e-02  9.9956925483782114e-02  9.9829158513241784e-02  9.9912310149449082e-02  9.9878039713712299e-02  9.9852525836839123e-02  9.9858154186802023e-02  9.9956781972209668e-02  9.9674783832113714e-02  1.0016987955704768e-01  9.9304414995135662e-02  9.9689376940373900e-02  1.0095804840333446e-01  1.0035917798062237e-01  1.0000681350668311e-01  1.0016296277967161e-01  1.0011754815466739e-01  1.0011488874878323e-01  1.0009341954693414e-01  1.0013283137233409e-01  1.0008354227979585e-01  1.0009481087720917e-01  1.0010662614002568e-01  1.0011089986961302e-01  1.0004217101183734e-01  1.0009921546925289e-01  1.0005094244773585e-01  1.0006779845316613e-01  1.0006662606747248e-01  1.0005394846134663e-01  1.0005167800491575e-01  1.0005621901829023e-01  1.0004460388690689e-01  1.0004382699984368e-01  1.0004430955474927e-01  1.0003535867396393e-01  1.0003616164380461e-01  1.0003154959229862e-01  1.0003401887288348e-01  1.0002012350510980e-01  1.0004038675577484e-01  1.0000000000000003e-01  9.9974085220853270e-02  1.0000000000000003e-01  9.9985630165754277e-02  9.9973762251701653e-02  9.9976413186737695e-02  9.9973103679862327e-02  9.9966598612959728e-02  9.9966065367469215e-02  9.9966490124449844e-02  9.9954796393687789e-02  9.9957638655414752e-02  9.9957943978759664e-02  9.9940253372145210e-02  9.9945815472692448e-02  9.9949133319263472e-02  9.9923293347632863e-02  9.9935930561110886e-02  9.9940267715436570e-02  9.9905389231245270e-02  9.9926535171276434e-02  9.9938880190697937e-02  9.9873398555432841e-02  9.9953194438280962e-02  9.9880468649022891e-02  9