<?xml version="1.0"?>
<VTKFile type="UnstructuredGrid"  version="0.1"  >
<UnstructuredGrid>
<Piece  NumberOfPoints="1933" NumberOfCells="3640">
<Points>
<DataArray  type="Float64"  NumberOfComponents="3"  format="ascii">0.4754658990023081 1.377973238088966e-05 0  5.475465932652064 -4.968190490846347e-06 0  5.475494089763846 7.499995136970443 0  0.4754940255445614 7.500013831873134 0  10.47546597648008 -2.381194420581888e-05 0  10.47549420641502 7.499976311582146 0  15.47546608154238 -4.27967165211767e-05 0  15.47549440329019 7.499957331938156 0  20.47546630353596 -6.192501730127261e-05 0  20.47549470753307 7.499938203968143 0  25.47546669442885 -8.117396346774821e-05 0  25.47549514596005 7.499918954129961 0  30.47546730055241 -0.0001005047563981023 0  30.47549574440761 7.499899622768358 0  35.47546816313299 -0.0001198678799727039 0  35.47549652725632 7.499880260059142 0  40.47546931963613 -0.00013920570880962 0  40.47549751725767 7.499860923901816 0  45.47547080526809 -0.0001584534438041204 0  45.47549873555879 7.499841679213126 0  50.47547265438711 -0.0001775388859079239 0  50.47550020179112 7.499822598259208 0  55.47547490174762 -0.0001963813157254404 0  55.47550193410907 7.499803761823568 0  60.47547758356127 -0.0002148895861623606 0  60.47550394907993 7.499785261131972 0  65.47548073837665 -0.0002329594167364123 0  65.47550626132438 7.499767200556414 0  70.47548440776043 -0.0002504697750852195 0  70.47550888279208 7.499749701212481 0  75.47548863673728 -0.0002672781235887138 0  75.47551182151584 7.499732905660662 0  80.47549347387836 -0.000283214177222296 0  80.47551507961991 7.499716984038264 0  85.47549897083584 -0.0002980716392010842 0  85.47551865026493 7.499702142097387 0  90.47550518093527 -0.0003115971208794123 0  90.47552251306054 7.499688631825125 0  95.47551215612897 -0.0003234750629606902 0  95.47552662728023 7.499676765591702 0  100.4755199410246 -0.0003333068821963464 0  100.4755309219656 7.499666935123516 0  105.4755285616336 -0.0003405816609793269 0  105.4755352817172 7.499659637020065 0  110.4755380044327 -0.0003446343201920765 0  110.4755395268062 7.499655506936922 0  115.4755481774719 -0.0003445851758080461 0  115.4755433865237 7.499655364661802 0  120.4755588378017 -0.0003392519300129983 0  120.4755464663445 7.499660271356886 0  125.4755694551436 -0.00032702171712634 0  125.4755482147113 7.499671596399876 0  130.4755789538444 -0.0003056686096456909 0  130.4755479090541 7.499691080424726 0  135.4755852207105 -0.0002721088185092324 0  135.4755447144585 7.499720855170379 0  140.4755841578863 -0.0002221342038471601 0  140.4755379482439 7.499763328115224 0  145.4755678320797 -0.0001503997157935038 0  145.4755278734333 7.499820774276285 0  150.4755207202595 -5.207465137544434e-05 0  150.4755178285521 7.499894654211584 0  160.4755282581471 8.597280189638509e-19 0  165.4754333374867 -0.0001442893679805053 0  165.4755119583926 7.499832062597547 0  160.4755376695391 7.499944169801038 0  170.4753863058805 -0.0002603476223449043 0  170.4754857091452 7.499727842924763 0  175.4753639752372 -0.0003563716726986418 0  175.4754649351794 7.499637221215407 0  180.475354770149 -0.0004371610973362396 0  180.4754501159236 7.499559208861742 0  185.4753526272001 -0.0005062464503562634 0  185.4754402735065 7.499491638736122 0  190.4753542790189 -0.0005663046285833448 0  190.4754342166945 7.499432436843071 0  195.4753579268869 -0.0006193517180538342 0  195.4754309071825 7.499379887232466 0  200.475362561653 -0.0006669002228099944 0  200.4754295335918 7.499332635543904 0  205.4753676073385 -0.0007100887951915014 0  205.4754294918174 7.499289628957811 0  210.4753727305111 -0.0007497823967241794 0  210.4754303424506 7.499250050068912 0  215.4753777364624 -0.0007866462043737354 0  215.4754317693665 7.499213260560017 0  220.4753825115532 -0.0008211989057868454 0  220.4754335461728 7.499178757230615 0  225.4753869905115 -0.0008538508321030112 0  225.475435510982 7.499146138887259 0  230.4753911374705 -0.000884931293468951 0  230.4754375481106 7.499115081750499 0  235.4753949347277 -0.00091470833160984 0  235.4754395750355 7.499085321221112 0  240.4753983759469 -0.0009434031605826519 0  240.4754415331645 7.499056638294904 0  245.4754014619947 -0.000971200869516711 0  245.4754433813289 7.499028849352423 0  250.475404198381 -0.0009982584697365924 0  250.4754450911988 7.499001798402887 0  255.4754065937283 -0.001024711029248455 0  255.4754466440696 7.498975351128193 0  260.4754086589201 -0.001050676403103384 0  260.47544802862 7.498949390267406 0  265.475410406758 -0.001076258902655391 0  265.4754492393812 7.498923812025967 0  270.4754118519999 -0.001101552123175817 0  270.4754502757244 7.498898523303775 0  275.4754130117616 -0.001126641046290914 0  275.4754511412227 7.498873439628533 0  280.4754139062518 -0.001151603431154333 0  280.4754518432869 7.498848483768069 0  285.4754145598622 -0.001176510382807798 0  285.4754523929712 7.49882358509294 0  290.4754150025694 -0.001201425803707688 0  290.4754528048435 7.498798679880742 0  295.475415271562 -0.001226404139815647 0  295.475453096844 7.498773712910461 0  300.4754154126622 -0.001251485332816053 0  300.4754532900648 7.498748640893976 0  305.4754154805011 -0.001276685041699901 0  305.4754534086908 7.498723438516345 0  310.4754155347456 -0.001301976893118896 0  310.4754534810873 7.49869810809551 0  5.475521946383945 14.99999537756884 0  0.4755218764517627 15.00001396008449 0  10.47552206234866 14.99997658540255 0  15.4755222479706 14.99995760529099 0  20.47552251901048 14.99993846499155 0  25.47552288801975 14.99991920093529 0  30.47552336604375 14.99989985770857 0  35.47552396300302 14.99988048701841 0  40.47552468754147 14.99986114704602 0  45.47552554666377 14.99984190242779 0  50.47552654526252 14.99982282488705 0  55.47552768553486 14.99980399449751 0  60.47552896623884 14.99978550158191 0  65.47553038172055 14.99976744929317 0  70.47553192062051 14.99974995697847 0  75.47553356416002 14.99973316448689 0  80.4755352838922 14.99971723764558 0  85.47553703880928 14.99970237519814 0  90.47553877172474 14.99968881756183 0  95.47554040495751 14.99967685778946 0  100.4755418355728 14.9996668550594 0  105.4755429309639 14.99965925072392 0  110.4755435265445 14.99965458614775 0  115.4755434292189 14.99965351970632 0  120.4755424335911 14.99965683630588 0  125.4755403633218 14.99966543461082 0  130.4755371580862 14.99968026112862 0  135.4755330361478 14.99970212984674 0  140.4755287668085 14.99973130884873 0  145.4755260608081 14.99976663947929 0  150.4755279447014 14.99980364220404 0  165.4755491215679 14.99976722731923 0  160.4755518200385 14.99984069872236 0  170.4755398250407 14.99968949033012 0  175.4755282262595 14.99961467269973 0  180.475517027869 14.99954583059548 0  185.475507429873 14.99948358529477 0  190.4754997691134 14.99942750898233 0  195.4754939656291 14.99937682290446 0  200.4754897715429 14.99933070297984 0  205.4754868962348 14.99928839771441 0  210.4754850632737 14.99924926255307 0  215.4754840322332 14.99921275963172 0  220.475483603578 14.99917844506959 0  225.4754836161267 14.99914595335754 0  230.4754839418188 14.99911498263175 0  235.475484480022 14.99908528206301 0  240.4754851523039 14.99905664151996 0  245.4754858979954 14.99902888326637 0  250.4754866705786 14.99900185534861 0  255.475487434815 14.99897542634002 0  260.4754881644977 14.99894948116547 0  265.4754888406976 14.99892391778956 0  270.4754894504043 14.99889864461482 0  275.4754899854594 14.99887357848944 0  280.4754904416977 14.99884864327412 0  285.475490818269 14.99882376895812 0  290.4754911170761 14.99879889133787 0  295.4754913424432 14.99877395224485 0  300.4754915011779 14.99874890016264 0  305.4754916035392 14.99872369061469 0  310.4754916660439 14.9986982844709 0  5.475549496113487 22.49999585910177 0  0.4755494277245398 22.50001434822542 0  10.47554959187737 22.49997708787352 0  15.47554973142186 22.49995809238726 0  20.47554992342316 22.4999389224805 0  25.47555017203888 22.49991962665191 0  30.47555047878489 22.49990025536273 0  35.47555084333687 22.49988086262218 0  40.4755512636502 22.49986150691787 0  45.47555173568099 22.49984225205836 0  50.47555225287154 22.49982316820947 0  55.47555280547461 22.49980433326447 0  60.47555337974189 22.49978583463037 0  65.47555395697871 22.49976777149775 0  70.47555451246227 22.49975025766181 0  75.47555501423741 22.49973342497055 0  80.47555542184627 22.49971742747064 0  85.47555568511915 22.49970244629377 0  90.47555574329492 22.49968869524304 0  95.4755555249625 22.49967642685495 0  100.4755549496766 22.49966593833754 0  105.475553932665 22.49965757607541 0  110.4755523948613 22.49965173609224 0  115.4755502815881 22.49964885558255 0  120.475547594433 22.49964938677632 0  125.4755444416808 22.49965373823819 0  130.4755411116256 22.49966215957713 0  135.4755381669084 22.49967453389755 0  140.4755365400437 22.49969003280286 0  145.4755375687428 22.49970660038091 0  150.4755428291849 22.49972033955165 0  165.4755710153546 22.49969460456258 0  160.475563505134 22.49974355198677 0  170.475572286605 22.49963826021061 0  175.4755693178162 22.49957972372687 0  180.4755640756442 22.49952233823221 0  185.4755580219428 22.49946785496662 0  190.4755520641027 22.49941695302527 0  195.4755466846728 22.49936970163438 0  200.475542088155 22.49932586775306 0  205.4755383148033 22.49928509450598 0  210.4755353169249 22.49924699566933 0  215.4755330059571 22.49921120127529 0  220.4755312796993 22.49917737660488 0  225.4755300370322 22.49914522751093 0  230.4755291851405 22.49911449920866 0  235.4755286424522 22.49908497230387 0  240.4755283392431 22.49905645796638 0  245.4755282170625 22.49902879315331 0  250.4755282276282 22.4990018362679 0  255.4755283315559 22.4989754633815 0  260.4755284970875 22.49894956502579 0  265.4755286989227 22.49892404351306 0  270.4755289171624 22.49889881072758 0  275.4755291363845 22.49887378633089 0  280.4755293448416 22.4988488963233 0  285.4755295337939 22.49882407189098 0  290.4755296970152 22.49879924842111 0  295.47
[...]
<PointData  Scalars="p"> 
<DataArray  type="Float64"  Name="p"  format="ascii">1.0000000000000001e-01  1.0000000000000003e-01  9.9999711940015321e-02  1.0000000000000003e-01  1.0000000000000003e-01  9.9998538296066863e-02  1.0000000000000003e-01  9.9997796994734642e-02  1.0000000000000003e-01  9.9996921210057904e-02  1.0000000000000003e-01  9.9996294283161577e-02  1.0000000000000003e-01  9.9996076052144459e-02  1.0000000000000003e-01  9.9995389330421264e-02  1.0000000000000003e-01  9.9995234397547331e-02  1.0000000000000003e-01  9.9995062032973162e-02  1.0000000000000003e-01  9.9993504924145174e-02  1.0000000000000003e-01  9.9995991659373146e-02  1.0000000000000003e-01  9.9994745967698806e-02  1.0000000000000003e-01  9.9995203050005893e-02  1.0000000000000003e-01  9.9994872972059848e-02  1.0000000000000003e-01  9.9996445485794672e-02  1.0000000000000003e-01  9.9996546413083476e-02  1.0000000000000003e-01  9.9998465509812784e-02  1.0000000000000003e-01  1.0000110299646385e-01  1.0000000000000003e-01  1.0000254799560108e-01  1.0000000000000003e-01  1.0000671915232427e-01  1.0000000000000003e-01  1.0000974703932712e-01  1.0000000000000003e-01  1.0001498915145607e-01  1.0000000000000003e-01  1.0001693744275385e-01  1.0000000000000003e-01  1.0002769268405472e-01  1.0000000000000003e-01  1.0002319395863640e-01  1.0000000000000003e-01  1.0004390252127805e-01  1.0000000000000003e-01  1.0002697197510005e-01  1.0000000000000003e-01  1.0006376035171584e-01  1.0000000000000003e-01  1.0002574274875670e-01  1.0000000000000001e-01  1.0009255146357893e-01  1.0000000000000001e-01  1.0000000000000003e-01  9.9978349095214858e-02  9.9895434312562648e-02  1.0000000000000003e-01  1.0001811614269970e-01  1.0000000000000003e-01  9.9987163913337937e-02  1.0000000000000003e-01  1.0000898591686214e-01  1.0000000000000003e-01  1.0000514172385205e-01  1.0000000000000003e-01  1.0001143250333569e-01  1.0000000000000003e-01  1.0001177999158667e-01  1.0000000000000003e-01  1.0001722432371327e-01  1.0000000000000003e-01  1.0001782922659903e-01  1.0000000000000003e-01  1.0002050595120233e-01  1.0000000000000003e-01  1.0002251688502334e-01  1.0000000000000003e-01  1.0002388220879929e-01  1.0000000000000003e-01  1.0002499208912399e-01  1.0000000000000003e-01  1.0002640078535377e-01  1.0000000000000003e-01  1.0002701347804274e-01  1.0000000000000003e-01  1.0002763531488428e-01  1.0000000000000003e-01  1.0002834497357506e-01  1.0000000000000003e-01  1.0002858374869399e-01  1.0000000000000003e-01  1.0002893156239520e-01  1.0000000000000003e-01  1.0002905241976030e-01  1.0000000000000003e-01  1.0002941313113323e-01  1.0000000000000003e-01  1.0002896121246860e-01  1.0000000000000003e-01  1.0002987219822206e-01  1.0000000000000003e-01  1.0002833920389090e-01  1.0000000000000003e-01  1.0003089150583935e-01  1.0000000000000003e-01  1.0002640164816173e-01  1.0000000000000003e-01  1.0003379904387801e-01  1.0000000000000003e-01  1.0002133290861322e-01  1.0000000000000003e-01  1.0004323716085964e-01  1.0000000000000001e-01  1.0000000000000003e-01  1.0000074917491576e-01  1.0000000000000003e-01  1.0000005236231645e-01  9.9999946176534904e-02  9.9999952909457568e-02  1.0000045309905926e-01  1.0000025753132664e-01  1.0000058026297363e-01  1.0000153848957095e-01  1.0000070978065444e-01  1.0000138503129462e-01  1.0000052072532387e-01  1.0000451683483925e-01  1.0000122797033674e-01  1.0000408207252942e-01  1.0000208528976737e-01  1.0000445557613710e-01  1.0000657146064777e-01  1.0000683982319956e-01  1.0000929966343035e-01  1.0001346500764856e-01  1.0001287372527506e-01  1.0001840280435617e-01  1.0001941587153852e-01  1.0002495038875536e-01  1.0002091212960579e-01  1.0003802214938665e-01  1.0001257534704464e-01  1.0006089718863373e-01  9.9986717102667225e-02  1.0009266978036585e-01  1.0006465699901188e-01  9.9879641937880431e-02  9.9934178005074717e-02  9.9999198076390308e-02  9.9985757207237472e-02  9.9988862869005810e-02  9.9985990753679005e-02  9.9995716941854218e-02  9.9992416718039517e-02  9.9996009900308200e-02  9.9998893688374599e-02  9.9999585285853940e-02  1.0000061210455696e-01  1.0000299769796066e-01  1.0000323222926799e-01  1.0000398583321989e-01  1.0000525364729106e-01  1.0000559440462385e-01  1.0000599589114291e-01  1.0000693550452616e-01  1.0000709262869771e-01  1.0000770559391856e-01  1.0000788682110556e-01  1.0000887849630814e-01  1.0000809619953589e-01  1.0001047578786790e-01  1.0000734587336232e-01  1.0001396071192645e-01  1.0000351220829362e-01  1.0002069181294455e-01  1.0000000000000003e-01  1.0000169668470360e-01  1.0000000000000003e-01  1.0000049743364081e-01  1.0000049474846555e-01  1.0000085297806807e-01  1.0000045597895069e-01  1.0000082709394637e-01  1.0000208534511046e-01  1.0000161641767205e-01  1.0000223917196527e-01  1.0000310622479486e-01  1.0000383635764175e-01  1.0000013596442704e-01  1.0000963529217904e-01  1.0000297698921241e-01  1.0000586890754115e-01  1.0000794845048164e-01  1.0000720359008147e-01  1.0001060363112253e-01  1.0001555479140592e-01  1.0001544533778868e-01  1.0002008431385229e-01  1.0002758063846157e-01  1.0002529714367424e-01  1.0003632761981968e-01  1.0003422508806045e-01  1.0004741433002999e-01  1.0003158162193340e-01  1.0007364001685078e-01  9.9996333874929524e-02  1.0014228457843163e-01  1.0000346820245644e-01  9.9948780164780052e-02  9.9945603206539682e-02  9.9996039311190152e-02  9.9983991576997597e-02  9.9977600555785640e-02  9.9999624127879147e-02  9.9987355972136191e-02  9.9995339831578142e-02  1.0000065976344015e-01  1.0000123825671550e-01  1.0000298238509432e-01  1.0000780461767581e-01  1.0000785963366982e-01  1.0000936328487699e-01  1.0001194917214107e-01  1.0001228786207181e-01  1.0001303649367004e-01  1.0001467213514532e-01  1.0001507273453811e-01  1.0001554490204864e-01  1.0001683723998783e-01  1.0001689696118543e-01  1.0001804737888328e-01  1.0001773014458588e-01  1.0001999402179257e-01  1.0001756646965922e-01  1.0002318293601867e-01  1.0001441122575506e-01  1.0003273049652382e-01  1.0000000000000003e-01  1.0000239244172306e-01  1.0000000000000003e-01  1.0000123578952570e-01  1.0000240610352987e-01  1.0000184540083119e-01  1.0000238776038715e-01  1.0000394225997791e-01  1.0000367519741631e-01  1.0000478346581387e-01  1.0000674894407216e-01  1.0000614385929767e-01  1.0000666186720489e-01  1.0001129929329786e-01  1.0000334169565943e-01  1.0001462424608570e-01  1.0001144688420940e-01  1.0001114352025788e-01  1.0001240238926373e-01  1.0001838385527805e-01  1.0001616978887061e-01  1.0002217062392611e-01  1.0002751000817114e-01  1.0002833056257018e-01  1.0003195448105685e-01  1.0004353654498792e-01  1.0003361097292746e-01  1.0005630068546557e-01  1.0003110062200700e-01  1.0007905214881037e-01  9.9994089830512056e-02  1.0014732377944928e-01  9.9982319349794374e-02  9.9919107501434554e-02  9.9977731044180132e-02  9.9986035985234187e-02  9.9939412015901632e-02  1.0000419026489074e-01  9.9966705277381177e-02  9.9982641348931894e-02  9.9986329697615617e-02  9.9987578777293182e-02  9.9988308678387802e-02  9.9996120064753044e-02  9.9995156124144766e-02  9.9997256861148437e-02  1.0000094169838504e-01  1.0000137005404670e-01  1.0000224925649315e-01  1.0000471131030308e-01  1.0000494805633410e-01  1.0000579166689576e-01  1.0000724898967957e-01  1.0000798729435720e-01  1.0000832915753298e-01  1.0001016197361395e-01  1.0000965634154672e-01  1.0001245587022690e-01  1.0000978461701671e-01  1.0001659423045059e-01  1.0000723570622999e-01  1.0002439568980813e-01  1.0000000000000003e-01  1.0000309606787308e-01  1.0000000000000003e-01  1.0000233967124983e-01  1.0000294727915757e-01  1.0000304815426936e-01  1.0000445277053654e-01  1.0000416749460656e-01  1.0000522178819049e-01  1.0000769833819104e-01  1.0000713661805700e-01  1.0000816202542706e-01  1.0001231079821528e-01  1.0000927401708061e-01  1.0001346229128912e-01  1.0000925236743113e-01  1.0001901093434844e-01  1.0001398683090353e-01  1.0002062580633382e-01  1.0001631381037847e-01  1.0002191097058087e-01  1.0002885553935895e-01  1.0002653366605561e-01  1.0003479942839424e-01  1.0004062320787127e-01  1.0004330983693741e-01  1.0004350276495527e-01  1.0006381994243811e-01  1.0003570655629898e-01  1.0009027782872848e-01  9.9997129044448740e-02  1.0016574283717232e-01  1.0000501944199297e-01  9.9919969668979480e-02  9.9953707451161888e-02  9.9963568332589472e-02  9.9987079281463415e-02  9.9957782396619496e-02  9.9978429967026425e-02  9.9981552366506909e-02  9.9983221625435187e-02  9.9980152661880151e-02  9.9993805248976650e-02  9.9990577021843260e-02  9.9993919337532156e-02  9.9999432361419380e-02  9.9999648452265208e-02  1.0000081951203181e-01  1.0000472110869173e-01  1.0000487853683335e-01  1.0000574606681477e-01  1.0000811567909522e-01  1.0000847895794703e-01  1.0000946366049224e-01  1.0001080939378776e-01  1.0001207347307635e-01  1.0001198410683312e-01  1.0001489057346284e-01  1.0001287783175099e-01  1.0001891654799815e-01  1.0001055810450590e-01  1.0002823788902292e-01  1.0000000000000003e-01  1.0000390256961983e-01  1.0000000000000003e-01  1.0000262588699160e-01  1.0000396370872422e-01  1.0000496346764712e-01  1.0000506733049219e-01  1.0000576280502313e-01  1.0000821301123079e-01  1.0000795140182772e-01  1.0000928383932758e-01  1.0001277937794249e-01  1.0001177066454418e-01  1.0001435406685549e-01  1.0001655412169809e-01  1.0001726295809218e-01  1.0001008974533844e-01  1.0003030683284146e-01  1.0001737215147755e-01  1.0002391736045121e-01  1.0002846602067048e-01  1.0002637702892379e-01  1.0003200498091835e-01  1.0004287843736356e-01  1.0003698276508817e-01  1.0005013932667239e-01  1.0005096361711106e-01  1.0006192921443303e-01  1.0004279184486328e-01  1.0009664215123913e-01  9.9994984290569508e-02  1.0017805372761157e-01  9.9975629297664695e-02  9.9946262850311912e-02  9.9938209984961418e-02  9.9987349272728621e-02  9.9959782697505231e-02  9.9966232851700171e-02  9.9963966490478992e-02  9.9983373552938584e-02  9.9963832944926390e-02  9.9989196499560437e-02  9.9978749234214154e-02  9.9984628556081964e-02  9.9991602810084776e-02  9.9991920141319940e-02  9.9992910459814274e-02  9.9998579395997281e-02  9.9998333664196346e-02  9.9999619945677784e-02  1.0000283497521331e-01  1.0000319657570574e-01  1.0000385615781125e-01  1.0000635517664662e-01  1.0000659492551563e-01  1.0000815333296841e-01  1.0000879050553672e-01  1.0001151148424985e-01  1.0000945368443130e-01  1.0001605349298327e-01  1.0000789796020737e-01  1.0002466518818290e-01  1.0000000000000003e-01  1.0000432609038373e-01  1.0000000000000003e-01  1.0000316166456298e-01  1.0000547542879593e-01  1.0000521518823839e-01  1.0000625481025149e-01  1.0000842653379927e-01  1.0000808681100062e-01  1.0000942664673097e-01  1.0001281395424458e-01  1.0001179425265884e-01  1.0001438474141697e-01  1.0001844477956200e-01  1.0001722935720521e-01  1.0001731935309671e-01  1.0002655492277075e-01  1.0001187445676818e-01  1.0003286062026184e-01  1.0002925787048408e-01  1.0002686389963815e-01  1.0003079878617052e-01  1.0004029227339235e-01  1.0003668445053041e-01  1.0004358137808762e-01  1.0005776625667383e-01  1.0004657683275150e-01  1.0006832798272808e-01  1.0005173727525740e-01  1.0009267878492402e-01  1.0000515847163906e-01  1.0018283098043262e-01  9.9962496216536634e-02  9.9933548038784570e-02  9.9961199846185594e-02  9.9963242221028162e-02  9.9949502817500299e-02  9.9978134367045265e-02  9.9972384103780745e-02  9.9949643062103452e-02  9.9991300718618198e-02  9.9970455347799830e-02  9.9979438701848833e-02  9.9985523642925830e-02  9.9987326403746510e-02  9.9987237184023761e-02  9.9995601159529310e-02  9.9994885602521635e-02  9.9996262084321080e-02  1.0000068564266353e-01  1.0000110911994392e-01  1.0000196856461113e-01  1.0000481834090878e-01  1.0000545288823891e-01  1.0000610688458304e-01  1.0000872417269516e-01  1.0000869435482558e-01  1.0001142581799774e-01  1.0001022057912629e-01  1.0001629306527621e-01  1.0000864097889456e-01  1.0002542034735155e-01  1.0000000000000003e-01  1.0000483291393103e-01  1.0000000000000003e-01  1.0000395730128232e-01  1.0000557150668754e-01  1.0000601496142542e-01  1.0000835558328761e-01  1.0000823385074714e-01  1.0000954951900445e-01  1.0001255263404729e-01  1.0001181762064351e-01  1.0001357378129705e-01  1.0001829993797265e-01  1.0001704645821846e-01  1.0001896117919548e-01  1.0002553985503912e-01  1.0001963425886189e-01  1.0002773588364400e-01  1.0002144556348169e-01  1.0003690583846428e-01  1.0002989963646298e-01  1.0004154392784691e-01  1.0003231481581654e-01  1.0004288419748227e-01  1.0005118868861684e-01  1.0004981684796527e-01  1.0005240596449914e-01  1.0007591548382788e-01  1.0004588086956570e-01  1.0009757983429081e-01  1.0001365748038803e-01  1.0017557945216982e-01  9.9978226608808160e-02  9.9923080900020320e-02  9.9944094515382984e-02  9.9949945971797335e-02  9.9963804114754223e-02  9.9964494268573678e-02  9.9955184619365423e-02  9.9982723712588803e-02  9.9956583864170986e-02  9.9978772761228948e-02  9.9976476565356978e-02  9.9982915899533134e-02  9.9977602837268448e-02  9.9990787691922170e-02  9.9988475369585536e-02  9.9990603422559915e-02  9.9996323342237056e-02  9.9996512338935112e-02  9.9997256301033552e-02  1.0000156683591918e-01  1.0000169832716796e-01  1.0000276663496818e-01  1.0000507426939918e-01  1.0000637613598212e-01  1.0000649147009195e-01  1.0001012610037814e-01  1.0000844729137867e-01  1.0001452508364198e-01  1.0000752121682108e-01  1.0002357469893056e-01  1.0000000000000003e-01  1.0000539475038037e-01  1.0000000000000003e-01  1.0000393697148310e-01  1.0000610670288923e-01  1.0000747377732026e-01  1.0000811100244283e-01  1.0000917296760821e-01  1.0001211535642536e-01  1.0001182293946943e-01  1.0001310943068832e-01  1.0001697083053099e-01  1.0001633098734378e-01  1.0001840833126832e-01  1.0002421927857587e-01  1.0002114764290053e-01  1.0002538938821663e-01  1.0002942202014981e-01  1.0003003607216299e-01  1.0002007414421182e-01  1.0005128906772846e-01  1.0003174001890622e-01  1.0004088415351438e-01  1.0005006638567922e-01  1.0004177199665562e-01  1.0005462788055997e-01  1.0006170497188871e-01  1.0006475810520275e-01  1.0005267034583640e-01  1.0010323425341557e-01  1.0001023695745484e-01  1.0017444499153569e-01  9.9968365431092360e-02  9.9935102516037988e-02  9.9933043984143891e-02  9.9964999528012646e-02  9.9951092319388146e-02  9.9949588111581431e-02  9.9971475921299402e-02  9.9967257210469410e-02  9.9968420724822704e-02  9.9966538426624021e-02  9.9985178220531906e-02  9.9968565961244052e-02  9.9988615221763236e-02  9.9982038048348182e-02  9.9985714116923238e-02  9.9992403904812482e-02  9.9993110483874811e-02  9.9993531329451879e-02  9.9998881198165065e-02  9.9999032969941212e-02  1.0000005278237796e-01  1.0000357878565998e-01  1.0000385308277326e-01  1.0000525126852787e-01  1.0000686379225047e-01  1.0000932194562838e-01  1.0000795099995474e-01  1.0001438921843538e-01  1.0000745882404463e-01  1.0002316502452378e-01  1.0000000000000003e-01  1.0000563696125271e-01  1.0000000000000003e-01  1.0000417165664501e-01  1.0000718985193945e-01  1.0000715823895709e-01  1.0000871533450026e-01  1.0001122685649294e-01  1.0001135892760804e-01  1.0001275352706558e-01  1.0001637017146789e-01  1.0001525605700248e-01  1.0001734108612584e-01  1.0002257771778224e-01  1.0002051869434748e-01  1.0002354363815405e-01  1.0002977394717037e-01  1.0002764283734721e-01  1.0002786844028469e-01  1.0004269881541294e-01  1.0001993298801194e-01  1.0005153882926403e-01  1.0004703788735353e-01  1.0004261297006846e-01  1.0004622088959857e-01  1.0006445068246098e-01  1.0004783396287693e-01  1.0006989441597604e-01  1.0006224434043240e-01  1.0008957910572380e-01  1.0001880742661194e-01  1.0017424411207544e-01  9.9958658432505551e-02  9.9924037238912425e-02  9.9945530085928658e-02  9.9955366728959841e-02  9.9938513559883951e-02  9.9963535494184866e-02  9.9958653288452923e-02  9.9958416237741834e-02  9.9974480428564591e-02  9.9978453313784688e-02  9.9956920892975726e-02  9.9991141554528609e-02  9.9974611174943231e-02  9.9981809155993237e-02  9.9986297302954510e-02  9.9989054270987088e-02  9.9988151241866455e-02  9.9995684061144410e-02  9.9995444497800054e-02  9.9996301150409167e-02  1.0000047669963444e-01  1.0000145037194447e-01  1.0000193177667205e-01  1.0000537423049174e-01  1.0000531505425472e-01  1.0000792648657184e-01  1.0000752221754802e-01  1.0001315633255167e-01  1.0000666792992184e-01  1.0002197443236856e-01  1.0000000000000003e-01  1.0000586948496246e-01  1.0000000000000003e-01  1.0000462002811124e-01  1.0000686084566129e-01  1.0000738006529014e-01  1.0001008395535053e-01  1.0001031856325900e-01  1.0001182964573020e-01  1.0001513880742390e-01  1.0001464813149639e-01  1.0001610638274883e-01  1.0002077601250199e-01  1.0001917582268867e-01  1.0002148107157373e-01  1.0002766739522403e-01  1.0002522700874143e-01  1.0002802858410320e-01  1.0003794302327015e-01  1.0002889093339136e-01  1.0004034225170969e-01  1.0003327060308088e-01  1.0005213400153343e-01  1.0004509126605961e-01  1.0005950351068180e-01  1.0004779246008018e-01  1.0005426639673702e-01  1.0007900297690613e-01  1.0004710624248128e-01  1.0009212259678743e-01  1.0003117821332397e-01  1.0015419798828709e-01  9.9974159653905575e-02  9.9900558830596856e-02  9.9939657191438783e-02  9.9944219959950370e-02  9.9951673139589997e-02  9.9955586373851726e-02  9.9948211574771059e-02  9.9967784862994666e-02  9.9969383667083939e-02  9.9965422209454757e-02  9.9985171342939258e-02  9.9966433666659915e-02  9.9983631112613686e-02  9.9980416229948868e-02  9.9987068658451014e-02  9.9981932910401292e-02  9.9992850118734392e-02  9.9991664007395856e-02  9.9992954051208449e-02  9.9998179742973703e-02  9.9998484914000943e-02  9.9999313600774270e-02  1.0000311122220211e-01  1.0000414184865786e-01  1.0000433476144995e-01  1.0000820561179148e-01  1.0000689204987252e-01  1.0001231625727415e-01  1.0000668410780837e-01  1.0002117811984820e-01  1.0000000000000003e-01  1.0000623001233325e-01  1.0000000000000003e-01  1.0000441252408265e-01  1.0000700799972137e-01  1.0000830016714050e-01  1.0000936364280064e-01  1.0001051763254531e-01  1.0001364422957340e-01  1.0001366977745972e-01  1.0001507180787912e-01  1.0001893825637730e-01  1.0001827404111210e-01  1.0001977521332425e-01  1.0002514474411094e-01  1.0002312171515008e-01  1.0002560225117846e-01  1.0003414016808226e-01  1.0002915215181586e-01  1.0003513745927178e-01  1.0004104403628915e-01  1.0004104889399763e-01  1.0002725353999348e-01  1.0007209457757843e-01  1.0004118669858447e-01  1.0005786019560804e-01  1.0006389358937101e-01  1.0006009294032911e-01  1.0005177090538810e-01  1.0010240415497820e-01  1.0001563712167796e-01  1.0015237203157111e-01  9.9982168106920566e-02  9.9892562188124881e-02  9.9924286630970929e-02  9.9956504736601934e-02  9.9947543506793898e-02  9.9944852248035829e-02  9.9959630249056811e-02  9.9962585955471014e-02  9.9957330937863964e-02  9.9977157555995413e-02  9.9975662120334652e-02  9.9977608762058801e-02  9.9972975241399392e-02  9.9990384824103579e-02  9.9975227625221055e-02  9.9991325039199885e-02  9.9986653509119949e-02  9.9989301428638877e-02  9.9994790045467838e-02  9.9995982503567837e-02  9.9996085587955238e-02  1.0000080119358201e-01  1.0000111923352101e-01  1.0000272896778781e-01  1.0000501158725787e-01  1.0000721523096807e-01  1.0000597512888815e-01  1.0001212066140622e-01  1.0000613463155993e-01  1.0002007284704130e-01  1.0000000000000003e-01  1.0000613099276162e-01  1.0000000000000003e-01  1.0000425679118335e-01  1.0000748378806229e-01  1.0000747172642162e-01  1.0000918684333697e-01  1.0001159762974626e-01  1.0001208331264684e-01  1.0001349149142394e-01  1.0001700754662737e-01  1.0001638843174693e-01  1.0001813772902790e-01  1.0002285855561596e-01  1.0002098663266186e-01  1.0002275754089796e-01  1.0002980749031627e-01  1.0002677916104628e-01  1.0003033505669770e-01  1.0003937517275577e-01  1.0003524621315291e-01  1.0003563519171638e-01  1.0005580161406862e-01  1.0002485394683722e-01  1.0006491074217330e-01  1