<?xml version="1.0"?>
<VTKFile type="UnstructuredGrid"  version="0.1"  >
<UnstructuredGrid>
<Piece  NumberOfPoints="1933" NumberOfCells="3640">
<Points>
<DataArray  type="Float64"  NumberOfComponents="3"  format="ascii">0.475464885960415 4.87690661121142e-05 0  5.475464917514684 2.986300666782751e-05 0  5.475493310725757 7.500029962325412 0  0.4754932500205357 7.500048817785462 0  10.4754649583461 1.086604244065993e-05 0  10.47549342123502 7.500010982975823 0  15.47546505688635 -8.265415640306599e-06 0  15.475493608037 7.499991856501523 0  20.47546526614343 -2.753433486463934e-05 0  20.47549389704502 7.499972587969487 0  25.47546563568234 -4.691947338712451e-05 0  25.47549431390447 7.499953202032774 0  30.47546620977318 -6.638439864165686e-05 0  30.4754948833717 7.49993373660412 0  35.47546702787621 -8.588244630143766e-05 0  35.47549562886093 7.499914238982599 0  40.47546812591197 -0.0001053592184938961 0  40.47549657228107 7.49989476383224 0  45.47546953768914 -0.0001247534906533327 0  45.47549773406318 7.499875372493777 0  50.47547129625237 -0.0001439970123167801 0  50.47549913325192 7.499856133285233 0  55.47547343507593 -0.0001630134566579793 0  55.47550078755265 7.499837122598187 0  60.47547598908702 -0.0001817166214642886 0  60.47550271324096 7.499818426714057 0  65.47547899552168 -0.0002000078716775584 0  65.4755049248393 7.499800144360568 0  70.47548249459675 -0.0002177727157961942 0  70.47550743445208 7.499782390116194 0  75.47548652996007 -0.0002348763063789125 0  75.47551025061199 7.499765298861561 0  80.47549114881674 -0.0002511575299819356 0  80.47551337642619 7.499749031587043 0  85.47549640154287 -0.000266421181782112 0  85.47551680672316 7.499733783006983 0  90.47550234042531 -0.0002804274737787198 0  90.47552052375909 7.499719791621442 0  95.47550901687676 -0.0002928777565878309 0  95.47552449085514 7.499707353122636 0  100.4755164759211 -0.0003033947729693816 0  100.4755286431044 7.499696838377719 0  105.4755247457431 -0.0003114949012588257 0  105.4755328740114 7.499688717623141 0  110.4755338181667 -0.00031654853934849 0  110.4755370167668 7.499683592895766 0  115.4755436122987 -0.0003177228391200122 0  115.4755408191212 7.499682240842032 0  120.4755539065554 -0.000313898279765306 0  120.4755439123675 7.499685667177578 0  125.4755642107833 -0.0003035472625173827 0  125.4755457798454 7.499695170502013 0  130.4755735239192 -0.0002845606653117899 0  130.4755457433473 7.499712403052468 0  135.4755798713191 -0.0002540143709181266 0  135.4755430176101 7.499739391614988 0  140.4755794136181 -0.0002079124595289162 0  140.4755369582676 7.499778432348458 0  145.4755647040161 -0.0001411625378044502 0  145.4755278075181 7.499831711250641 0  150.4755211510845 -4.90983442646343e-05 0  150.4755186987481 7.499900665992807 0  160.4755282581473 7.641504248896597e-19 0  165.4754374121109 -0.0001374010047236512 0  165.4755125805458 7.4998401483746 0  160.4755372882043 7.499946911999269 0  170.4753921413095 -0.000248206480404546 0  170.4754873487807 7.499740585770347 0  175.4753704187002 -0.0003401505999305989 0  175.4754673313591 7.499653766060394 0  180.4753612430859 -0.0004177420648618461 0  180.4754529929601 7.499578808315921 0  185.4753588454261 -0.0004842981193552509 0  185.4754434081837 7.499513689759931 0  190.4753601118714 -0.0005423365476041718 0  190.4754374460739 7.499456464177435 0  195.4753633243773 -0.0005937553005047484 0  195.475434119332 7.499405518028381 0  200.4753675161599 -0.0006399792281852666 0  200.4754326553644 7.499359576332695 0  205.4753721332057 -0.0006820815750938211 0  205.4754324780925 7.499317647213489 0  210.4753768530655 -0.0007208779945827968 0  210.4754331677962 7.499278960118433 0  215.4753814860558 -0.0007569960146721265 0  215.4754344219393 7.499242913004671 0  220.47538592032 -0.0007909251732967905 0  220.4754360233819 7.499209031036462 0  225.4753900906155 -0.0008230529091571115 0  225.4754378164536 7.499176935454495 0  230.4753939601784 -0.0008536902989159709 0  230.4754396895764 7.499146320438506 0  235.4753975099443 -0.0008830906592009829 0  235.475441562868 7.499116935945617 0  240.4754007320108 -0.0009114631486746524 0  240.4754433793593 7.499088574919939 0  245.4754036256155 -0.0009389828509392732 0  245.475445098795 7.499061063677049 0  250.4754061946512 -0.000965798357188184 0  250.4754466932592 7.499034254597661 0  255.4754084461665 -0.0009920375482589359 0  255.4754481441037 7.499008020515156 0  260.4754103895197 -0.001017812055112987 0  260.4754494398014 7.498982250364198 0  265.4754120360193 -0.001043220720994089 0  265.4754505744742 7.49895684579326 0  270.4754133989341 -0.001068352272238325 0  270.4754515469182 7.498931718546961 0  275.4754144938477 -0.001093287307748697 0  275.4754523599836 7.498906788511035 0  280.4754153393359 -0.001118099620571565 0  280.475453020218 7.498881982395078 0  285.4754159579842 -0.001142856746698706 0  285.4754535376728 7.498857233120099 0  290.4754163777038 -0.001167619463806678 0  290.4754539257749 7.49883248009152 0  295.4754166332737 -0.001192439683627744 0  295.4754542011885 7.498807670686972 0  300.4754167677015 -0.001217355706663293 0  300.4754543836056 7.498782763477008 0  305.4754168324316 -0.001242382997646104 0  305.4754544956885 7.498757733910891 0  310.4754168838641 -0.001267497379917068 0  310.4754545640942 7.498732583425972 0  5.47552141783929 15.00003019006813 0  0.4755213516200385 15.00004893782583 0  10.47552152801719 15.00001124292652 0  15.47552170474536 14.9999921164327 0  20.47552196314851 14.99997283646938 0  25.47552231531435 14.99995343722763 0  30.47552277192079 14.99993396069533 0  35.47552334260588 14.99991445565832 0  40.47552403582987 14.9998949770717 0  45.47552485853709 14.99987558602868 0  50.47552581571343 14.99985635034888 0  55.47552690984028 14.99983734576788 0  60.47552814019771 14.99981865773104 0  65.47552950195204 14.99980038383609 0  70.47553098494069 14.99978263701959 0  75.47553257206067 14.9997655496395 0  80.47553423715021 14.99974927866772 0  85.47553594226088 14.99973401227191 0  90.47553763423987 14.99971997812681 0  95.47553924064574 14.99970745382493 0  100.4755406652307 14.99969677970062 0  105.4755417837218 14.9996883741103 0  110.4755424415562 14.9996827504658 0  115.475542457011 14.99968053357228 0  120.4755416362696 14.99968246905804 0  125.4755398121026 14.99968941198666 0  130.4755369254399 14.99970226562268 0  135.475533178173 14.99972181254471 0  140.475529289652 14.99974832604731 0  145.4755268648689 14.99978073971988 0  150.4755287486591 14.99981485724845 0  165.4755484435946 14.99977868155856 0  160.4755511233989 14.99984900102736 0  170.4755395061106 14.9997041841682 0  175.4755283758743 14.99963234088177 0  180.4755176218493 14.99956608035719 0  185.47550838825 14.9995060160188 0  190.4755009988159 14.99945175981965 0  195.4754953802247 14.99940258590093 0  200.4754912985897 14.99935772182037 0  205.475488478598 14.99931646141582 0  210.4754866578309 14.99927819812205 0  215.4754856076842 14.99924242525585 0  220.4754851381581 14.99920872433039 0  225.4754850955526 14.99917675050801 0  230.4754853575681 14.99914621881796 0  235.4754858279449 14.99911689232874 0  240.4754864315253 14.99908857244047 0  245.4754871100571 14.99906109108073 0  250.4754878187718 14.99903430448451 0  255.47548852366 14.99900808824757 0  260.4754891993369 14.99898233339373 0  265.4754898273749 14.99895694325337 0  270.4754903950097 14.9989318310085 0  275.4754908941244 14.99890691781034 0  280.4754913204305 14.99888213142172 0  285.4754916728187 14.99885740537541 0  290.4754919528234 14.99883267866086 0  295.4754921642997 14.99880789592691 0  300.4754923134738 14.99878300804913 0  305.4754924098416 14.99875797247514 0  310.4754924688004 14.99873275158852 0  5.475549230799215 22.50003064685757 0  0.4755491659888235 22.50004930416208 0  10.47554932192706 22.50001172078125 0  15.47554945514765 22.49999258049355 0  20.47554963886165 22.49997327299207 0  25.4755498771665 22.49995384403548 0  30.47555017165332 22.49993434126985 0  35.47555052217849 22.49991481572644 0  40.47555092698504 22.4998953226979 0  45.47555138244339 22.49987592253121 0  50.47555188256732 22.4998566816055 0  55.47555241837593 22.49983767362735 0  60.47555297712638 22.49981898132263 0  65.47555354141863 22.49980069858858 0  70.47555408816935 22.49978293317103 0  75.4755545874677 22.49976580993963 0  80.47555500136376 22.49974947482929 0  85.47555528270892 22.49973409949088 0  90.4755553742983 22.49971988661679 0  95.47555520877522 22.49970707573489 0  100.4755547100986 22.49969594891282 0  105.4755537979055 22.49968683514785 0  110.4755523968696 22.49968011099358 0  115.4755504541919 22.49967619282774 0  120.4755479695087 22.49967551253275 0  125.4755450422957 22.49967846253494 0  130.4755419408924 22.49968528749672 0  135.4755391914865 22.49969588886417 0  140.4755376684983 22.49970949925659 0  145.4755386286265 22.49972419419408 0  150.4755435547886 22.49973630889683 0  165.475570030929 22.49970985927776 0  160.4755629121206 22.49975706338369 0  170.4755712300819 22.49965557468299 0  175.4755683982652 22.4995991408453 0  180.4755633989979 22.49954373635021 0  185.4755576207195 22.49949103431805 0  190.4755519271193 22.49944169058707 0  195.4755467788344 22.49939578067042 0  200.4755423722385 22.49935309133394 0  205.475538747297 22.49931329009002 0  210.4755358600027 22.49927601516206 0  215.4755336271344 22.4992409190621 0  220.4755319521956 22.49920768687241 0  225.4755307394678 22.49917604150448 0  230.4755299009367 22.49914574271308 0  235.4755293591354 22.49911658345147 0  240.4755290477608 22.49908838538574 0  245.4755289111581 22.49906099443354 0  250.4755289032952 22.49903427669895 0  255.4755289865715 22.49900811492802 0  260.4755291306226 22.4989824054956 0  265.4755293112183 22.49895705588485 0  270.475529509265 22.49893198260764 0  275.475529709932 22.49890710951239 0  280.4755299018901 22.49888236642573 0  285.4755300766783 22.49885768806189 0  290.4755302282328 22.49883301308896 0  295.4755303526728 22
[...]
<PointData  Scalars="p"> 
<DataArray  type="Float64"  Name="p"  format="ascii">1.0000000000000001e-01  1.0000000000000003e-01  9.9999711939767338e-02  1.0000000000000003e-01  1.0000000000000003e-01  9.9998538295448816e-02  1.0000000000000003e-01  9.9997796993932658e-02  1.0000000000000003e-01  9.9996921208916248e-02  1.0000000000000003e-01  9.9996294281635853e-02  1.0000000000000003e-01  9.9996076050516650e-02  1.0000000000000003e-01  9.9995389328473239e-02  1.0000000000000003e-01  9.9995234395294327e-02  1.0000000000000003e-01  9.9995062030883750e-02  1.0000000000000003e-01  9.9993504921841836e-02  1.0000000000000003e-01  9.9995991656591468e-02  1.0000000000000003e-01  9.9994745965339610e-02  1.0000000000000003e-01  9.9995203047277090e-02  1.0000000000000003e-01  9.9994872969165260e-02  1.0000000000000003e-01  9.9996445483103921e-02  1.0000000000000003e-01  9.9996546409951537e-02  1.0000000000000003e-01  9.9998465506024398e-02  1.0000000000000003e-01  1.0000110299281161e-01  1.0000000000000003e-01  1.0000254799062579e-01  1.0000000000000003e-01  1.0000671914656724e-01  1.0000000000000003e-01  1.0000974703228378e-01  1.0000000000000003e-01  1.0001498914340462e-01  1.0000000000000003e-01  1.0001693743126465e-01  1.0000000000000003e-01  1.0002769267308687e-01  1.0000000000000003e-01  1.0002319394244971e-01  1.0000000000000003e-01  1.0004390250470671e-01  1.0000000000000003e-01  1.0002697195609458e-01  1.0000000000000003e-01  1.0006376032559465e-01  1.0000000000000003e-01  1.0002574272797538e-01  1.0000000000000001e-01  1.0009255141135941e-01  1.0000000000000001e-01  1.0000000000000003e-01  9.9978348979455733e-02  9.9895434376059369e-02  1.0000000000000003e-01  1.0001811603354387e-01  1.0000000000000003e-01  9.9987163813194210e-02  1.0000000000000003e-01  1.0000898580724114e-01  1.0000000000000003e-01  1.0000514161836353e-01  1.0000000000000003e-01  1.0001143239799021e-01  1.0000000000000003e-01  1.0001177988710735e-01  1.0000000000000003e-01  1.0001722422102935e-01  1.0000000000000003e-01  1.0001782912611860e-01  1.0000000000000003e-01  1.0002050585222085e-01  1.0000000000000003e-01  1.0002251678845868e-01  1.0000000000000003e-01  1.0002388211451556e-01  1.0000000000000003e-01  1.0002499199682971e-01  1.0000000000000003e-01  1.0002640069539903e-01  1.0000000000000003e-01  1.0002701339032281e-01  1.0000000000000003e-01  1.0002763522919450e-01  1.0000000000000003e-01  1.0002834488995668e-01  1.0000000000000003e-01  1.0002858366722803e-01  1.0000000000000003e-01  1.0002893148252781e-01  1.0000000000000003e-01  1.0002905234213054e-01  1.0000000000000003e-01  1.0002941305458447e-01  1.0000000000000003e-01  1.0002896113860174e-01  1.0000000000000003e-01  1.0002987212399538e-01  1.0000000000000003e-01  1.0002833913443397e-01  1.0000000000000003e-01  1.0003089143181335e-01  1.0000000000000003e-01  1.0002640158540645e-01  1.0000000000000003e-01  1.0003379896520628e-01  1.0000000000000003e-01  1.0002133285904261e-01  1.0000000000000003e-01  1.0004323706170862e-01  1.0000000000000001e-01  1.0000000000000003e-01  1.0000074917481554e-01  1.0000000000000003e-01  1.0000005236217607e-01  9.9999946176364568e-02  9.9999952909052420e-02  1.0000045309893674e-01  1.0000025753095045e-01  1.0000058026232923e-01  1.0000153848945455e-01  1.0000070978034553e-01  1.0000138503076204e-01  1.0000052072563456e-01  1.0000451683435768e-01  1.0000122796996075e-01  1.0000408207297566e-01  1.0000208528971134e-01  1.0000445557546662e-01  1.0000657146094452e-01  1.0000683982252652e-01  1.0000929966172077e-01  1.0001346500718757e-01  1.0001287372283360e-01  1.0001840280201560e-01  1.0001941586853516e-01  1.0002495038732395e-01  1.0002091212333339e-01  1.0003802215081081e-01  1.0001257534056607e-01  1.0006089718141253e-01  9.9986717109373041e-02  1.0009266972444730e-01  1.0006465690472618e-01  9.9879642025888504e-02  9.9934178023888376e-02  9.9999198022021354e-02  9.9985757174224782e-02  9.9988862835919484e-02  9.9985990719232129e-02  9.9995716909098670e-02  9.9992416687356658e-02  9.9996009868317318e-02  9.9998893657728613e-02  9.9999585256013046e-02  1.0000061207445519e-01  1.0000299766869972e-01  1.0000323220077102e-01  1.0000398580474559e-01  1.0000525361959846e-01  1.0000559437749562e-01  1.0000599586431461e-01  1.0000693547812499e-01  1.0000709260306884e-01  1.0000770556800084e-01  1.0000788679654143e-01  1.0000887847058140e-01  1.0000809617654380e-01  1.0001047576089803e-01  1.0000734585432101e-01  1.0001396067896388e-01  1.0000351219964886e-01  1.0002069176610651e-01  1.0000000000000003e-01  1.0000169668480373e-01  1.0000000000000003e-01  1.0000049743361625e-01  1.0000049474805739e-01  1.0000085297801165e-01  1.0000045597863566e-01  1.0000082709311585e-01  1.0000208534492940e-01  1.0000161641704762e-01  1.0000223917086561e-01  1.0000310622493253e-01  1.0000383635715583e-01  1.0000013596370635e-01  1.0000963529228707e-01  1.0000297698915819e-01  1.0000586890653874e-01  1.0000794845148890e-01  1.0000720358960213e-01  1.0001060362962001e-01  1.0001555479155191e-01  1.0001544533634600e-01  1.0002008431041670e-01  1.0002758063789757e-01  1.0002529713935403e-01  1.0003632761706140e-01  1.0003422508258621e-01  1.0004741433071392e-01  1.0003158160694080e-01  1.0007364002267971e-01  9.9996333854248221e-02  1.0014228454847855e-01  1.0000346811200526e-01  9.9948780198945764e-02  9.9945603160188690e-02  9.9996039236616846e-02  9.9983991511507372e-02  9.9977600481200510e-02  9.9999624056759176e-02  9.9987355906940148e-02  9.9995339763060700e-02  1.0000065969807918e-01  1.0000123819337885e-01  1.0000298232108701e-01  1.0000780455548602e-01  1.0000785957318205e-01  1.0000936322441888e-01  1.0001194911327954e-01  1.0001228780465198e-01  1.0001303643665355e-01  1.0001467207957077e-01  1.0001507267998670e-01  1.0001554484832849e-01  1.0001683718694168e-01  1.0001689690983027e-01  1.0001804732675418e-01  1.0001773009575581e-01  1.0001999396971049e-01  1.0001756642462735e-01  1.0002318288053423e-01  1.0001441119111552e-01  1.0003273042237923e-01  1.0000000000000003e-01  1.0000239244191043e-01  1.0000000000000003e-01  1.0000123578944185e-01  1.0000240610383754e-01  1.0000184540086018e-01  1.0000238776004948e-01  1.0000394226034279e-01  1.0000367519741379e-01  1.0000478346517068e-01  1.0000674894464805e-01  1.0000614385938333e-01  1.0000666186670426e-01  1.0001129929453065e-01  1.0000334169666031e-01  1.0001462424521747e-01  1.0001144688643800e-01  1.0001114352100984e-01  1.0001240238914455e-01  1.0001838385748307e-01  1.0001616978918192e-01  1.0002217062311777e-01  1.0002751000949996e-01  1.0002833056297740e-01  1.0003195447847121e-01  1.0004353654897366e-01  1.0003361096945189e-01  1.0005630069053344e-01  1.0003110061464895e-01  1.0007905216035817e-01  9.9994089805606062e-02  1.0014732378753985e-01  9.9982319277091045e-02  9.9919107508764121e-02  9.9977731010551268e-02  9.9986035934136103e-02  9.9939411987972140e-02  1.0000419020175841e-01  9.9966705236487791e-02  9.9982641298471231e-02  9.9986329652594505e-02  9.9987578734656204e-02  9.9988308634202910e-02  9.9996120022203205e-02  9.9995156083352896e-02  9.9997256819264732e-02  1.0000094165794926e-01  1.0000137001475963e-01  1.0000224921697287e-01  1.0000471127186526e-01  1.0000494801897192e-01  1.0000579162944415e-01  1.0000724895345579e-01  1.0000798725838667e-01  1.0000832912266021e-01  1.0001016193806310e-01  1.0000965630911446e-01  1.0001245583366904e-01  1.0000978458896136e-01  1.0001659418944757e-01  1.0000723568761948e-01  1.0002439563549288e-01  1.0000000000000003e-01  1.0000309606808977e-01  1.0000000000000003e-01  1.0000233967154194e-01  1.0000294727943483e-01  1.0000304815411699e-01  1.0000445277097252e-01  1.0000416749470305e-01  1.0000522178770421e-01  1.0000769833883480e-01  1.0000713661808697e-01  1.0000816202472947e-01  1.0001231079923988e-01  1.0000927401751382e-01  1.0001346229084350e-01  1.0000925237022087e-01  1.0001901093427450e-01  1.0001398683101129e-01  1.0002062580899913e-01  1.0001631381159710e-01  1.0002191096996346e-01  1.0002885554237737e-01  1.0002653366626157e-01  1.0003479942798849e-01  1.0004062320960663e-01  1.0004330983960624e-01  1.0004350276046153e-01  1.0006381995260930e-01  1.0003570654290948e-01  1.0009027784670531e-01  9.9997129008123561e-02  1.0016574286939234e-01  1.0000501938226934e-01  9.9919969637824096e-02  9.9953707399145275e-02  9.9963568267317296e-02  9.9987079225245967e-02  9.9957782352997251e-02  9.9978429900588930e-02  9.9981552306669205e-02  9.9983221570723771e-02  9.9980152605003439e-02  9.9993805194240143e-02  9.9990576970462139e-02  9.9993919284168245e-02  9.9999432310045128e-02  9.9999648402559357e-02  1.0000081946164946e-01  1.0000472105987014e-01  1.0000487848932717e-01  1.0000574601930998e-01  1.0000811563275691e-01  1.0000847891292286e-01  1.0000946361530000e-01  1.0001080935040596e-01  1.0001207342928688e-01  1.0001198406560054e-01  1.0001489052961450e-01  1.0001287779476142e-01  1.0001891650049956e-01  1.0001055807776733e-01  1.0002823782640721e-01  1.0000000000000003e-01  1.0000390257008507e-01  1.0000000000000003e-01  1.0000262588723657e-01  1.0000396370879035e-01  1.0000496346828087e-01  1.0000506733088985e-01  1.0000576280465340e-01  1.0000821301210061e-01  1.0000795140216982e-01  1.0000928383881466e-01  1.0001277937921965e-01  1.0001177066491697e-01  1.0001435406619122e-01  1.0001655412401579e-01  1.0001726295907705e-01  1.0001008974609032e-01  1.0003030683483123e-01  1.0001737215325462e-01  1.0002391736015744e-01  1.0002846602473739e-01  1.0002637703050150e-01  1.0003200498019328e-01  1.0004287844205709e-01  1.0003698276570269e-01  1.0005013932831104e-01  1.0005096361836729e-01  1.0006192922269957e-01  1.0004279183136838e-01  1.0009664217620516e-01  9.9994984244863153e-02  1.0017805378360294e-01  9.9975629253984802e-02  9.9946262811300757e-02  9.9938209923440061e-02  9.9987349217143306e-02  9.9959782656114368e-02  9.9966232798905569e-02  9.9963966453557415e-02  9.9983373498650482e-02  9.9963832895219346e-02  9.9989196449197765e-02  9.9978749190558797e-02  9.9984628508635570e-02  9.9991602765424015e-02  9.9991920098774389e-02  9.9992910415654765e-02  9.9998579353446401e-02  9.9998333623310093e-02  9.9999619903971979e-02  1.0000283493502396e-01  1.0000319653656879e-01  1.0000385611878536e-01  1.0000635513834799e-01  1.0000659488891082e-01  1.0000815329525325e-01  1.0000879047112395e-01  1.0001151144664575e-01  1.0000945365399730e-01  1.0001605345206532e-01  1.0000789793927764e-01  1.0002466513444479e-01  1.0000000000000003e-01  1.0000432609092676e-01  1.0000000000000003e-01  1.0000316166468055e-01  1.0000547542953769e-01  1.0000521518873411e-01  1.0000625481027438e-01  1.0000842653477161e-01  1.0000808681146453e-01  1.0000942664638397e-01  1.0001281395565449e-01  1.0001179425334551e-01  1.0001438474079592e-01  1.0001844478149946e-01  1.0001722935804809e-01  1.0001731935294191e-01  1.0002655492579655e-01  1.0001187445956454e-01  1.0003286061845512e-01  1.0002925787506853e-01  1.0002686390120222e-01  1.0003079878635478e-01  1.0004029227788998e-01  1.0003668445304123e-01  1.0004358137695533e-01  1.0005776626360489e-01  1.0004657683174163e-01  1.0006832798871834e-01  1.0005173726686924e-01  1.0009267880714612e-01  1.0000515842218954e-01  1.0018283105234979e-01  9.9962496166260795e-02  9.9933547999508154e-02  9.9961199783377724e-02  9.9963242171041744e-02  9.9949502758733683e-02  9.9978134316059994e-02  9.9972384058390470e-02  9.9949643021051152e-02  9.9991300659740739e-02  9.9970455300550098e-02  9.9979438649643870e-02  9.9985523594679881e-02  9.9987326358310105e-02  9.9987237136736865e-02  9.9995601114018312e-02  9.9994885559070462e-02  9.9996262039569447e-02  1.0000068559951608e-01  1.0000110907830875e-01  1.0000196852239523e-01  1.0000481830025067e-01  1.0000545284831462e-01  1.0000610684538659e-01  1.0000872413346545e-01  1.0000869431849224e-01  1.0001142577865470e-01  1.0001022054676065e-01  1.0001629302320311e-01  1.0000864095584094e-01  1.0002542029260290e-01  1.0000000000000003e-01  1.0000483291452923e-01  1.0000000000000003e-01  1.0000395730178113e-01  1.0000557150733581e-01  1.0000601496158792e-01  1.0000835558435502e-01  1.0000823385144490e-01  1.0000954951895707e-01  1.0001255263539134e-01  1.0001181762146458e-01  1.0001357378109699e-01  1.0001829994002978e-01  1.0001704645913505e-01  1.0001896117875857e-01  1.0002553985790233e-01  1.0001963426056538e-01  1.0002773588321132e-01  1.0002144556919784e-01  1.0003690583849606e-01  1.0002989963662541e-01  1.0004154393299770e-01  1.0003231481816487e-01  1.0004288419767782e-01  1.0005118869389502e-01  1.0004981685196140e-01  1.0005240596168104e-01  1.0007591549480448e-01  1.0004588085986481e-01  1.0009757985321373e-01  1.0001365743784249e-01  1.0017557952462930e-01  9.9978226564994263e-02  9.9923080853658211e-02  9.9944094460449384e-02  9.9949945916101249e-02  9.9963804063390241e-02  9.9964494224488110e-02  9.9955184572277755e-02  9.9982723667159087e-02  9.9956583833997872e-02  9.9978772706086197e-02  9.9976476520007782e-02  9.9982915856236573e-02  9.9977602792748935e-02  9.9990787649043747e-02  9.9988475329822538e-02  9.9990603380584853e-02  9.9996323302149970e-02  9.9996512300420282e-02  9.9997256261623604e-02  1.0000156679783233e-01  1.0000169829057130e-01  1.0000276659765817e-01  1.0000507423400097e-01  1.0000637610039131e-01  1.0000649143671099e-01  1.0001012606465144e-01  1.0000844726233239e-01  1.0001452504508412e-01  1.0000752119664989e-01  1.0002357464908358e-01  1.0000000000000003e-01  1.0000539475123285e-01  1.0000000000000003e-01  1.0000393697192946e-01  1.0000610670328278e-01  1.0000747377829859e-01  1.0000811100328501e-01  1.0000917296770347e-01  1.0001211535792515e-01  1.0001182294041508e-01  1.0001310943050931e-01  1.0001697083264258e-01  1.0001633098855105e-01  1.0001840833100809e-01  1.0002421928139237e-01  1.0002114764431967e-01  1.0002538938758969e-01  1.0002942202447700e-01  1.0003003607375975e-01  1.0002007414554263e-01  1.0005128907087486e-01  1.0003174002181787e-01  1.0004088415267469e-01  1.0005006639283466e-01  1.0004177199879773e-01  1.0005462788139947e-01  1.0006170497632960e-01  1.0006475811218511e-01  1.0005267033488240e-01  1.0010323427562551e-01  1.0001023691710699e-01  1.0017444505740716e-01  9.9968365392654232e-02  9.9935102478749871e-02  9.9933043921158884e-02  9.9964999477719765e-02  9.9951092273780670e-02  9.9949588060124786e-02  9.9971475873941437e-02  9.9967257172687701e-02  9.9968420679197742e-02  9.9966538393162260e-02  9.9985178172778341e-02  9.9968565915816820e-02  9.9988615177335177e-02  9.9982038008932780e-02  9.9985714074299778e-02  9.9992403864713836e-02  9.9993110445843025e-02  9.9993531289726462e-02  9.9998881160087386e-02  9.9999032933319104e-02  1.0000005274514449e-01  1.0000357874943330e-01  1.0000385304831340e-01  1.0000525123287628e-01  1.0000686375960449e-01  1.0000932191076400e-01  1.0000795097095232e-01  1.0001438918100453e-01  1.0000745880388329e-01  1.0002316497614398e-01  1.0000000000000003e-01  1.0000563696218176e-01  1.0000000000000003e-01  1.0000417165694922e-01  1.0000718985300525e-01  1.0000715823974778e-01  1.0000871533487679e-01  1.0001122685791142e-01  1.0001135892868883e-01  1.0001275352721291e-01  1.0001637017351020e-01  1.0001525605828744e-01  1.0001734108607811e-01  1.0002257772066132e-01  1.0002051869606970e-01  1.0002354363779387e-01  1.0002977395086776e-01  1.0002764283902395e-01  1.0002786844007287e-01  1.0004269882017475e-01  1.0001993299213634e-01  1.0005153882665116e-01  1.0004703789414472e-01  1.0004261297308162e-01  1.0004622088885029e-01  1.0006445069089452e-01  1.0004783396412847e-01  1.0006989441848996e-01  1.0006224433866771e-01  1.0008957912163693e-01  1.0001880738975470e-01  1.0017424417536117e-01  9.9958658383121388e-02  9.9924037215169112e-02  9.9945530031712651e-02  9.9955366686985750e-02  9.9938513508109270e-02  9.9963535448993890e-02  9.9958653250242877e-02  9.9958416192081373e-02  9.9974480389645570e-02  9.9978453278210588e-02  9.9956920860898912e-02  9.9991141507218967e-02  9.9974611137654226e-02  9.9981809113768971e-02  9.9986297264712753e-02  9.9989054234969107e-02  9.9988151204106646e-02  9.9995684024974732e-02  9.9995444463544275e-02  9.9996301114666966e-02  1.0000047666557899e-01  1.0000145033882234e-01  1.0000193174366921e-01  1.0000537419765285e-01  1.0000531502422370e-01  1.0000792645367475e-01  1.0000752219091075e-01  1.0001315629784217e-01  1.0000666791138176e-01  1.0002197438757714e-01  1.0000000000000003e-01  1.0000586948591862e-01  1.0000000000000003e-01  1.0000462002875063e-01  1.0000686084660890e-01  1.0000738006570645e-01  1.0001008395670799e-01  1.0001031856431064e-01  1.0001182964606928e-01  1.0001513880929630e-01  1.0001464813290288e-01  1.0001610638295207e-01  1.0002077601505845e-01  1.0001917582442009e-01  1.0002148107164660e-01  1.0002766739893129e-01  1.0002522701056966e-01  1.0002802858358378e-01  1.0003794302765805e-01  1.0002889093593269e-01  1.0004034225063757e-01  1.0003327061125189e-01  1.0005213400197945e-01  1.0004509126608779e-01  1.0005950351779398e-01  1.0004779246441947e-01  1.0005426639396207e-01  1.0007900298753659e-01  1.0004710623836276e-01  1.0009212260568830e-01  1.0003117819080949e-01  1.0015419803742703e-01  9.9974159608786833e-02  9.9900558800776432e-02  9.9939657148045244e-02  9.9944219909038165e-02  9.9951673094426444e-02  9.9955586336662114e-02  9.9948211529131747e-02  9.9967784822746542e-02  9.9969383631740003e-02  9.9965422170336479e-02  9.9985171305779844e-02  9.9966433641825267e-02  9.9983631066240169e-02  9.9980416192199204e-02  9.9987068622494596e-02  9.9981932873106916e-02  9.9992850083233026e-02  9.9991663974440412e-02  9.9992954016330113e-02  9.9998179709658505e-02  9.9998484882266925e-02  9.9999313567815371e-02  1.0000311119111785e-01  1.0000414181772650e-01  1.0000433473199435e-01  1.0000820558066173e-01  1.0000689202454394e-01  1.0001231622399706e-01  1.0000668409010124e-01  1.0002117807741563e-01  1.0000000000000003e-01  1.0000623001349836e-01  1.0000000000000003e-01  1.0000441252465499e-01  1.0000700800039793e-01  1.0000830016828281e-01  1.0000936364390846e-01  1.0001051763292612e-01  1.0001364423133645e-01  1.0001366977881188e-01  1.0001507180818427e-01  1.0001893825891424e-01  1.0001827404285120e-01  1.0001977521337531e-01  1.0002514474758376e-01  1.0002312171738449e-01  1.0002560225102715e-01  1.0003414017237966e-01  1.0002915215393644e-01  1.0003513745814890e-01  1.0004104404235149e-01  1.0004104889647450e-01  1.0002725354034508e-01  1.0007209458368700e-01  1.0004118670171230e-01  1.0005786019480802e-01  1.0006389359699334e-01  1.0006009294568068e-01  1.0005177089723559e-01  1.0010240417099291e-01  1.0001563710103345e-01  1.0015237206592813e-01  9.9982168070891358e-02  9.9892562168821350e-02  9.9924286579771218e-02  9.9956504692506040e-02  9.9947543471661071e-02  9.9944852203162710e-02  9.9959630210247910e-02  9.9962585922873270e-02  9.9957330897636795e-02  9.9977157519048926e-02  9.9975662090905526e-02  9.9977608725452707e-02  9.9972975215497320e-02  9.9990384785834344e-02  9.9975227588720142e-02  9.9991325003941228e-02  9.9986653478082874e-02  9.9989301394739688e-02  9.9994790013915674e-02  9.9995982473583503e-02  9.9996085556686681e-02  1.0000080116336460e-01  1.0000111920516364e-01  1.0000272893790500e-01  1.0000501156014685e-01  1.0000721520222727e-01  1.0000597510487431e-01  1.0001212063057222e-01  1.0000613461527028e-01  1.0002007280758372e-01  1.0000000000000003e-01  1.0000613099395812e-01  1.0000000000000003e-01  1.0000425679159122e-01  1.0000748378928566e-01  1.0000747172734885e-01  1.0000918684394931e-01  1.0001159763127994e-01  1.0001208331395846e-01  1.0001349149185525e-01  1.0001700754888417e-01  1.0001638843348708e-01  1.0001813772939105e-01  1.0002285855874081e-01  1.0002098663476920e-01  1.0002275754105122e-01  1.0002980749455401e-01  1.0002677916359314e-01  1.0003033505594115e-01  1.0003937517790082e-01  1.0003524621538167e-01  1.0003563519082571e-01  1.0005580162090753e-01  1.0002485395142470e-01  1.0006491073851588e-01  1