<?xml version="1.0"?>
<VTKFile type="UnstructuredGrid"  version="0.1"  >
<UnstructuredGrid>
<Piece  NumberOfPoints="1933" NumberOfCells="3640">
<Points>
<DataArray  type="Float64"  NumberOfComponents="3"  format="ascii">0.4754567818109768 0.0003286836918593311 0  5.475456796601068 0.0003085125549689 0  5.475487078583748 7.500308565135737 0  0.4754870459913401 7.500328705039562 0  10.4754568134594 0.0002882899218598725 0  10.47548713995743 7.500288354111033 0  15.47545685982293 0.0002679849929764799 0  15.47548724617345 7.50026805300958 0  20.47545696718757 0.0002475911416195185 0  20.47548741330218 7.500247659996794 0  25.47545716589417 0.0002271164797415966 0  25.47548765762092 7.500227185287307 0  30.47545748372239 0.000206578511411009 0  30.47548799524483 7.500206647337779 0  35.47545794600403 0.0001860010865578471 0  35.47548844185749 7.500186070433269 0  40.47545857629967 0.0001654127829192088 0  40.47548901262702 7.500165483354026 0  45.47545939723714 0.0001448462286809682 0  45.47548972225604 7.5001449188326 0  50.47546043135264 0.0001243380855459016 0  50.47549058509493 7.500124413601978 0  55.4754617018786 0.0001039295397107147 0  55.47549161525683 7.500104008918294 0  60.47546323346738 8.366723425244139e-05 0  60.47549282668349 7.500083751508055 0  65.47546505285399 6.360464074730101e-05 0  65.47549423311142 7.50006369494479 0  70.47546718945686 4.380392371513913e-05 0  70.47549584788349 7.500043901509917 0  75.47546967590975 2.433840907296522e-05 0  75.47549768353134 7.500024444644999 0  80.47547254848851 5.295837512989186e-06 0  80.47549975102508 7.500005412164854 0  85.47547584736088 -1.321732193394851e-05 0  85.4755020585368 7.499986910481621 0  90.47547961650535 -3.107008652223232e-05 0  90.47550460949427 7.499969070198929 0  95.47548390301633 -4.80990862482721e-05 0  95.47550739960018 7.499952053584741 0  100.4754887552483 -6.409767198819886e-05 0  100.4755104123605 7.499936064632041 0  105.475494218773 -7.880058960487514e-05 0  105.4755136125101 7.499921362672715 0  110.4755003281923 -9.186205295257295e-05 0  110.4755169365955 7.499908280793729 0  115.4755070910669 -0.0001028239008851583 0  115.4755202800428 7.499897250511113 0  120.4755144567392 -0.0001110688281050371 0  120.4755234806911 7.499888833967957 0  125.4755222560544 -0.0001157513703011567 0  125.47552630105 7.499883763539099 0  130.4755300846674 -0.0001156968478172424 0  130.4755284178127 7.499882984287046 0  135.4755370763228 -0.0001092585170620047 0  135.4755294429192 7.499887683374495 0  140.4755414595741 -9.413821760278739e-05 0  140.4755290385199 7.499899266402771 0  145.4755396795564 -6.726479908357638e-05 0  145.4755272802225 7.499919207205484 0  150.4755245977468 -2.528745059669143e-05 0  150.4755256603228 7.499948760304675 0  160.4755282581476 1.373570480472091e-18 0  165.4754700091921 -8.229326810973279e-05 0  165.475517557665 7.499904835563052 0  160.4755342374467 7.499968850143986 0  170.4754388247587 -0.0001510761223741221 0  170.4755004657115 7.499842529752673 0  175.4754219663324 -0.0002103806176593962 0  175.4754865006101 7.499786126174715 0  180.4754130264396 -0.0002623883342328236 0  180.4754760090456 7.49973560537116 0  185.4754085910471 -0.0003087099825739341 0  185.475468485382 7.49969009939799 0  190.4754067744753 -0.0003505904181262948 0  190.4754632808872 7.499648684302308 0  195.4754065040708 -0.0003889824964119451 0  195.4754598163059 7.499610565835921 0  200.4754071519826 -0.0004246098289318783 0  200.4754576293265 7.499575104068171 0  205.4754083399139 -0.0004580223933085692 0  205.4754563680805 7.499541794667507 0  210.4754098332786 -0.0004896413757345438 0  210.4754557703569 7.499510241907286 0  215.4754114825902 -0.0005197931119091 0  215.4754556423253 7.499480133940478 0  220.4754131902526 -0.0005487339418611917 0  220.4754558408682 7.499451222849908 0  225.4754148912582 -0.000576668164850441 0  225.4754562600489 7.499423309349512 0  230.4754165416628 -0.0006037609898881849 0  230.4754568211345 7.499396231292458 0  235.47541811151 -0.0006301479331044991 0  235.4754574653676 7.499369855086424 0  240.4754195803647 -0.0006559417103161164 0  240.4754581487653 7.499344069261728 0  245.4754209344339 -0.0006812373612236636 0  245.4754588383788 7.499318779613885 0  250.4754221646728 -0.0007061161162728951 0  250.4754595096034 7.499293905495416 0  255.4754232655398 -0.0007306483592439204 0  255.4754601442445 7.499269376951153 0  260.4754242341886 -0.0007548959286493103 0  260.4754607291245 7.499245132480384 0  265.4754250699884 -0.0007789139231107772 0  265.4754612550948 7.499221117275622 0  270.4754257742891 -0.0008027521177189848 0  270.4754617163494 7.499197281838946 0  275.4754263504207 -0.0008264560498120736 0  275.475462109954 7.499173580920186 0  280.4754268038969 -0.0008500677837788896 0  280.4754624355518 7.4991499727629 0  285.4754271428479 -0.0008736263033834774 0  285.4754626951725 7.499126418691457 0  290.4754273786675 -0.000897167388211572 0  290.4754628931142 7.499102883133786 0  295.4754275268565 -0.0009207226762637079 0  295.4754630358332 7.499079334256602 0  300.475427607905 -0.0009443173386163785 0  300.4754631318211 7.499055745499757 0  305.4754276477649 -0.0009679652858817515 0  305.4754631915583 7.49903209842621 0  310.4754276766994 -0.0009916599147204797 0  310.4754632280367 7.499008387428695 0  5.475517189622241 15.00030869003235 0  0.4755171531067621 15.00032875971142 0  10.47551725350539 15.00028850310341 0  15.47551735908289 15.00026820556691 0  20.4755175163918 15.00024780830796 0  25.4755177338098 15.00022732759778 0  30.47551801907538 15.00020678463641 0  35.47551837956633 15.00018620484002 0  40.47551882227412 15.00016561735496 0  45.47551935365993 15.00014505492883 0  50.47551997945631 15.00012455415141 0  55.47552070441846 15.00010415605322 0  60.4755215320028 15.00008390706054 0  65.47552246393722 15.00006386032951 0  70.47552349963465 15.00004407751146 0  75.47552463539736 15.0000246310353 0  80.47552586334514 15.00000560703081 0  85.47552717000362 14.999987109058 0  90.47552853449035 14.99996926285126 0  95.47552992627985 14.99995222232037 0  100.475531302621 14.99993617704747 0  105.4755326059107 14.99992136142206 0  110.4755337617728 14.99990806523229 0  115.4755346794656 14.99989664472126 0  120.4755352578075 14.99988753129372 0  125.4755354024477 14.99988123120672 0  130.4755350643507 14.9998783017817 0  135.4755343144333 14.99987927432645 0  140.4755334724314 14.99988446382208 0  145.4755332973642 14.99989354180958 0  150.4755351803243 14.99990457772072 0  165.4755430197022 14.99987031692531 0  160.4755455503072 14.99991542108089 0  170.4755369545045 14.99982173629879 0  175.4755295725982 14.99977368777023 0  180.4755223734847 14.99972807989058 0  185.4755160550566 14.99968546325182 0  190.4755108362275 14.999645767953 0  195.475506696786 14.99960869129651 0  200.4755035147662 14.99957387395495 0  205.475501137313 14.99954097242342 0  210.4754994141052 14.99950968405677 0  215.4754982111152 14.99947975161969 0  220.4754974146285 14.99945095977745 0  225.4754969307968 14.99942312906426 0  230.4754966834073 14.99939610965402 0  235.4754966111786 14.99936977579655 0  240.4754966651527 14.99934402114395 0  245.4754968064133 14.99931875493381 0  250.475497004185 14.99929389891003 0  255.475497234292 14.99926938484725 0  260.4754974779264 14.99924515256092 0  265.475497720672 14.9992211483073 0  270.4754979517355 14.99919732350412 0  275.4754981633303 14.99917363372643 0  280.4754983501782 14.99915003795406 0  285.4754985091035 14.99912649806777 0  290.4754986386894 14.99910297860084 0  295.4754987390416 14.99907944674099 0  300.4754988117296 14.99905587249958 0  305.4754988601493 14.99903222871754 0  310.4754988907414 14.999008489888 0  5.475547108402871 22.50030894887313 0  0.4755470722212526 22.50032895160963 0  10.47554716244206 22.50028878402746 0  15.47554724507123 22.50026848534361 0  20.47554736248649 22.50024807709989 0  25.47554751830397 22.50022758313482 0  30.47554771471687 22.50020702857308 0  35.47554795302717 22.50018644062237 0  40.47554823377912 22.50016584901532 0  45.47554855665761 22.50014528640658 0  50.47554892024793 22.50012478888112 0  55.4755493217004 22.50010439665231 0  60.47554975631566 22.50008415499676 0  65.47555021705068 22.5000641154648 0  70.47555069393839 22.5000443374073 0  75.47555117342183 22.50002488986687 0  80.47555163761466 22.50000585388418 0  85.47555206353721 22.49998732526349 0  90.47555242243429 22.49996941781144 0  95.47555267938411 22.49995226698655 0  100.4755527935799 22.49993603373334 0  105.4755527199308 22.49992090795009 0  110.475552413033 22.49990711042992 0  115.4755518351125 22.4998948910162 0  120.4755509701941 22.49988451881115 0  125.4755498472816 22.49987625713493 0  130.4755485750765 22.49987031107745 0  135.4755473881431 22.49986672881832 0  140.4755466961483 22.49986523110219 0  145.4755471076952 22.49986494490193 0  150.4755493596162 22.49986406382948 0  165.4755621554682 22.49983189882542 0  160.4755581680197 22.49986515671605 0  170.4755627777933 22.49979409210619 0  175.4755610417225 22.49975447934012 0  180.4755579856738 22.4997149227882 0  185.47555441077 22.49967647059051 0  190.475550831084 22.49963959251889 0  195.4755475319598 22.49960441437719 0  200.475544644741 22.49957088138293 0  205.4755422070852 22.49953885614974 0  210.4755402044669 22.49950817247853 0  215.4755385963992 22.49947866272031 0  220.4755373320162 22.4994501703675 0  225.4755363588085 22.49942255480059 0  230.4755356271661 22.49939569209094 0  235.4755350924655 22.49936947397135 0  240.4755347157702 22.49934380607765 0  245.4755344637951 22.49931860601195 0  250.4755343085065 22.49929380148428 0  255.4755342265747 22.49926932863858 0  260.475534198784 22.49924513059455 0  265.4755342094658 22.4992211562023 0  270.4755342459719 22.49919735899417 0  275.475534298199 22.49917369631336 0  280.4755343581655 22.49915012859711 0  285.4755344196438 22.49912661878365 0  290.4755344778644 22.49910313178848 0  295.4755345293398 22.4990796339
[...]
<PointData  Scalars="p"> 
<DataArray  type="Float64"  Name="p"  format="ascii">1.0000000000000001e-01  1.0000000000000003e-01  9.9999711937882249e-02  1.0000000000000003e-01  1.0000000000000003e-01  9.9998538290386588e-02  1.0000000000000003e-01  9.9997796987245188e-02  1.0000000000000003e-01  9.9996921199331151e-02  1.0000000000000003e-01  9.9996294268867206e-02  1.0000000000000003e-01  9.9996076036756851e-02  1.0000000000000003e-01  9.9995389312008007e-02  1.0000000000000003e-01  9.9995234376291514e-02  1.0000000000000003e-01  9.9995062013036526e-02  1.0000000000000003e-01  9.9993504902156541e-02  1.0000000000000003e-01  9.9995991633030856e-02  1.0000000000000003e-01  9.9994745945045899e-02  1.0000000000000003e-01  9.9995203023969498e-02  1.0000000000000003e-01  9.9994872944519447e-02  1.0000000000000003e-01  9.9996445459968872e-02  1.0000000000000003e-01  9.9996546383289392e-02  1.0000000000000003e-01  9.9998465474116394e-02  1.0000000000000003e-01  1.0000110296186127e-01  1.0000000000000003e-01  1.0000254794916126e-01  1.0000000000000003e-01  1.0000671909881080e-01  1.0000000000000003e-01  1.0000974697418731e-01  1.0000000000000003e-01  1.0001498907719901e-01  1.0000000000000003e-01  1.0001693733774382e-01  1.0000000000000003e-01  1.0002769258333660e-01  1.0000000000000003e-01  1.0002319381148088e-01  1.0000000000000003e-01  1.0004390236995529e-01  1.0000000000000003e-01  1.0002697180279788e-01  1.0000000000000003e-01  1.0006376011407610e-01  1.0000000000000003e-01  1.0002574256090260e-01  1.0000000000000001e-01  1.0009255099035297e-01  1.0000000000000001e-01  1.0000000000000003e-01  9.9978348047182045e-02  9.9895434912658204e-02  1.0000000000000003e-01  1.0001811514995476e-01  1.0000000000000003e-01  9.9987163007893870e-02  1.0000000000000003e-01  1.0000898492270334e-01  1.0000000000000003e-01  1.0000514076833336e-01  1.0000000000000003e-01  1.0001143154883678e-01  1.0000000000000003e-01  1.0001177904516675e-01  1.0000000000000003e-01  1.0001722339325740e-01  1.0000000000000003e-01  1.0001782831640961e-01  1.0000000000000003e-01  1.0002050505435472e-01  1.0000000000000003e-01  1.0002251601007890e-01  1.0000000000000003e-01  1.0002388135452814e-01  1.0000000000000003e-01  1.0002499125276428e-01  1.0000000000000003e-01  1.0002639997013492e-01  1.0000000000000003e-01  1.0002701268306013e-01  1.0000000000000003e-01  1.0002763453818403e-01  1.0000000000000003e-01  1.0002834421558872e-01  1.0000000000000003e-01  1.0002858301017259e-01  1.0000000000000003e-01  1.0002893083826417e-01  1.0000000000000003e-01  1.0002905171585391e-01  1.0000000000000003e-01  1.0002941243696568e-01  1.0000000000000003e-01  1.0002896054254545e-01  1.0000000000000003e-01  1.0002987152495944e-01  1.0000000000000003e-01  1.0002833857384871e-01  1.0000000000000003e-01  1.0003089083425529e-01  1.0000000000000003e-01  1.0002640107880460e-01  1.0000000000000003e-01  1.0003379833003012e-01  1.0000000000000003e-01  1.0002133245881384e-01  1.0000000000000003e-01  1.0004323626112636e-01  1.0000000000000001e-01  1.0000000000000003e-01  1.0000074917442024e-01  1.0000000000000003e-01  1.0000005236116738e-01  9.9999946175081136e-02  9.9999952905854034e-02  1.0000045309789468e-01  1.0000025752780249e-01  1.0000058025702011e-01  1.0000153848824844e-01  1.0000070977754096e-01  1.0000138502618440e-01  1.0000052072765504e-01  1.0000451683004999e-01  1.0000122796659232e-01  1.0000408207599813e-01  1.0000208528878284e-01  1.0000445556967352e-01  1.0000657146268761e-01  1.0000683981661128e-01  1.0000929964758620e-01  1.0001346500274123e-01  1.0001287370277785e-01  1.0001840278268898e-01  1.0001941584382042e-01  1.0002495037505281e-01  1.0002091207287041e-01  1.0003802216080770e-01  1.0001257528897103e-01  1.0006089712144789e-01  9.9986717164378125e-02  1.0009266927342543e-01  1.0006465612590672e-01  9.9879642779524380e-02  9.9934178184494890e-02  9.9999197582064644e-02  9.9985756907662676e-02  9.9988862569116710e-02  9.9985990441604278e-02  9.9995716644185273e-02  9.9992416440077170e-02  9.9996009609924802e-02  9.9998893410231965e-02  9.9999585015223810e-02  1.0000061183136631e-01  1.0000299743238868e-01  1.0000323197076913e-01  1.0000398557476595e-01  1.0000525339595734e-01  1.0000559415847662e-01  1.0000599564762139e-01  1.0000693526489748e-01  1.0000709239611183e-01  1.0000770535865350e-01  1.0000788659813888e-01  1.0000887826279259e-01  1.0000809599082050e-01  1.0001047554303617e-01  1.0000734570049710e-01  1.0001396041269342e-01  1.0000351212977455e-01  1.0002069138780936e-01  1.0000000000000003e-01  1.0000169668626749e-01  1.0000000000000003e-01  1.0000049743357596e-01  1.0000049474505135e-01  1.0000085297760636e-01  1.0000045597605303e-01  1.0000082708637616e-01  1.0000208534323729e-01  1.0000161641166133e-01  1.0000223916171412e-01  1.0000310622546631e-01  1.0000383635263188e-01  1.0000013595737962e-01  1.0000963529235798e-01  1.0000297698801730e-01  1.0000586889792225e-01  1.0000794845862300e-01  1.0000720358499970e-01  1.0001060361693963e-01  1.0001555479165550e-01  1.0001544532396732e-01  1.0002008428225205e-01  1.0002758063209706e-01  1.0002529710404719e-01  1.0003632759395503e-01  1.0003422503786015e-01  1.0004741433463113e-01  1.0003158148703246e-01  1.0007364006628452e-01  9.9996333690774264e-02  1.0014228430252813e-01  1.0000346736068035e-01  9.9948780533370557e-02  9.9945602801524494e-02  9.9996038631870551e-02  9.9983990984526802e-02  9.9977599881054827e-02  9.9999623481789812e-02  9.9987355382318732e-02  9.9995339210177406e-02  1.0000065917071486e-01  1.0000123768283109e-01  1.0000298180467022e-01  1.0000780405366147e-01  1.0000785908542294e-01  1.0000936273653213e-01  1.0001194863830704e-01  1.0001228734146478e-01  1.0001303597647675e-01  1.0001467163105347e-01  1.0001507223979575e-01  1.0001554441469314e-01  1.0001683675875001e-01  1.0001689649530694e-01  1.0001804690588333e-01  1.0001772970151511e-01  1.0001999354917621e-01  1.0001756606098906e-01  1.0002318243242458e-01  1.0001441091137044e-01  1.0003272982352497e-01  1.0000000000000003e-01  1.0000239244430267e-01  1.0000000000000003e-01  1.0000123578908063e-01  1.0000240610672513e-01  1.0000184540127734e-01  1.0000238775760567e-01  1.0000394226335980e-01  1.0000367519735175e-01  1.0000478346007632e-01  1.0000674894909181e-01  1.0000614385978694e-01  1.0000666186256878e-01  1.0001129930400326e-01  1.0000334170424528e-01  1.0001462423805892e-01  1.0001144690378599e-01  1.0001114352663527e-01  1.0001240238800840e-01  1.0001838387445286e-01  1.0001616979130609e-01  1.0002217061637411e-01  1.0002751001935911e-01  1.0002833056571286e-01  1.0003195445761069e-01  1.0004353657961476e-01  1.0003361094161961e-01  1.0005630072974495e-01  1.0003110055620118e-01  1.0007905224967067e-01  9.9994089609777292e-02  1.0014732384430544e-01  9.9982318657651448e-02  9.9919107649714345e-02  9.9977730755201000e-02  9.9986035518653038e-02  9.9939411769596462e-02  1.0000418968923187e-01  9.9966704909068657e-02  9.9982640891017660e-02  9.9986329289308645e-02  9.9987578391134840e-02  9.9988308277681043e-02  9.9996119678617573e-02  9.9995155754585313e-02  9.9997256481115515e-02  1.0000094133155461e-01  1.0000136969789665e-01  1.0000224889790381e-01  1.0000471096157340e-01  1.0000494771751617e-01  1.0000579132705029e-01  1.0000724866101014e-01  1.0000798696805065e-01  1.0000832884106377e-01  1.0001016165099134e-01  1.0000965604724270e-01  1.0001245553838763e-01  1.0000978436234838e-01  1.0001659385820380e-01  1.0000723553724625e-01  1.0002439519662232e-01  1.0000000000000003e-01  1.0000309607096387e-01  1.0000000000000003e-01  1.0000233967426324e-01  1.0000294728221115e-01  1.0000304815326141e-01  1.0000445277478318e-01  1.0000416749561158e-01  1.0000522178403592e-01  1.0000769834399359e-01  1.0000713661823359e-01  1.0000816201914994e-01  1.0001231080716703e-01  1.0000927402066455e-01  1.0001346228716679e-01  1.0000925239202114e-01  1.0001901093328459e-01  1.0001398683179777e-01  1.0002062582971748e-01  1.0001631382100988e-01  1.0002191096491779e-01  1.0002885556571128e-01  1.0002653366761970e-01  1.0003479942446139e-01  1.0004062322268620e-01  1.0004330986023365e-01  1.0004350272473626e-01  1.0006382003193473e-01  1.0003570643692278e-01  1.0009027798698328e-01  9.9997128721756465e-02  1.0016574311706401e-01  1.0000501885677877e-01  9.9919969479979623e-02  9.9953707004471953e-02  9.9963567735180253e-02  9.9987078776868785e-02  9.9957782003770784e-02  9.9978429365028085e-02  9.9981551824269016e-02  9.9983221130045416e-02  9.9980152146669429e-02  9.9993804752309096e-02  9.9990576556704069e-02  9.9993918853506142e-02  9.9999431895521546e-02  9.9999648001888375e-02  1.0000081905503558e-01  1.0000472066590008e-01  1.0000487810620920e-01  1.0000574563586646e-01  1.0000811525877806e-01  1.0000847854966247e-01  1.0000946325046514e-01  1.0001080900020948e-01  1.0001207307581821e-01  1.0001198373265871e-01  1.0001489017550606e-01  1.0001287749604701e-01  1.0001891611676124e-01  1.0001055786175324e-01  1.0002823732041008e-01  1.0000000000000003e-01  1.0000390257516169e-01  1.0000000000000003e-01  1.0000262588965354e-01  1.0000396371010496e-01  1.0000496347382430e-01  1.0000506733446855e-01  1.0000576280211045e-01  1.0000821301936412e-01  1.0000795140502623e-01  1.0000928383497262e-01  1.0001277938948538e-01  1.0001177066778737e-01  1.0001435406100148e-01  1.0001655414234713e-01  1.0001726296672948e-01  1.0001008975215399e-01  1.0003030685030366e-01  1.0001737216735578e-01  1.0002391735794898e-01  1.0002846605673099e-01  1.0002637704297464e-01  1.0003200497460778e-01  1.0004287847868823e-01  1.0003698277069521e-01  1.0005013934110982e-01  1.0005096362808903e-01  1.0006192928741622e-01  1.0004279172535221e-01  1.0009664237117316e-01  9.9994983885452721e-02  1.0017805421920377e-01  9.9975628855658957e-02  9.9946262599729052e-02  9.9938209453300633e-02  9.9987348758377198e-02  9.9959782331914701e-02  9.9966232373336975e-02  9.9963966158992432e-02  9.9983373060750808e-02  9.9963832495670354e-02  9.9989196042103712e-02  9.9978748839753495e-02  9.9984628125610514e-02  9.9991602405073016e-02  9.9991919756063349e-02  9.9992910059229737e-02  9.9998579010045718e-02  9.9998333293768768e-02  9.9999619567280901e-02  1.0000283461067318e-01  1.0000319622091998e-01  1.0000385580370372e-01  1.0000635482918410e-01  1.0000659459352283e-01  1.0000815299068454e-01  1.0000879019323693e-01  1.0001151114295900e-01  1.0000945340812710e-01  1.0001605312139930e-01  1.0000789777013552e-01  1.0002466469998551e-01  1.0000000000000003e-01  1.0000432609681890e-01  1.0000000000000003e-01  1.0000316166620332e-01  1.0000547543639603e-01  1.0000521519321608e-01  1.0000625481112997e-01  1.0000842654301091e-01  1.0000808681548587e-01  1.0000942664406320e-01  1.0001281396720531e-01  1.0001179425888081e-01  1.0001438473617676e-01  1.0001844479699351e-01  1.0001722936466215e-01  1.0001731935195335e-01  1.0002655494975526e-01  1.0001187448170822e-01  1.0003286060422836e-01  1.0002925791136812e-01  1.0002686391369298e-01  1.0003079878813587e-01  1.0004029231329009e-01  1.0003668447304394e-01  1.0004358136841458e-01  1.0005776631775583e-01  1.0004657682435994e-01  1.0006832803546535e-01  1.0005173720115002e-01  1.0009267898030128e-01  1.0000515803451276e-01  1.0018283161206004e-01  9.9962495706685334e-02  9.9933547797195793e-02  9.9961199304162224e-02  9.9963241759601945e-02  9.9949502293106729e-02  9.9978133903749308e-02  9.9972383697438619e-02  9.9949642692260102e-02  9.9991300183980725e-02  9.9970454921595842e-02  9.9979438228156067e-02  9.9985523205745219e-02  9.9987325992472523e-02  9.9987236755218256e-02  9.9995600746768443e-02  9.9994885209059053e-02  9.9996261678341303e-02  1.0000068525136953e-01  1.0000110874265708e-01  1.0000196818162387e-01  1.0000481797211024e-01  1.0000545252625229e-01  1.0000610652891134e-01  1.0000872381673102e-01  1.0000869402519101e-01  1.0001142546083554e-01  1.0001022028529613e-01  1.0001629268319426e-01  1.0000864076949344e-01  1.0002541984986590e-01  1.0000000000000003e-01  1.0000483292107140e-01  1.0000000000000003e-01  1.0000395730643033e-01  1.0000557151354156e-01  1.0000601496361533e-01  1.0000835559365216e-01  1.0000823385752870e-01  1.0000954951919169e-01  1.0001255264660101e-01  1.0001181762830981e-01  1.0001357377999698e-01  1.0001829995671206e-01  1.0001704646656595e-01  1.0001896117567918e-01  1.0002553988077542e-01  1.0001963427415460e-01  1.0002773588013918e-01  1.0002144561459202e-01  1.0003690583869400e-01  1.0002989963850885e-01  1.0004154397369035e-01  1.0003231483721155e-01  1.0004288419964411e-01  1.0005118873563129e-01  1.0004981688367900e-01  1.0005240594046794e-01  1.0007591558012179e-01  1.0004588078513092e-01  1.0009757999971883e-01  1.0001365710599730e-01  1.0017558008664605e-01  9.9978226154493893e-02  9.9923080594176386e-02  9.9944094050267954e-02  9.9949945453899486e-02  9.9963803657243083e-02  9.9964493869912574e-02  9.9955184196281674e-02  9.9982723301717549e-02  9.9956583595234683e-02  9.9978772260304508e-02  9.9976476155218819e-02  9.9982915507668732e-02  9.9977602433883525e-02  9.9990787303006770e-02  9.9988475009846353e-02  9.9990603041745701e-02  9.9996322978776767e-02  9.9996511990091685e-02  9.9997255943506141e-02  1.0000156649048253e-01  1.0000169799549165e-01  1.0000276629641405e-01  1.0000507394825935e-01  1.0000637581315949e-01  1.0000649116708449e-01  1.0001012577603070e-01  1.0000844702768942e-01  1.0001452473333770e-01  1.0000752103354292e-01  1.0002357424579866e-01  1.0000000000000003e-01  1.0000539475999305e-01  1.0000000000000003e-01  1.0000393697620114e-01  1.0000610670766426e-01  1.0000747378695393e-01  1.0000811101081386e-01  1.0000917296923152e-01  1.0001211537062091e-01  1.0001182294839521e-01  1.0001310942972928e-01  1.0001697085001510e-01  1.0001633099844386e-01  1.0001840832948979e-01  1.0002421930421636e-01  1.0002114765572755e-01  1.0002538938311083e-01  1.0002942205906076e-01  1.0003003608654612e-01  1.0002007415668714e-01  1.0005128909569030e-01  1.0003174004533998e-01  1.0004088414676053e-01  1.0005006644936977e-01  1.0004177201658493e-01  1.0005462788839302e-01  1.0006170501186801e-01  1.0006475816667822e-01  1.0005267025106940e-01  1.0010323444633526e-01  1.0001023660544014e-01  1.0017444556427781e-01  9.9968365027546802e-02  9.9935102295852563e-02  9.9933043442366892e-02  9.9964999058566470e-02  9.9951091917393237e-02  9.9949587642777143e-02  9.9971475495419793e-02  9.9967256871361002e-02  9.9968420313239617e-02  9.9966538125631055e-02  9.9985177788403046e-02  9.9968565550129812e-02  9.9988614818667609e-02  9.9982037692328871e-02  9.9985713730148806e-02  9.9992403541355399e-02  9.9993110139625432e-02  9.9993530969069655e-02  9.9998880852879543e-02  9.9999032638210750e-02  1.0000005244453603e-01  1.0000357845706719e-01  1.0000385277036636e-01  1.0000525094493254e-01  1.0000686349596852e-01  1.0000932162918609e-01  1.0000795073654391e-01  1.0001438887833079e-01  1.0000745864084361e-01  1.0002316458457503e-01  1.0000000000000003e-01  1.0000563697170724e-01  1.0000000000000003e-01  1.0000417166019694e-01  1.0000718986290334e-01  1.0000715824691571e-01  1.0000871533894411e-01  1.0001122687011517e-01  1.0001135893800184e-01  1.0001275352919546e-01  1.0001637019051403e-01  1.0001525606894038e-01  1.0001734108643863e-01  1.0002257774420523e-01  1.0002051871003509e-01  1.0002354363567302e-01  1.0002977398069499e-01  1.0002764285249094e-01  1.0002786843913304e-01  1.0004269885816133e-01  1.0001993302519840e-01  1.0005153880648331e-01  1.0004703794825616e-01  1.0004261299746275e-01  1.0004622088414628e-01  1.0006445075706126e-01  1.0004783397578212e-01  1.0006989443769093e-01  1.0006224432707682e-01  1.0008957924273028e-01  1.0001880710822542e-01  1.0017424465714078e-01  9.9958657923416697e-02  9.9924037144863961e-02  9.9945529625536184e-02  9.9955366337674739e-02  9.9938513097914058e-02  9.9963535082195326e-02  9.9958652948036381e-02  9.9958415824089999e-02  9.9974480078409853e-02  9.9978452994680861e-02  9.9956920604451979e-02  9.9991141125038471e-02  9.9974610839108469e-02  9.9981808772644273e-02  9.9986296956719373e-02  9.9989053945164247e-02  9.9988150899416123e-02  9.9995683733228147e-02  9.9995444187741520e-02  9.9996300826132867e-02  1.0000047639083617e-01  1.0000145007181772e-01  1.0000193147717405e-01  1.0000537393252110e-01  1.0000531478184957e-01  1.0000792618780430e-01  1.0000752197562146e-01  1.0001315601714686e-01  1.0000666776135492e-01  1.0002197402487265e-01  1.0000000000000003e-01  1.0000586949583332e-01  1.0000000000000003e-01  1.0000462003475798e-01  1.0000686085562395e-01  1.0000738007007316e-01  1.0001008396873927e-01  1.0001031857355895e-01  1.0001182964976083e-01  1.0001513882513907e-01  1.0001464814474824e-01  1.0001610638538425e-01  1.0002077603620220e-01  1.0001917583865659e-01  1.0002148107307640e-01  1.0002766742908553e-01  1.0002522702545967e-01  1.0002802858028019e-01  1.0003794306294421e-01  1.0002889095640889e-01  1.0004034224300624e-01  1.0003327067626686e-01  1.0005213400591148e-01  1.0004509126736305e-01  1.0005950357441673e-01  1.0004779249932005e-01  1.0005426637408701e-01  1.0007900306951710e-01  1.0004710621009447e-01  1.0009212267066994e-01  1.0003117802364261e-01  1.0015419840450733e-01  9.9974159187098552e-02  9.9900558671727410e-02  9.9939656832467694e-02  9.9944219481845328e-02  9.9951672738976927e-02  9.9955586037048669e-02  9.9948211162975115e-02  9.9967784499030266e-02  9.9969383351029867e-02  9.9965421856057571e-02  9.9985171008208834e-02  9.9966433445397629e-02  9.9983630691298550e-02  9.9980415888857907e-02  9.9987068333266704e-02  9.9981932572413793e-02  9.9992849796950958e-02  9.9991663709386377e-02  9.9992953734774667e-02  9.9998179441010845e-02  9.9998484626638851e-02  9.9999313301723181e-02  1.0000311094027857e-01  1.0000414156821744e-01  1.0000433449402567e-01  1.0000820532912981e-01  1.0000689181989772e-01  1.0001231595473174e-01  1.0000668394679120e-01  1.0002117773366917e-01  1.0000000000000003e-01  1.0000623002523493e-01  1.0000000000000003e-01  1.0000441253015815e-01  1.0000700800741980e-01  1.0000830017857402e-01  1.0000936365394553e-01  1.0001051763706365e-01  1.0001364424655641e-01  1.0001366979040044e-01  1.0001507181160654e-01  1.0001893828011892e-01  1.0001827405726807e-01  1.0001977521469615e-01  1.0002514477616584e-01  1.0002312173562347e-01  1.0002560225077826e-01  1.0003414020736305e-01  1.0002915217110830e-01  1.0003513745018376e-01  1.0004104409103222e-01  1.0004104891647660e-01  1.0002725354434401e-01  1.0007209463195536e-01  1.0004118672783575e-01  1.0005786018919681e-01  1.0006389365830719e-01  1.0006009298734879e-01  1.0005177083785111e-01  1.0010240428981562e-01  1.0001563695224731e-01  1.0015237231267041e-01  9.9982167728065174e-02  9.9892562125141887e-02  9.9924286193274550e-02  9.9956504323274145e-02  9.9947543200073818e-02  9.9944851836245574e-02  9.9959629900707919e-02  9.9962585662788095e-02  9.9957330574136208e-02  9.9977157222912311e-02  9.9975661857569009e-02  9.9977608431321363e-02  9.9972975009278209e-02  9.9990384478008940e-02  9.9975227294929955e-02  9.9991324719583455e-02  9.9986653229057615e-02  9.9989301121041096e-02  9.9994789759676059e-02  9.9995982232300967e-02  9.9996085304308674e-02  1.0000080091963581e-01  1.0000111897666691e-01  1.0000272869654074e-01  1.0000501134124402e-01  1.0000721497012682e-01  1.0000597491068534e-01  1.0001212038104909e-01  1.0000613448342313e-01  1.0002007248774682e-01  1.0000000000000003e-01  1.0000613100607655e-01  1.0000000000000003e-01  1.0000425679586122e-01  1.0000748380082505e-01  1.0000747173592865e-01  1.0000918685023914e-01  1.0001159764478054e-01  1.0001208332549155e-01  1.0001349149642466e-01  1.0001700756804796e-01  1.0001638844812047e-01  1.0001813773333414e-01  1.0002285858468532e-01  1.0002098665211792e-01  1.0002275754336397e-01  1.0002980752933081e-01  1.0002677918425623e-01  1.0003033505112401e-01  1.0003937521959545e-01  1.0003524623340040e-01  1.0003563518498934e-01  1.0005580167568684e-01  1.0002485398826570e-01  1.0006491071102250e-01  1