<?xml version="1.0"?>
<VTKFile type="UnstructuredGrid"  version="0.1"  >
<UnstructuredGrid>
<Piece  NumberOfPoints="1933" NumberOfCells="3640">
<Points>
<DataArray  type="Float64"  NumberOfComponents="3"  format="ascii">-0.4752518208590499 -0.002679301831292545 0  4.524748235147096 -0.002611096263502506 0  4.524645906665251 7.497389033461022 0  -0.4753541677647703 7.497320798930609 0  9.524748330859422 -0.002542986074956948 0  9.5246460279659 7.49745714679893 0  14.52474851713702 -0.002474959512263494 0  14.52464621400722 7.497525169019376 0  19.52474883577429 -0.002406972860299179 0  19.52464647879845 7.497593149978498 0  24.52474931724715 -0.002338966360300631 0  24.52464683250777 7.497661151407121 0  29.52474998197954 -0.002270871500137685 0  29.52464728089778 7.497729242293081 0  34.52475084223461 -0.002202614099471066 0  34.52464782490135 7.497797496762363 0  39.52475190371988 -0.002134115169964197 0  39.52464846030671 7.497865993578404 0  44.52475316667354 -0.002065290508279063 0  44.52464917740254 7.497934816676486 0  49.52475462641415 -0.001996049487472746 0  49.52464996044301 7.498004056406247 0  54.52475627338416 -0.00192629325055937 0  54.52465078682042 7.498073811330992 0  59.5247580926984 -0.001855912356053528 0  59.52465162583683 7.498144190551463 0  64.5247600631711 -0.001784783820515187 0  64.52465243694826 7.498215316609522 0  69.52476215572598 -0.001712767414835911 0  69.52465316732217 7.498287329103454 0  74.52476433101742 -0.001639700977385601 0  74.52465374848251 7.49836038922458 0  79.52476653595828 -0.001565394388999101 0  79.52465409172588 7.498434685517972 0  84.52476869865691 -0.001489621690783387 0  84.52465408187072 7.498510441285774 0  89.52477072093379 -0.001412110587867504 0  89.52465356872321 7.498587924197423 0  94.52477246703701 -0.001332528232201447 0  94.52465235543295 7.498667458841735 0  99.52477374618948 -0.001250461664561349 0  99.52465018268607 7.498749443119298 0  104.5247742848643 -0.001165390562792719 0  104.5246467075141 7.498834369429794 0  109.5247736814965 -0.00107664895598517 0  109.5246414756791 7.498922851288136 0  114.5247713305247 -0.0009833714135404088 0  114.5246338877261 7.499015654666162 0  119.524766291828 -0.0008844184198479664 0  119.5246231623474 7.499113729524824 0  124.5247570614761 -0.0007782770006646208 0  124.5246083099771 7.499218227434401 0  129.5247411620237 -0.0006629417756141348 0  129.5245881515679 7.499330469051752 0  134.524714399978 -0.000535815772210611 0  134.5245614673493 7.499451777337798 0  139.5246695045599 -0.0003937866311867831 0  139.524527469667 7.499582998797366 0  144.5245935993435 -0.0002340446354431429 0  144.5244870327373 7.499723398298418 0  149.5244633717643 -5.782416719402993e-05 0  149.5244456615332 7.499868688562734 0  159.5244717418519 1.039471530735391e-18 0  164.5244465320625 -8.727845818656468e-05 0  164.5244693783991 7.499892300642405 0  159.5244681163749 7.499952901836571 0  169.5244525750095 -0.0001347411797587409 0  169.524470229154 7.499855341232696 0  174.5244715553115 -0.0001545221646156809 0  174.5244742634395 7.499840407739812 0  179.5244950054222 -0.000154244563947075 0  179.5244813151995 7.499843115998326 0  184.5245189944252 -0.0001392062399232681 0  184.5244903973553 7.499859424557548 0  189.5245417635168 -0.0001131807097761366 0  189.5245005498302 7.499886129625354 0  194.5245626048846 -7.888077435876318e-05 0  194.5245110428362 7.499920798964998 0  199.5245813151124 -3.827528638076729e-05 0  199.5245213800682 7.499961607675972 0  204.5245979258052 7.189577284614644e-06 0  204.5245312496317 7.500007185182974 0  209.5246125706785 5.643678598811995e-05 0  209.5245404713075 7.500056494853684 0  214.5246254204878 0.0001086524410766493 0  214.5245489537693 7.500108744732572 0  219.5246366518247 0.0001632124362675839 0  219.5245566633963 7.500163322842016 0  224.5246464328449 0.000219631334340016 0  224.5245636027275 7.500219750580002 0  229.5246549174381 0.000277526314778429 0  229.5245697960588 7.500277649063488 0  234.5246622435637 0.0003365913933720745 0  234.5245752800507 7.500336714635286 0  239.5246685336056 0.0003965787116594149 0  239.5245800977352 7.500396700856896 0  244.5246738956706 0.0004572847585347069 0  244.5245842948107 7.500457405122945 0  249.5246784252937 0.0005185400910436049 0  249.5245879174527 7.500518658607393 0  254.5246822073104 0.0005802015901365859 0  254.5245910111425 7.500580318653451 0  259.5246853177782 0.0006421466045990811 0  259.524593620162 7.500642263000393 0  264.5246878259405 0.000704268559463589 0  264.5245957875405 7.50070438544333 0  269.5246897962178 0.0007664737732725766 0  269.5245975552915 7.500766592676183 0  274.5246912902768 0.0008286793706631412 0  274.5245989648172 7.50082880219621 0  279.5246923691819 0.0008908123179971106 0  279.5246000573865 7.500890941268096 0  284.5246930956175 0.0009528097756060911 0  284.5246008745789 7.500952947071953 0  289.5246935360281 0.001014621180998363 0  289.5246014585762 7.501014768301547 0  294.5246937623255 0.001076212786886576 0  294.5246018522266 7.501076368639456 0  299.5246938522215 0.001137575792973778 0  299.5246020988599 7.501137732698897 0  304.5246938861821 0.001198739610472107 0  304.5246022422536 7.501198875159971 0  309.5246939365354 0.001259791325988651 0  309.5246023281577 7.501259854079304 0  4.524543361708994 14.99738930197675 0  -0.475456711029953 14.99732104079252 0  9.52454345759706 14.99745739396622 0  14.5245435861565 14.99752538186524 0  19.52454374956179 14.99759332863725 0  24.52454394610334 14.99766129990306 0  29.52454417094323 14.99772936486069 0  34.52454441584143 14.99779759648458 0  39.52454466851424 14.99786607193602 0  44.52454491183413 14.99793487339667 0  49.52454512289698 14.99800408933762 0  54.52454527191392 14.99807381620871 0  59.52454532085777 14.99814416055866 0  64.52454522178725 14.99821524163228 0  69.5245449147635 14.99828719452862 0  74.52454432528138 14.998360174039 0  79.52454336114788 14.9984343593099 0  84.52454190879212 14.99850995948319 0  89.52453982909884 14.99858722042982 0  94.52453695310297 14.99866643255417 0  99.52453307833989 14.99874793929719 0  104.5245279675571 14.99883214518115 0  109.5245213530796 14.99891952060027 0  114.5245129529241 14.99901059728702 0  119.5245025092903 14.99910594208001 0  124.5244898669072 14.9992060849398 0  129.5244751175046 14.99931135648712 0  134.5244588439775 14.99942155601891 0  139.5244424909294 14.99953531899955 0  144.5244288297622 14.99964898100338 0  149.5244222708963 14.99975460139258 0  164.5244548060165 14.99983558928272 0  159.524449406361 14.99985256868814 0  169.5244550241567 14.9998244912739 0  174.5244539573422 14.99982388860449 0  179.5244535171234 14.99983441293746 0  184.5244543231056 14.99985497427478 0  189.5244563698145 14.99988399372409 0  194.5244594090939 14.99991992010768 0  199.5244631371072 14.99996140602966 0  204.5244672744344 15.0000073409387 0  209.5244715931622 15.00005683082899 0  214.5244759199226 15.00010916267195 0  219.5244801294065 15.00016376860219 0  224.524484135199 15.00022019493424 0  229.5244878808774 15.00027807701488 0  234.5244913324593 15.00033711940999 0  239.5244944723968 15.00039708050182 0  244.5244972949939 15.00045776057224 0  249.524499803006 15.0005189925906 0  254.5245020051607 15.00058063509069 0  259.5245039143874 15.00064256667768 0  264.5245055465587 15.00070468183344 0  269.5245069196087 15.00076688779719 0  274.5245080529062 15.00082910238553 0  279.5245089667978 15.00089125268923 0  284.5245096822976 15.00095327464019 0  289.5245102209149 15.00101511346872 0  294.5245106048062 15.0010767250367 0  299.5245108575785 15.00113807786968 0  304.5245110065149 15.00119915528135 0  309.5245110875974 15.00125995601209 0  4.524440748149456 22.49738977167583 0  -0.4755593189004731 22.49732156232205 0  9.524440815778725 22.49745778996698 0  14.52444088418005 22.49752569910186 0  19.52444094911131 22.4975935708281 0  24.52444100308234 22.4976614734664 0  29.52444103594538 22.49772947546666 0  34.52444103484279 22.49779764732319 0  39.52444098376161 22.49786606285706 0  44.52444086288023 22.49793480037105 0  49.52444064780353 22.49800394390578 0  54.5244403087246 22.49807358469479 0  59.52443980952832 22.49814382286353 0  64.5244391068547 22.49821476939654 0  69.52443814916346 22.49828654838213 0  74.52443687589175 22.49835929952111 0  79.52443521688328 22.49843318083285 0  84.52443309240317 22.49850837139055 0  89.52443041427959 22.49858507371817 0  94.52442708905751 22.49866351512362 0  99.52442302456862 22.49874394660218 0  104.5244181420681 22.49882663684595 0  109.5244123970818 22.49891185704735 0  114.524405813255 22.4989998492059 0  119.5243985344236 22.49909076608108 0  124.5243908998411 22.49918456452918 0  129.5243835437035 22.49928082645476 0  134.5243775083563 22.49937847686125 0  139.5243743331558 22.49947537875815 0  144.5243760277713 22.49956784392695 0  149.5243847564892 22.49965030253383 0  164.5244136735639 22.49977054555855 0  159.5244083045762 22.49975757698185 0  169.5244143471368 22.49978241906123 0  174.5244123524221 22.4997977139811 0  179.5244093681764 22.49981861654237 0  184.5244064528215 22.49984573948286 0  189.5244041401916 22.49987882992543 0  194.5244026191044 22.49991724883752 0  199.5244018835243 22.49996024185991 0  204.5244018330956 22.5000070734539 0  209.5244023328824 22.50005708359147 0  214.5244032455787 22.50010970443815 0  219.5244044469307 22.50016445817762 0  224.5244058316401 22.50022094711422 0  229.5244073142445 22.50027884157032 0  234.5244088276097 22.5003378681009 0  239.5244103204738 22.50039779903187 0  244.5244117548038 22.50045844359425 0  249.524413103317 22.50051964060338 0  254.5244143473173 22.50058125250949 0  259.524415474861 22.5006431606206 0  264.5244164792496 22.50070526131413 0  269.5244173577908 22.50076746308287 0  274.5244181108072 22.50082968428982 0  279.5244187408679 22.50089185152282 0  284.5244192522676 22.50095389842974 0  289.5244196508357 22.50101576486129 0  294.5244199442578 22.50107739600866 0  299.5
[...]
<PointData  Scalars="p"> 
<DataArray  type="Float64"  Name="p"  format="ascii">1.0000000000000001e-01  1.0000000000000003e-01  9.9997878430623827e-02  1.0000000000000003e-01  1.0000000000000003e-01  9.9998660730860015e-02  1.0000000000000003e-01  9.9997973130032780e-02  1.0000000000000003e-01  9.9998123592122776e-02  1.0000000000000003e-01  9.9997720734696025e-02  1.0000000000000003e-01  9.9996246973764816e-02  1.0000000000000003e-01  9.9996177206601325e-02  1.0000000000000003e-01  9.9995172677250874e-02  1.0000000000000003e-01  9.9993436935643484e-02  1.0000000000000003e-01  9.9994712957405529e-02  1.0000000000000003e-01  9.9987492360358421e-02  1.0000000000000003e-01  9.9986126226865868e-02  1.0000000000000003e-01  9.9982875298690613e-02  1.0000000000000003e-01  9.9980954113769185e-02  1.0000000000000003e-01  9.9974821571012909e-02  1.0000000000000003e-01  9.9972877713506991e-02  1.0000000000000003e-01  9.9967604463662152e-02  1.0000000000000003e-01  9.9959819349187726e-02  1.0000000000000003e-01  9.9956851016631237e-02  1.0000000000000003e-01  9.9947551905690865e-02  1.0000000000000003e-01  9.9941399053714172e-02  1.0000000000000003e-01  9.9930557602380440e-02  1.0000000000000003e-01  9.9929926719844867e-02  1.0000000000000003e-01  9.9905157335762843e-02  1.0000000000000003e-01  9.9922490179695678e-02  1.0000000000000003e-01  9.9873183665012605e-02  1.0000000000000003e-01  9.9922606650099638e-02  1.0000000000000003e-01  9.9831541396066314e-02  1.0000000000000003e-01  9.9934490005646831e-02  1.0000000000000001e-01  9.9765826182066794e-02  1.0000000000000001e-01  1.0000000000000003e-01  1.0013662400260856e-01  1.0034093796537760e-01  1.0000000000000003e-01  1.0001539188448569e-01  1.0000000000000003e-01  1.0010366350514420e-01  1.0000000000000003e-01  1.0005103579752815e-01  1.0000000000000003e-01  1.0006413870594225e-01  1.0000000000000003e-01  1.0004990402516258e-01  1.0000000000000003e-01  1.0005332473985540e-01  1.0000000000000003e-01  1.0004116809505482e-01  1.0000000000000003e-01  1.0004157679544581e-01  1.0000000000000003e-01  1.0003663823854844e-01  1.0000000000000003e-01  1.0003266753451269e-01  1.0000000000000003e-01  1.0002986446794800e-01  1.0000000000000003e-01  1.0002780159801375e-01  1.0000000000000003e-01  1.0002440864318762e-01  1.0000000000000003e-01  1.0002286238559134e-01  1.0000000000000003e-01  1.0002122152814173e-01  1.0000000000000003e-01  1.0001924766233866e-01  1.0000000000000003e-01  1.0001808206066774e-01  1.0000000000000003e-01  1.0001712356194081e-01  1.0000000000000003e-01  1.0001580327804309e-01  1.0000000000000003e-01  1.0001518937319616e-01  1.0000000000000003e-01  1.0001434400949182e-01  1.0000000000000003e-01  1.0001392929289550e-01  1.0000000000000003e-01  1.0001287320127321e-01  1.0000000000000003e-01  1.0001343619372875e-01  1.0000000000000003e-01  1.0001128290249872e-01  1.0000000000000003e-01  1.0001379139267719e-01  1.0000000000000003e-01  1.0000872036632209e-01  1.0000000000000003e-01  1.0001679679477705e-01  1.0000000000000001e-01  1.0000000000000003e-01  9.9995283209013089e-02  1.0000000000000003e-01  9.9996016325962445e-02  9.9995839700760467e-02  9.9995285116557392e-02  9.9993353865014817e-02  9.9993654977313606e-02  9.9993063772757518e-02  9.9990034978102216e-02  9.9991822350782786e-02  9.9990318692470492e-02  9.9989292923781919e-02  9.9980413803221035e-02  9.9985117566101511e-02  9.9976984515633360e-02  9.9981295975991424e-02  9.9976890293407839e-02  9.9970624249963752e-02  9.9971537110434411e-02  9.9967714398714311e-02  9.9957332414214034e-02  9.9961822634595313e-02  9.9950835835902294e-02  9.9950310105489992e-02  9.9938448076892242e-02  9.9954308611268972e-02  9.9908796152453350e-02  9.9980642405838857e-02  9.9851497231220568e-02  1.0004900163277652e-01  9.9763630636911321e-02  9.9835454432111156e-02  1.0048256581857921e-01  1.0017453158905017e-01  1.0001804493489479e-01  1.0004620214401497e-01  1.0003683528601791e-01  1.0005218998385181e-01  1.0002780633655992e-01  1.0003833975087929e-01  1.0003292164356031e-01  1.0002712527286671e-01  1.0002629323322849e-01  1.0002562912169743e-01  1.0002021977593742e-01  1.0001992711405532e-01  1.0001883443040278e-01  1.0001581048967703e-01  1.0001512850945124e-01  1.0001439066173085e-01  1.0001236149836112e-01  1.0001166550515771e-01  1.0001105740096460e-01  1.0000951061401078e-01  1.0000911886373993e-01  1.0000800315844488e-01  1.0000777762883159e-01  1.0000580475819833e-01  1.0000757352280992e-01  1.0000274609270961e-01  1.0000858224885635e-01  1.0000000000000003e-01  9.9992443890726868e-02  1.0000000000000003e-01  9.9995540690005755e-02  9.9993608357077088e-02  9.9991774216799667e-02  9.9991890577612527e-02  9.9991224466397050e-02  9.9986948444884052e-02  9.9988132023054385e-02  9.9987344599171538e-02  9.9983034975536636e-02  9.9981574583292585e-02  9.9987547546521408e-02  9.9963886327564908e-02  9.9975396726506391e-02  9.9969546100374798e-02  9.9961037823985174e-02  9.9964725416681902e-02  9.9958669006550427e-02  9.9945601817631222e-02  9.9948837411379748e-02  9.9942213174271599e-02  9.9923319474110150e-02  9.9935093137960992e-02  9.9911415056354674e-02  9.9921044593054981e-02  9.9888207333520329e-02  9.9939664025701494e-02  9.9820906577022833e-02  1.0003674286414167e-01  9.9632233336544238e-02  9.9924380252793585e-02  1.0038644822018546e-01  1.0022887707901590e-01  1.0004023768859721e-01  1.0006169946712684e-01  1.0009684110519615e-01  1.0003565427737042e-01  1.0006997022779870e-01  1.0005717315407067e-01  1.0004600224447935e-01  1.0004616689970340e-01  1.0004611457883819e-01  1.0003509079842826e-01  1.0003581400299243e-01  1.0003389298828134e-01  1.0002782954131272e-01  1.0002707984615923e-01  1.0002610251110680e-01  1.0002203942052011e-01  1.0002130275929261e-01  1.0002027405278893e-01  1.0001771555009363e-01  1.0001668655624009e-01  1.0001596420592145e-01  1.0001373744987599e-01  1.0001352511315738e-01  1.0001140112371106e-01  1.0001214013605070e-01  1.0000765655141070e-01  1.0001360103439010e-01  1.0000000000000003e-01  9.9990584908485947e-02  1.0000000000000003e-01  9.9994267086649491e-02  9.9989784023233733e-02  9.9990685373191945e-02  9.9989811554693747e-02  9.9985121987582484e-02  9.9986221185893384e-02  9.9985120293913585e-02  9.9979284850455444e-02  9.9981499295106177e-02  9.9981156252087283e-02  9.9968230631060875e-02  9.9983606740321626e-02  9.9960853605008504e-02  9.9960316813109421e-02  9.9962966857486166e-02  9.9961633499242766e-02  9.9945859872057050e-02  9.9954649640463439e-02  9.9944578366587336e-02  9.9931500283387251e-02  9.9933890015136972e-02  9.9932579955731515e-02  9.9902082310354912e-02  9.9936955740232661e-02  9.9878475659568269e-02  9.9953426279305327e-02  9.9815134846787668e-02  1.0006103794254775e-01  9.9613270425018052e-02  9.9943093154756801e-02  1.0049438317757887e-01  1.0013819816476563e-01  1.0002492726081848e-01  1.0017843213224410e-01  9.9994953731417993e-02  1.0009022233037987e-01  1.0005916193288587e-01  1.0005237233819722e-01  1.0005066221899060e-01  1.0005574653146414e-01  1.0003778579488735e-01  1.0004174733863735e-01  1.0003957313539866e-01  1.0003132853383974e-01  1.0003073728886729e-01  1.0002995418092048e-01  1.0002422283594149e-01  1.0002370307484108e-01  1.0002272043012615e-01  1.0001904154398569e-01  1.0001820479434391e-01  1.0001698384514811e-01  1.0001471556182885e-01  1.0001316485777473e-01  1.0001277974427497e-01  1.0000959907482852e-01  1.0001084372534828e-01  1.0000571092327053e-01  1.0001084251886769e-01  1.0000000000000003e-01  9.9988686709517938e-02  1.0000000000000003e-01  9.9991928987638354e-02  9.9989015626093691e-02  9.9989438358122823e-02  9.9984262047905711e-02  9.9985496449403952e-02  9.9983982304329228e-02  9.9977302570452203e-02  9.9979695860754725e-02  9.9979013999727612e-02  9.9967655954947596e-02  9.9974713737517165e-02  9.9967286038907185e-02  9.9969409912200574e-02  9.9951112775056791e-02  9.9959081348874199e-02  9.9940618041011661e-02  9.9952743563095914e-02  9.9944665130570223e-02  9.9925523522141887e-02  9.9937477707183281e-02  9.9922834580143824e-02  9.9910270399674511e-02  9.9907407815731944e-02  9.9919911564962313e-02  9.9860125508899666e-02  9.9951764394493658e-02  9.9790253052372699e-02  1.0006739434767785e-01  9.9555854645427364e-02  9.9851045473162647e-02  1.0054857294012744e-01  1.0019599341564812e-01  1.0008517590445831e-01  1.0007985611306590e-01  1.0011086640693709e-01  1.0007197749167539e-01  1.0006612452847612e-01  1.0005880067956245e-01  1.0007803340305509e-01  1.0004555055700638e-01  1.0005574278528157e-01  1.0005259687345130e-01  1.0004060223392902e-01  1.0004073629075318e-01  1.0004054317746890e-01  1.0003143815956227e-01  1.0003130125006754e-01  1.0003032669044565e-01  1.0002496871150045e-01  1.0002405975287713e-01  1.0002313953525212e-01  1.0001930611067522e-01  1.0001839299380925e-01  1.0001670920368427e-01  1.0001481570591210e-01  1.0001233035981993e-01  1.0001299878955854e-01  1.0000751171707584e-01  1.0001280067995570e-01  1.0000000000000003e-01  9.9986463036883202e-02  1.0000000000000003e-01  9.9991593637393572e-02  9.9987653833381096e-02  9.9984971179215398e-02  9.9984532998113190e-02  9.9983780184356705e-02  9.9977012104598875e-02  9.9978496084262847e-02  9.9977807062057888e-02  9.9968168200022967e-02  9.9971760386826952e-02  9.9968502379820176e-02  9.9959325349028252e-02  9.9960338060302620e-02  9.9974891715445088e-02  9.9927501137021868e-02  9.9953503715222977e-02  9.9942799617613431e-02  9.9927180206476382e-02  9.9938004797537214e-02  9.9931674580359814e-02  9.9902476605468471e-02  9.9926540179046397e-02  9.9899031600719834e-02  9.9903194504520940e-02  9.9871176003132611e-02  9.9947119468969947e-02  9.9771059243049270e-02  1.0009247183852638e-01  9.9511879086207830e-02  9.9885408399479889e-02  1.0050783668386436e-01  1.0024441380370519e-01  1.0000216495820519e-01  1.0012177142971265e-01  1.0009897935661108e-01  1.0010671442641526e-01  1.0003910974231672e-01  1.0010474887023142e-01  1.0004039013914504e-01  1.0006870752807985e-01  1.0006159917160806e-01  1.0004673700773133e-01  1.0004693982099785e-01  1.0004895101076464e-01  1.0003579243618291e-01  1.0003692411635545e-01  1.0003593412888888e-01  1.0002823700419913e-01  1.0002774143482732e-01  1.0002704582743689e-01  1.0002192899811975e-01  1.0002088444422849e-01  1.0001992779980921e-01  1.0001599887941519e-01  1.0001540165443527e-01  1.0001263458253613e-01  1.0001240932824203e-01  1.0000721721274740e-01  1.0001196085543772e-01  1.0000000000000003e-01  9.9985263991940618e-02  1.0000000000000003e-01  9.9990958477854733e-02  9.9983775502842834e-02  9.9985291604249002e-02  9.9983345491873946e-02  9.9977481404523325e-02  9.9978232593713495e-02  9.9977535777590804e-02  9.9968041645578293e-02  9.9971780983625774e-02  9.9969036715536780e-02  9.9956631747469757e-02  9.9961490020315458e-02  9.9963812261328944e-02  9.9939766998332763e-02  9.9970645171993985e-02  9.9930651731080997e-02  9.9925911140278462e-02  9.9936803822454540e-02  9.9931715127055010e-02  9.9907065264313172e-02  9.9921690512916633e-02  9.9916346415030499e-02  9.9875643359485317e-02  9.9919865992840431e-02  9.9860583983851711e-02  9.9925900411020660e-02  9.9780570239964408e-02  1.0008690302678938e-01  9.9475489026712383e-02  9.9908919592256090e-02  1.0055676447189922e-01  1.0018785258641213e-01  1.0004087728565721e-01  1.0015511874252399e-01  1.0005962343813496e-01  1.0008926206824106e-01  1.0013917546753762e-01  1.0003194148163379e-01  1.0008424527398462e-01  1.0006868703481182e-01  1.0005785218371727e-01  1.0005407905072690e-01  1.0006072801267978e-01  1.0004163889702644e-01  1.0004448427549463e-01  1.0004403474138338e-01  1.0003410240330476e-01  1.0003329971183501e-01  1.0003294928087923e-01  1.0002606602091707e-01  1.0002539922405888e-01  1.0002418407157060e-01  1.0001997512750746e-01  1.0001823408859219e-01  1.0001739562922116e-01  1.0001317500142054e-01  1.0001363410479651e-01  1.0000824248682112e-01  1.0001261443810729e-01  1.0000000000000003e-01  9.9984080076975415e-02  1.0000000000000003e-01  9.9988914186457167e-02  9.9983887969561591e-02  9.9984626071923682e-02  9.9978106863042190e-02  9.9979008796013277e-02  9.9977627932832186e-02  9.9969034287211378e-02  9.9971962909215104e-02  9.9970586011564083e-02  9.9957589210017031e-02  9.9962315747590610e-02  9.9961281511564110e-02  9.9943119048937087e-02  9.9958556686367897e-02  9.9945991106148796e-02  9.9949030153829027e-02  9.9922525836388318e-02  9.9935319735364195e-02  9.9902758811450831e-02  9.9930350802029250e-02  9.9913098173434606e-02  9.9891654938390986e-02  9.9900050817686395e-02  9.9912626019940401e-02  9.9835721536419217e-02  9.9948469156991585e-02  9.9769307958817027e-02  1.0007574739956554e-01  9.9473141058663492e-02  9.9850338884243897e-02  1.0060592677203710e-01  1.0022255327871178e-01  1.0007113015402078e-01  1.0010871727465025e-01  1.0007388974361134e-01  1.0012820940273577e-01  1.0006143769463181e-01  1.0011701161705772e-01  1.0005984053033960e-01  1.0007212556041267e-01  1.0005305482637415e-01  1.0007527576817912e-01  1.0004478859406654e-01  1.0005187079138426e-01  1.0005108550804499e-01  1.0003858033790586e-01  1.0003850162541410e-01  1.0003918101138891e-01  1.0002944457267407e-01  1.0002903292733968e-01  1.0002839347964441e-01  1.0002241802339135e-01  1.0002147145286240e-01  1.0001987902140640e-01  1.0001654790583861e-01  1.0001381271169980e-01  1.0001415551137074e-01  1.0000793178717253e-01  1.0001240994483923e-01  1.0000000000000003e-01  9.9982493089319835e-02  1.0000000000000003e-01  9.9989123285072923e-02  9.9983385270052336e-02  9.9980779432804145e-02  9.9979247377945044e-02  9.9978843259947478e-02  9.9970642317401576e-02  9.9972294672409007e-02  9.9971534576485041e-02  9.9960684156740282e-02  9.9963369991948881e-02  9.9962264425649747e-02  9.9945849307828752e-02  9.9955189273085096e-02  9.9951248875971135e-02  9.9936139083325048e-02  9.9940579909891566e-02  9.9962238006978121e-02  9.9889552338564988e-02  9.9930367763465186e-02  9.9917774947256385e-02  9.9886655024308962e-02  9.9919186316949862e-02  9.9893745485851920e-02  9.9881533939546685e-02  9.9866475689001519e-02  9.9939908105079481e-02  9.9743560822395688e-02  1.0009918205653887e-01  9.9458084218565987e-02  9.9858024302426629e-02  1.0058548604196262e-01  1.0025762888557760e-01  1.0002467229800867e-01  1.0013042575961419e-01  1.0011022514953348e-01  1.0008148714144964e-01  1.0008540949200226e-01  1.0010233678445989e-01  1.0009818255966534e-01  1.0004185228352833e-01  1.0009300329717258e-01  1.0004364755203117e-01  1.0006188417003727e-01  1.0005843705953944e-01  1.0004443543220375e-01  1.0004325911443294e-01  1.0004612507447809e-01  1.0003375434632358e-01  1.0003408154264121e-01  1.0003339139185080e-01  1.0002572735402142e-01  1.0002465681388679e-01  1.0002411651878919e-01  1.0001853526505267e-01  1.0001784799279501e-01  1.0001514175150773e-01  1.0001378801931046e-01  1.0000852923692706e-01  1.0001277721786951e-01  1.0000000000000003e-01  9.9981851115560932e-02  1.0000000000000003e-01  9.9988999189670191e-02  9.9980281247164585e-02  9.9981803531279986e-02  9.9979181739612885e-02  9.9973016608649018e-02  9.9973281428372737e-02  9.9972546685470495e-02  9.9962562996104579e-02  9.9965634302710424e-02  9.9964342078723969e-02  9.9949018531912348e-02  9.9955567503380027e-02  9.9954068638790264e-02  9.9935460707784377e-02  9.9944705490096597e-02  9.9949585109887981e-02  9.9911280461042307e-02  9.9961258553050977e-02  9.9902023461324665e-02  9.9893955406705856e-02  9.9911867126185452e-02  9.9913332508190247e-02  9.9859566153943771e-02  9.9919455652588057e-02  9.9859567472183150e-02  9.9906951099642469e-02  9.9777933995963561e-02  1.0009163958960381e-01  9.9431433995110521e-02  9.9877187477952545e-02  1.0061149779976462e-01  1.0022441930336250e-01  1.0003714476930380e-01  1.0016322994979028e-01  1.0006846490041152e-01  1.0009971690746730e-01  1.0010525539350079e-01  1.0007811183574444e-01  1.0007082341523878e-01  1.0012292121509674e-01  1.0003092085720537e-01  1.0007414507486348e-01  1.0005983687266941e-01  1.0005289415831556e-01  1.0004655706899503e-01  1.0005374704819901e-01  1.0003689271874987e-01  1.0003827604230706e-01  1.0003889509285087e-01  1.0002949487816082e-01  1.0002808153364397e-01  1.0002768591593551e-01  1.0002137782626069e-01  1.0001983084527093e-01  1.0001914600518928e-01  1.0001398703943414e-01  1.0001422487928908e-01  1.0000890012018865e-01  1.0001246231333248e-01  1.0000000000000003e-01  9.9981305894071795e-02  1.0000000000000003e-01  9.9987608515469326e-02  9.9981029023377660e-02  9.9982118520641095e-02  9.9975018028587548e-02  9.9975492389043852e-02  9.9973931700562985e-02  9.9965429786467525e-02  9.9967273621791197e-02  9.9966892583783593e-02  9.9953220669067741e-02  9.9957967921758928e-02  9.9956721753003130e-02  9.9938975867951946e-02  9.9947967959803513e-02  9.9947828258180951e-02  9.9920678965095308e-02  9.9944972639875118e-02  9.9928881325661661e-02  9.9928089628060532e-02  9.9899979529420313e-02  9.9911938581022541e-02  9.9871841629653318e-02  9.9903530653989103e-02  9.9909739622670940e-02  9.9823593163330546e-02  9.9947869732917152e-02  9.9775904825665632e-02  1.0005368481150188e-01  9.9471085018125599e-02  9.9835816413004652e-02  1.0066113093896129e-01  1.0023448685036759e-01  1.0006406372344190e-01  1.0012815635394749e-01  1.0007973982243465e-01  1.0012702626235609e-01  1.0007575406935569e-01  1.0008069003587461e-01  1.0010007134568058e-01  1.0006113615563869e-01  1.0009683110019962e-01  1.0005097511867768e-01  1.0006362094311734e-01  1.0004489156665855e-01  1.0006412415068751e-01  1.0003925944383367e-01  1.0004336311125203e-01  1.0004366724583076e-01  1.0003269309734693e-01  1.0003207407163138e-01  1.0003289520590990e-01  1.0002383110788673e-01  1.0002306776396158e-01  1.0002185754400264e-01  1.0001727278180871e-01  1.0001465528098698e-01  1.0001505569224153e-01  1.0000842892289823e-01  1.0001257079312148e-01  1.0000000000000003e-01  9.9980232879046699e-02  1.0000000000000003e-01  9.9988050591773153e-02  9.9981168528351788e-02  9.9979171926233484e-02  9.9976708546031440e-02  9.9976336780777428e-02  9.9968206911621074e-02  9.9969106391902207e-02  9.9968702619845778e-02  9.9957771694671377e-02  9.9960055763712932e-02  9.9959751262747545e-02  9.9943931380032783e-02  9.9950173518609103e-02  9.9950726646961516e-02  9.9927063730344129e-02  9.9942233589839780e-02  9.9937746218669174e-02  9.9915517630928041e-02  9.9924086895215661e-02  9.9956535456148965e-02  9.9849837671741937e-02  9.9920344660466717e-02  9.9888855997414941e-02  9.9869351928936645e-02  9.9875184955209154e-02  9.9941291761604767e-02  9.9735685851093880e-02  1.0009534064803460e-01  9.9475887083768921e-02  9.9819015379204526e-02  1.0065861116703609e-01  1.0026881170545437e-01  1.0003109970661199e-01  1.0013315265131308e-01  1.0010674258172884e-01  1.0009596979090539e-01  1.0008086906705828e-01  1.0010847617089071e-01  1.0006576024254792e-01  1.0007364634913576e-01  1.0007974602373167e-01  1.0008525157432413e-01  1.0003201183930582e-01  1.0007663607514398e-01  1.0003685242527890e-01  1.0005015596154138e-01  1.0004779485958801e-01  1.0003656737499744e-01  1.0003442607474751e-01  1.0003716886573734e-01  1.0002707577772049e-01  1.0002639824856471e-01  1.0002570142642660e-01  1.0001875842411970e-01  1.0001789228320415e-01  1.0001580797856334e-01  1.0001353590543237e-01  1.0000864680149665e-01  1.0001255650268709e-01  1.0000000000000003e-01  9.9980192978878321e-02  1.0000000000000003e-01  9.9988487223715866e-02  9.9979157151379242e-02  9.9980803189939807e-02  9.9977697771885241e-02  9.9972186561893647e-02  9.9971557015570173e-02  9.9970949526604139e-02  9.9961547784543331e-02  9.9963687642307911e-02  9.9962795642126082e-02  9.9948942149579598e-02  9.9953537762599173e-02  9.9954494694055637e-02  9.9934163754057628e-02  9.9943847673865965e-02  9.9944331577742199e-02  9.9917183019134562e-02  9.9932806978854788e-02  9.9940198904152219e-02  9.9887254618027971e-02  9.9955711754137602e-02  9.9885996689433029e-02  9