<?xml version="1.0"?>
<VTKFile type="UnstructuredGrid"  version="0.1"  >
<UnstructuredGrid>
<Piece  NumberOfPoints="1933" NumberOfCells="3640">
<Points>
<DataArray  type="Float64"  NumberOfComponents="3"  format="ascii">-0.0002716564587439962 0.002011745899075081 0  4.999728341018452 0.001938926262998933 0  4.999837625049459 7.50193895282419 0  -0.00016239442749999 7.502011732186653 0  9.999728322104643 0.001866064239590761 0  9.999837671476374 7.50186610960426 0  14.99972830935091 0.001793099775347113 0  14.99983776406319 7.501793154058763 0  19.99972833701292 0.001719999142657444 0  19.99983792399306 7.501720057789084 0  24.99972844304272 0.001646746377612548 0  24.99983817477153 7.501646807534088 0  29.99972866599831 0.001573337559568501 0  29.99983854187429 7.501573400809197 0  34.9997290443091 0.001499777017824546 0  34.99983905250065 7.501499842738543 0  39.99972961667655 0.001426074929482757 0  39.99983973559812 7.501426143972727 0  44.99973042302327 0.001352245934012923 0  44.99984062214524 7.501352319476004 0  49.99973150572066 0.001278308506979384 0  49.99984174563755 7.501278387997794 0  54.9997329109851 0.001204284928582627 0  54.99984314272796 7.501204372101308 0  59.99973469041856 0.001130201756949872 0  59.99984485398622 7.501130298679469 0  64.99973690271626 0.001056090777194122 0  64.99984692475381 7.501056199941356 0  69.99973961559209 0.0009819904519232632 0  69.99984940607895 7.500982114903115 0  74.99974290799922 0.0009079479545732081 0  74.99985235571539 7.500908091471594 0  79.99974687274518 0.000834021932413976 0  79.99985583916056 7.500834189274178 0  84.99975161962963 0.0007602862329843946 0  84.99985993068691 7.500760483475663 0  89.99975727926953 0.0006868349533869443 0  89.9998647142784 7.500687069947228 0  94.99976400782145 0.0006137893646865127 0  94.99987028431376 7.500614072338714 0  99.99977199285539 0.0005413075720610898 0  99.99987674571315 7.500541651890921 0  104.9997814606734 0.0004695982812540199 0  104.9998842130628 7.500470021270808 0  109.9997926853429 0.0003989409097240396 0  109.9998928079038 7.500399464413166 0  114.999805999517 0.0003297157980893488 0  114.9999026528793 7.500330365453899 0  119.9998218064503 0.0002624510001195834 0  119.9999138607473 7.500263251545904 0  124.9998405908179 0.0001978971424348693 0  124.999926515522 7.500198856913446 0  129.9998629213996 0.000137151296560061 0  129.9999406428354 7.500138219139583 0  134.9998894276278 8.186886728184695e-05 0  134.9999561691697 7.500082823376563 0  139.9999207051044 3.46360440025876e-05 0  139.9999728817304 7.500034815966265 0  144.9999570373544 -3.742520828662203e-07 0  144.9999904440011 7.499997322582072 0  149.9999976321101 -1.635816547953348e-05 0  150.0000086705867 7.499974995491918 0  160 8.309373101022752e-19 0  164.9999071822214 -0.0001052682826068255 0  164.9999828775315 7.49988193695051 0  160.0000134759109 7.499968315702925 0  169.9998475566401 -0.0002067713149128904 0  169.9999517467189 7.499786696940435 0  174.9998073857166 -0.0003053342973627848 0  174.9999246235351 7.499690902498917 0  179.9997793402663 -0.0004009382975701214 0  179.9999022270092 7.499596756102491 0  184.999759208108 -0.0004937737877892005 0  184.9998841509517 7.499504755688556 0  189.9997444496207 -0.0005841643569622161 0  189.9998697126671 7.499414865577079 0  194.9997334706114 -0.0006724519895650419 0  194.9998582359732 7.499326887921359 0  199.9997252309621 -0.0007589449545945207 0  199.9998491368648 7.49924059297795 0  204.9997190261759 -0.0008439040817682657 0  204.9998419373868 7.499155764373189 0  209.9997143620595 -0.0009275450727819039 0  209.9998362550768 7.499072212152477 0  214.9997108808914 -0.001010045698087458 0  214.9998317862574 7.498989773752246 0  219.9997083166556 -0.001091553364565828 0  219.9998282898769 7.498908310935812 0  224.9997064670357 -0.001172191582294232 0  224.9998255739109 7.498827705851686 0  229.9997051753132 -0.001252065077446276 0  229.9998234845705 7.498747857353861 0  234.9997043182753 -0.001331263714078838 0  234.9998218979473 7.498668677903654 0  239.9997037978746 -0.001409865482689409 0  239.9998207136104 7.498590091061935 0  244.9997035353062 -0.001487938795992891 0  244.9998198496986 7.498512029479335 0  249.999703466687 -0.001565544285587462 0  249.9998192391474 7.498434433273987 0  254.9997035398362 -0.001642736247022331 0  254.9998188267754 7.498357248696542 0  259.9997037118314 -0.001719563843812689 0  259.9998185670173 7.498280426999719 0  264.9997039471408 -0.001796072153695109 0  264.9998184221629 7.498203923446117 0  269.9997042161921 -0.001872303120707835 0  269.9998183609915 7.498127696402234 0  274.9997044943184 -0.00194829646108231 0  274.9998183577196 7.498051706479645 0  279.999704761041 -0.002024090554461601 0  279.9998183912237 7.49797591569868 0  284.9997049997174 -0.002099723325982451 0  284.9998184444744 7.497900286671602 0  289.9997051976179 -0.002175233071559236 0  289.9998185041683 7.497824781839592 0  294.9997053465656 -0.00225065905866542 0  294.9998185604982 7.497749362864464 0  299.9997054443261 -0.002326041452212658 0  299.999818607019 7.497673990389311 0  304.9997054969509 -0.002401419417988062 0  304.9998186405811 7.497598624543407 0  309.9997055221336 -0.002476824409780468 0  309.999818661494 7.497523226663133 0  4.999946717819424 15.00193903647021 0  -5.330940670333906e-05 15.00201170590964 0  9.999946781454518 15.00186624635056 0  14.99994690185292 15.00179331442946 0  19.99994709554363 15.00172022806083 0  24.99994737811437 15.00164698266953 0  29.99994776562946 15.00157358049068 0  34.9999482752624 15.00150002922518 0  39.99994892557914 15.00142634098855 0  44.99994973669386 15.00135253167594 0  49.99995073039516 15.00127862076053 0  54.999951930272 15.00120463151243 0  59.99995336183485 15.00113059163313 0  64.99995505260658 15.00105653432463 0  69.9999570321404 15.00098249984655 0  74.99995933190839 15.00090853765828 0  79.99996198497468 15.00083470929852 0  84.99996502534181 15.00076109222788 0  89.99996848680823 15.00068778496002 0  94.99997240111995 15.0006149139423 0  99.99997679512988 15.00054264283044 0  104.9999816866159 15.00047118503955 0  109.9999870783874 15.00040082073311 0  114.9999929504403 15.00033191966077 0  119.9999992503927 15.00026497124635 0  125.0000058836939 15.00020062243141 0  130.0000127078973 15.00013972037211 0  135.0000195408706 15.00008334695851 0  140.0000262024505 15.00003280393398 0  145.000032620802 14.99998942732579 0  150.0000390269572 14.9999538600163 0  165.0000380376676 14.99984811885187 0  160.0000448637612 14.99992223729349 0  170.0000273307784 14.99976461856473 0  175.00001482351 14.99967669476947 0  180.0000022741996 14.99958749638354 0  184.9999906425212 14.99949858597905 0  189.9999803364163 14.99941064786156 0  194.9999714520653 14.99932392741752 0  199.9999639279663 14.99923846152474 0  204.9999576330254 14.99915419387907 0  209.999952413713 14.99907103132224 0  214.9999481177178 14.99898887057722 0  219.9999446047037 14.99890761033503 0  224.999941750271 14.9988271562062 0  229.9999394465118 14.99874742228226 0  234.9999376009912 14.99866833115417 0  239.9999361351037 14.9985898132809 0  244.9999349822872 14.99851180612846 0  249.9999340863227 14.99843425326588 0  254.9999333998092 14.99835710349217 0  259.9999328828436 14.99828031001518 0  264.9999325018976 14.99820382967916 0  269.9999322288795 14.99812762222916 0  274.999932040343 14.99805164959899 0  279.999931916822 14.99797587521265 0  284.9999318422578 14.99790026329586 0  289.9999318034713 14.99782477820049 0  294.9999317896635 14.99774938373862 0  299.9999317919125 14.99767404246723 0  304.9999318027035 14.99759871463872 0  309.9999318155962 14.9975233557943 0  5.000055507416938 22.50193925402152 0  5.547791913007583e-05 22.5020117798224 0  10.00005556793685 22.50186653986639 0  15.00005567818146 22.5017936457926 0  20.00005585112272 22.50172057826741 0  25.00005609684421 22.5016473446564 0  30.00005642427696 22.5015739544767 0  35.0000568421581 22.50150041984367 0  40.00005735948662 22.50142675561303 0  45.00005798566971 22.50135297950982 0  50.00005873047878 22.50127911240483 0  55.0000596038727 22.50120517882851 0  60.00006061570723 22.50113120778446 0  65.0000617753186 22.50105723392136 0  70.00006309094779 22.50098329913398 0  75.00006456895437 22.50090945468991 0  80.00006621275251 22.50083576401112 0  85.00006802138626 22.50076230628278 0  90.0000699876565 22.50068918111059 0  95.00007209571537 22.50061651449944 0  100.0000743180833 22.50054446646237 0  105.0000766121438 22.5004732405557 0  110.0000789163864 22.50040309549137 0  115.0000811470803 22.50033435853114 0  120.0000831967806 22.50026743927625 0  125.0000849372154 22.50020284005372 0  130.0000862306601 22.50014115408674 0  135.0000869553532 22.50008303275185 0  140.0000870498033 22.50002908500356 0  145.0000865719201 22.49997964307541 0  150.0000857370786 22.49993430516346 0  165.0000955891301 22.49981146787198 0  160.0000905540784 22.49987934459411 0  170.0000968159048 22.49973583132272 0  175.0000950459481 22.49965512868758 0  180.0000913234972 22.49957163717477 0  185.0000865741343 22.49948695375561 0  190.0000814676051 22.49940206489613 0  195.0000764327907 22.49931752818366 0  200.0000717170323 22.49923363106716 0  205.0000674445618 22.49915050061208 0  210.0000636615926 22.49906817252837 0  215.0000603676926 22.4989866325669 0  220.000057536371 22.49890584064705 0  225.0000551280556 22.49882574462199 0  230.0000530979879 22.49874628796544 0  235.0000514008513 22.49866741394161 0  240.0000499933483 22.49858906775958 0  245.000048835523 22.4985111975792 0  250.000047891327 22.49843375486724 0  255.0000471287514 22.49835669438635 0  260.0000465197076 22.49827997397824 0  265.0000460397813 22.49820355423014 0  270.0000456679168 22.49812739807529 0  275.0000453860718 22.49805147035498 0  280.0000451788474 22.49797573735736 0  285.0000450330971 22.49790016633757 0  290.0000449374982 22.49782472500968 0  295.0000448820755 22.49774938096547 0  300.0000448576442 22.49767
[...]
<PointData  Scalars="p"> 
<DataArray  type="Float64"  Name="p"  format="ascii">1.0000000000000001e-01  1.0000000000000003e-01  1.0000389870499803e-01  1.0000000000000003e-01  1.0000000000000003e-01  1.0000453207215566e-01  1.0000000000000003e-01  1.0000684398177359e-01  1.0000000000000003e-01  1.0000801770666541e-01  1.0000000000000003e-01  1.0000968403599812e-01  1.0000000000000003e-01  1.0001242148560849e-01  1.0000000000000003e-01  1.0001364575008348e-01  1.0000000000000003e-01  1.0001552189024467e-01  1.0000000000000003e-01  1.0001860907078285e-01  1.0000000000000003e-01  1.0001906472012885e-01  1.0000000000000003e-01  1.0002672298070239e-01  1.0000000000000003e-01  1.0003094906089935e-01  1.0000000000000003e-01  1.0003546942017388e-01  1.0000000000000003e-01  1.0003911236653359e-01  1.0000000000000003e-01  1.0004648970578513e-01  1.0000000000000003e-01  1.0004947228127510e-01  1.0000000000000003e-01  1.0005489920715864e-01  1.0000000000000003e-01  1.0006322750572913e-01  1.0000000000000003e-01  1.0006569286460187e-01  1.0000000000000003e-01  1.0007398996020783e-01  1.0000000000000003e-01  1.0007904537857960e-01  1.0000000000000003e-01  1.0008810597640171e-01  1.0000000000000003e-01  1.0008597422069115e-01  1.0000000000000003e-01  1.0010864887817957e-01  1.0000000000000003e-01  1.0008788332589445e-01  1.0000000000000003e-01  1.0013415604368912e-01  1.0000000000000003e-01  1.0008158116402377e-01  1.0000000000000003e-01  1.0016940402542003e-01  1.0000000000000003e-01  1.0006434291917574e-01  1.0000000000000001e-01  1.0022914747183204e-01  1.0000000000000001e-01  1.0000000000000003e-01  9.9813970851555800e-02  9.9617559567736533e-02  1.0000000000000003e-01  9.9945782063546318e-02  1.0000000000000003e-01  9.9853039498239704e-02  1.0000000000000003e-01  9.9902883115579447e-02  1.0000000000000003e-01  9.9887902823098118e-02  1.0000000000000003e-01  9.9900755854559042e-02  1.0000000000000003e-01  9.9894659176833767e-02  1.0000000000000003e-01  9.9905519893299266e-02  1.0000000000000003e-01  9.9903879891710762e-02  1.0000000000000003e-01  9.9907539735613463e-02  1.0000000000000003e-01  9.9910710848483242e-02  1.0000000000000003e-01  9.9913037126120027e-02  1.0000000000000003e-01  9.9914579209772689e-02  1.0000000000000003e-01  9.9917789875428445e-02  1.0000000000000003e-01  9.9919300407002740e-02  1.0000000000000003e-01  9.9920949280902852e-02  1.0000000000000003e-01  9.9922994861314743e-02  1.0000000000000003e-01  9.9924494484515666e-02  1.0000000000000003e-01  9.9925482637916285e-02  1.0000000000000003e-01  9.9927423366369783e-02  1.0000000000000003e-01  9.9927833044795022e-02  1.0000000000000003e-01  9.9929932084407688e-02  1.0000000000000003e-01  9.9929129144345721e-02  1.0000000000000003e-01  9.9933318291732659e-02  1.0000000000000003e-01  9.9928277746121674e-02  1.0000000000000003e-01  9.9939026372994774e-02  1.0000000000000003e-01  9.9922998619469183e-02  1.0000000000000003e-01  9.9951373764229606e-02  1.0000000000000003e-01  9.9902864966178090e-02  1.0000000000000001e-01  1.0000000000000003e-01  1.0000641933206350e-01  1.0000000000000003e-01  1.0000636056391547e-01  1.0000681826889758e-01  1.0000770477642534e-01  1.0001001982928850e-01  1.0000984934090351e-01  1.0001028387390584e-01  1.0001363337531562e-01  1.0001208298379242e-01  1.0001342335450528e-01  1.0001648145165663e-01  1.0002438063668297e-01  1.0002209310267000e-01  1.0003063253808096e-01  1.0002688906296231e-01  1.0003018205645439e-01  1.0003689563368225e-01  1.0003498576055969e-01  1.0003719084584539e-01  1.0004724758195915e-01  1.0004094072424655e-01  1.0004977129428230e-01  1.0004898080878803e-01  1.0005922055090602e-01  1.0004009173399458e-01  1.0008604584485500e-01  1.0001097164661740e-01  1.0014174614043792e-01  9.9942202524953783e-02  1.0023250732108360e-01  1.0016161168550493e-01  9.9413975998463258e-02  9.9824110133296243e-02  9.9972101329517810e-02  9.9948290990585456e-02  9.9958420951597529e-02  9.9938224598791023e-02  9.9961940507542327e-02  9.9950236834653317e-02  9.9953189686281058e-02  9.9957902444067950e-02  9.9958129386140807e-02  9.9957542611605193e-02  9.9962435135736230e-02  9.9962528973922285e-02  9.9963077647630932e-02  9.9965919115249643e-02  9.9966471043943364e-02  9.9967015283260227e-02  9.9968778174521544e-02  9.9969649936449398e-02  9.9969642044878057e-02  9.9971851489074726e-02  9.9970880707866847e-02  9.9973951629380928e-02  9.9970466302191571e-02  9.9978722531407924e-02  9.9965157781599437e-02  9.9989874198995757e-02  9.9952634589294848e-02  1.0000000000000003e-01  1.0000947994988776e-01  1.0000000000000003e-01  1.0000641001008614e-01  1.0000954099545444e-01  1.0001192850223871e-01  1.0001238290906128e-01  1.0001286044664763e-01  1.0001774226234086e-01  1.0001658660733277e-01  1.0001685338390308e-01  1.0002242248790454e-01  1.0002360430839607e-01  1.0001992963772825e-01  1.0004283803033288e-01  1.0003499115278021e-01  1.0003977785915699e-01  1.0005017760361644e-01  1.0004541832538719e-01  1.0004971644288313e-01  1.0006284504912355e-01  1.0005778986888919e-01  1.0006100178592943e-01  1.0007943950214612e-01  1.0006408734380171e-01  1.0008455119442405e-01  1.0007236906916912e-01  1.0010416270501211e-01  1.0004652267771899e-01  1.0017062029704392e-01  9.9946478630572780e-02  1.0036483293343394e-01  1.0011672386856160e-01  9.9457644620472546e-02  9.9717700295558598e-02  9.9941304270168049e-02  9.9926073194285675e-02  9.9879555519399837e-02  9.9942921779679478e-02  9.9907247621520964e-02  9.9915035729953972e-02  9.9924502941914017e-02  9.9923299818095973e-02  9.9920562699529730e-02  9.9930597067904303e-02  9.9929337403079785e-02  9.9930012778400579e-02  9.9935639608998914e-02  9.9936304258121986e-02  9.9936674344529783e-02  9.9940601997238698e-02  9.9941145483760249e-02  9.9942045943404473e-02  9.9944094572576594e-02  9.9945662656520926e-02  9.9944969981035608e-02  9.9949086086580777e-02  9.9945766536942343e-02  9.9953130839199558e-02  9.9942847567407386e-02  9.9964294516417598e-02  9.9925035625827330e-02  1.0000000000000003e-01  1.0001136190699159e-01  1.0000000000000003e-01  1.0000727601833628e-01  1.0001263543714468e-01  1.0001208458460169e-01  1.0001262114158464e-01  1.0001769262406457e-01  1.0001634684038073e-01  1.0001633521473566e-01  1.0002259540620448e-01  1.0001999246171532e-01  1.0001971006653594e-01  1.0003311722598601e-01  1.0002111866512831e-01  1.0003967364587121e-01  1.0004568308340683e-01  1.0004188781517406e-01  1.0004200914682244e-01  1.0005784900538810e-01  1.0004721296651697e-01  1.0005379857562573e-01  1.0006631584005139e-01  1.0006112526197841e-01  1.0005738116626972e-01  1.0008798241359931e-01  1.0004762044063915e-01  1.0010552921606829e-01  1.0002502902179354e-01  1.0017120270682711e-01  9.9910800178077477e-02  1.0038735567755483e-01  1.0012066208802281e-01  9.9331025481398133e-02  9.9812442075242244e-02  9.9982259466927473e-02  9.9809333796111580e-02  1.0000138878681762e-01  9.9907894098472755e-02  9.9932365712222915e-02  9.9937384000519838e-02  9.9938128746074398e-02  9.9928721659301195e-02  9.9945143550279711e-02  9.9940292643772466e-02  9.9940411668066581e-02  9.9947789492559488e-02  9.9948052440102103e-02  9.9947896996376462e-02  9.9953186741647895e-02  9.9953644251594739e-02  9.9953869164857531e-02  9.9957463609027478e-02  9.9957622575113911e-02  9.9959044842679007e-02  9.9959749322584598e-02  9.9963076230455805e-02  9.9959169576729637e-02  9.9968637843884683e-02  9.9955605852328405e-02  9.9979052663773715e-02  9.9942984733103479e-02  1.0000000000000003e-01  1.0001329459336734e-01  1.0000000000000003e-01  1.0000927251939799e-01  1.0001300321040994e-01  1.0001215628000594e-01  1.0001825795046222e-01  1.0001672279787222e-01  1.0001746711783881e-01  1.0002426629131098e-01  1.0002130389452343e-01  1.0002074860846272e-01  1.0003241044045715e-01  1.0002590695876154e-01  1.0003114750407131e-01  1.0003452322088516e-01  1.0004833535121048e-01  1.0004357468739572e-01  1.0006270155208366e-01  1.0005006380163120e-01  1.0005407795535894e-01  1.0007380814438455e-01  1.0005822745588980e-01  1.0006854569583791e-01  1.0007944631975239e-01  1.0007973573903031e-01  1.0005919257324858e-01  1.0012304752013033e-01  1.0002026875034534e-01  1.0019329687012991e-01  9.9895594711143426e-02  1.0045045202289955e-01  1.0023286460751508e-01  9.9241965534294679e-02  9.9757800853235545e-02  9.9921130882087886e-02  9.9891708162270110e-02  9.9888928892149551e-02  9.9918445905196523e-02  9.9922864296571490e-02  9.9932011696176049e-02  9.9905859178549439e-02  9.9936326880954940e-02  9.9925057953290819e-02  9.9924740321276295e-02  9.9935227811718638e-02  9.9934660472523293e-02  9.9933078184122920e-02  9.9941497360362522e-02  9.9941463550544854e-02  9.9941636692566782e-02  9.9946471856553434e-02  9.9947354302252836e-02  9.9947249872886723e-02  9.9951274846102028e-02  9.9950706640679537e-02  9.9953575455953181e-02  9.9951936314127326e-02  9.9959213939911806e-02  9.9948361612660963e-02  9.9970763438468779e-02  9.9933599829513456e-02  1.0000000000000003e-01  1.0001558726286955e-01  1.0000000000000003e-01  1.0000935210875152e-01  1.0001356208905533e-01  1.0001628424296473e-01  1.0001682553000416e-01  1.0001691870198993e-01  1.0002390346167428e-01  1.0002192646957897e-01  1.0002088603433522e-01  1.0003082355459371e-01  1.0002664503086647e-01  1.0002773676841847e-01  1.0003902309263810e-01  1.0003623877372166e-01  1.0002430209478259e-01  1.0006825702748381e-01  1.0004712113748902e-01  1.0005384920715055e-01  1.0007175701826163e-01  1.0005762766555384e-01  1.0005876388998534e-01  1.0008840601809284e-01  1.0005901682577041e-01  1.0008223755566396e-01  1.0007416195219716e-01  1.0010823074729816e-01  1.0001632034196839e-01  1.0021404697394359e-01  9.9858494671868289e-02  1.0050168143550334e-01  1.0022481070397611e-01  9.9265350056237628e-02  9.9704537283585318e-02  1.0001696756327463e-01  9.9868054160791420e-02  9.9894491822070206e-02  9.9885646653559090e-02  9.9963626690830948e-02  9.9889040576230534e-02  9.9952135163456954e-02  9.9923219532913596e-02  9.9925208368625867e-02  9.9937971410186316e-02  9.9937128475995257e-02  9.9932272151336446e-02  9.9944390649681206e-02  9.9942956212488027e-02  9.9942476747013009e-02  9.9949728829307721e-02  9.9949944901011958e-02  9.9950003117549951e-02  9.9954238653160832e-02  9.9955540322110306e-02  9.9954566516538890e-02  9.9959892395179606e-02  9.9956455789693477e-02  9.9964262212498309e-02  9.9953947998433490e-02  9.9975544155402010e-02  9.9940739428084929e-02  1.0000000000000003e-01  1.0001684200110866e-01  1.0000000000000003e-01  1.0000951297316038e-01  1.0001739045674350e-01  1.0001535881912854e-01  1.0001682578659371e-01  1.0002279865070067e-01  1.0002213360051801e-01  1.0002109371216952e-01  1.0003097228846962e-01  1.0002657335803661e-01  1.0002682256427929e-01  1.0004032151336531e-01  1.0003442933958409e-01  1.0003052816227599e-01  1.0005448388626322e-01  1.0002828483336426e-01  1.0005903052146460e-01  1.0007252870156230e-01  1.0005878192737083e-01  1.0006064969599762e-01  1.0008516517584250e-01  1.0006734582631052e-01  1.0006483285717827e-01  1.0010773082217524e-01  1.0005429143399745e-01  1.0011501414052248e-01  1.0003617165014492e-01  1.0020507420285582e-01  9.9851045251411960e-02  1.0055281933085669e-01  1.0020801603465719e-01  9.9206765779263892e-02  9.9758863415289126e-02  9.9993332857248804e-02  9.9830734493392775e-02  9.9938916079030937e-02  9.9900264092025626e-02  9.9856298307066382e-02  9.9962402621309357e-02  9.9911500134761452e-02  9.9922138757313150e-02  9.9929824686357610e-02  9.9933010933984601e-02  9.9922397448106937e-02  9.9939750970825372e-02  9.9936303674081031e-02  9.9934803982278192e-02  9.9943717224917114e-02  9.9944329829624465e-02  9.9943506186266712e-02  9.9950032291621138e-02  9.9950083835371545e-02  9.9950991629348923e-02  9.9953566768690397e-02  9.9956431519129654e-02  9.9953368438313928e-02  9.9962147226752646e-02  9.9951578798358573e-02  9.9972683177816837e-02  9.9938460218708003e-02  1.0000000000000003e-01  1.0001793747927486e-01  1.0000000000000003e-01  1.0001153285036382e-01  1.0001705327284147e-01  1.0001514182459333e-01  1.0002190159524586e-01  1.0002063972207083e-01  1.0002074563165188e-01  1.0002978912813887e-01  1.0002624103166556e-01  1.0002562797161449e-01  1.0003900665820128e-01  1.0003338916406988e-01  1.0003196546089263e-01  1.0005070319353612e-01  1.0003528510594971e-01  1.0004250611677827e-01  1.0004776673812699e-01  1.0006563138894634e-01  1.0005627210997296e-01  1.0009010632197976e-01  1.0006040365120621e-01  1.0007121584034748e-01  1.0009246607743504e-01  1.0008110871171487e-01  1.0005657371106443e-01  1.0014295468010730e-01  1.0000913854772708e-01  1.0021536424331592e-01  9.9855338243551944e-02  1.0056835025488638e-01  1.0027734773826856e-01  9.9144170821529695e-02  9.9730394445363330e-02  9.9965898343767956e-02  9.9882677843062040e-02  9.9937900810915470e-02  9.9865078331393936e-02  9.9928557124916148e-02  9.9880929827134993e-02  9.9937531183835637e-02  9.9921370410467475e-02  9.9941805536014658e-02  9.9914448852922361e-02  9.9942444382695769e-02  9.9934725068695912e-02  9.9932552497849714e-02  9.9943531196611729e-02  9.9943351670231273e-02  9.9941048592752615e-02  9.9949827605095937e-02  9.9950280054625626e-02  9.9949586012927943e-02  9.9955520415258570e-02  9.9954944924235192e-02  9.9957334646857340e-02  9.9956843337129023e-02  9.9963984697392497e-02  9.9953595972733331e-02  9.9974997809113314e-02  9.9941777484671659e-02  1.0000000000000003e-01  1.0001959594898741e-01  1.0000000000000003e-01  1.0001122756142061e-01  1.0001700088091596e-01  1.0001900439490959e-01  1.0002045245024405e-01  1.0001938848346954e-01  1.0002789502908795e-01  1.0002569543662877e-01  1.0002484449003952e-01  1.0003614997642271e-01  1.0003284084323404e-01  1.0003126942336457e-01  1.0004842271242391e-01  1.0003828363881191e-01  1.0003779644774333e-01  1.0005571492069362e-01  1.0004753834112205e-01  1.0002862115284238e-01  1.0009570202571012e-01  1.0006130572507019e-01  1.0006688421035921e-01  1.0010237068589099e-01  1.0006316476304022e-01  1.0008352568602528e-01  1.0009182375787840e-01  1.0011125522638403e-01  1.0001200548818705e-01  1.0024786123792306e-01  9.9822966313240474e-02  1.0059454025875378e-01  1.0028085898246024e-01  9.9157811139277130e-02  9.9691527380245559e-02  1.0001671459711145e-01  9.9868119528569485e-02  9.9903230354807859e-02  9.9914320005189627e-02  9.9914793480275044e-02  9.9885524054903335e-02  9.9895291668799985e-02  9.9956272137720223e-02  9.9900388702499107e-02  9.9947807333027383e-02  9.9928940088631193e-02  9.9928569707825626e-02  9.9940400614992070e-02  9.9941159021636861e-02  9.9935840948353782e-02  9.9947200911001982e-02  9.9946424736814574e-02  9.9945891133813469e-02  9.9952586413262240e-02  9.9953873893941267e-02  9.9952485655298892e-02  9.9958906840762293e-02  9.9956040982225297e-02  9.9962637553510814e-02  9.9954410648163683e-02  9.9974132153782994e-02  9.9941846249828659e-02  1.0000000000000003e-01  1.0002024277106233e-01  1.0000000000000003e-01  1.0001104873449526e-01  1.0002026992779205e-01  1.0001785829668065e-01  1.0001958118277895e-01  1.0002549127694380e-01  1.0002484963205359e-01  1.0002378254892753e-01  1.0003408205321103e-01  1.0003091656579853e-01  1.0002963453722587e-01  1.0004595129882024e-01  1.0003868880927388e-01  1.0003622063567402e-01  1.0005624247769720e-01  1.0004473572458632e-01  1.0003647828897277e-01  1.0007444920613426e-01  1.0003043350944167e-01  1.0007512570410305e-01  1.0009545887465766e-01  1.0007364457836541e-01  1.0006543744690005e-01  1.0012292183076639e-01  1.0005292086520491e-01  1.0011412052750752e-01  1.0004982743482840e-01  1.0021434677146215e-01  9.9821306588063152e-02  1.0063796606414041e-01  1.0026555528398851e-01  9.9133635423640731e-02  9.9725067462675565e-02  1.0001211538393651e-01  9.9835397970762366e-02  9.9948236268723747e-02  9.9905569079334011e-02  9.9896989648898857e-02  9.9914918813987619e-02  9.9920279160411879e-02  9.9870824486640086e-02  9.9964313237676475e-02  9.9921119885058932e-02  9.9932624296997910e-02  9.9936596313754011e-02  9.9942386888122556e-02  9.9932214616206508e-02  9.9947296969624511e-02  9.9945444930795324e-02  9.9943057277351491e-02  9.9951510682152661e-02  9.9952220946057338e-02  9.9952081974964649e-02  9.9956718382520945e-02  9.9959316416803376e-02  9.9956198958107298e-02  9.9965199932522189e-02  9.9955698681891220e-02  9.9974811874173633e-02  9.9944282315472546e-02  1.0000000000000003e-01  1.0002074876596918e-01  1.0000000000000003e-01  1.0001257303793247e-01  1.0001959264438799e-01  1.0001699003491075e-01  1.0002410254569463e-01  1.0002295576441211e-01  1.0002303642702831e-01  1.0003143629611300e-01  1.0002924775270274e-01  1.0002750562385349e-01  1.0004206802143377e-01  1.0003697773154827e-01  1.0003526506692065e-01  1.0005396371934920e-01  1.0004336599714021e-01  1.0003906058469973e-01  1.0006693891336874e-01  1.0004228523160660e-01  1.0004979053390164e-01  1.0006251182276554e-01  1.0007746830285000e-01  1.0006951991473340e-01  1.0011106448822207e-01  1.0007875247732884e-01  1.0005823246261092e-01  1.0015757438740068e-01  1.0000812769121299e-01  1.0021351183678666e-01  9.9862692274763562e-02  1.0060624629442134e-01  1.0030741421488060e-01  9.9091331039797073e-02  9.9718279491515543e-02  9.9986596779280054e-02  9.9870861576410522e-02  9.9942851662773072e-02  9.9878279601428144e-02  9.9929568576858405e-02  9.9918991724165046e-02  9.9894041863124255e-02  9.9925086834570298e-02  9.9897646049785266e-02  9.9944015998627678e-02  9.9928757502407151e-02  9.9948295485961514e-02  9.9925486828575522e-02  9.9948054156642388e-02  9.9943331764888135e-02  9.9940752291408738e-02  9.9950053325341653e-02  9.9950560015153428e-02  9.9947890379392848e-02  9.9956411268030995e-02  9.9955977929503351e-02  9.9957623664192627e-02  9.9958778558122963e-02  9.9965138313758028e-02  9.9955713889170739e-02  9.9975548244770965e-02  9.9945395360540298e-02  1.0000000000000003e-01  1.0002190143498024e-01  1.0000000000000003e-01  1.0001219363100849e-01  1.0001912906223538e-01  1.0002026810133939e-01  1.0002253320171385e-01  1.0002126793508270e-01  1.0002936152009820e-01  1.0002786534105051e-01  1.0002625089525508e-01  1.0003767853646535e-01  1.0003505862113767e-01  1.0003312351342890e-01  1.0005002803758584e-01  1.0004320356972367e-01  1.0003829665561359e-01  1.0006276245776899e-01  1.0004629268871294e-01  1.0004386977389504e-01  1.0007027180469784e-01  1.0005640257435401e-01  1.0002623157707688e-01  1.0012628817769793e-01  1.0006223668283147e-01  1.0008620335581096e-01  1.0010798831430705e-01  1.0010470904791058e-01  1.0001122407614804e-01  1.0026193141412043e-01  9.9820456203494404e-02  1.0060142153444113e-01  1.0032162928636275e-01  9.9108367501527336e-02  9.9687616601671081e-02  1.0002006145817127e-01  9.9869456080511870e-02  9.9916530796158073e-02  9.9910058988816206e-02  9.9929701327928583e-02  9.9893537008491559e-02  9.9930573156526370e-02  9.9920228953186599e-02  9.9907210252659195e-02  9.9905800154377181e-02  9.9963770425696458e-02  9.9916092854499386e-02  9.9954417721671351e-02  9.9940448867386705e-02  9.9939984700786980e-02  9.9949270397170220e-02  9.9950803977645594e-02  9.9946199206194145e-02  9.9954900094173099e-02  9.9955480514340611e-02  9.9954003086841922e-02  9.9961543375772469e-02  9.9959378509616031e-02  9.9964757060653664e-02  9.9958489618042809e-02  9.9976084786859168e-02  9.9947206975821365e-02  1.0000000000000003e-01  1.0002212635135321e-01  1.0000000000000003e-01  1.0001173933914168e-01  1.0002161315662780e-01  1.0001896954874358e-01  1.0002121916553014e-01  1.0002623436011238e-01  1.0002646742072556e-01  1.0002517240653017e-01  1.0003469326765563e-01  1.0003223353369842e-01  1.0003084718838208e-01  1.0004562039585006e-01  1.0004121503350151e-01  1.0003680283246388e-01  1.0005828603785298e-01  1.0004752017381670e-01  1.0004098558940107e-01  1.0007027734270317e-01  1.0005168304945963e-01  1.0003909763343491e-01  1.0009211689668669e-01  1.0003144557655638e-01  1.0007941799330150e-01  1