<?xml version="1.0"?>
<VTKFile type="UnstructuredGrid"  version="0.1"  >
<UnstructuredGrid>
<Piece  NumberOfPoints="1933" NumberOfCells="3640">
<Points>
<DataArray  type="Float64"  NumberOfComponents="3"  format="ascii">0.2935766295567955 0.002136522272695186 0  5.29357664056915 0.002051594627016013 0  5.293704104531687 7.502051665384054 0  0.2937040577924123 7.502136528806989 0  10.29357663805141 0.001966583489582448 0  10.29370420098399 7.501966681697352 0  15.29357666644598 0.001881406532687631 0  15.29370437877706 7.501881516352127 0  20.29357678459518 0.00179602656846761 0  20.29370467140843 7.501796141226748 0  25.29357705384913 0.00171043550641459 0  25.29370511475557 7.50171055254809 0  30.29357753401113 0.001624644466099493 0  30.29370574644713 7.501624763589493 0  35.29357828277539 0.001538677660174818 0  35.29370660541596 7.501538799678558 0  40.29357935670365 0.001452568800959116 0  40.29370773186309 7.501452695145732 0  45.29358081285175 0.00136635926495918 0  45.2937091675754 7.501366491764994 0  50.29358271065947 0.001280097537188899 0  50.29371095648641 7.501280238345092 0  55.29358511395577 0.001193839654401949 0  55.29371314538038 7.501193991256049 0  60.29358809304714 0.001107650510408213 0  60.29371578466339 7.501107815787133 0  65.29359172691467 0.001021606000123245 0  65.29371892913402 7.501021788330124 0  70.29359610556628 0.0009357960797431544 0  70.29372263868991 7.500935999474054 0  75.29360133261052 0.0008503289245527649 0  75.29372697888789 7.500850558195328 0  80.29360752810959 0.0007653364908718656 0  80.29373202123672 7.500765597445556 0  85.29361483176939 0.0006809819566947664 0  85.29373784304198 7.500681281595053 0  90.29362340647607 0.0005974697590421423 0  90.2937445265121 7.500597816407221 0  95.29363344211843 0.0005150593155684388 0  95.2937521566767 7.500515462531506 0  100.2936451594293 0.0004340840965726868 0  100.2937608174322 7.500434553956105 0  105.2936588131825 0.0003549786394268085 0  105.2937705846897 7.500355523517658 0  110.2936746931962 0.0002783176035329198 0  110.2937815151771 7.500278938487238 0  115.2936931197753 0.0002048734426247062 0  115.2937936290344 7.500205550482276 0  120.2937144264099 0.0001357033775991747 0  120.2938068842838 7.5001363653962 0  125.2937389146317 7.228314229286961e-05 0  125.2938211426221 7.500072740213785 0  130.2937667494415 1.671594035011156e-05 0  130.2938361315051 7.500016513047882 0  135.2937977291384 -2.793890081764313e-05 0  135.2938514242536 7.499970167243896 0  140.2938307890617 -5.715970448090417e-05 0  140.2938665061056 7.49993701608753 0  145.2938629291768 -6.42772932589473e-05 0  145.2938811201102 7.49992138904754 0  150.2938868115194 -4.016934904681696e-05 0  150.2938964533789 7.499929008329758 0  160.2938926261465 1.048965411124456e-18 0  165.2937551395091 -0.000171255222652402 0  165.293868094002 7.499805515000958 0  160.2939112540144 7.499944237283167 0  170.2936726345831 -0.0003269699816806932 0  170.2938242758713 7.499661209524091 0  175.2936209819711 -0.0004711909212996063 0  175.2937869922551 7.49952214959948 0  180.2935876032911 -0.0006058753535757137 0  180.2937571835797 7.499390166578412 0  185.2935655113861 -0.0007327113320230613 0  185.2937340089545 7.499264849068519 0  190.2935506579039 -0.0008531741059556596 0  190.2937162490054 7.499145274862133 0  195.2935406095542 -0.0009684789225637214 0  195.293702755902 7.4990305064325 0  200.2935338494046 -0.001079591334756451 0  200.2936925744695 7.498919727653792 0  205.2935293962539 -0.001187267708134014 0  205.2936849484855 7.498812265282995 0  210.2935265921458 -0.001292100332852311 0  210.2936792915958 7.498707574275469 0  215.2935249808236 -0.001394556541925486 0  215.2936751522341 7.498605214681646 0  220.293524236315 -0.001495009428286156 0  220.2936721824437 7.498504829616837 0  225.2935241197121 -0.001593760924566753 0  225.2936701129153 7.498406126968713 0  230.2935244521759 -0.001691058842355829 0  230.2936687339091 7.498308865029711 0  235.293525097521 -0.001787109416365704 0  235.293667880969 7.498212841464021 0  240.2935259506144 -0.001882086596361532 0  240.2936674242987 7.498117884884375 0  245.2935269294245 -0.001976139013220143 0  245.2936672608669 7.498023848395654 0  250.2935279694236 -0.002069395286078132 0  250.2936673085128 7.497930604594424 0  255.2935290195768 -0.002161968143852408 0  255.2936675015357 7.497838041638762 0  260.2935300394271 -0.002253957695358274 0  260.293667787374 7.497746060103983 0  265.2935309969959 -0.002345454083048999 0  265.2936681241121 7.497654570418801 0  270.2935318672988 -0.002436539682246879 0  270.2936684786209 7.497563490738143 0  275.2935326314041 -0.002527290947975972 0  275.2936688251896 7.497472745161102 0  280.2935332759826 -0.0026177799514768 0  280.2936691445503 7.49738226225443 0  285.2935337933892 -0.002708075569416326 0  285.2936694232114 7.497291973905056 0  290.2935341823198 -0.002798244157958217 0  290.2936696530128 7.497201814613759 0  295.2935344491621 -0.002888349296876015 0  295.2936698308347 7.497111721476974 0  300.2935346100574 -0.002978449686221791 0  300.2936699583715 7.497021635304732 0  305.2935346934748 -0.003068593194458977 0  305.2936700420461 7.496931503585016 0  310.293534742269 -0.003158802568923431 0  310.2936700936302 7.496841286204952 0  5.293831244118037 15.00205185112183 0  0.2938311868074668 15.00213655211123 0  10.29383135871072 15.00196693756729 0  15.29383156176413 15.00188179743851 0  20.293831877242 15.00179642816722 0  25.293832326838 15.00171083924778 0  30.29383293217431 15.00162505069365 0  35.29383371563214 15.00153909120094 0  40.29383470059486 15.00145299678228 0  45.29383591146977 15.00136681009963 0  50.2938373736323 15.00128058052382 0  55.29383911332417 15.00119436490177 0  60.29384115747919 15.00110822902919 0  65.29384353342179 15.00102224987068 0  70.29384626835379 15.00093651862806 0  75.29384938852786 15.00085114482897 0  80.29385291796848 15.00076626169448 0  85.29385687657374 15.00068203315148 0  90.2938612773917 15.00059866298907 0  95.29386612284866 15.00051640681621 0  100.2938713997275 15.0004355876496 0  105.2938770728483 15.00035661609414 0  110.2938830777917 15.00028001604777 0  115.2938893139353 15.00020645635593 0  120.2938956409621 15.00013678716751 0  125.2939018856271 15.0000720753884 0  130.2939078719648 15.00001362331886 0  135.2939134981879 14.99996293105766 0  140.2939188958947 14.99992150915343 0  145.2939247096057 14.99989031289442 0  150.2939324684309 14.99986816316162 0  165.293941994069 14.99974246176431 0  160.2939502779065 14.99985148186886 0  170.2939267894484 14.99962176511468 0  175.2939087237807 14.99949767758239 0  180.2938907869303 14.99937478075082 0  185.2938744908544 14.99925496663367 0  190.2938604046642 14.99913876722465 0  195.2938485949553 14.99902610815765 0  200.2938388923084 14.99891667850449 0  205.2938310364427 14.99881010114105 0  210.2938247496676 14.99870600610752 0  215.2938197708661 14.99860405837235 0  220.2938158688065 14.99850396500182 0  225.2938128451953 14.99840547364776 0  230.2938105330254 14.99830836788066 0  235.2938087930849 14.99821246182042 0  240.2938075100143 14.99811759506449 0  245.2938065885507 14.99802362824802 0  250.2938059502159 14.99793043928313 0  255.2938055305003 14.99783792021085 0  260.2938052765301 14.9977459745681 0  265.2938051451502 14.99765451517302 0  270.2938051013638 14.99756346224939 0  275.2938051170593 14.99747274183181 0  280.2938051699485 14.99738228441797 0  285.2938052426836 14.9972920238587 0  290.2938053220698 14.99720189649234 0  295.2938053983992 14.99711184051392 0  300.2938054649435 14.99702179545089 0  305.293805517849 14.99693170119319 0  310.2938055569165 14.99684149474348 0  5.293957936951135 22.50205227604441 0  0.2939578778342145 22.50213678606518 0  10.29395804011366 22.50196745228348 0  15.29395821382761 22.5018823468024 0  20.2939584753945 22.50179698627688 0  25.29395883723325 22.50171139777989 0  30.2939593094843 22.50162561145286 0  35.29395990135257 22.50153966162981 0  40.29396062163972 22.50145358737621 0  45.29396147878511 22.5013674329807 0  50.29396248060804 22.50128124868542 0  55.29396363384182 22.501195091808 0  60.29396494348999 22.50110902835633 0  65.2939664119923 22.50102313522726 0  70.29396803816236 22.50093750309466 0  75.2939698158512 22.50085224012223 0  80.29397173228274 22.50076747667039 0  85.29397376603124 22.50068337120034 0  90.29397588465528 22.50060011759737 0  95.29397804210433 22.50051795411309 0  100.293980176207 22.50043717400928 0  105.2939822068921 22.50035813767617 0  110.2939840363686 22.5002812852993 0  115.2939855533878 22.50020714772012 0  120.2939866450022 22.50013635035601 0  125.2939872208149 22.50006959987992 0  130.2939872559768 22.50000763414836 0  135.2939868582012 22.49995110032136 0  140.2939863558482 22.49990030233057 0  145.2939863771741 22.49985473180107 0  150.2939878225377 22.49981231414526 0  165.2940117397788 22.49967306281224 0  160.294003159112 22.49976497025703 0  170.2940136243122 22.49956978923626 0  175.2940105362609 22.49946022359296 0  180.2940044209413 22.49934818912477 0  185.2939968757062 22.49923610789758 0  190.2939889906378 22.4991253038332 0  195.2939814216674 22.49901639201193 0  200.2939745158986 22.49890957617724 0  205.2939684214382 22.49880483956778 0  210.2939631671555 22.49870205733819 0  215.2939587155929 22.49860105925956 0  220.2939549961252 22.49850166302832 0  225.2939519248174 22.49840369091827 0  230.2939494157704 22.49830697729669 0  235.2939473872211 22.49821137128976 0  240.2939457645021 22.49811673697868 0  245.2939444811841 22.49802295241957 0  250.2939434792036 22.49792990817076 0  255.2939427084639 22.49783750567763 0  260.2939421261726 22.49774565568514 0  265.2939416960917 22.49765427675298 0  270.2939413877618 22.49756329390114 0  275.2939411757511 22.49747263738961 0  280.2939410389302 22.49738224162317 0  285.2939409597818 22.49729204415641 0  290.2939409237397 22.49720198473944 0  295.2939409185927 22.49711200426244 0  300.2939409339681 22.497022
[...]
<PointData  Scalars="p"> 
<DataArray  type="Float64"  Name="p"  format="ascii">1.0000000000000001e-01  1.0000000000000003e-01  1.0000372062734270e-01  1.0000000000000003e-01  1.0000000000000003e-01  1.0000362866987129e-01  1.0000000000000003e-01  1.0000548244082676e-01  1.0000000000000003e-01  1.0000611491100084e-01  1.0000000000000003e-01  1.0000739379133795e-01  1.0000000000000003e-01  1.0000999639283459e-01  1.0000000000000003e-01  1.0001079624582089e-01  1.0000000000000003e-01  1.0001257666387416e-01  1.0000000000000003e-01  1.0001555733346516e-01  1.0000000000000003e-01  1.0001505055873430e-01  1.0000000000000003e-01  1.0002424579493661e-01  1.0000000000000003e-01  1.0002770186070890e-01  1.0000000000000003e-01  1.0003250469196431e-01  1.0000000000000003e-01  1.0003594355695726e-01  1.0000000000000003e-01  1.0004429276110439e-01  1.0000000000000003e-01  1.0004733761851828e-01  1.0000000000000003e-01  1.0005395059098759e-01  1.0000000000000003e-01  1.0006390890655345e-01  1.0000000000000003e-01  1.0006726723776529e-01  1.0000000000000003e-01  1.0007814221774826e-01  1.0000000000000003e-01  1.0008506892712271e-01  1.0000000000000003e-01  1.0009736925844610e-01  1.0000000000000003e-01  1.0009644153545029e-01  1.0000000000000003e-01  1.0012576331984750e-01  1.0000000000000003e-01  1.0010221726095106e-01  1.0000000000000003e-01  1.0016128855647280e-01  1.0000000000000003e-01  1.0009825007481146e-01  1.0000000000000003e-01  1.0020880914518061e-01  1.0000000000000003e-01  1.0008025230718598e-01  1.0000000000000001e-01  1.0028634621459824e-01  1.0000000000000001e-01  1.0000000000000003e-01  9.9800589509539253e-02  9.9552933530340532e-02  1.0000000000000003e-01  9.9956978274855071e-02  1.0000000000000003e-01  9.9845106209188628e-02  1.0000000000000003e-01  9.9908436643447049e-02  1.0000000000000003e-01  9.9891080540441574e-02  1.0000000000000003e-01  9.9907821578634537e-02  1.0000000000000003e-01  9.9901939701728087e-02  1.0000000000000003e-01  9.9916165236892049e-02  1.0000000000000003e-01  9.9914899153332432e-02  1.0000000000000003e-01  9.9920213338055577e-02  1.0000000000000003e-01  9.9924627311130582e-02  1.0000000000000003e-01  9.9927797454138420e-02  1.0000000000000003e-01  9.9930025510266002e-02  1.0000000000000003e-01  9.9934106824861715e-02  1.0000000000000003e-01  9.9935996056224441e-02  1.0000000000000003e-01  9.9938029268342179e-02  1.0000000000000003e-01  9.9940513463163710e-02  1.0000000000000003e-01  9.9942160680735734e-02  1.0000000000000003e-01  9.9943363812398156e-02  1.0000000000000003e-01  9.9945379245082025e-02  1.0000000000000003e-01  9.9946011875765559e-02  1.0000000000000003e-01  9.9947831613083668e-02  1.0000000000000003e-01  9.9947591716886261e-02  1.0000000000000003e-01  9.9950833398984071e-02  1.0000000000000003e-01  9.9947370316865111e-02  1.0000000000000003e-01  9.9955343975543981e-02  1.0000000000000003e-01  9.9943888210843657e-02  1.0000000000000003e-01  9.9964558624437233e-02  1.0000000000000003e-01  9.9929587822686863e-02  1.0000000000000001e-01  1.0000000000000003e-01  1.0000688225263238e-01  1.0000000000000003e-01  1.0000639289804480e-01  1.0000678497512054e-01  1.0000767566716130e-01  1.0001029988663453e-01  1.0001000853893845e-01  1.0001064256913730e-01  1.0001458434150226e-01  1.0001252176236364e-01  1.0001427951462348e-01  1.0001680333677423e-01  1.0002717239412107e-01  1.0002285200782000e-01  1.0003315549763088e-01  1.0002817782768919e-01  1.0003293582829609e-01  1.0004095711304536e-01  1.0003921303722910e-01  1.0004293841804734e-01  1.0005556953365670e-01  1.0004889714154601e-01  1.0006114493698326e-01  1.0006098059476445e-01  1.0007464086282108e-01  1.0005301616653306e-01  1.0010954524563107e-01  1.0001874356682569e-01  1.0017938327586674e-01  9.9933993117936396e-02  1.0028978133537861e-01  1.0020157179609462e-01  9.9339589026075009e-02  9.9783429286118441e-02  9.9971605412974576e-02  9.9939487975778354e-02  9.9951537531805468e-02  9.9929566114717122e-02  9.9959293138660588e-02  9.9945549903947897e-02  9.9950723476408529e-02  9.9957218516902369e-02  9.9957872946901324e-02  9.9957920792953736e-02  9.9964287704707569e-02  9.9964526532911505e-02  9.9965540972543662e-02  9.9969166006393440e-02  9.9969928570980721e-02  9.9970720957104825e-02  9.9973064579467003e-02  9.9974033473739968e-02  9.9974404434655467e-02  9.9976725889780613e-02  9.9976368030920637e-02  9.9978955457287633e-02  9.9976940848713725e-02  9.9983262633221215e-02  9.9973786216178001e-02  9.9992044909211014e-02  9.9965423225349473e-02  1.0000000000000003e-01  1.0001052841095384e-01  1.0000000000000003e-01  1.0000671740227869e-01  1.0000984670603225e-01  1.0001245566705608e-01  1.0001266470167548e-01  1.0001337164669982e-01  1.0001903115598737e-01  1.0001758568816482e-01  1.0001823741378121e-01  1.0002434240507339e-01  1.0002597551340751e-01  1.0002001363581899e-01  1.0004879328290056e-01  1.0003683091822112e-01  1.0004340507349219e-01  1.0005509004971508e-01  1.0004987034985215e-01  1.0005626986592647e-01  1.0007245854524341e-01  1.0006733556182258e-01  1.0007341460014074e-01  1.0009648541502807e-01  1.0007972180709720e-01  1.0010700300287774e-01  1.0009352150654956e-01  1.0013346663684879e-01  1.0006604101279172e-01  1.0021613332555576e-01  9.9944211749353931e-02  1.0045277123881485e-01  1.0011886740272746e-01  9.9425987851295181e-02  9.9684080514496190e-02  9.9938855602675777e-02  9.9916179001067765e-02  9.9865711397172763e-02  9.9942688987151765e-02  9.9899432897179688e-02  9.9912155311083148e-02  9.9924910434452258e-02  9.9924064964514919e-02  9.9922405790436222e-02  9.9935420473684922e-02  9.9934194900626938e-02  9.9935799599967887e-02  9.9943024612666229e-02  9.9943898647317259e-02  9.9944731433249182e-02  9.9949669990642892e-02  9.9950461112065458e-02  9.9951653406313887e-02  9.9954500770217378e-02  9.9956105792567918e-02  9.9956124145884256e-02  9.9960044187647853e-02  9.9958123853179759e-02  9.9963987806773166e-02  9.9957175821837621e-02  9.9973201397559469e-02  9.9945264810860079e-02  1.0000000000000003e-01  1.0001284031444470e-01  1.0000000000000003e-01  1.0000803971991000e-01  1.0001412242354954e-01  1.0001322506095850e-01  1.0001409683735542e-01  1.0002012910904751e-01  1.0001861825987858e-01  1.0001929165095909e-01  1.0002676664056054e-01  1.0002378971872147e-01  1.0002382749166978e-01  1.0004010090428769e-01  1.0002318382379354e-01  1.0004871228775970e-01  1.0005275765877053e-01  1.0004877490750876e-01  1.0004967428704935e-01  1.0006921107536641e-01  1.0005720649125259e-01  1.0006750096859940e-01  1.0008331827088837e-01  1.0007863467482873e-01  1.0007713038747650e-01  1.0011489000125950e-01  1.0006839340821556e-01  1.0014032559205761e-01  1.0004425055900425e-01  1.0022006085861593e-01  9.9907146261671062e-02  1.0047841014107098e-01  1.0010973399939145e-01  9.9281031676099404e-02  9.9798678307559979e-02  9.9973628789254809e-02  9.9771887423551697e-02  1.0000397781341758e-01  9.9887316283643293e-02  9.9921636959530422e-02  9.9928934765712421e-02  9.9930451671033274e-02  9.9921495678838970e-02  9.9942745278191372e-02  9.9937298740298677e-02  9.9938716093007710e-02  9.9948371287714069e-02  9.9948899055585405e-02  9.9949286997109033e-02  9.9956098394871615e-02  9.9956702281869855e-02  9.9957448597462070e-02  9.9961943738362868e-02  9.9962559054305303e-02  9.9964192619008491e-02  9.9966029878353499e-02  9.9969044300917187e-02  9.9966867914177138e-02  9.9974685209645517e-02  9.9965861940955802e-02  9.9983524693437173e-02  9.9958062568725553e-02  1.0000000000000003e-01  1.0001520781669405e-01  1.0000000000000003e-01  1.0001071844776846e-01  1.0001482460419264e-01  1.0001404009814967e-01  1.0002100989103763e-01  1.0001929842935012e-01  1.0002069438162621e-01  1.0002902422883188e-01  1.0002571464417083e-01  1.0002579315208789e-01  1.0004001920480400e-01  1.0003163872260729e-01  1.0003946798268405e-01  1.0004024146291578e-01  1.0006008511904195e-01  1.0005221897207013e-01  1.0007544920538319e-01  1.0006014624101761e-01  1.0006761986004975e-01  1.0009164216541494e-01  1.0007462629305672e-01  1.0009005322845976e-01  1.0010455334869792e-01  1.0010650301662700e-01  1.0008607918790201e-01  1.0016249131133297e-01  1.0004233677330705e-01  1.0024909296558390e-01  9.9893819381452226e-02  1.0055289012698483e-01  1.0023596492398966e-01  9.9192505418821311e-02  9.9729190326322742e-02  9.9898614094369620e-02  9.9883721729193520e-02  9.9862836201429217e-02  9.9905114220676883e-02  9.9911462280273561e-02  9.9921641623650387e-02  9.9893592392289995e-02  9.9932497852074739e-02  9.9919233938464302e-02  9.9920981978162862e-02  9.9934876715661397e-02  9.9934443039095253e-02  9.9933584521599256e-02  9.9944415034689538e-02  9.9944478599163319e-02  9.9945187920654321e-02  9.9951487609847789e-02  9.9952594637130812e-02  9.9953098815308866e-02  9.9957955518731434e-02  9.9958168617138868e-02  9.9960982207101048e-02  9.9961139420938691e-02  9.9967173084500788e-02  9.9960053020038728e-02  9.9977288887946658e-02  9.9951052354944669e-02  1.0000000000000003e-01  1.0001799889176961e-01  1.0000000000000003e-01  1.0001097489683954e-01  1.0001601165038326e-01  1.0001935178746399e-01  1.0001995724329905e-01  1.0002048029783533e-01  1.0002897942931441e-01  1.0002684073029487e-01  1.0002662385597602e-01  1.0003872183374850e-01  1.0003391982068517e-01  1.0003660831760831e-01  1.0004925435807477e-01  1.0004690818497368e-01  1.0003053779028030e-01  1.0008698836190770e-01  1.0005785757715593e-01  1.0006863114580013e-01  1.0008935025999377e-01  1.0007392969842376e-01  1.0007854438310454e-01  1.0011490695270109e-01  1.0008187373961988e-01  1.0011322595436140e-01  1.0010566002701397e-01  1.0014650582132546e-01  1.0004276763201356e-01  1.0027377682203324e-01  9.9855393724012753e-02  1.0061172834897802e-01  1.0020974676631410e-01  9.9232140773384353e-02  9.9666348712138753e-02  1.0000914761879022e-01  9.9843197940631317e-02  9.9873621715790797e-02  9.9863375566636020e-02  9.9953350392889079e-02  9.9866687395761392e-02  9.9945457545530192e-02  9.9910085389860889e-02  9.9915707841269991e-02  9.9932781201002241e-02  9.9932134555800953e-02  9.9927890286819337e-02  9.9943512382825006e-02  9.9941926194329053e-02  9.9942241707040760e-02  9.9951480796404188e-02  9.9951920432996819e-02  9.9952386308987909e-02  9.9958166354064931e-02  9.9959616253132780e-02  9.9959605634797263e-02  9.9965325315947248e-02  9.9963570453109274e-02  9.9970105053212008e-02  9.9963869883701192e-02  9.9980425500008560e-02  9.9955983840346804e-02  1.0000000000000003e-01  1.0001951533495704e-01  1.0000000000000003e-01  1.0001146688261986e-01  1.0002077430088936e-01  1.0001858188747514e-01  1.0002069139781988e-01  1.0002800655091530e-01  1.0002713150178742e-01  1.0002691975219198e-01  1.0003889188238660e-01  1.0003386267571597e-01  1.0003571300455884e-01  1.0005172127673875e-01  1.0004507787718779e-01  1.0004123233444553e-01  1.0007089632551824e-01  1.0003562343382598e-01  1.0007934022390282e-01  1.0009061123104560e-01  1.0007538483796391e-01  1.0007968462503786e-01  1.0011006775012926e-01  1.0009001833259910e-01  1.0009176821398875e-01  1.0014343324065178e-01  1.0008307806429280e-01  1.0015724409759388e-01  1.0006814801304741e-01  1.0026235413594206e-01  9.9854232822756822e-02  1.0066581869263010e-01  1.0018483450763957e-01  9.9165699792174544e-02  9.9734883150145809e-02  9.9970614111797251e-02  9.9799524707903514e-02  9.9925401202705780e-02  9.9883195811383330e-02  9.9825175007950781e-02  9.9957025288574905e-02  9.9893239919554760e-02  9.9909430562905965e-02  9.9920877187940876e-02  9.9925177824236794e-02  9.9914509192452580e-02  9.9937031946724597e-02  9.9933142565184943e-02  9.9932493585934049e-02  9.9944140761740824e-02  9.9945015195532519e-02  9.9944722725990573e-02  9.9953010110810814e-02  9.9953453905585368e-02  9.9954765910874710e-02  9.9958958666100522e-02  9.9961805030650275e-02  9.9960430150712168e-02  9.9968464039448035e-02  9.9961648762495248e-02  9.9978023749210498e-02  9.9954171365161285e-02  1.0000000000000003e-01  1.0002092401732084e-01  1.0000000000000003e-01  1.0001397848967641e-01  1.0002049645002679e-01  1.0001885918063050e-01  1.0002706556691993e-01  1.0002572847003446e-01  1.0002664756758392e-01  1.0003754717870633e-01  1.0003354476624952e-01  1.0003401714867548e-01  1.0005031687253790e-01  1.0004392459222092e-01  1.0004368434370554e-01  1.0006648814485787e-01  1.0004741991949286e-01  1.0005964845929724e-01  1.0006102088854558e-01  1.0008844118247291e-01  1.0007475122999844e-01  1.0011578245450327e-01  1.0008037543940654e-01  1.0009772031167120e-01  1.0012410330909143e-01  1.0011189778835933e-01  1.0008896326966338e-01  1.0018987438691948e-01  1.0003749521487290e-01  1.0027567337313635e-01  9.9863779240610517e-02  1.0067686710532528e-01  1.0026388717829743e-01  9.9096636268298677e-02  9.9695843100238338e-02  9.9934961561920457e-02  9.9860306341256949e-02  9.9915956090616237e-02  9.9837380010111401e-02  9.9917878663427787e-02  9.9854096281603147e-02  9.9924411263671825e-02  9.9906831250907380e-02  9.9931246420769185e-02  9.9900606080520829e-02  9.9936750301094016e-02  9.9927602085406103e-02  9.9926744732967740e-02  9.9941258553664911e-02  9.9941195961826365e-02  9.9939352697110587e-02  9.9950795791047473e-02  9.9951329590499696e-02  9.9951295820696312e-02  9.9958656440349805e-02  9.9958885632456917e-02  9.9961346647438484e-02  9.9963101733981416e-02  9.9969205535130029e-02  9.9962573229936402e-02  9.9979646304909006e-02  9.9956347930900372e-02  1.0000000000000003e-01  1.0002292969641088e-01  1.0000000000000003e-01  1.0001366061430485e-01  1.0002077482133696e-01  1.0002362336019549e-01  1.0002546520671790e-01  1.0002505765376452e-01  1.0003538276733447e-01  1.0003300243886218e-01  1.0003294665485535e-01  1.0004663870902150e-01  1.0004293405465894e-01  1.0004264659085800e-01  1.0006339139184091e-01  1.0005135378924658e-01  1.0005348840020195e-01  1.0007389922926893e-01  1.0006610225004194e-01  1.0004102765060904e-01  1.0012740167103790e-01  1.0008092214136158e-01  1.0009215255416280e-01  1.0013331416284479e-01  1.0008898174951975e-01  1.0011728844936126e-01  1.0012996086464893e-01  1.0015127884130424e-01  1.0004455869503208e-01  1.0031166534231867e-01  9.9829293265274718e-02  1.0070235563069600e-01  1.0026130393506329e-01  9.9117706437484507e-02  9.9650146209719126e-02  9.9995080800997338e-02  9.9837892069518458e-02  9.9872072754192090e-02  9.9896689865765137e-02  9.9894556472871765e-02  9.9866006061839596e-02  9.9874610089303761e-02  9.9947111090209984e-02  9.9880960627883777e-02  9.9940770393921213e-02  9.9917838495322167e-02  9.9919740053900530e-02  9.9935705479403433e-02  9.9936900760213943e-02  9.9931842799877643e-02  9.9946509170415657e-02  9.9945826931722742e-02  9.9945923623998054e-02  9.9954798109749068e-02  9.9956255197603858e-02  9.9955731118023139e-02  9.9963148916929812e-02  9.9961802383686973e-02  9.9967551649423350e-02  9.9963303921314375e-02  9.9978742094233061e-02  9.9956163502113560e-02  1.0000000000000003e-01  1.0002372618694125e-01  1.0000000000000003e-01  1.0001362683321227e-01  1.0002471329439265e-01  1.0002228221231288e-01  1.0002496744977511e-01  1.0003242984859795e-01  1.0003186980212946e-01  1.0003166471786284e-01  1.0004419953167007e-01  1.0004034541158244e-01  1.0004035209336094e-01  1.0005990537863267e-01  1.0005137021546218e-01  1.0005077172792165e-01  1.0007464427439942e-01  1.0006182036114057e-01  1.0005370240731253e-01  1.0010083959957199e-01  1.0004275262282650e-01  1.0010697976803914e-01  1.0012453047734850e-01  1.0009998127813312e-01  1.0009400423260219e-01  1.0016275584609544e-01  1.0008248464385390e-01  1.0015731897447053e-01  1.0008829822059927e-01  1.0026971100376884e-01  9.9832930967901259e-02  1.0074565726005905e-01  1.0024000031774241e-01  9.9086692813594848e-02  9.9691402676298335e-02  9.9984528455914004e-02  9.9797396075398725e-02  9.9925698130393190e-02  9.9880014377468240e-02  9.9871288299835520e-02  9.9899145655114860e-02  9.9906961750431039e-02  9.9844199095955280e-02  9.9958837471653045e-02  9.9905428035696506e-02  9.9921381069012563e-02  9.9928126916687940e-02  9.9935621620128465e-02  9.9924891249638270e-02  9.9944629164292420e-02  9.9942629230991925e-02  9.9940771024087202e-02  9.9951805093215496e-02  9.9953117235906178e-02  9.9953275792101476e-02  9.9960039792925934e-02  9.9962601316124208e-02  9.9961097877482474e-02  9.9969848993133451e-02  9.9963829978530996e-02  9.9978932997344061e-02  9.9957863722843501e-02  1.0000000000000003e-01  1.0002437587174547e-01  1.0000000000000003e-01  1.0001542824788290e-01  1.0002383263703540e-01  1.0002155105433565e-01  1.0003033468355839e-01  1.0002933292068131e-01  1.0003034753836326e-01  1.0004079268703446e-01  1.0003830085068501e-01  1.0003746005963261e-01  1.0005490855507859e-01  1.0004882917841805e-01  1.0004854134649288e-01  1.0007106351259494e-01  1.0005895743375015e-01  1.0005638366774744e-01  1.0009038980774312e-01  1.0006014121034980e-01  1.0007472449001126e-01  1.0008307453799239e-01  1.0010969013809215e-01  1.0009738839962529e-01  1.0014784088216379e-01  1.0010829039525553e-01  1.0009177215499483e-01  1.0020640269967404e-01  1.0003724201748998e-01  1.0027044841574463e-01  9.9881962879824884e-02  1.0070154747693293e-01  1.0029143879580250e-01  9.9029877579179484e-02  9.9680985525025204e-02  9.9952120291558824e-02  9.9840992256890804e-02  9.9915401006825819e-02  9.9846271254732735e-02  9.9909656945932984e-02  9.9900068799925926e-02  9.9872670602210847e-02  9.9915921099826138e-02  9.9876899990742396e-02  9.9933898659985046e-02  9.9916653181225029e-02  9.9940302895495325e-02  9.9914320180904473e-02  9.9943634730993491e-02  9.9938179475807076e-02  9.9936397313742098e-02  9.9948928037396703e-02  9.9949623458106623e-02  9.9947466012504954e-02  9.9958333990383549e-02  9.9958537706191217e-02  9.9960302676828525e-02  9.9963849954658013e-02  9.9969397912426886e-02  9.9963325968173797e-02  9.9979679356803561e-02  9.9958484614340121e-02  1.0000000000000003e-01  1.0002575135137641e-01  1.0000000000000003e-01  1.0001492058401487e-01  1.0002346000481775e-01  1.0002539779305882e-01  1.0002832012079294e-01  1.0002776814823737e-01  1.0003779414252964e-01  1.0003631374730027e-01  1.0003556588243237e-01  1.0004938322449843e-01  1.0004635274375341e-01  1.0004534549173746e-01  1.0006556868912146e-01  1.0005749379998416e-01  1.0005412010112348e-01  1.0008386287806564e-01  1.0006431012487049e-01  1.0006558672559286e-01  1.0009563930922406e-01  1.0008177318732782e-01  1.0004307544253245e-01  1.0017084715826696e-01  1.0008769179137227e-01  1.0012196412766619e-01  1.0014747822797047e-01  1.0014184961575348e-01  1.0004322171224878e-01  1.0032522300181189e-01  9.9830121213135115e-02  1.0069559453892038e-01  1.0031060391310978e-01  9.9041970777677887e-02  9.9640822617868358e-02  9.9993176751217480e-02  9.9837034904410149e-02  9.9882445704894268e-02  9.9885107337456050e-02  9.9906576877310027e-02  9.9867164794820051e-02  9.9916454385407874e-02  9.9905186435214011e-02  9.9893370755085198e-02  9.9889096783331077e-02  9.9957827213910430e-02  9.9900781922249215e-02  9.9949055565174652e-02  9.9932199791844881e-02  9.9933372148436644e-02  9.9946050013391408e-02  9.9948320755697886e-02  9.9943779722391823e-02  9.9955395035387584e-02  9.9956172143938288e-02  9.9955689625820132e-02  9.9964640657283624e-02  9.9963837831592808e-02  9.9968449943654947e-02  9.9965980788090214e-02  9.9979876301638154e-02  9.9959613118869264e-02  1.0000000000000003e-01  1.0002591504766210e-01  1.0000000000000003e-01  1.0001437003839313e-01  1.0002623814813792e-01  1.0002358719427780e-01  1.0002689681713930e-01  1.0003340206148696e-01  1.0003393526885472e-01  1.0003351064154281e-01  1.0004520463475362e-01  1.0004236222250970e-01  1.0004205709812396e-01  1.0005974804969268e-01  1.0005418566389739e-01  1.0005086806452179e-01  1.0007670856108562e-01  1.0006407093712869e-01  1.0005973426370500e-01  1.0009461335807343e-01  1.0007346711235968e-01  1.0006112220117371e-01  1.0012660582853289e-01  1.0004680616727156e-01  1.0011953708014243e-01  1