<?xml version="1.0"?>
<VTKFile type="UnstructuredGrid"  version="0.1"  >
<UnstructuredGrid>
<Piece  NumberOfPoints="1933" NumberOfCells="3640">
<Points>
<DataArray  type="Float64"  NumberOfComponents="3"  format="ascii">0.4752856100147964 0.001601703847385102 0  5.475285621207973 0.001536449040925317 0  5.475383561267008 7.501536511625772 0  0.4753835203967592 7.501601713249014 0  10.47528562308789 0.001471122714103326 0  10.47538364430909 7.501471207651124 0  15.47528565373239 0.001405658712554161 0  15.47538379586248 7.501405752866297 0  20.47528576249955 0.001340028753575626 0  20.47538404361621 7.501340126579043 0  25.47528600030108 0.001274228786455848 0  25.475384417018 7.501274328314066 0  30.47528641636467 0.00120827068718827 0  30.47538494673769 7.501208371709779 0  35.47528705784922 0.001142177176247442 0  35.47538566428335 7.501142280386021 0  40.4752879706938 0.001075978869326876 0  40.47538660195465 7.50107608544814 0  45.47528920097068 0.001009712801965398 0  45.47538779308038 7.501009824240271 0  50.47529079642847 0.00094342202162879 0  50.47538927244498 7.500943540057568 0  55.47529280810587 0.0008771560109531672 0  55.4753910768186 7.500877282636398 0  60.47529529199005 0.0008109718284973285 0  60.47539324552422 7.500811109336144 0  65.47529831073811 0.0007449359491312009 0  65.47539582098199 7.5007450870088 0  70.47530193549518 0.000679126870854074 0  70.47539884917299 7.500679294629636 0  75.47530624785355 0.0006136386422406796 0  75.47540237994659 7.500613826843963 0  80.47531134198694 0.0005485855696645735 0  80.47540646706184 7.500548798683677 0  85.47531732698401 0.0004841085046221756 0  85.47541116779902 7.500484351836258 0  90.47532432935289 0.000420383315833947 0  90.4754165418837 7.500420663028589 0  95.4753324955895 0.000357632460420918 0  95.47542264933027 7.500357955344313 0  100.4753419944955 0.0002961410516871033 0  100.4754295466124 7.500296513661837 0  105.4753530185396 0.0002362795905353525 0  105.4754372802926 7.50023670592539 0  110.4753657827162 0.0001785367705969305 0  110.4754458769123 7.500179012682335 0  115.4753805176523 0.000123567793018387 0  115.4754553276638 7.500124068242553 0  120.4753974502103 7.226693689762413e-05 0  120.4754655664763 7.50007271779883 0  125.4754167576559 2.587849457375046e-05 0  125.4754764416388 7.50002609536812 0  130.4754384666983 -1.3831430233187e-05 0  130.4754876864432 7.499985726017584 0  135.4754622381122 -4.430826690494192e-05 0  135.4754989098562 7.499953649315374 0  140.4754869127553 -6.18069768178866e-05 0  140.4755096697723 7.499932545078965 0  145.4755095488886 -6.087279326839226e-05 0  145.4755198019395 7.499925829894759 0  150.4755233052064 -3.421662606644458e-05 0  150.4755304918702 7.49993784963322 0  160.4755282581476 1.249877575864494e-18 0  165.4754168118198 -0.0001407702816736086 0  165.4755081097514 7.499839741673782 0  160.4755428009281 7.499953087919081 0  170.4753507215765 -0.0002674217092059267 0  170.4754728543318 7.499722704307898 0  175.4753098949631 -0.0003837674846058793 0  175.4754429770724 7.499610695278529 0  180.4752839130653 -0.0004916910056422682 0  180.4754192290347 7.499505033336278 0  185.4752670202386 -0.000592752682652725 0  185.4754008961871 7.49940523818091 0  190.4752559012956 -0.000688279834474537 0  190.4753869616855 7.499310449511744 0  195.4752485762716 -0.0007793499129466162 0  195.4753764751661 7.499219823653217 0  200.4752438192347 -0.0008668117192426989 0  200.4753686499597 7.499132637177568 0  205.4752408428653 -0.0009513265371766974 0  205.4753628661911 7.499048298334496 0  210.4752391230575 -0.001033410191467751 0  210.475358645396 7.498966330712658 0  215.4752382990011 -0.001113468436946395 0  215.4753556207321 7.498886351342406 0  220.4752381147349 -0.001191824354270764 0  220.475353510774 7.498808050596391 0  225.4752383839428 -0.001268738775792716 0  225.4753520986635 7.498731175773947 0  230.475238968075 -0.001344425297683089 0  230.4753512162545 7.498655518321776 0  235.4752397623086 -0.001419061300899103 0  235.4753507322883 7.498580904073179 0  240.475240686245 -0.0014927960991997 0  240.4753505436398 7.498507185823081 0  245.4752416775717 -0.001565757037870044 0  245.4753505688348 7.498434237652759 0  250.475242687626 -0.001638054131979978 0  250.4753507432324 7.498361950545966 0  255.4752436782403 -0.001709783659914847 0  255.4753510154365 7.498290228953909 0  260.4752446194676 -0.001781031004407757 0  260.4753513446054 7.498218988058287 0  265.4752454879643 -0.001851872945311776 0  265.4753516984441 7.49814815155267 0  270.4752462658697 -0.001922379543327819 0  270.4753520517191 7.498077649817607 0  275.4752469401246 -0.001992615700553651 0  275.4753523851695 7.49800741841195 0  280.4752475021897 -0.0020626424300862 0  280.4753526847416 7.497937396848945 0  285.4752479481958 -0.0021325177968922 0  285.4753529410672 7.497867527681225 0  290.4752482795562 -0.002202297378167791 0  290.4753531491176 7.497797755996058 0  295.4752485041214 -0.002272033880102597 0  295.4753533079701 7.497728029536763 0  300.47524863786 -0.002341775125904247 0  300.4753534206195 7.497658299835197 0  305.475248706822 -0.002411558738592302 0  305.4753534939052 7.497588524957267 0  310.4752487483935 -0.002481399847618258 0  310.4753535390705 7.497518674634444 0  5.475481229836132 15.00153667300878 0  0.4754811804784717 15.00160174203227 0  10.47548132652435 15.00147142492201 0  15.47548149618294 15.00140598910581 0  20.47548175830494 15.00134036609069 0  25.47548213037913 15.00127456630092 0  30.47548262969877 15.00120860883887 0  35.4754832740212 15.0011425200017 0  40.47548408173691 15.00107633218681 0  45.47548507185306 15.00101008337929 0  50.47548626390932 15.00094381724416 0  55.47548767784952 15.00087758380673 0  60.4754893338257 15.00081144071857 0  65.47549125188665 15.00074545514413 0  70.47549345148076 15.00067970635104 0  75.47549595068786 15.00061428914615 0  80.47549876506612 15.00054931836937 0  85.47550190598096 15.00048493474336 0  90.47550537825398 15.00042131248194 0  95.47550917697008 15.00035866918013 0  100.4755132833148 15.00029727863031 0  105.4755176594772 15.00023748728212 0  110.4755222430295 15.00017973496788 0  115.4755269420575 15.00012457997088 0  120.4755316340124 15.00007272690708 0  125.475536174439 15.00002505191278 0  130.4755404271996 14.99998261051367 0  135.4755443361227 14.99994659331761 0  140.4755480674947 14.99991814929144 0  145.4755522519919 14.99989788583107 0  150.4755582921813 14.99988452762631 0  165.4755665257223 14.99978701688509 0  160.4755731211817 14.99987500647823 0  170.4755542148467 14.99968988907046 0  175.4755395745947 14.99959043406526 0  180.4755250747513 14.99949235684219 0  185.4755119512329 14.99939713705301 0  190.4755006593569 14.9993051429963 0  195.4754912418962 14.99921625687666 0  200.475483550179 14.99913017854981 0  205.475477363651 14.99904656356999 0  210.4754724498474 14.99896508131036 0  215.47546859177 14.99888543590877 0  220.4754655983133 14.99880737068089 0  225.4754633063593 14.99873066575158 0  230.4754615791086 14.99865513337537 0  235.4754603029866 14.99858061289362 0  240.4754593842467 14.99850696609477 0  245.4754587457785 14.99843407321133 0  250.4754583243156 14.9983618295617 0  255.4754580680788 14.99829014276063 0  260.4754579348311 14.99821893040289 0  265.4754578902891 14.99814811813024 0  270.4754579068334 14.99807763800994 0  275.4754579624589 14.99800742717334 0  280.4754580399039 14.99793742668521 0  285.4754581259257 14.9978675806368 0  290.4754582106584 14.99779783546876 0  295.4754582870826 14.99772813951619 0  300.4754583506447 14.99765844266551 0  305.4754583992571 14.99758869565393 0  310.4754584341184 14.99751884746888 0  5.47557853390289 22.50153703631348 0  0.4755784833121031 22.50160195284067 0  10.47557862020283 22.50147185786463 0  15.47557876370113 22.50140644677554 0  20.47557897825088 22.50134082761154 0  25.4755792736155 22.50127502513887 0  30.47557965760144 22.50120906662719 0  35.47558013714404 22.50114298283253 0  40.4755807187217 22.50107680848014 0  45.47558140836412 22.50101058270336 0  50.47558221141529 22.50094434967815 0  55.47558313212569 22.50087815958116 0  60.47558417309977 22.50081206995382 0  65.47558533458964 22.50074614754632 0  70.47558661360664 22.5006804707259 0  75.47558800281814 22.50061513255645 0  80.47558948919388 22.50055024468207 0  85.47559105239144 22.50048594216857 0  90.47559266291539 22.5004223894649 0  95.47559428018042 22.50035978761236 0  100.4755958507839 22.50029838270917 0  105.4755973075995 22.50023847534401 0  110.4755985708006 22.50018043007588 0  115.4755995526918 22.50012468277096 0  120.4756001692855 22.50007174119635 0  125.4756003628117 22.50002216987964 0  130.475600140184 22.49997654258405 0  135.4755996311416 22.49993533317408 0  140.4755991620539 22.49989869719868 0  145.4755993176132 22.49986607773365 0  150.4756009048521 22.49983559239298 0  165.4756205634172 22.49972889320719 0  160.47561362527 22.49980205175654 0  170.4756219803048 22.49964659264275 0  175.4756193277435 22.4995593829186 0  180.4756142243876 22.49947041090347 0  185.4756079888813 22.49938164277989 0  190.4756015141034 22.49929413149227 0  195.4755953319917 22.49920834661129 0  200.4755897195761 22.49912442319572 0  205.4755847908328 22.49904231998978 0  210.4755805629043 22.49896191178266 0  215.4755769997451 22.49888304035893 0  220.4755740392916 22.49880554115284 0  225.4755716096026 22.49872925624637 0  230.4755696379859 22.49865403995353 0  235.4755680558243 22.498579760524 0  240.4755668008513 22.49850629991433 0  245.4755658179616 22.49843355267417 0  250.4755650592135 22.49836142449407 0  255.4755644834239 22.49828983068936 0  260.4755640555626 22.49821869474928 0  265.4755637460902 22.4981479470046 0  270.4755635302849 22.4980775234305 0  275.4755633876006 22.49800736458314 0  280.4755633010525 22.49793741465879 0  285.4755632566391 22.49786762065094 0  290.4755632428032 22.49779793155099 0  295.4755632499622 22.49772829746656 0  300.475563270133 22.49765866836809 
[...]
<PointData  Scalars="p"> 
<DataArray  type="Float64"  Name="p"  format="ascii">1.0000000000000001e-01  1.0000000000000003e-01  1.0000212144948258e-01  1.0000000000000003e-01  1.0000000000000003e-01  1.0000133933924200e-01  1.0000000000000003e-01  1.0000202693464964e-01  1.0000000000000003e-01  1.0000187661858854e-01  1.0000000000000003e-01  1.0000227961158308e-01  1.0000000000000003e-01  1.0000375328572661e-01  1.0000000000000003e-01  1.0000382327032560e-01  1.0000000000000003e-01  1.0000482795281984e-01  1.0000000000000003e-01  1.0000656363662193e-01  1.0000000000000003e-01  1.0000528813807666e-01  1.0000000000000003e-01  1.0001250804565315e-01  1.0000000000000003e-01  1.0001387409704449e-01  1.0000000000000003e-01  1.0001712495339833e-01  1.0000000000000003e-01  1.0001904631838124e-01  1.0000000000000003e-01  1.0002517830083593e-01  1.0000000000000003e-01  1.0002712253728173e-01  1.0000000000000003e-01  1.0003239568945298e-01  1.0000000000000003e-01  1.0004018031955510e-01  1.0000000000000003e-01  1.0004314896933365e-01  1.0000000000000003e-01  1.0005244802177789e-01  1.0000000000000003e-01  1.0005860027403596e-01  1.0000000000000003e-01  1.0006944213335817e-01  1.0000000000000003e-01  1.0007007286171019e-01  1.0000000000000003e-01  1.0009484186419562e-01  1.0000000000000003e-01  1.0007750913075818e-01  1.0000000000000003e-01  1.0012681600349706e-01  1.0000000000000003e-01  1.0007739210805106e-01  1.0000000000000003e-01  1.0016845826799223e-01  1.0000000000000003e-01  1.0006550900904206e-01  1.0000000000000001e-01  1.0023417286161632e-01  1.0000000000000001e-01  1.0000000000000003e-01  9.9863376531527090e-02  9.9659073848550522e-02  1.0000000000000003e-01  9.9984607346120247e-02  1.0000000000000003e-01  9.9896337136531579e-02  1.0000000000000003e-01  9.9948964272887506e-02  1.0000000000000003e-01  9.9935861789595515e-02  1.0000000000000003e-01  9.9950096270019176e-02  1.0000000000000003e-01  9.9946675858375827e-02  1.0000000000000003e-01  9.9958832546192575e-02  1.0000000000000003e-01  9.9958423932024351e-02  1.0000000000000003e-01  9.9963362619761770e-02  1.0000000000000003e-01  9.9967333458115801e-02  1.0000000000000003e-01  9.9970136551003660e-02  1.0000000000000003e-01  9.9972199531492958e-02  1.0000000000000003e-01  9.9975592566036720e-02  1.0000000000000003e-01  9.9977138855525824e-02  1.0000000000000003e-01  9.9978779783691490e-02  1.0000000000000003e-01  9.9980753709999898e-02  1.0000000000000003e-01  9.9981919329245966e-02  1.0000000000000003e-01  9.9982877879987164e-02  1.0000000000000003e-01  9.9984198188870624e-02  1.0000000000000003e-01  9.9984812119508576e-02  1.0000000000000003e-01  9.9985657480075679e-02  1.0000000000000003e-01  9.9986072251848274e-02  1.0000000000000003e-01  9.9987128266590286e-02  1.0000000000000003e-01  9.9986565405711950e-02  1.0000000000000003e-01  9.9988718465642459e-02  1.0000000000000003e-01  9.9986210339874565e-02  1.0000000000000003e-01  9.9991280723887382e-02  1.0000000000000003e-01  9.9983205399722289e-02  1.0000000000000001e-01  1.0000000000000003e-01  1.0000471642965320e-01  1.0000000000000003e-01  1.0000398340544718e-01  1.0000416011182606e-01  1.0000471479164637e-01  1.0000664579627531e-01  1.0000634490333256e-01  1.0000693626166529e-01  1.0000996464329256e-01  1.0000817777554404e-01  1.0000968151166172e-01  1.0001070709625741e-01  1.0001958529149249e-01  1.0001488247360421e-01  1.0002301432901266e-01  1.0001870391292721e-01  1.0002310950541671e-01  1.0002937457316191e-01  1.0002846257983930e-01  1.0003228529174407e-01  1.0004266602245196e-01  1.0003817685829990e-01  1.0004916362379511e-01  1.0004968809637936e-01  1.0006155121158512e-01  1.0004569062419529e-01  1.0009120221809922e-01  1.0001935645071319e-01  1.0014850240297270e-01  9.9950996188304816e-02  1.0023636874822912e-01  1.0016453814055241e-01  9.9517460751456496e-02  9.9825471684046957e-02  9.9981955382577509e-02  9.9953798839982497e-02  9.9963165298546444e-02  9.9947811191004154e-02  9.9972194665512548e-02  9.9961661217520814e-02  9.9967079402883630e-02  9.9972875855021945e-02  9.9973707746362772e-02  9.9974371941983026e-02  9.9979781301306261e-02  9.9980073852779253e-02  9.9981166576996863e-02  9.9984190534404022e-02  9.9984872429396854e-02  9.9985610292947030e-02  9.9987639453962426e-02  9.9988335373799156e-02  9.9988943483077464e-02  9.9990490226528075e-02  9.9990881957038327e-02  9.9991997579824493e-02  9.9992223174501793e-02  9.9994195822559431e-02  9.9992427341699885e-02  9.9997254187204759e-02  9.9991418850170641e-02  1.0000000000000003e-01  1.0000755541901246e-01  1.0000000000000003e-01  1.0000445901477328e-01  1.0000639140529211e-01  1.0000822526218202e-01  1.0000810913267037e-01  1.0000877548160485e-01  1.0001305090145715e-01  1.0001186780279668e-01  1.0001265556637184e-01  1.0001696451504390e-01  1.0001842516007978e-01  1.0001245354609985e-01  1.0003611122339302e-01  1.0002460295746228e-01  1.0003045344297859e-01  1.0003896031060837e-01  1.0003527410990121e-01  1.0004133064004635e-01  1.0005439569256441e-01  1.0005116193608359e-01  1.0005778610383489e-01  1.0007667753320650e-01  1.0006490584335524e-01  1.0008858386465384e-01  1.0007895228480984e-01  1.0011179128704040e-01  1.0006033474843962e-01  1.0017909067758313e-01  9.9963255288243430e-02  1.0036776623154790e-01  1.0007560644793405e-01  9.9613589208160477e-02  9.9771132499683959e-02  9.9959762746475056e-02  9.9938301810140948e-02  9.9903161394406831e-02  9.9964347550957705e-02  9.9930031653851670e-02  9.9942828908439585e-02  9.9953999938132559e-02  9.9953834929157631e-02  9.9953887466046790e-02  9.9964911312839660e-02  9.9964187862840434e-02  9.9966108949588475e-02  9.9972172434131271e-02  9.9972921938575598e-02  9.9973899324173748e-02  9.9977962416060634e-02  9.9978698943264929e-02  9.9979727646839059e-02  9.9982286133937073e-02  9.9983314999876921e-02  9.9984037353016475e-02  9.9986264002120101e-02  9.9986476344694347e-02  9.9988600127190422e-02  9.9987861313802218e-02  9.9992344347515361e-02  9.9986400716685658e-02  1.0000000000000003e-01  1.0000941420884496e-01  1.0000000000000003e-01  1.0000573256843882e-01  1.0001021515873636e-01  1.0000931408462066e-01  1.0001018811592315e-01  1.0001487699728723e-01  1.0001377823195762e-01  1.0001487944112226e-01  1.0002071395273959e-01  1.0001850021987312e-01  1.0001884378223985e-01  1.0003176736020547e-01  1.0001639393492268e-01  1.0003914450694538e-01  1.0003968073071781e-01  1.0003703191048460e-01  1.0003836586231099e-01  1.0005413694119036e-01  1.0004534940886280e-01  1.0005542055953709e-01  1.0006849597858240e-01  1.0006610857857497e-01  1.0006741867590505e-01  1.0009791340421606e-01  1.0006304266902041e-01  1.0012152240501665e-01  1.0004657004244019e-01  1.0018486279417815e-01  9.9938960839627278e-02  1.0038672590699148e-01  1.0005689064978174e-01  9.9505663038984463e-02  9.9861814263385626e-02  9.9975071201449217e-02  9.9821573254545451e-02  1.0000504802982835e-01  9.9909780232736639e-02  9.9940840727963678e-02  9.9947630587606903e-02  9.9949340043797200e-02  9.9944256074967500e-02  9.9962216785148744e-02  9.9958254872067859e-02  9.9960429196197492e-02  9.9968673806957328e-02  9.9969264713427861e-02  9.9970047863175565e-02  9.9975779185048880e-02  9.9976298721305507e-02  9.9977281362978315e-02  9.9980960196016253e-02  9.9981796782321622e-02  9.9983017666411267e-02  9.9985285910330374e-02  9.9986836415149896e-02  9.9987221564865739e-02  9.9990401955933769e-02  9.9989157518032418e-02  9.9994289702938485e-02  9.9989158880134862e-02  1.0000000000000003e-01  1.0001131223315898e-01  1.0000000000000003e-01  1.0000807031482048e-01  1.0001098356635145e-01  1.0001056114831730e-01  1.0001573681180347e-01  1.0001450280800359e-01  1.0001601721084523e-01  1.0002269591907435e-01  1.0002030338772275e-01  1.0002098573228677e-01  1.0003234196194973e-01  1.0002528575279597e-01  1.0003271313688648e-01  1.0003058910570251e-01  1.0004888440779430e-01  1.0004091770600951e-01  1.0005937785205521e-01  1.0004725523457275e-01  1.0005533357185607e-01  1.0007447199173851e-01  1.0006252073282038e-01  1.0007716372755159e-01  1.0008972443542080e-01  1.0009258993493966e-01  1.0008008671679935e-01  1.0013986853857201e-01  1.0004823406749253e-01  1.0020974348517706e-01  9.9932602794589945e-02  1.0044414042135452e-01  1.0014893500799844e-01  9.9451484418265915e-02  9.9804020838008933e-02  9.9914823652595977e-02  9.9920151027374476e-02  9.9889136036053400e-02  9.9928026246345864e-02  9.9933879436177195e-02  9.9941202239717752e-02  9.9921970203233443e-02  9.9954452916032707e-02  9.9944260178247896e-02  9.9947406228365135e-02  9.9959400910529017e-02  9.9959266419166970e-02  9.9959459602147416e-02  9.9968564561757761e-02  9.9968701129882917e-02  9.9969675691618146e-02  9.9975033627472232e-02  9.9975942323612482e-02  9.9976862515216466e-02  9.9980695836073497e-02  9.9981608788246648e-02  9.9983292445462821e-02  9.9985185926839831e-02  9.9987670961185063e-02  9.9987002712979098e-02  9.9992489159827794e-02  9.9987200987362718e-02  1.0000000000000003e-01  1.0001353561451119e-01  1.0000000000000003e-01  1.0000840568618395e-01  1.0001234538050391e-01  1.0001502762439270e-01  1.0001546603133597e-01  1.0001621921078913e-01  1.0002298624090940e-01  1.0002150281978178e-01  1.0002219237399430e-01  1.0003182964835819e-01  1.0002823847522031e-01  1.0003149680646028e-01  1.0004067208786324e-01  1.0003966030278257e-01  1.0002510955449753e-01  1.0007249267857447e-01  1.0004649466979113e-01  1.0005719849020799e-01  1.0007281463959877e-01  1.0006199332594364e-01  1.0006832376132439e-01  1.0009751701800526e-01  1.0007345781309133e-01  1.0010096588051488e-01  1.0009679916175146e-01  1.0012882045339384e-01  1.0005287949318446e-01  1.0022893192323304e-01  9.9907529252820343e-02  1.0048811256401920e-01  1.0011456661417886e-01  9.9492231364952291e-02  9.9755604769737133e-02  9.9997834609485525e-02  9.9878235467005139e-02  9.9901024690031343e-02  9.9893291639083046e-02  9.9960893064107548e-02  9.9895255791404527e-02  9.9959614045763742e-02  9.9931296028034231e-02  9.9938404576985135e-02  9.9953266852384245e-02  9.9953063294629343e-02  9.9951052272483396e-02  9.9964210879116652e-02  9.9963078670596728e-02  9.9964068650689311e-02  9.9971765728976966e-02  9.9972260911244004e-02  9.9972956493880313e-02  9.9978073250943822e-02  9.9979117503428236e-02  9.9980074105712774e-02  9.9984002851189385e-02  9.9984599964524079e-02  9.9987366748216705e-02  9.9987592172677511e-02  9.9992783606705743e-02  9.9988040728361427e-02  1.0000000000000003e-01  1.0001473454690819e-01  1.0000000000000003e-01  1.0000904087770197e-01  1.0001622310186509e-01  1.0001470735610285e-01  1.0001665367676271e-01  1.0002251688815830e-01  1.0002176615918021e-01  1.0002246344730595e-01  1.0003195605090273e-01  1.0002821767668825e-01  1.0003096236729334e-01  1.0004336515539276e-01  1.0003850823611725e-01  1.0003618730827139e-01  1.0006022849392440e-01  1.0002935558367723e-01  1.0006934440973958e-01  1.0007408319405892e-01  1.0006319345493435e-01  1.0006828290942429e-01  1.0009292784185050e-01  1.0007830702031442e-01  1.0008365124458864e-01  1.0012434843203480e-01  1.0008013172420734e-01  1.0013941183404043e-01  1.0007409385119953e-01  1.0021942277259657e-01  9.9913100251984549e-02  1.0052449387752457e-01  1.0009105300103327e-01  9.9443310908232635e-02  9.9812170227562919e-02  9.9959120299171214e-02  9.9844890636294509e-02  9.9940381714064275e-02  9.9910743625533441e-02  9.9860829904288129e-02  9.9968063701375384e-02  9.9915759003210175e-02  9.9931317466365827e-02  9.9942152630996817e-02  9.9945924699210945e-02  9.9939276015584652e-02  9.9958365098970159e-02  9.9955519065186571e-02  9.9955968711472207e-02  9.9965900992290080e-02  9.9966703126871642e-02  9.9967053546468426e-02  9.9973936701597238e-02  9.9974603148419106e-02  9.9975818212439324e-02  9.9980027066343999e-02  9.9981767775909711e-02  9.9982606216857936e-02  9.9986826526866079e-02  9.9986367517585467e-02  9.9991758468052305e-02  9.9987387287627461e-02  1.0000000000000003e-01  1.0001591837273922e-01  1.0000000000000003e-01  1.0001108484097715e-01  1.0001611074309921e-01  1.0001537303206288e-01  1.0002189141341197e-01  1.0002098986010302e-01  1.0002237110102881e-01  1.0003096343053546e-01  1.0002803558507747e-01  1.0002941300178865e-01  1.0004240762099036e-01  1.0003768234509509e-01  1.0003871734929945e-01  1.0005687662179226e-01  1.0004144204714661e-01  1.0005400702179719e-01  1.0005096724293205e-01  1.0007746909253967e-01  1.0006467803227286e-01  1.0009723315421652e-01  1.0006964669483857e-01  1.0008689888955209e-01  1.0010833667547045e-01  1.0009994559394583e-01  1.0008737175368208e-01  1.0016426745078681e-01  1.0005153015182483e-01  1.0023068353258953e-01  9.9924252995853946e-02  1.0052683992457048e-01  1.0014963191298737e-01  9.9394159009541419e-02  9.9777470415454858e-02  9.9928868196125648e-02  9.9891294570014777e-02  9.9926114035931143e-02  9.9871797952832464e-02  9.9938569100340380e-02  9.9882993904525236e-02  9.9940164337662632e-02  9.9927880323123400e-02  9.9946949402748952e-02  9.9924729029592152e-02  9.9955216127093752e-02  9.9948133082951710e-02  9.9948918452644323e-02  9.9961423621248824e-02  9.9961501723083351e-02  9.9960822336836855e-02  9.9970558628981840e-02  9.9970969780072805e-02  9.9971609173545486e-02  9.9977584489763016e-02  9.9978530739547350e-02  9.9980123009426256e-02  9.9983454065611183e-02  9.9986188829008782e-02  9.9985846186823518e-02  9.9992069202957709e-02  9.9987591793789354e-02  1.0000000000000003e-01  1.0001750515619154e-01  1.0000000000000003e-01  1.0001087581149333e-01  1.0001661356147028e-01  1.0001921900715315e-01  1.0002075116626651e-01  1.0002115570971604e-01  1.0002935543939988e-01  1.0002770364583764e-01  1.0002846437645416e-01  1.0003931292553200e-01  1.0003662791970629e-01  1.0003773424842778e-01  1.0005414648358717e-01  1.0004480854411256e-01  1.0004874956268554e-01  1.0006385625628439e-01  1.0005941718690663e-01  1.0003776343538674e-01  1.0011043720279002e-01  1.0006962913994501e-01  1.0008222164793000e-01  1.0011333550505368e-01  1.0008081070601484e-01  1.0010625074964838e-01  1.0011845641480474e-01  1.0013351862650134e-01  1.0006009202753578e-01  1.0025642193490418e-01  9.9900825985373976e-02  1.0054189109981870e-01  1.0014194026121818e-01  9.9414611666120825e-02  9.9742398766240553e-02  9.9975327553151999e-02  9.9869585319046605e-02  9.9889780095397659e-02  9.9918522108991992e-02  9.9914596121700616e-02  9.9897670294107871e-02  9.9901824500081809e-02  9.9958152380871398e-02  9.9907002331200173e-02  9.9956357999136700e-02  9.9938120340025902e-02  9.9941567549270138e-02  9.9955569277160899e-02  9.9956744659510571e-02  9.9953878796051679e-02  9.9966249537368490e-02  9.9965921672360389e-02  9.9966611722210552e-02  9.9974275654093656e-02  9.9975345693441769e-02  9.9975885937580444e-02  9.9981466985084311e-02  9.9982154021806602e-02  9.9984859950283458e-02  9.9986213813228877e-02  9.9991471812802477e-02  9.9987224623753104e-02  1.0000000000000003e-01  1.0001814709250559e-01  1.0000000000000003e-01  1.0001099998387607e-01  1.0001971705389079e-01  1.0001819511386800e-01  1.0002081705805113e-01  1.0002698127860196e-01  1.0002671680408713e-01  1.0002745207053584e-01  1.0003743416899566e-01  1.0003436368034847e-01  1.0003565653882611e-01  1.0005097741951285e-01  1.0004442991414939e-01  1.0004592973114403e-01  1.0006453414603807e-01  1.0005529159065320e-01  1.0005041404965066e-01  1.0008871196116471e-01  1.0003874214710676e-01  1.0009797049881521e-01  1.0010603499396327e-01  1.0008812837389697e-01  1.0008666444474390e-01  1.0014042154631152e-01  1.0008054197469152e-01  1.0014042624617810e-01  1.0009304123665477e-01  1.0022205351396259e-01  9.9908371520646161e-02  1.0056852790872239e-01  1.0012277428561948e-01  9.9388605941844871e-02  9.9775613739053456e-02  9.9962852148069256e-02  9.9836783360135031e-02  9.9931542423092462e-02  9.9900291088495546e-02  9.9894751543770963e-02  9.9921896759557330e-02  9.9929182730705890e-02  9.9877085447122593e-02  9.9969085316989753e-02  9.9925860145889001e-02  9.9940168309976388e-02  9.9947111358026031e-02  9.9953447202749401e-02  9.9946257395634702e-02  9.9963111671015251e-02  9.9961727564890954e-02  9.9961108593966411e-02  9.9970508674658051e-02  9.9971921368963809e-02  9.9972316886942025e-02  9.9978624839071079e-02  9.9980171358025144e-02  9.9980856166271656e-02  9.9986014780207202e-02  9.9985776959714237e-02  9.9991100995098975e-02  9.9987539587732127e-02  1.0000000000000003e-01  1.0001869231778671e-01  1.0000000000000003e-01  1.0001239040876228e-01  1.0001896943157666e-01  1.0001788034874957e-01  1.0002497999081904e-01  1.0002450591245599e-01  1.0002606695485886e-01  1.0003456755605288e-01  1.0003272430359104e-01  1.0003310603386342e-01  1.0004677569417945e-01  1.0004202949037579e-01  1.0004327646392361e-01  1.0006101913994875e-01  1.0005202903914022e-01  1.0005217003614618e-01  1.0007931426850332e-01  1.0005502524669703e-01  1.0007111586529448e-01  1.0007190540814162e-01  1.0010001330929205e-01  1.0008805760746263e-01  1.0012814598312363e-01  1.0009646486813710e-01  1.0009025766645559e-01  1.0017639055085290e-01  1.0005213123804237e-01  1.0022408139013034e-01  9.9946320258612220e-02  1.0052887716625380e-01  1.0016414500296425e-01  9.9338982317285690e-02  9.9765545894818050e-02  9.9935933623524514e-02  9.9871860469102139e-02  9.9920265427230162e-02  9.9872983380076635e-02  9.9924254847257254e-02  9.9919317152767306e-02  9.9899935882915500e-02  9.9938871989914371e-02  9.9903174907555001e-02  9.9949030528525051e-02  9.9936385465709751e-02  9.9955113175190194e-02  9.9935880951638786e-02  9.9960745590613589e-02  9.9956640966258919e-02  9.9956336850333893e-02  9.9967310950814181e-02  9.9967929331712974e-02  9.9967108134377730e-02  9.9976171980715706e-02  9.9976934831745676e-02  9.9978144869503197e-02  9.9982729552579572e-02  9.9985346524740226e-02  9.9984946268291672e-02  9.9991572271376630e-02  9.9987431172083183e-02  1.0000000000000003e-01  1.0001976521596681e-01  1.0000000000000003e-01  1.0001194840991837e-01  1.0001883009301125e-01  1.0002082638287382e-01  1.0002328974212799e-01  1.0002366190347121e-01  1.0003179061257655e-01  1.0003089151030017e-01  1.0003129591446221e-01  1.0004222502882375e-01  1.0003994161917322e-01  1.0004024701374499e-01  1.0005606404510357e-01  1.0004982324653972e-01  1.0004927144600242e-01  1.0007293003385614e-01  1.0005776311689234e-01  1.0006225153574312e-01  1.0008447519639227e-01  1.0007590877711817e-01  1.0004346632275020e-01  1.0015014655023859e-01  1.0007965148688282e-01  1.0011113816141196e-01  1.0013063521743562e-01  1.0012480784117343e-01  1.0005871008939661e-01  1.0026428773620670e-01  9.9904675877329110e-02  1.0052406949565290e-01  1.0018093869507176e-01  9.9341514583148632e-02  9.9731224441878860e-02  9.9968900281319065e-02  9.9866862285537830e-02  9.9893263856659198e-02  9.9904042608166529e-02  9.9919138000405305e-02  9.9891532351003023e-02  9.9934248609409221e-02  9.9926360361954999e-02  9.9920261100046967e-02  9.9914755942229067e-02  9.9967993187336693e-02  9.9923369711441223e-02  9.9963153269309740e-02  9.9949848626743748e-02  9.9952209725311977e-02  9.9963437261530230e-02  9.9965577614605838e-02  9.9962834840567519e-02  9.9972927928807229e-02  9.9973604751602232e-02  9.9974301424559889e-02  9.9981244195751148e-02  9.9982109959116841e-02  9.9984193956466474e-02  9.9986466150318587e-02  9.9991354389881854e-02  9.9987445527901203e-02  1.0000000000000003e-01  1.0001980517966516e-01  1.0000000000000003e-01  1.0001151191191618e-01  1.0002084110046577e-01  1.0001919536129125e-01  1.0002230084779207e-01  1.0002781126453962e-01  1.0002844099263811e-01  1.0002904895901514e-01  1.0003844923621795e-01  1.0003630993053857e-01  1.0003720259771433e-01  1.0005105373136315e-01  1.0004645911998503e-01  1.0004550338027841e-01  1.0006583062129586e-01  1.0005614861319943e-01  1.0005566633997064e-01  1.0008280963333913e-01  1.0006718890260510e-01  1.0005980003012727e-01  1.0011273440006525e-01  1.0004428878599814e-01  1.0011399595211652e-01  1