<?xml version="1.0"?>
<VTKFile type="UnstructuredGrid"  version="0.1"  >
<UnstructuredGrid>
<Piece  NumberOfPoints="1933" NumberOfCells="3640">
<Points>
<DataArray  type="Float64"  NumberOfComponents="3"  format="ascii">-0.2935574795531673 -0.002745198411002124 0  4.706442548799792 -0.00265994501368921 0  4.706314619816975 7.497340099993245 0  -0.2936854026448615 7.497254859837293 0  9.706442609370823 -0.002574711479546323 0  9.706314647722845 7.497425321931263 0  14.70644271279894 -0.002489449412063681 0  14.70631467686562 7.49751057541905 0  19.70644285674157 -0.002404112218186111 0  19.70631469960945 7.497595906494062 0  24.70644303029401 -0.002318657375587613 0  24.70631470463291 7.497681356803755 0  29.7064432167843 -0.00223304622651814 0  29.70631467686328 7.497766964243003 0  34.70644339523975 -0.002147242949952096 0  34.70631459741267 7.497852764043564 0  39.70644354090823 -0.002061213363258662 0  39.70631444338141 7.497938789934037 0  44.70644362512364 -0.001974923788741983 0  44.70631418746153 7.498025075218012 0  49.7064436146955 -0.001888340048488554 0  49.70631379730636 7.498111653727997 0  54.7064434709132 -0.001801426581931079 0  54.70631323464244 7.49819856066197 0  59.70644314818822 -0.001714145654491847 0  59.7063124540948 7.498285833328874 0  64.70644259230387 -0.00162645661631771 0  64.70631140167882 7.498373511836018 0  69.70644173818769 -0.00153831516563113 0  69.70631001289102 7.498461639752254 0  74.70644050706615 -0.001449672565887518 0  74.70630821030019 7.498550264779641 0  79.70643880277787 -0.001360474756650528 0  79.70630590050325 7.498639439462933 0  84.70643650690576 -0.001270661282888619 0  84.7063029702654 7.498729221958025 0  89.70643347219962 -0.001180163945604032 0  89.70629928160905 7.498819676857681 0  94.70642951345769 -0.001088905050706516 0  94.70629466557187 7.498910876016165 0  99.70642439451731 -0.0009967951143757734 0  99.70628891432943 7.49900289917869 0  104.7064178091269 -0.0009037299081066448 0  104.7062817714604 7.49909583391179 0  109.7064093519335 -0.0008095868951902589 0  109.7062729204622 7.499189773643352 0  114.7063984731138 -0.0007142216831086806 0  114.7062619725679 7.499284811131355 0  119.7063844053771 -0.0006174667526071208 0  119.7062484571841 7.499381021504612 0  124.706366043545 -0.0005191390773027215 0  124.7062318234167 7.499478422353912 0  129.706341741864 -0.0004190744823544278 0  129.7062114721738 7.499576884592959 0  134.7063089680022 -0.0003172354142578455 0  134.7061868610127 7.49967594002407 0  139.7062637082097 -0.0002140138430952975 0  139.7061577685249 7.499774377497651 0  144.7061994455037 -0.0001110539688049463 0  144.7061248881553 7.499869422539533 0  149.7061054188583 -1.350582477923395e-05 0  149.7060910642427 7.499955158231692 0  159.7061073738538 6.954695280338058e-19 0  164.7061602609513 3.144596568520585e-05 0  164.7061174408724 7.500030150133719 0  159.7060948924562 7.499996964069783 0  169.7062051026321 8.017135227793176e-05 0  169.7061398384357 7.500079928861743 0  174.7062425280475 0.0001402513309849973 0  174.7061609117249 7.500140459416937 0  179.706273598168 0.000207897154074754 0  179.7061801212265 7.500208253635908 0  184.7062993882888 0.0002806946577219879 0  184.7061972828433 7.500281070800485 0  189.7063208390449 0.0003570725707521668 0  189.7062124138488 7.500357420375495 0  194.7063387275282 0.0004359802771240806 0  194.7062256368278 7.500436286116913 0  199.7063536817977 0.0005166962623389963 0  199.7062371215332 7.500516960020257 0  204.7063662065425 0.0005987128032778402 0  204.706247051626 7.500598938975475 0  209.7063767081001 0.0006816649436852909 0  209.7062556068682 7.500681859042567 0  214.7063855154006 0.0007652855641794826 0  214.7062629544382 7.500765452790453 0  219.7063928965094 0.000849376158178484 0  219.7062692454101 7.500849521008274 0  224.7063990714102 0.0009337872946851215 0  224.7062746140223 7.500933913530442 0  229.7064042218397 0.001018405213548468 0  229.706279178376 7.501018515955074 0  234.7064084988946 0.001103142409045507 0  234.7062830417973 7.501103240255669 0  239.7064120289747 0.00118793087917387 0  239.706286294453 7.501188018024467 0  244.706414918496 0.001272717206899329 0  244.706289015001 7.501272795538243 0  249.706417257686 0.001357458937902853 0  249.7062912721716 7.501357530120345 0  254.7064191237004 0.001442121907181044 0  254.7062931262358 7.50144218745368 0  259.7064205832332 0.001526678290220917 0  259.7062946303372 7.501526739619846 0  264.7064216947556 0.001611105240729335 0  264.7062958316939 7.501611163723544 0  269.70642251047 0.001695384043082396 0  269.7062967726641 7.501695441024832 0  274.7064230780571 0.001779499765336827 0  274.7062974916705 7.501779556554443 0  279.7064234422302 0.001863441456484472 0  279.7062980239783 7.50186349923575 0  284.7064236460804 0.001947202996254533 0  284.7062984022921 7.5019472625843 0  289.7064237320868 0.002030784779993581 0  289.7062986571544 7.502030846101214 0  294.7064237425096 0.002114196494651419 0  294.7062988171151 7.502114257510911 0  299.7064237185683 0.002197461256538072 0  299.7062989087168 7.502197515997 0  304.7064236972212 0.00228062110108716 0  304.7062989565005 7.502280656547568 0  309.7064237032364 0.002363742292390836 0  309.7062989836497 7.502363735580072 0  4.70618671270346 14.99734017713322 0  -0.2938133034413487 14.99725500036238 0  9.706186715350595 14.99742535054152 0  14.70618669519329 14.99751056933119 0  19.70618664176751 14.99759587528634 0  24.70618654321518 14.99768130598001 0  29.7061863856746 14.9977668961054 0  34.70618615269013 14.99785267848652 0  39.70618582467955 14.99793868498738 0  44.70618537841077 14.99802494734053 0  49.70618478643571 14.99811149788712 0  54.70618401643789 14.99819837022552 0  59.70618303046417 14.99828559977224 0  64.70618178402054 14.99837322423906 0  69.70618022502133 14.99846128402369 0  74.7061782925971 14.99854982249623 0  79.70617591578917 14.99863888613518 0  84.70617301221041 14.99872852441521 0  89.70616948683708 14.99881878925619 0  94.70616523125848 14.99890973367291 0  99.70616012399414 14.99900140895421 0  104.7061540329696 14.99909385913676 0  109.7061468220438 14.99918711052238 0  114.7061383647447 14.99928115219114 0  119.7061285702271 14.99937590036778 0  124.7061174288421 14.99947113441466 0  129.706105086831 14.99956638457197 0  134.7060919587921 14.99966074217386 0  139.7060788752877 14.99975255864365 0  144.7060672236429 14.99983902655768 0  149.7060589366316 14.99991578099312 0  164.7060710859834 15.00002706468157 0  159.7060637454316 14.99998284609632 0  169.7060788136339 15.00008076754956 0  174.7060871831449 15.00014256897154 0  179.7060958719495 15.0002105990809 0  184.7061045103582 15.00028326539847 0  189.7061128134075 15.00035934421784 0  194.7061205961963 15.00043792623149 0  199.7061277564921 15.00051834236468 0  204.7061342519071 15.00060010008946 0  209.7061400801031 15.00068283492968 0  214.7061452638384 15.00076627516416 0  219.7061498404369 15.00085021655557 0  224.7061538547001 15.00093450430399 0  229.7061573543087 15.00101902009877 0  234.7061603869553 15.00110367274969 0  239.7061629986388 15.00118839134205 0  244.7061652327297 15.00127312019025 0  249.7061671295367 15.00135781509371 0  254.7061687261865 15.00144244055666 0  259.7061700566949 15.00152696774306 0  264.7061711521453 15.00161137301527 0  269.7061720409194 15.00169563696252 0  274.7061727489389 15.0017797438682 0  279.7061732999071 15.0018636815974 0  284.7061737155531 15.00194744190903 0  289.7061740159093 15.00203102120433 0  294.706174219736 15.00211442170952 0  299.7061743452775 15.00219765304467 0  304.7061744117188 15.00228073406679 0  309.7061744419753 15.0023636948892 0  4.706058982912467 22.49734026495813 0  -0.2939410287177425 22.49725521602105 0  9.706058973207073 22.49742534640376 0  14.70605892925173 22.49751049707584 0  19.70605883983331 22.49759574991953 0  24.70605869405907 22.4976811355472 0  29.70605848044785 22.49776668316722 0  34.70605818623582 22.49785242122751 0  39.70605779683411 22.49793837794097 0  44.70605729539768 22.49802458174855 0  49.70605666247459 22.49811106172287 0  54.7060558757136 22.49819784789654 0  59.70605490962708 22.49828497149106 0  64.70605373542782 22.49837246501367 0  69.7060523209838 22.49846036217076 0  74.70605063097589 22.49854869751811 0  79.70604862739398 22.49863750571599 0  84.70604627058725 22.49872682017589 0  89.70604352119872 22.49881667075088 0  94.70604034347825 22.4989070799081 0  99.70603671069098 22.4989980564816 0  104.7060326136284 22.49908958557546 0  109.7060280735478 22.49918161239471 0  114.7060231611084 22.4992740166594 0  119.706018022775 22.49936657284964 0  124.7060129151228 22.49945889022433 0  129.7060082444069 22.49955032670509 0  134.7060046018157 22.49963987601458 0  139.7060027718588 22.49972604684102 0  144.7060036721417 22.49980680567683 0  149.7060081680411 22.49987977748313 0  164.7060108480862 22.50002216588912 0  159.7060120999961 22.49996845062214 0  169.7060101706928 22.50008104753685 0  174.7060104040252 22.50014525314904 0  179.7060115750054 22.50021418173637 0  184.7060135216263 22.50028699160769 0  189.7060160209801 22.5003628651476 0  194.7060188582061 22.5004411028513 0  199.7060218542858 22.50052113953377 0  204.7060248722196 22.50060253110079 0  209.7060278135846 22.50068493323493 0  214.7060306117647 22.50076808043033 0  219.7060332248064 22.50085176814216 0  224.7060356291124 22.50093583850449 0  229.7060378143136 22.50102016923869 0  234.7060397793005 22.50110466515877 0  239.7060415292419 22.50118925170389 0  244.706043073395 22.50127387002192 0  249.7060444235194 22.5013584732352 0  254.7060455927495 22.50144302360964 0  259.7060465947937 22.50152749042385 0  264.7060474433807 22.50161184838957 0  269.7060481518814 22.50169607651808 0  274.7060487330698 22.50178015735464 0  279.7060491990064 22.50186407652034 0  284.7060495610606 22.50194782250094 0  289.7060498301229 22.50203138660417 0  294.7060500171091 22.50211476295994 0  299.7060501339183 22.50219794835
[...]
<PointData  Scalars="p"> 
<DataArray  type="Float64"  Name="p"  format="ascii">1.0000000000000001e-01  1.0000000000000003e-01  9.9996279276819811e-02  1.0000000000000003e-01  1.0000000000000003e-01  9.9996371097653997e-02  1.0000000000000003e-01  9.9994517204866989e-02  1.0000000000000003e-01  9.9993884594339000e-02  1.0000000000000003e-01  9.9992605590876124e-02  1.0000000000000003e-01  9.9990002884934301e-02  1.0000000000000003e-01  9.9989202886741499e-02  1.0000000000000003e-01  9.9987422385921454e-02  1.0000000000000003e-01  9.9984441587966072e-02  1.0000000000000003e-01  9.9984948060087009e-02  1.0000000000000003e-01  9.9975752929822817e-02  1.0000000000000003e-01  9.9972296411276126e-02  1.0000000000000003e-01  9.9967493419187814e-02  1.0000000000000003e-01  9.9964054237040384e-02  1.0000000000000003e-01  9.9955704893904679e-02  1.0000000000000003e-01  9.9952659735502339e-02  1.0000000000000003e-01  9.9946046617123988e-02  1.0000000000000003e-01  9.9936088115628902e-02  1.0000000000000003e-01  9.9932729540993151e-02  1.0000000000000003e-01  9.9921854446651276e-02  1.0000000000000003e-01  9.9914927547721577e-02  1.0000000000000003e-01  9.9902627093372554e-02  1.0000000000000003e-01  9.9903554612603890e-02  1.0000000000000003e-01  9.9874232860314216e-02  1.0000000000000003e-01  9.9897778687278005e-02  1.0000000000000003e-01  9.9838707272462801e-02  1.0000000000000003e-01  9.9901746074387260e-02  1.0000000000000003e-01  9.9791185961399922e-02  1.0000000000000003e-01  9.9919744570067692e-02  1.0000000000000001e-01  9.9713647005249983e-02  1.0000000000000001e-01  1.0000000000000003e-01  1.0019940887615381e-01  1.0044706710032482e-01  1.0000000000000003e-01  1.0004302070333783e-01  1.0000000000000003e-01  1.0015489265908024e-01  1.0000000000000003e-01  1.0009156226228694e-01  1.0000000000000003e-01  1.0010891843486915e-01  1.0000000000000003e-01  1.0009217747343825e-01  1.0000000000000003e-01  1.0009805948212004e-01  1.0000000000000003e-01  1.0008383399134402e-01  1.0000000000000003e-01  1.0008510024694278e-01  1.0000000000000003e-01  1.0007978612688163e-01  1.0000000000000003e-01  1.0007537225989956e-01  1.0000000000000003e-01  1.0007220222853064e-01  1.0000000000000003e-01  1.0006997424499860e-01  1.0000000000000003e-01  1.0006589300452415e-01  1.0000000000000003e-01  1.0006400385566630e-01  1.0000000000000003e-01  1.0006197069287452e-01  1.0000000000000003e-01  1.0005948655266748e-01  1.0000000000000003e-01  1.0005783938924960e-01  1.0000000000000003e-01  1.0005663629146955e-01  1.0000000000000003e-01  1.0005462089169277e-01  1.0000000000000003e-01  1.0005398829559971e-01  1.0000000000000003e-01  1.0005216857158961e-01  1.0000000000000003e-01  1.0005240849336018e-01  1.0000000000000003e-01  1.0004916681135670e-01  1.0000000000000003e-01  1.0005262992720533e-01  1.0000000000000003e-01  1.0004465623263066e-01  1.0000000000000003e-01  1.0005611208022336e-01  1.0000000000000003e-01  1.0003544155386170e-01  1.0000000000000003e-01  1.0007041258497913e-01  1.0000000000000001e-01  1.0000000000000003e-01  9.9993117726830796e-02  1.0000000000000003e-01  9.9993607016358094e-02  9.9993214911360789e-02  9.9992324195677981e-02  9.9989699972032511e-02  9.9989991265231892e-02  9.9989357246790880e-02  9.9985415508827474e-02  9.9987477982437789e-02  9.9985720284114538e-02  9.9983196185630854e-02  9.9972827516203705e-02  9.9977147355850685e-02  9.9966844056031248e-02  9.9971821432415869e-02  9.9967063581315602e-02  9.9959042247078675e-02  9.9960786216600789e-02  9.9957060865371053e-02  9.9944429797660592e-02  9.9951101982140231e-02  9.9938854335780536e-02  9.9939018575495878e-02  9.9925358374160958e-02  9.9946982770374129e-02  9.9890454187770789e-02  9.9981255157702703e-02  9.9820615689268477e-02  1.0006600585313419e-01  9.9710216882038891e-02  9.9798423218061927e-02  1.0066041784873753e-01  1.0021656950273067e-01  1.0002839353539308e-01  1.0006051049360669e-01  1.0004846121005470e-01  1.0007043281630704e-01  1.0004070570851793e-01  1.0005444918301225e-01  1.0004927563504377e-01  1.0004278065832749e-01  1.0004212634587349e-01  1.0004207853945907e-01  1.0003571168434687e-01  1.0003547295560541e-01  1.0003445853974045e-01  1.0003083356134872e-01  1.0003007107341805e-01  1.0002927871385547e-01  1.0002693514146532e-01  1.0002596630312428e-01  1.0002559537109969e-01  1.0002327395190172e-01  1.0002363185929687e-01  1.0002104444871444e-01  1.0002305911040163e-01  1.0001673732612718e-01  1.0002621383900412e-01  1.0000795507013571e-01  1.0003457696931144e-01  1.0000000000000003e-01  9.9989471604387301e-02  1.0000000000000003e-01  9.9993282535433936e-02  9.9990153176629001e-02  9.9987544190303396e-02  9.9987335052015583e-02  9.9986628101149597e-02  9.9980968594862649e-02  9.9982413961072381e-02  9.9981762275050401e-02  9.9975657204894916e-02  9.9974024159279876e-02  9.9979985445795685e-02  9.9951206587041069e-02  9.9963167979973039e-02  9.9956594067641666e-02  9.9944908944670480e-02  9.9950128485524398e-02  9.9943729038939388e-02  9.9927540397469150e-02  9.9932663122882792e-02  9.9926584170510369e-02  9.9903513468179925e-02  9.9920276710768016e-02  9.9892995809650109e-02  9.9906477090297846e-02  9.9866532285518159e-02  9.9933956909165053e-02  9.9783866376486799e-02  1.0005578517221266e-01  9.9547228142296135e-02  9.9881123606909608e-02  1.0057402404084281e-01  1.0031592076875451e-01  1.0006114099480197e-01  1.0008381939536766e-01  1.0013428694658047e-01  1.0005730906356664e-01  1.0010056564269569e-01  1.0008784323203125e-01  1.0007508818906799e-01  1.0007593390588096e-01  1.0007759312693243e-01  1.0006457851107868e-01  1.0006580429330646e-01  1.0006419962095758e-01  1.0005697469414009e-01  1.0005610080094988e-01  1.0005526804424753e-01  1.0005032956753473e-01  1.0004953855294561e-01  1.0004834629317640e-01  1.0004549899783501e-01  1.0004389404946287e-01  1.0004387573805783e-01  1.0003995573971822e-01  1.0004187614863645e-01  1.0003601220611864e-01  1.0004282429125279e-01  1.0002679867061792e-01  1.0005473549647471e-01  1.0000000000000003e-01  9.9987159720303795e-02  1.0000000000000003e-01  9.9991960253484613e-02  9.9985877589848407e-02  9.9986774850046395e-02  9.9985903098117057e-02  9.9979870860724129e-02  9.9981381611697992e-02  9.9980708304080790e-02  9.9973233358247912e-02  9.9976210182799063e-02  9.9976172424603021e-02  9.9959899331159466e-02  9.9976815397490773e-02  9.9951288131916810e-02  9.9947241890851204e-02  9.9951224683809223e-02  9.9950325281064123e-02  9.9930788747212076e-02  9.9942793011830261e-02  9.9932498834972822e-02  9.9916681575864127e-02  9.9921365016329713e-02  9.9922869366109057e-02  9.9885110145991302e-02  9.9931606098522349e-02  9.9859674689104838e-02  9.9955748765533925e-02  9.9779940140566681e-02  1.0009285065503920e-01  9.9521593605252076e-02  9.9890253776029128e-02  1.0071898625475480e-01  1.0020132346294454e-01  1.0002636703306388e-01  1.0022811090196317e-01  9.9996019884784168e-02  1.0011268184869376e-01  1.0007836122752611e-01  1.0007106345281806e-01  1.0006954689097054e-01  1.0007850291241070e-01  1.0005725336842719e-01  1.0006270018305237e-01  1.0006128281145359e-01  1.0005162772396983e-01  1.0005110014200461e-01  1.0005071221017266e-01  1.0004390090015458e-01  1.0004329714726945e-01  1.0004255086256933e-01  1.0003805580161571e-01  1.0003744059149552e-01  1.0003580706220698e-01  1.0003396987787140e-01  1.0003095552202734e-01  1.0003313197453459e-01  1.0002531470415602e-01  1.0003413810011055e-01  1.0001647529680228e-01  1.0004193766314506e-01  1.0000000000000003e-01  9.9984792245006032e-02  1.0000000000000003e-01  9.9989281575328867e-02  9.9985175396828149e-02  9.9985959903825111e-02  9.9978990126811246e-02  9.9980701493896096e-02  9.9979305594072018e-02  9.9970975826813635e-02  9.9974285280775593e-02  9.9974206828250381e-02  9.9959981007351303e-02  9.9968361105403872e-02  9.9960532326639318e-02  9.9959757929048945e-02  9.9939915377836933e-02  9.9947780595172134e-02  9.9924550777745966e-02  9.9939853234446221e-02  9.9932380059441744e-02  9.9908357872660558e-02  9.9925373441804535e-02  9.9909946884221501e-02  9.9895446843615093e-02  9.9893497059497266e-02  9.9913920799215947e-02  9.9837509605750968e-02  9.9957662443310308e-02  9.9750908773224345e-02  1.0010617768204198e-01  9.9447114858438920e-02  9.9764018841781030e-02  1.0080751692540679e-01  1.0027081295821752e-01  1.0010138095869908e-01  1.0011627663112324e-01  1.0013716054513772e-01  1.0009488400257642e-01  1.0008853534709376e-01  1.0007835649934800e-01  1.0010640584127690e-01  1.0006750039299889e-01  1.0008076467403376e-01  1.0007901662443910e-01  1.0006512201264597e-01  1.0006555591530117e-01  1.0006641445355766e-01  1.0005558405569596e-01  1.0005552066510398e-01  1.0005481136183708e-01  1.0004851177170110e-01  1.0004740488143010e-01  1.0004690074171022e-01  1.0004204412509743e-01  1.0004183113505674e-01  1.0003901758405258e-01  1.0003886046206763e-01  1.0003282684975368e-01  1.0003994702604845e-01  1.0002271112816352e-01  1.0004894791753374e-01  1.0000000000000003e-01  9.9982001209329166e-02  1.0000000000000003e-01  9.9989025117358118e-02  9.9983988422553377e-02  9.9980648313639564e-02  9.9980042796972396e-02  9.9979519775629896e-02  9.9971020736132038e-02  9.9973159318677299e-02  9.9973376291870600e-02  9.9961278437061998e-02  9.9966080272821708e-02  9.9963392046752517e-02  9.9950745933362006e-02  9.9953092291697562e-02  9.9969461694856390e-02  9.9913012992574698e-02  9.9942142072143136e-02  9.9931369230595882e-02  9.9910650048486163e-02  9.9926070462322103e-02  9.9921456116252541e-02  9.9885093933010982e-02  9.9918126618585651e-02  9.9886775065063937e-02  9.9894340932330822e-02  9.9853495378818505e-02  9.9957232564244825e-02  9.9726226164981016e-02  1.0014460322245505e-01  9.9388278581670986e-02  9.9790235226143123e-02  1.0076788449058766e-01  1.0033365521282049e-01  9.9990845852020588e-02  1.0015680100282286e-01  1.0012637499635028e-01  1.0013662154084148e-01  1.0004664755105791e-01  1.0013331042547924e-01  1.0005454029095433e-01  1.0008991293492696e-01  1.0008429043834553e-01  1.0006721718931873e-01  1.0006786417203668e-01  1.0007210843100159e-01  1.0005648642572183e-01  1.0005807287916693e-01  1.0005775736517132e-01  1.0004851837776237e-01  1.0004807892025665e-01  1.0004761305663536e-01  1.0004183311725776e-01  1.0004038335071555e-01  1.0004039401570963e-01  1.0003467441415384e-01  1.0003642939828306e-01  1.0002989482277572e-01  1.0003613012850882e-01  1.0001957449333844e-01  1.0004401640336344e-01  1.0000000000000003e-01  9.9980484784427892e-02  1.0000000000000003e-01  9.9988533177583341e-02  9.9979225856312873e-02  9.9981418192766430e-02  9.9979308751894772e-02  9.9971993690214214e-02  9.9972868607084403e-02  9.9973080479059437e-02  9.9961108473285321e-02  9.9966137467068367e-02  9.9964287384747608e-02  9.9948279220414799e-02  9.9954922497447238e-02  9.9958768054130981e-02  9.9929104804121163e-02  9.9964375918408566e-02  9.9920661490702570e-02  9.9909389142537539e-02  9.9924615543258613e-02  9.9920315965148804e-02  9.9889933307093878e-02  9.9909982306464695e-02  9.9908232951049725e-02  9.9856568414469687e-02  9.9916922869948840e-02  9.9842757895430539e-02  9.9931853138603602e-02  9.9737648762363879e-02  1.0014576506893348e-01  9.9334189195116288e-02  9.9815144879002365e-02  1.0083432893596328e-01  1.0026512076278360e-01  1.0002937914022968e-01  1.0020047404036969e-01  1.0007459485722796e-01  1.0011680204301698e-01  1.0017482169125368e-01  1.0004297251695365e-01  1.0010675797180692e-01  1.0009056735355586e-01  1.0007912084018748e-01  1.0007482062774853e-01  1.0008548921920110e-01  1.0006296659630223e-01  1.0006685631238937e-01  1.0006750523537813e-01  1.0005585820847834e-01  1.0005498401163358e-01  1.0005527647034185e-01  1.0004698919911773e-01  1.0004654556917696e-01  1.0004523359326922e-01  1.0004104094747775e-01  1.0003819470301338e-01  1.0003956965413663e-01  1.0003153582789671e-01  1.0003835125859785e-01  1.0002197624199255e-01  1.0004582889275943e-01  1.0000000000000003e-01  9.9979076151506044e-02  1.0000000000000003e-01  9.9986021626030402e-02  9.9979503699104189e-02  9.9981140992967371e-02  9.9972934715980982e-02  9.9974271726330305e-02  9.9973352743520927e-02  9.9962453256762770e-02  9.9966455511374286e-02  9.9965983275591003e-02  9.9949683754549573e-02  9.9956075817342768e-02  9.9956316265002954e-02  9.9933512864620752e-02  9.9952580481002334e-02  9.9940352983574884e-02  9.9938979108376361e-02  9.9911560775275299e-02  9.9925249426570009e-02  9.9884218984646764e-02  9.9919625176984259e-02  9.9902281255091638e-02  9.9875898485306702e-02  9.9888103740148657e-02  9.9911038661350732e-02  9.9810128475332327e-02  9.9962506033722767e-02  9.9724330398573161e-02  1.0013621992404362e-01  9.9323140492744461e-02  9.9736090398449259e-02  1.0090339275972353e-01  1.0030416206560040e-01  1.0006503035210390e-01  1.0013969190503587e-01  1.0008404024708233e-01  1.0016261745053018e-01  1.0008211810975695e-01  1.0014590095475007e-01  1.0007558653317332e-01  1.0009316634287747e-01  1.0006875172807772e-01  1.0009939199261382e-01  1.0006324793006589e-01  1.0007239653756066e-01  1.0007325383535619e-01  1.0005874018922140e-01  1.0005880302904392e-01  1.0006064629269754e-01  1.0004920334969387e-01  1.0004866973646656e-01  1.0004870351755027e-01  1.0004134301021869e-01  1.0004111397744958e-01  1.0003865299790723e-01  1.0003689803790933e-01  1.0003079432404891e-01  1.0003742675491921e-01  1.0002035367309550e-01  1.0004365232256437e-01  1.0000000000000003e-01  9.9977070529197076e-02  1.0000000000000003e-01  9.9986339501210067e-02  9.9979225413027617e-02  9.9976376925908383e-02  9.9974535044520516e-02  9.9974942687010585e-02  9.9964617722465565e-02  9.9966997940706362e-02  9.9967053853078150e-02  9.9953361962871717e-02  9.9957066442640935e-02  9.9957354107293048e-02  9.9936609579259053e-02  9.9948646826007223e-02  9.9946512790022160e-02  9.9926101938116615e-02  9.9933899250463101e-02  9.9958972449853481e-02  9.9872601464491437e-02  9.9919078475740983e-02  9.9907849239707053e-02  9.9866687725788689e-02  9.9911019767794290e-02  9.9882713943161117e-02  9.9870041917777957e-02  9.9848723669077419e-02  9.9955443757012097e-02  9.9688339113460117e-02  1.0017070630581001e-01  9.9297652029891478e-02  9.9738674072729044e-02  1.0088232265256397e-01  1.0034985790967860e-01  1.0000491018737945e-01  1.0016210692821823e-01  1.0012792256305297e-01  1.0010330726932860e-01  1.0010544074212965e-01  1.0013399113330952e-01  1.0012538657924679e-01  1.0005288714244943e-01  1.0011903696908833e-01  1.0005922749601748e-01  1.0008215987058873e-01  1.0008025821512102e-01  1.0006429296871129e-01  1.0006309805304459e-01  1.0006815597592479e-01  1.0005348972792302e-01  1.0005417225088642e-01  1.0005407555666929e-01  1.0004520119036182e-01  1.0004374428699017e-01  1.0004426838908663e-01  1.0003685070244812e-01  1.0003819739754503e-01  1.0003244816473339e-01  1.0003669605552577e-01  1.0002125789100626e-01  1.0004383675466641e-01  1.0000000000000003e-01  9.9976274083740227e-02  1.0000000000000003e-01  9.9986373339434664e-02  9.9975287045231689e-02  9.9977718059320653e-02  9.9975032933091137e-02  9.9967570658907337e-02  9.9968130625228288e-02  9.9968335864880090e-02  9.9955801240637854e-02  9.9959655140924142e-02  9.9959648704620388e-02  9.9940095646547572e-02  9.9948630501328198e-02  9.9949229380572518e-02  9.9925357090379183e-02  9.9938180878478666e-02  9.9946298940834080e-02  9.9899162987940812e-02  9.9957247267917132e-02  9.9893023905662848e-02  9.9875471353014153e-02  9.9900020556624433e-02  9.9905998022057296e-02  9.9837247332431947e-02  9.9917517631862754e-02  9.9842684646503047e-02  9.9911705248633617e-02  9.9730292944849100e-02  1.0016707024776600e-01  9.9254350319868193e-02  9.9759975862036013e-02  1.0091333714904623e-01  1.0030860098019176e-01  1.0001546328937305e-01  1.0020260170135500e-01  1.0007429667897896e-01  1.0011998332164099e-01  1.0012870812412818e-01  1.0010085137523440e-01  1.0009303584379402e-01  1.0015579770035229e-01  1.0004116036162999e-01  1.0009456998963048e-01  1.0007861687184572e-01  1.0007187122412468e-01  1.0006437696952548e-01  1.0007510724707877e-01  1.0005536951969293e-01  1.0005736979393698e-01  1.0005922792304614e-01  1.0004819403176121e-01  1.0004688213909348e-01  1.0004672356276381e-01  1.0003995969627241e-01  1.0003739832720317e-01  1.0003890183120943e-01  1.0003015080332572e-01  1.0003617000817593e-01  1.0002106696561720e-01  1.0004213653588237e-01  1.0000000000000003e-01  9.9975624461342810e-02  1.0000000000000003e-01  9.9984571982272272e-02  9.9976167700510807e-02  9.9978449312282974e-02  9.9969665835872912e-02  9.9970667531349339e-02  9.9969653049823554e-02  9.9959208091291718e-02  9.9961699797721681e-02  9.9962540763169072e-02  9.9945092515590334e-02  9.9951171630211263e-02  9.9951459750349969e-02  9.9928937879106922e-02  9.9941043677768057e-02  9.9943617852126604e-02  9.9909612368088249e-02  9.9939860064493458e-02  9.9925278399193060e-02  9.9916926379467336e-02  9.9890313598128638e-02  9.9902613823207517e-02  9.9852162425517713e-02  9.9891711835596031e-02  9.9908231365616496e-02  9.9793601586294370e-02  9.9962761042845322e-02  9.9729556440045872e-02  1.0011803982731109e-01  9.9298458625718594e-02  9.9708537501645475e-02  1.0097014865609542e-01  1.0031901920525692e-01  1.0004786971990599e-01  1.0015900514342616e-01  1.0008459460706039e-01  1.0015372533303003e-01  1.0009033916553914e-01  1.0009992885357787e-01  1.0012732631526272e-01  1.0008407612968906e-01  1.0012309734082098e-01  1.0006609925564301e-01  1.0008334456575987e-01  1.0005969548271766e-01  1.0008567801900635e-01  1.0005636370939042e-01  1.0006181934364980e-01  1.0006360143420082e-01  1.0005107092174327e-01  1.0005037573269093e-01  1.0005253318198717e-01  1.0004166537769246e-01  1.0004146184203724e-01  1.0003969688244770e-01  1.0003614974649287e-01  1.0003060190931112e-01  1.0003667398074462e-01  1.0002032060573997e-01  1.0004151565650336e-01  1.0000000000000003e-01  9.9974249063916013e-02  1.0000000000000003e-01  9.9985079659061546e-02  9.9976540427334337e-02  9.9974602694322012e-02  9.9971680380769160e-02  9.9972232450524542e-02  9.9962206638832735e-02  9.9963686946165198e-02  9.9964434980453959e-02  9.9950617859833529e-02  9.9953648180186747e-02  9.9954655640613690e-02  9.9934432736557083e-02  9.9942507331547040e-02  9.9945881408174397e-02  9.9916139127400050e-02  9.9935691358342502e-02  9.9934415677896751e-02  9.9904363082596911e-02  9.9918229663302507e-02  9.9956925582127390e-02  9.9829158306518992e-02  9.9912310182966341e-02  9.9878039754020875e-02  9.9852525720157320e-02  9.9858153938428437e-02  9.9956782586976420e-02  9.9674782645975291e-02  1.0016988128926844e-01  9.9304411784681121e-02  9.9689375131852317e-02  1.0095805266741582e-01  1.0035917941840340e-01  1.0000681309105637e-01  1.0016296361796490e-01  1.0011754836454735e-01  1.0011488904127197e-01  1.0009342000264343e-01  1.0013283181131340e-01  1.0008354248861175e-01  1.0009481136107612e-01  1.0010662648248456e-01  1.0011090024112294e-01  1.0004217126260080e-01  1.0009921589592514e-01  1.0005094261556780e-01  1.0006779883666647e-01  1.0006662635829840e-01  1.0005394870871413e-01  1.0005167831480949e-01  1.0005621930934219e-01  1.0004460413092885e-01  1.0004382728973892e-01  1.0004430983196327e-01  1.0003535891269269e-01  1.0003616192996098e-01  1.0003154982443835e-01  1.0003401916626334e-01  1.0002012367493737e-01  1.0004038715382302e-01  1.0000000000000003e-01  9.9974085411237493e-02  1.0000000000000003e-01  9.9985630239571188e-02  9.9973762368232508e-02  9.9976413259103933e-02  9.9973103777132796e-02  9.9966598670292700e-02  9.9966065418760006e-02  9.9966490196378543e-02  9.9954796419134698e-02  9.9957638671121229e-02  9.9957944041947397e-02  9.9940253361995260e-02  9.9945815461554025e-02  9.9949133386035477e-02  9.9923293302547289e-02  9.9935930529430561e-02  9.9940267803633132e-02  9.9905389138460268e-02  9.9926535140520731e-02  9.9938880298091531e-02  9.9873398405864497e-02  9.9953194400584838e-02  9.9880468828584923e-02  9