<?xml version="1.0"?>
<VTKFile type="UnstructuredGrid"  version="0.1"  >
<UnstructuredGrid>
<Piece  NumberOfPoints="1933" NumberOfCells="3640">
<Points>
<DataArray  type="Float64"  NumberOfComponents="3"  format="ascii">-0.2939930568489955 0.0003543124991694812 0  4.706006974236009 0.0003246972681599616 0  4.706051437438139 7.500324798767592 0  -0.2939486250463568 7.500354359245512 0  9.706007012387595 0.0002949874128085807 0  9.70605155223776 7.500295108567303 0  14.70600710800869 0.0002651325925116567 0  14.70605174778272 7.500265259760396 0  19.70600731746143 0.0002351256566065262 0  19.70605205218941 7.500235253760223 0  24.70600769419514 0.000204985438863498 0  24.70605249361249 7.500205113091904 0  29.70600828655077 0.0001747471784183589 0  29.70605309959732 7.50017487462981 0  34.70600913815689 0.0001444571736294989 0  34.70605389661108 7.500144585397047 0  39.70601028923968 0.0001141700297034969 0  39.70605490989353 7.500114300322037 0  44.70601177815806 8.394759847811279e-05 0  44.70605616352855 7.500084081415015 0  49.70601364289732 5.385910128036708e-05 0  49.70605768060549 7.500053998003101 0  54.706015922436 2.398216434801033e-05 0  54.70605948335827 7.500024127818714 0  59.70601865796861 -5.595344564454825e-06 0  59.70606159318682 7.499994558859117 0  64.70602189399139 -3.477267102872789e-05 0  64.70606403046477 7.499965392036251 0  69.70602567924423 -6.343260928510109e-05 0  69.70606681402555 7.499936744728972 0  74.70603006748385 -9.143679898584165e-05 0  74.70606996018074 7.499908755447366 0  79.70603511800449 -0.0001186195319767062 0  79.70607348106022 7.499881589936628 0  84.70604089574306 -0.0001447795376883117 0  84.70607738197498 7.499855449199897 0  89.70604747064196 -0.0001696689546550049 0  89.70608165735655 7.499830580125704 0  94.70605491566675 -0.0001929783038080882 0  94.706086284634 7.499807289686268 0  99.70606330234362 -0.0002143156797043975 0  99.70609121515973 7.499785964046291 0  104.706072691706 -0.0002331774519666492 0  104.7060963609942 7.499767094389005 0  109.7060831166512 -0.0002489063492076666 0  109.7061015761493 7.499751311761611 0  114.706094548127 -0.0002606306522688157 0  114.7061066310651 7.499739433534995 0  119.7061068305959 -0.000267175116994574 0  119.7061111804931 7.49973252350062 0  124.7061195587241 -0.0002669301908342933 0  124.7061147296356 7.499731964555219 0  129.7061318408104 -0.0002576623294385145 0  129.7061166160414 7.499739533612725 0  134.7061418424932 -0.0002362511215629839 0  134.7061160562756 7.49975744528717 0  139.7061458999077 -0.000198376736531982 0  139.7061123818918 7.499788283282159 0  144.7061367704183 -0.0001383849695587242 0  144.7061057711468 7.499834679027187 0  149.706100051373 -5.058646096567382e-05 0  149.7060992534046 7.499898766867203 0  159.7061073738544 8.77220467425866e-19 0  164.706004533945 -0.0001509062024924016 0  164.7060900664665 7.499825181334037 0  159.7061185708472 7.49994355339675 0  169.7059514517422 -0.0002752461443742807 0  169.7060609674953 7.499712757578262 0  174.7059244307665 -0.0003805925709075568 0  174.7060375597974 7.499612854457673 0  179.7059115451764 -0.0004713461211820777 0  179.7060204082497 7.499524910634668 0  184.7059064821891 -0.000550796868550751 0  184.7060085457351 7.499447001202102 0  189.7059057952072 -0.0006214754153746033 0  189.7060007607726 7.499377198901151 0  194.7059075552427 -0.0006853063740829067 0  194.7059959834705 7.499313880334376 0  199.7059106570432 -0.0007437432861059222 0  199.7059933686464 7.49925575131557 0  204.7059144525398 -0.0007978857323582041 0  204.705992280215 7.499201799127547 0  209.7059185533028 -0.0008485721916600616 0  209.705992250162 7.499151233628568 0  214.7059227220023 -0.0008964495844119706 0  214.7059929374958 7.499103435319174 0  219.7059268115001 -0.0009420238690903091 0  219.7059940945297 7.49905791412271 0  224.7059307298725 -0.0009856964469751831 0  224.7059955412801 7.499014278051815 0  229.7059344198243 -0.001027790355160526 0  229.7059971467374 7.498972209794196 0  234.705937846266 -0.001068569242317899 0  234.7059988154097 7.498931449281241 0  239.7059409886383 -0.001108251269000401 0  239.7060004777207 7.498891780660656 0  244.7059438360837 -0.001147019427955378 0  244.7060020831799 7.498853022480245 0  249.7059463843726 -0.001185029318153705 0  249.7060035955205 7.498815020212759 0  254.7059486339664 -0.001222415084744178 0  254.7060049892514 7.498777640499769 0  259.7059505888404 -0.001259294014034628 0  259.706006247216 7.498740766675352 0  264.7059522558731 -0.001295770114793613 0  264.7060073588923 7.498704295266393 0  269.7059536446605 -0.001331936899332269 0  269.70600831924 7.49866813327046 0  274.7059547677285 -0.001367879479611893 0  274.7060091279436 7.49863219610002 0  279.7059556411076 -0.001403675995617325 0  279.7060097889524 7.498596406165155 0  284.705956285295 -0.001439398272446299 0  284.7060103102137 7.49856069216113 0  289.7059567265666 -0.001475111424670964 0  289.7060107034924 7.49852498924444 0  294.7059569985815 -0.001510871834571988 0  294.7060109842021 7.49848924043693 0  299.7059571438983 -0.001546722424460742 0  299.7060111711754 7.498453399798898 0  304.7059572144569 -0.001582683253766352 0  304.7060112865966 7.498417438144253 0  309.705957268511 -0.001618733997168518 0  309.7060113570375 7.498381352307512 0  4.70609559557774 15.00032503359924 0  -0.293904473295007 15.00035447452424 0  9.706095712194559 15.00029538167838 0  14.70609590129034 15.00026553582963 0  19.70609617978796 15.000235519897 0  24.70609656151677 15.00020536686735 0  29.70609705899258 15.00017511821291 0  34.70609768386336 15.00014482274534 0  39.70609844681233 15.00011453587073 0  44.70609935724819 15.00008431948503 0  49.70610042288951 15.00005424253355 0  54.70610164924696 15.00002438221607 0  59.70610303895667 14.99999482584067 0  64.70610459089698 14.99996567337409 0  69.7061062989972 14.99993704079096 0  74.70610815063721 14.99990906438666 0  79.70611012451766 14.999881906288 0  84.70611218788137 14.99985576147086 0  89.7061142929826 14.99983086667 0  94.70611637279231 14.99980751161682 0  99.70611833612141 14.99978605301579 0  104.7061200628232 14.99976693144332 0  109.7061214006356 14.99975069066878 0  114.7061221669921 14.99973799722967 0  119.7061221622418 14.99972965440834 0  124.7061212059532 14.99972659708029 0  129.7061192158659 14.99972983855105 0  134.7061163588409 14.99974031067603 0  139.7061133087658 14.99975848084136 0  144.7061116243391 14.99978350862728 0  149.7061141275556 14.99981137541702 0  164.7061341510216 14.99975956724504 0  159.7061374388985 14.9998400715219 0  169.7061240684335 14.99967359635579 0  174.7061115260031 14.9995896246277 0  179.70609931773 14.99951099188527 0  184.7060887152643 14.99943852685175 0  189.7060801006348 14.99937194386028 0  194.7060734184366 14.99931056025388 0  199.7060684314594 14.99925361706236 0  204.706064851112 14.99920040725685 0  209.7060623979703 14.99915031693538 0  214.7060608259356 14.99910282955349 0  219.7060599285751 14.99905751616395 0  224.7060595374553 14.99901402176634 0  229.7060595174068 14.99897205190476 0  234.7060597610988 14.99893136096521 0  239.7060601839366 14.99889174247104 0  244.7060607196679 14.99885302122622 0  249.7060613167647 14.99881504701981 0  254.7060619355194 14.99877768959612 0  259.7060625457527 14.99874083463756 0  264.7060631250102 14.99870438055971 0  269.7060636571547 14.99866823597421 0  274.7060641312533 14.99863231772446 0  279.7060645406774 14.99859654944611 0  284.7060648823846 14.99856086064269 0  289.706065156317 14.99852518628938 0  294.7060653650188 14.99848946695199 0  299.7060655136223 14.99845364926326 0  304.7060656106856 14.99841768613835 0  309.7060656707679 14.99838153485592 0  4.706139426809465 22.50032551023737 0  -0.2938606409561058 22.50035484439994 0  9.706139524280507 22.50029588850086 0  14.70613966926545 22.50026603389799 0  19.70613987161146 22.50023599341694 0  24.70614013657981 22.50020581290834 0  29.70614046682896 22.50017554032102 0  34.7061408632916 22.50014522723559 0  39.70614132534932 22.50011492974904 0  44.70614185059348 22.50008470927682 0  49.70614243434019 22.50005463355611 0  54.70614306897582 22.50002477799345 0  59.70614374315858 22.49999522744263 0  64.70614444087532 22.49996607848475 0  69.70614514034486 22.49993744228534 0  74.70614581277202 22.49990944811485 0  79.70614642099166 22.4998822476203 0  84.70614691810607 22.49985601991717 0  89.70614724634626 22.49983097750349 0  94.70614733659487 22.49980737283722 0  99.70614710934669 22.49978550508035 0  104.7061464784197 22.49976572585805 0  109.7061453595186 22.49974844166067 0  114.7061436868275 22.49973410834252 0  119.7061414420573 22.49972320944018 0  124.7061387013296 22.49971620394032 0  129.7061357046008 22.49971341984642 0  134.7061329469023 22.49971485743545 0  139.7061312740109 22.49971985413084 0  144.7061319253597 22.49972656857415 0  149.7061363874129 22.49973133605716 0  164.7061646301552 22.49968626405625 0  159.7061565616784 22.49974299953709 0  169.7061662520309 22.49962141325448 0  174.7061634215937 22.49955371365661 0  179.706158137902 22.49948663439962 0  184.7061519107322 22.49942205729304 0  189.7061456935292 22.49936077114414 0  194.7061400062815 22.49930292977441 0  199.7061350812766 22.49924836286334 0  204.7061309781209 22.49919675919843 0  209.7061276618584 22.49914776553762 0  214.7061250517768 22.49910103566722 0  219.7061230500576 22.49905625196529 0  224.7061215575789 22.49901313258917 0  229.7061204819324 22.49897143160454 0  234.7061197409268 22.49893093597309 0  239.7061192635888 22.49889146141524 0  244.7061189898594 22.49885284813076 0  249.7061188696741 22.4988149568178 0  254.7061188618141 22.49877766515544 0  259.7061189327155 22.49874086478385 0  264.7061190553505 22.49870445875712 0  269.7061192082024 22.49866835942487 0  274.7061193743565 22.49863248669395 0  279.7061195407005 22.49859676661916 0  284.7061196972476 22.49856113025814 0  289.7061198366162 22.49852551267929 0  294.7061199537602 22.498489851
[...]
<PointData  Scalars="p"> 
<DataArray  type="Float64"  Name="p"  format="ascii">1.0000000000000001e-01  1.0000000000000003e-01  1.0000258760032094e-01  1.0000000000000003e-01  1.0000000000000003e-01  1.0000370449114483e-01  1.0000000000000003e-01  1.0000559151715858e-01  1.0000000000000003e-01  1.0000685827761949e-01  1.0000000000000003e-01  1.0000827567427620e-01  1.0000000000000003e-01  1.0001010237701591e-01  1.0000000000000003e-01  1.0001128355203366e-01  1.0000000000000003e-01  1.0001253889394879e-01  1.0000000000000003e-01  1.0001455341150069e-01  1.0000000000000003e-01  1.0001579769648698e-01  1.0000000000000003e-01  1.0001899361861738e-01  1.0000000000000003e-01  1.0002237554360877e-01  1.0000000000000003e-01  1.0002488685791136e-01  1.0000000000000003e-01  1.0002734254542925e-01  1.0000000000000003e-01  1.0003092999855989e-01  1.0000000000000003e-01  1.0003271125450341e-01  1.0000000000000003e-01  1.0003487927168771e-01  1.0000000000000003e-01  1.0003839631489091e-01  1.0000000000000003e-01  1.0003902720129913e-01  1.0000000000000003e-01  1.0004157723243866e-01  1.0000000000000003e-01  1.0004283022283068e-01  1.0000000000000003e-01  1.0004519040926431e-01  1.0000000000000003e-01  1.0004266890741252e-01  1.0000000000000003e-01  1.0005003533120560e-01  1.0000000000000003e-01  1.0003998215302883e-01  1.0000000000000003e-01  1.0005578177843584e-01  1.0000000000000003e-01  1.0003375202499218e-01  1.0000000000000003e-01  1.0006529390458600e-01  1.0000000000000003e-01  1.0002385774987105e-01  1.0000000000000001e-01  1.0008442486571049e-01  1.0000000000000001e-01  1.0000000000000003e-01  9.9898410041833696e-02  9.9828271682910918e-02  1.0000000000000003e-01  9.9955294584562496e-02  1.0000000000000003e-01  9.9917108203163463e-02  1.0000000000000003e-01  9.9934425660193796e-02  1.0000000000000003e-01  9.9927543629801593e-02  1.0000000000000003e-01  9.9931599162204454e-02  1.0000000000000003e-01  9.9927616681679904e-02  1.0000000000000003e-01  9.9930964061876071e-02  1.0000000000000003e-01  9.9929576714931079e-02  1.0000000000000003e-01  9.9930184318871323e-02  1.0000000000000003e-01  9.9930901340025233e-02  1.0000000000000003e-01  9.9931495220204891e-02  1.0000000000000003e-01  9.9931762350794859e-02  1.0000000000000003e-01  9.9932875997699719e-02  1.0000000000000003e-01  9.9933430875719154e-02  1.0000000000000003e-01  9.9934065613461728e-02  1.0000000000000003e-01  9.9934891235535950e-02  1.0000000000000003e-01  9.9935670458656464e-02  1.0000000000000003e-01  9.9936066204570004e-02  1.0000000000000003e-01  9.9937190919028723e-02  1.0000000000000003e-01  9.9937221174080576e-02  1.0000000000000003e-01  9.9938797724053674e-02  1.0000000000000003e-01  9.9937738472239079e-02  1.0000000000000003e-01  9.9941274883560124e-02  1.0000000000000003e-01  9.9936582323127479e-02  1.0000000000000003e-01  9.9946000057786574e-02  1.0000000000000003e-01  9.9931522760560595e-02  1.0000000000000003e-01  9.9956763621846814e-02  1.0000000000000003e-01  9.9913246697787617e-02  1.0000000000000001e-01  1.0000000000000003e-01  1.0000350431937600e-01  1.0000000000000003e-01  1.0000389865512899e-01  1.0000424719902634e-01  1.0000479096294741e-01  1.0000591250225861e-01  1.0000592809067679e-01  1.0000599721890352e-01  1.0000747491304532e-01  1.0000702909964249e-01  1.0000744015507519e-01  1.0000986441481906e-01  1.0001227622991937e-01  1.0001289568472610e-01  1.0001640887510405e-01  1.0001532986461217e-01  1.0001590002232132e-01  1.0001874120156683e-01  1.0001739535032014e-01  1.0001723789802984e-01  1.0002087847365077e-01  1.0001734655383626e-01  1.0001938688032798e-01  1.0001827180420043e-01  1.0002118010820633e-01  1.0001185380428108e-01  1.0002967973564160e-01  9.9999009015890261e-02  1.0004996776431657e-01  9.9972487899608831e-02  1.0008642653519874e-01  1.0005991709503316e-01  9.9712214512787237e-02  9.9931978231932769e-02  9.9983254026096119e-02  9.9976845894671429e-02  9.9981186997444738e-02  9.9970480434330225e-02  9.9979126082402836e-02  9.9973932638967020e-02  9.9973536847349165e-02  9.9974667123287272e-02  9.9974379899543761e-02  9.9973382672207387e-02  9.9974931943970238e-02  9.9974844948739941e-02  9.9974718294241316e-02  9.9975690802680303e-02  9.9975821262850720e-02  9.9975909474888242e-02  9.9976418236045861e-02  9.9976859855689659e-02  9.9976476130614625e-02  9.9977729577712726e-02  9.9976516696828638e-02  9.9978898048953602e-02  9.9975273360711894e-02  9.9982310228627858e-02  9.9969838741783459e-02  9.9991571452944669e-02  9.9957939069667837e-02  1.0000000000000003e-01  1.0000481020996273e-01  1.0000000000000003e-01  1.0000365413432295e-01  1.0000559092420640e-01  1.0000684495402604e-01  1.0000737127827440e-01  1.0000743711856891e-01  1.0000967635511249e-01  1.0000925213305360e-01  1.0000903219876869e-01  1.0001193798519430e-01  1.0001221722906443e-01  1.0001223391115560e-01  1.0002051962641249e-01  1.0001978629579174e-01  1.0002095717430608e-01  1.0002609885881404e-01  1.0002361839750019e-01  1.0002417345572925e-01  1.0002922657897410e-01  1.0002617075906328e-01  1.0002528874230326e-01  1.0003204996634907e-01  1.0002397402742021e-01  1.0002980395763712e-01  1.0002357383334874e-01  1.0003507237882518e-01  1.0000923478999196e-01  1.0005993620165161e-01  9.9969188825399249e-02  1.0013754358984772e-01  1.0006999246870360e-01  9.9696472878791256e-02  9.9859154513260384e-02  9.9966172738941553e-02  9.9964206308725281e-02  9.9939407564999166e-02  9.9964957536475288e-02  9.9950492462630741e-02  9.9950371363677876e-02  9.9952934346474981e-02  9.9951833166766271e-02  9.9949063703506633e-02  9.9952284801952229e-02  9.9951472219512394e-02  9.9950960331722336e-02  9.9952839630647231e-02  9.9953041002453530e-02  9.9952807052510195e-02  9.9954223499101089e-02  9.9954311735923909e-02  9.9954576408147033e-02  9.9955043753400474e-02  9.9955975894071653e-02  9.9954836787431875e-02  9.9957576640519824e-02  9.9954125900994548e-02  9.9960177452529025e-02  9.9950350998609966e-02  9.9969026783802109e-02  9.9933442092152061e-02  1.0000000000000003e-01  1.0000554329267880e-01  1.0000000000000003e-01  1.0000373302098542e-01  1.0000632187179802e-01  1.0000632807040842e-01  1.0000632454922344e-01  1.0000849787723631e-01  1.0000783137653885e-01  1.0000713929867716e-01  1.0000979318112406e-01  1.0000855872027846e-01  1.0000806423090473e-01  1.0001348333981837e-01  1.0001098735240127e-01  1.0001548063368890e-01  1.0002115857439672e-01  1.0001900088451059e-01  1.0001829805098983e-01  1.0002438977747655e-01  1.0001918568133446e-01  1.0001954690230337e-01  1.0002398204752805e-01  1.0002026787812587e-01  1.0001571419526331e-01  1.0002746733402061e-01  1.0000865798871811e-01  1.0003042391902016e-01  9.9996246542243691e-02  1.0005695077301183e-01  9.9948525221757636e-02  1.0014834540601304e-01  1.0008549799585016e-01  9.9636558503723105e-02  9.9897850613538994e-02  9.9997666965314563e-02  9.9919612065798163e-02  9.9998269557582897e-02  9.9963655446588237e-02  9.9968930244428739e-02  9.9969752064900413e-02  9.9969440145684485e-02  9.9963175362852943e-02  9.9968496604509544e-02  9.9966094270135905e-02  9.9964869539567916e-02  9.9967151763550546e-02  9.9967049413339809e-02  9.9966409986167362e-02  9.9968157466283944e-02  9.9968293808329209e-02  9.9967911413883739e-02  9.9969232119334964e-02  9.9968873985566323e-02  9.9969541658629618e-02  9.9968844245183097e-02  9.9971212766720496e-02  9.9967068139575940e-02  9.9974570575515440e-02  9.9962307940070064e-02  9.9982582338265208e-02  9.9949686194528306e-02  1.0000000000000003e-01  1.0000630286816790e-01  1.0000000000000003e-01  1.0000428456007410e-01  1.0000621475528849e-01  1.0000562904073447e-01  1.0000853174326955e-01  1.0000775944023682e-01  1.0000756793200551e-01  1.0001023901692928e-01  1.0000875563005245e-01  1.0000777883963673e-01  1.0001242138715449e-01  1.0001027960455296e-01  1.0001092962663248e-01  1.0001561815455584e-01  1.0001812242185051e-01  1.0001828637632827e-01  1.0002600292844729e-01  1.0002085860105464e-01  1.0001987999835522e-01  1.0002778066794875e-01  1.0001958749094994e-01  1.0002085574929420e-01  1.0002399207449060e-01  1.0002251158895727e-01  1.0000969628581262e-01  1.0003660191929335e-01  9.9990458902840237e-02  1.0006366699255140e-01  9.9937248964099959e-02  1.0017595620130963e-01  1.0014081248228064e-01  9.9580985535590347e-02  9.9878928860320071e-02  9.9973774681390293e-02  9.9941061093279118e-02  9.9957449301024529e-02  9.9962930783483839e-02  9.9963731580750878e-02  9.9968352899079863e-02  9.9954087031527389e-02  9.9964478699233500e-02  9.9959509278277459e-02  9.9957247341139296e-02  9.9960321494494742e-02  9.9959837167567039e-02  9.9958135547985105e-02  9.9960927363953844e-02  9.9960809054062932e-02  9.9960379895294077e-02  9.9961903555150375e-02  9.9962224296488447e-02  9.9961551150349562e-02  9.9963206881404601e-02  9.9962074388086741e-02  9.9963902554235484e-02  9.9961093177502583e-02  9.9966834750684880e-02  9.9956395634788878e-02  9.9975406108972098e-02  9.9941511560363808e-02  1.0000000000000003e-01  1.0000722129138072e-01  1.0000000000000003e-01  1.0000415689356477e-01  1.0000593198938258e-01  1.0000699626292939e-01  1.0000726672449328e-01  1.0000689458284237e-01  1.0000969664929542e-01  1.0000863673073689e-01  1.0000717034166717e-01  1.0001115103864940e-01  1.0000919245133646e-01  1.0000827054936449e-01  1.0001388553884973e-01  1.0001172692416209e-01  1.0000878444868955e-01  1.0002345187198534e-01  1.0001838573743052e-01  1.0001849830954315e-01  1.0002675347776964e-01  1.0001931336832051e-01  1.0001653724463475e-01  1.0002813493719910e-01  1.0001361699867184e-01  1.0001983644519884e-01  1.0001433465217047e-01  1.0002861398936227e-01  9.9983639383927791e-02  1.0007255532914959e-01  9.9915646998509980e-02  1.0020000663885313e-01  1.0015399924504942e-01  9.9579188347104511e-02  9.9855589790409219e-02  1.0001830666604719e-01  9.9943312724944958e-02  9.9955665465871521e-02  9.9951599695848894e-02  9.9987797937454423e-02  9.9953779578114438e-02  9.9977097307570498e-02  9.9965683480462586e-02  9.9963279018851700e-02  9.9966856396678419e-02  9.9966139066635054e-02  9.9962525762870041e-02  9.9966511554293105e-02  9.9965776722362690e-02  9.9964685440910778e-02  9.9967180300828989e-02  9.9967090210830181e-02  9.9966718532801105e-02  9.9967791616548451e-02  9.9968447778593233e-02  9.9966882756831368e-02  9.9969780375014236e-02  9.9965974737697069e-02  9.9972070977650776e-02  9.9961617634253652e-02  9.9980004763204455e-02  9.9948132045320479e-02  1.0000000000000003e-01  1.0000773500656668e-01  1.0000000000000003e-01  1.0000392519694033e-01  1.0000736353167219e-01  1.0000626884696530e-01  1.0000653302246579e-01  1.0000888186020038e-01  1.0000868102865071e-01  1.0000721037609385e-01  1.0001122156647048e-01  1.0000913352327645e-01  1.0000768658238079e-01  1.0001351929418660e-01  1.0001062945233159e-01  1.0000816322640045e-01  1.0001725894075104e-01  1.0001014278647306e-01  1.0001617202360627e-01  1.0002674093404490e-01  1.0001972558477452e-01  1.0001844817428267e-01  1.0002773017810448e-01  1.0001894874678524e-01  1.0001313292435667e-01  1.0003087609570396e-01  1.0000476673912252e-01  1.0002885116212266e-01  9.9990377447283924e-02  1.0006946012312024e-01  9.9904755411252266e-02  1.0022865533182315e-01  1.0015173736395812e-01  9.9550840592637552e-02  9.9874956615889132e-02  1.0001859902669966e-01  9.9926602628376382e-02  9.9975765188560425e-02  9.9955431176122475e-02  9.9942314465340798e-02  9.9982142768272081e-02  9.9963566990022318e-02  9.9964589873281995e-02  9.9965579144423278e-02  9.9966433752522399e-02  9.9959929645833209e-02  9.9965485092366330e-02  9.9963796591097220e-02  9.9962019082818668e-02  9.9964793620043291e-02  9.9964910297916987e-02  9.9963870110174033e-02  9.9966142020277787e-02  9.9965781561082656e-02  9.9965938362788762e-02  9.9965912186219613e-02  9.9967700958578876e-02  9.9964119723328485e-02  9.9970289961294520e-02  9.9960005391193721e-02  9.9977777445451652e-02  9.9946256764712207e-02  1.0000000000000003e-01  1.0000809880034250e-01  1.0000000000000003e-01  1.0000468169177688e-01  1.0000709584033748e-01  1.0000564049077657e-01  1.0000837134047520e-01  1.0000766684543209e-01  1.0000691925561847e-01  1.0001065186073606e-01  1.0000891362256574e-01  1.0000744948408480e-01  1.0001279614880278e-01  1.0001009960919043e-01  1.0000803653944818e-01  1.0001554986525957e-01  1.0000967219469128e-01  1.0000912726816767e-01  1.0001626647258177e-01  1.0001775099006113e-01  1.0001629839987194e-01  1.0003000997709117e-01  1.0001735897600943e-01  1.0001750840023371e-01  1.0002550713537746e-01  1.0001933755284026e-01  1.0000257428573328e-01  1.0004142716130376e-01  9.9977291350009434e-02  1.0007278980250549e-01  9.9902154290467116e-02  1.0024273509646127e-01  1.0018486437264268e-01  9.9518626726321099e-02  9.9867933898504596e-02  1.0000986251406681e-01  9.9949866614365793e-02  9.9983567766535109e-02  9.9944316249892445e-02  9.9966527177720130e-02  9.9953247442360851e-02  9.9974514632208425e-02  9.9965946199007769e-02  9.9974595176282335e-02  9.9960972078742091e-02  9.9970124937666827e-02  9.9966783041253782e-02  9.9964125168510748e-02  9.9967374983073648e-02  9.9967146999730361e-02  9.9965263856773082e-02  9.9968025272426236e-02  9.9968223456170097e-02  9.9967134252372997e-02  9.9969375530780974e-02  9.9968215121356771e-02  9.9969620674054821e-02  9.9967070612854925e-02  9.9972521538507095e-02  9.9962344770905306e-02  9.9979900010659234e-02  9.9949447596849997e-02  1.0000000000000003e-01  1.0000877649314099e-01  1.0000000000000003e-01  1.0000450562041460e-01  1.0000673272811142e-01  1.0000712582217067e-01  1.0000762702673442e-01  1.0000631321325029e-01  1.0000975153459966e-01  1.0000857307303777e-01  1.0000725223344531e-01  1.0001185215307767e-01  1.0001020285088218e-01  1.0000794798602938e-01  1.0001495674209199e-01  1.0001058972174275e-01  1.0000766702644329e-01  1.0001624776094309e-01  1.0001081536756548e-01  1.0000528290976232e-01  1.0002744386981698e-01  1.0001827166368543e-01  1.0001606732116469e-01  1.0003232184045577e-01  1.0001321996817859e-01  1.0001785759267810e-01  1.0001860982454740e-01  1.0002873363808272e-01  9.9974866890351968e-02  1.0008937598360540e-01  9.9884263924493816e-02  1.0025962053735599e-01  1.0019312793504845e-01  9.9519629338889762e-02  9.9850744288950535e-02  1.0003196513401105e-01  9.9948725454173840e-02  9.9971354254137335e-02  9.9964680521980251e-02  9.9967579525058345e-02  9.9948771833201083e-02  9.9955971618097994e-02  9.9982137905759799e-02  9.9957868244572617e-02  9.9974782436060783e-02  9.9967186665850555e-02  9.9964685849823556e-02  9.9967862933929272e-02  9.9967894600765050e-02  9.9964347861721245e-02  9.9968062032732313e-02  9.9967488282163397e-02  9.9966528199864582e-02  9.9968486723470446e-02  9.9969112701495791e-02  9.9967390581452598e-02  9.9970362286646991e-02  9.9967071767918941e-02  9.9971995774549433e-02  9.9962932269849938e-02  9.9979403598880259e-02  9.9949743318493253e-02  1.0000000000000003e-01  1.0000902655623896e-01  1.0000000000000003e-01  1.0000425007292701e-01  1.0000808347223773e-01  1.0000661261414637e-01  1.0000671511862737e-01  1.0000881512738366e-01  1.0000833711207079e-01  1.0000681581179621e-01  1.0001094535908824e-01  1.0000967794240713e-01  1.0000759712270106e-01  1.0001444394990043e-01  1.0001122871156845e-01  1.0000783393955598e-01  1.0001635613607077e-01  1.0001056252299917e-01  1.0000532039078723e-01  1.0001961899259816e-01  1.0000649007074501e-01  1.0001457409352502e-01  1.0002992197864391e-01  1.0001917657754356e-01  1.0001187478335442e-01  1.0003613148208898e-01  1.0000314223213211e-01  1.0002732947141602e-01  9.9992321766144518e-02  1.0007710429411633e-01  9.9877941686826455e-02  1.0028657856824907e-01  1.0018966976427818e-01  9.9511527857773840e-02  9.9863757328090788e-02  1.0003507553474392e-01  9.9936278166190939e-02  9.9990549574878601e-02  9.9967196875269893e-02  9.9962041316515052e-02  9.9963193591558377e-02  9.9964050282086381e-02  9.9946794471824474e-02  9.9983422426051641e-02  9.9966944120791060e-02  9.9969605453375715e-02  9.9969286327690046e-02  9.9971160623674893e-02  9.9965432138859653e-02  9.9970097614087192e-02  9.9969100764229962e-02  9.9967095737729134e-02  9.9969739324478626e-02  9.9969576270906274e-02  9.9969192841870919e-02  9.9969930561547654e-02  9.9971572597170918e-02  9.9968031931927520e-02  9.9973844426047259e-02  9.9964490283316623e-02  9.9980312515364211e-02  9.9951984705902649e-02  1.0000000000000003e-01  1.0000919557457952e-01  1.0000000000000003e-01  1.0000491493044597e-01  1.0000786830973690e-01  1.0000593896247825e-01  1.0000866329701907e-01  1.0000780965576998e-01  1.0000692568205599e-01  1.0001007132269345e-01  1.0000902224974845e-01  1.0000704447082329e-01  1.0001315761605983e-01  1.0001100113474912e-01  1.0000851810662860e-01  1.0001624982029460e-01  1.0001120915448559e-01  1.0000681706555861e-01  1.0001791716170960e-01  1.0000827691678482e-01  1.0000583719324969e-01  1.0001806991892744e-01  1.0001565364542259e-01  1.0001509592311449e-01  1.0003186091487001e-01  1.0001913208742312e-01  1.0000244898050621e-01  1.0004855209875790e-01  9.9975909153414880e-02  1.0007501556235993e-01  9.9895870954947091e-02  1.0027936477477012e-01  1.0020595954847439e-01  9.9499896911937613e-02  9.9863191496239651e-02  1.0002619466822206e-01  9.9950063346250104e-02  9.9992134068446745e-02  9.9956785796805933e-02  9.9976386231552541e-02  9.9968860375932264e-02  9.9955889411473056e-02  9.9962870169333376e-02  9.9957491129307421e-02  9.9975520037667118e-02  9.9968076979033690e-02  9.9976039729755703e-02  9.9965117775931506e-02  9.9972317379150383e-02  9.9970131536038370e-02  9.9967740085545487e-02  9.9970258489107913e-02  9.9970382773068633e-02  9.9968220694632001e-02  9.9971139546372365e-02  9.9970234584265724e-02  9.9971132398139553e-02  9.9969453715052309e-02  9.9974195814551817e-02  9.9965018934880467e-02  9.9980757632467498e-02  9.9953164756193383e-02  1.0000000000000003e-01  1.0000968509218444e-01  1.0000000000000003e-01  1.0000480872309674e-01  1.0000749089522729e-01  1.0000739602094751e-01  1.0000813869882992e-01  1.0000664358404181e-01  1.0000971285057043e-01  1.0000877253674123e-01  1.0000690839940604e-01  1.0001158069721713e-01  1.0001037234204069e-01  1.0000824885713444e-01  1.0001537669509407e-01  1.0001240988007389e-01  1.0000784448675820e-01  1.0001768661737277e-01  1.0001059180135632e-01  1.0000539517919833e-01  1.0001806019306798e-01  1.0000948639138794e-01  9.9999368729372928e-02  1.0003348574189484e-01  1.0001300791733193e-01  1.0001751371946990e-01  1.0002724600625011e-01  1.0002757031278880e-01  9.9974939826124681e-02  1.0009858120234792e-01  9.9879376842757966e-02  1.0027750943918147e-01  1.0020979280436600e-01  9.9515372346267922e-02  9.9853742691555197e-02  1.0003928509360345e-01  9.9951746252677554e-02  9.9982502392121100e-02  9.9969369756300039e-02  9.9979680849955732e-02  9.9960578779862988e-02  9.9971214097355793e-02  9.9965744466419093e-02  9.9956495920169558e-02  9.9958488094925260e-02  9.9983554254593543e-02  9.9963456647988364e-02  9.9977193102073425e-02  9.9971446824099988e-02  9.9969523451069880e-02  9.9971869891179621e-02  9.9972080309567543e-02  9.9969170757793602e-02  9.9971633553293637e-02  9.9971795419089987e-02  9.9969887408609098e-02  9.9973136593891912e-02  9.9970436556054865e-02  9.9974526946221262e-02  9.9966855300018101e-02  9.9981428824727728e-02  9.9954967488648960e-02  1.0000000000000003e-01  1.0000988532602167e-01  1.0000000000000003e-01  1.0000462424885351e-01  1.0000873194587979e-01  1.0000710560051022e-01  1.0000743595122427e-01  1.0000904517577719e-01  1.0000888914855423e-01  1.0000721857522074e-01  1.0001092910807810e-01  1.0000979181624825e-01  1.0000785403118884e-01  1.0001406576282271e-01  1.0001250052981221e-01  1.0000867944579649e-01  1.0001759814226813e-01  1.0001281695402268e-01  1.0000658100107883e-01  1.0001909504030929e-01  1.0001015624370055e-01  1.0000213858937822e-01  1.0002243833946245e-01  1.0000407393543001e-01  1.0000896122354727e-01  1