<?xml version="1.0"?>
<VTKFile type="UnstructuredGrid"  version="0.1"  >
<UnstructuredGrid>
<Piece  NumberOfPoints="1933" NumberOfCells="3640">
<Points>
<DataArray  type="Float64"  NumberOfComponents="3"  format="ascii">-0.475268532222278 -0.002102056266269264 0  4.524731489253312 -0.002036457333430042 0  4.524633052481057 7.497963576061705 0  -0.4753669640120989 7.497897988110486 0  9.524731535566126 -0.001970872499757478 0  9.52463307248326 7.49802915165554 0  14.52473161427318 -0.001905263632488739 0  14.52463309235713 7.498094753794345 0  19.52473172279981 -0.001839594563437876 0  19.52463310581067 7.498160418100708 0  24.52473185197184 -0.001773832613872283 0  24.52463310369034 7.498226176526871 0  29.52473198820161 -0.001707948311438378 0  29.52463307393633 7.498292057932993 0  34.52473211461219 -0.001641914530308476 0  34.52463300153719 7.498358088979076 0  39.52473221141847 -0.001575705536022213 0  39.52463286837836 7.498424295043548 0  44.52473225579827 -0.001509296105128028 0  44.52463265293361 7.498490701057672 0  49.52473222139605 -0.001442660762346827 0  49.52463232977518 7.498557332227296 0  54.52473207753045 -0.001375773128076521 0  54.52463186888639 7.498624214649248 0  59.52473178812413 -0.001308605351368656 0  59.52463123475562 7.498691375842722 0  64.52473131033248 -0.001241127598270979 0  64.52463038521798 7.498758845219521 0  69.52473059280669 -0.001173307563879277 0  69.52462926999439 7.498826654515841 0  74.52472957348385 -0.001105109974521489 0  74.52462782885708 7.498894838205568 0  79.52472817673434 -0.001036496042168638 0  79.52462598931922 7.498963433909882 0  84.52472630960978 -0.0009674228253930206 0  84.52462366371999 7.499032482808349 0  89.52472385679265 -0.000897842440150839 0  89.5246207455321 7.499102030034749 0  94.5247206736225 -0.0008277010522585401 0  94.52461710469133 7.499172124990994 0  99.52471657618773 -0.0007569375821221113 0  99.52461258173588 7.499242821400151 0  104.5247113268176 -0.0006854820913734699 0  104.5246069806101 7.499314176671168 0  109.5247046121716 -0.0006132539808233409 0  109.5246000602489 7.499386249608804 0  114.5246960091179 -0.0005401606137679217 0  114.5245915257806 7.499459094350731 0  119.5246849300623 -0.0004660982969165721 0  119.5245810219018 7.499532745983789 0  124.5246705331253 -0.0003909609617498339 0  124.5245681348399 7.499607188228618 0  129.5246515715811 -0.000314670518220622 0  129.5245524175332 7.499682283174435 0  134.5246261379694 -0.0002372645764237247 0  134.5245334694375 7.499757622023841 0  139.5245912265472 -0.0001591323966125951 0  139.5245111350657 7.499832214446737 0  144.5245419878548 -8.163305095285107e-05 0  144.5244859449749 7.499903856370793 0  149.524470480458 -8.713986806461612e-06 0  149.5244600192574 7.499967882584262 0  159.5244717418524 5.27004707063938e-19 0  164.5245137646624 2.638426622366657e-05 0  164.5244796436736 7.500025720728278 0  159.5244618237249 7.499998149951226 0  169.5245488614351 6.559595147303832e-05 0  169.524497282735 7.500065605732649 0  174.5245778746184 0.0001131368417287206 0  174.5245137998154 7.500113408011063 0  179.5246018112921 0.0001661835410835329 0  179.5245287855923 7.500166520088581 0  184.5246215977708 0.000222957941003281 0  184.5245421187591 7.500223282291304 0  189.5246380083686 0.0002823119487242082 0  189.5245538338113 7.500282599204332 0  194.524651666405 0.0003434820234190324 0  194.5245640425381 7.500343728359949 0  199.5246630675252 0.0004059456151787287 0  199.5245728885804 7.500406154636872 0  204.5246726057596 0.0004693357827039433 0  204.5245805224712 7.500469513017478 0  209.5246805960492 0.0005333890820136669 0  209.5245870888481 7.500533539945765 0  214.5246872920619 0.0005979128223137515 0  214.5245927205911 7.500598041994921 0  219.5246928998064 0.0006627638671814016 0  219.5245975367488 7.50066287520743 0  224.5246975879267 0.0007278345040254449 0  224.5246016424358 7.500727931145724 0  229.5247014955068 0.0007930427641456246 0  229.5246051296912 7.500793127254133 0  234.5247047380421 0.0008583256268003442 0  234.5246080787466 7.500858400055705 0  239.5247074120708 0.0009236341469427611 0  239.5246105594176 7.500923700259345 0  244.5247095988247 0.0009889299041165429 0  244.524612632473 7.500988989187848 0  249.5247113671557 0.001054182387041316 0  249.5246143509187 7.501054236145182 0  254.5247127759327 0.001119367064489769 0  254.52461576117 7.501119416473817 0  259.5247138760425 0.001184463982312251 0  259.524616904106 7.501184510140546 0  264.5247147121024 0.001249456788954479 0  264.5246178160114 7.501249500750499 0  269.5247153239523 0.001314332140018033 0  269.5246185294066 7.501314374935242 0  274.5247157479841 0.001379079474724156 0  274.5246190737646 7.501379122099596 0  279.5247160183225 0.001443691199895898 0  279.5246194761114 7.501443734547316 0  284.5247161678398 0.001508163364951376 0  284.5246197614843 7.501508208040817 0  289.5247162289106 0.001572496966120278 0  289.5246199532352 7.501572542883177 0  294.5247162336864 0.001636700070930503 0  294.5246200731607 7.501636745634936 0  299.5247162134374 0.001700790958911623 0  299.5246201414864 7.501700831577984 0  304.5247161960525 0.001764802247266475 0  304.5246201768682 7.50176482800288 0  309.5247161999533 0.001828784778533763 0  309.5246201968706 7.501828778438014 0  4.524534636743179 14.99796363252894 0  -0.4754653747785998 14.99789809522419 0  9.524534637191545 14.99802917004134 0  14.52453461904238 14.99809474525105 0  19.52453457397698 14.99816039018978 0  24.524534492634 14.99822613351926 0  29.52453436411329 14.99829200156313 0  34.52453417551335 14.99835801909644 0  39.52453391152127 14.99842421005034 0  44.52453355401359 14.99849059814414 0  49.52453308162621 14.99855720743786 0  54.52453246926054 14.99862406280267 0  59.52453168750338 14.99869119031098 0  64.52453070194697 14.99875861754742 0  69.52452947240262 14.99882637383591 0  74.52452795201411 14.99889449036485 0  79.52452608629498 14.99896300016946 0  84.52452381215336 14.99903193788886 0  89.52452105703314 14.99910133914247 0  94.52451773842328 14.99917123923895 0  99.52451376419899 14.99924167069209 0  104.5245090346189 14.9993126585903 0  109.5245034473981 14.99938421209983 0  114.5244969082092 14.99945630903663 0  119.5244893503187 14.99952886814078 0  124.5244807687757 14.99960169993956 0  129.5244712760102 14.99967442151571 0  134.5244611847783 14.9997463138763 0  139.5244511154598 14.99981609840528 0  144.5244420945926 14.99988163263201 0  149.5244355341773 14.99993964895268 0  164.5244436172884 15.00002459041179 0  159.5244379100694 14.9999895616732 0  169.5244497592053 15.00006694774835 0  174.5244564229419 15.0001154240588 0  179.5244633143764 15.00016854695366 0  184.5244701326108 15.00022509677478 0  189.524476655973 15.00028415075442 0  194.5244827458364 15.00034503044989 0  199.524488329189 15.00040724049287 0  204.5244933791681 15.00047041829963 0  209.5244978990515 15.00053429669242 0  214.5245019105287 15.00059867712531 0  219.5245054456237 15.00066341073256 0  224.5245085413609 15.00072838490795 0  229.5245112363698 15.00079351373436 0  234.524513568809 15.00085873108989 0  239.5245155751653 15.00092398562726 0  244.5245172896225 15.00098923708111 0  249.5245187437968 15.00105445353369 0  254.5245199666959 15.0011196093885 0  259.5245209848142 15.00118468388413 0  264.5245218222977 15.00124966003762 0  269.5245225011438 15.00131452395 0  274.5245230414045 15.00137926443742 0  279.5245234613835 15.00144387297629 0  284.5245237778327 15.00150834396656 0  289.5245240061741 15.00157267532335 0  294.5245241608302 15.00163686939551 0  299.5245242558062 15.00170093417684 0  304.5245243058008 15.00176488473063 0  309.5245243283241 15.0018287447743 0  4.524436362572806 22.49796369403232 0  -0.4755636454777714 22.49789825705297 0  9.524436353749685 22.49802915994358 0  14.52443631784507 22.49809468247158 0  19.52443624607045 22.49816028650578 0  24.52443612994325 22.49822599515716 0  29.52443596055818 22.49829183042565 0  34.52443572803956 22.49835781366991 0  39.52443542112125 22.49842396599402 0  44.52443502681835 22.49849030858564 0  49.52443453016524 22.49855686300425 0  54.5244339140012 22.49862365140417 0  59.52443315880169 22.49869069667214 0  64.52443224256902 22.49875802245283 0  69.52443114081679 22.49882565302029 0  74.52442982671299 22.49889361293245 0  79.52442827148479 22.49896192636455 0  84.52442644524821 22.49903061595606 0  89.52442431851148 22.4990997009034 0  94.52442186472071 22.4991691938701 0  99.52441906438281 22.49923909603231 0  104.5244159115078 22.49930938918613 0  109.5244124233425 22.49938002326086 0  114.5244086545286 22.49945089676816 0  119.5244047167101 22.4995218267179 0  124.5244008037965 22.49959250366292 0  129.5243972207314 22.49966242786092 0  134.5243944083786 22.49973082691779 0  139.5243929475202 22.4997965705633 0  144.5243935110944 22.49985813916624 0  149.5243967245405 22.4999137958063 0  164.5243974259812 22.50002225583275 0  159.5243985157514 22.49998052150962 0  169.5243969094008 22.50006811690035 0  174.5243971741737 22.50011810745451 0  179.5243981973429 22.50017169875209 0  184.5243998260251 22.50022821446462 0  189.5244018729854 22.50028701791218 0  194.5244041655002 22.50034757375314 0  199.5244065634024 22.50040945440974 0  204.5244089615668 22.50047232672198 0  209.5244112858547 22.50053593402859 0  214.5244134870902 22.50060007940549 0  219.524415535126 22.5006646117528 0  224.5244174137757 22.50072941483964 0  229.5244191167826 22.50079439889012 0  234.5244206447477 22.5008594941916 0  239.5244220028503 22.5009246462577 0  244.524423199192 22.50098981216889 0  249.5244242436105 22.50105495780343 0  254.5244251468422 22.50112005574515 0  259.5244259199361 22.50118508371395 0  264.5244265738517 22.50125002340711 0  269.5244271191884 22.50131485967264 0  274.5244275660199 22.50137957995723 0  279.5244279238182 22.50144417398338 0  284.5244282014831 22.50150863361152 0  289.5244284075144 22.50157295282817 0  294.5244285504072 22.50163712776689 0  299.5244286
[...]
<PointData  Scalars="p"> 
<DataArray  type="Float64"  Name="p"  format="ascii">1.0000000000000001e-01  1.0000000000000003e-01  9.9997878472898233e-02  1.0000000000000003e-01  1.0000000000000003e-01  9.9998660624707497e-02  1.0000000000000003e-01  9.9997972905327470e-02  1.0000000000000003e-01  9.9998123261824237e-02  1.0000000000000003e-01  9.9997720326910469e-02  1.0000000000000003e-01  9.9996246445581569e-02  1.0000000000000003e-01  9.9996176608941806e-02  1.0000000000000003e-01  9.9995172022482079e-02  1.0000000000000003e-01  9.9993436172126179e-02  1.0000000000000003e-01  9.9994712155404952e-02  1.0000000000000003e-01  9.9987491504810885e-02  1.0000000000000003e-01  9.9986125270206810e-02  1.0000000000000003e-01  9.9982874325312290e-02  1.0000000000000003e-01  9.9980953122889127e-02  1.0000000000000003e-01  9.9974820478291940e-02  1.0000000000000003e-01  9.9972876643768832e-02  1.0000000000000003e-01  9.9967603399365459e-02  1.0000000000000003e-01  9.9959818178461585e-02  1.0000000000000003e-01  9.9956849929287953e-02  1.0000000000000003e-01  9.9947550796773171e-02  1.0000000000000003e-01  9.9941397924263875e-02  1.0000000000000003e-01  9.9930556464914694e-02  1.0000000000000003e-01  9.9929925758981838e-02  1.0000000000000003e-01  9.9905156072974538e-02  1.0000000000000003e-01  9.9922489391862421e-02  1.0000000000000003e-01  9.9873182329987958e-02  1.0000000000000003e-01  9.9922606088291857e-02  1.0000000000000003e-01  9.9831539960338792e-02  1.0000000000000003e-01  9.9934489894453873e-02  1.0000000000000001e-01  9.9765825020766460e-02  1.0000000000000001e-01  1.0000000000000003e-01  1.0013663166413038e-01  1.0034094300667676e-01  1.0000000000000003e-01  1.0001539679933967e-01  1.0000000000000003e-01  1.0010367029693164e-01  1.0000000000000003e-01  1.0005104186778166e-01  1.0000000000000003e-01  1.0006414513937850e-01  1.0000000000000003e-01  1.0004991029525249e-01  1.0000000000000003e-01  1.0005333115683823e-01  1.0000000000000003e-01  1.0004117433272078e-01  1.0000000000000003e-01  1.0004158309444026e-01  1.0000000000000003e-01  1.0003664444188166e-01  1.0000000000000003e-01  1.0003267367980707e-01  1.0000000000000003e-01  1.0002987055778417e-01  1.0000000000000003e-01  1.0002780761926461e-01  1.0000000000000003e-01  1.0002441458066665e-01  1.0000000000000003e-01  1.0002286826425690e-01  1.0000000000000003e-01  1.0002122732281554e-01  1.0000000000000003e-01  1.0001925338497940e-01  1.0000000000000003e-01  1.0001808770373080e-01  1.0000000000000003e-01  1.0001712914519181e-01  1.0000000000000003e-01  1.0001580875680138e-01  1.0000000000000003e-01  1.0001519483405559e-01  1.0000000000000003e-01  1.0001434931441483e-01  1.0000000000000003e-01  1.0001393467673883e-01  1.0000000000000003e-01  1.0001287826860224e-01  1.0000000000000003e-01  1.0001344164670879e-01  1.0000000000000003e-01  1.0001128753977517e-01  1.0000000000000003e-01  1.0001379725831479e-01  1.0000000000000003e-01  1.0000872406693526e-01  1.0000000000000003e-01  1.0001680421256851e-01  1.0000000000000001e-01  1.0000000000000003e-01  9.9995283438671284e-02  1.0000000000000003e-01  9.9996016358390977e-02  9.9995839724220659e-02  9.9995285116893928e-02  9.9993353777354202e-02  9.9993654876745566e-02  9.9993063674103794e-02  9.9990034769670152e-02  9.9991822158326402e-02  9.9990318510837811e-02  9.9989292611302780e-02  9.9980413503769502e-02  9.9985117308770854e-02  9.9976984078118267e-02  9.9981295636106110e-02  9.9976889978955694e-02  9.9970623743670814e-02  9.9971536727202784e-02  9.9967714065882021e-02  9.9957331824151355e-02  9.9961822269894460e-02  9.9950835390452936e-02  9.9950309598359988e-02  9.9938447481292644e-02  9.9954308419781257e-02  9.9908795157981165e-02  9.9980642585461257e-02  9.9851496077141180e-02  1.0004900225116102e-01  9.9763630262164379e-02  9.9835454765772089e-02  1.0048257325868885e-01  1.0017453477841912e-01  1.0001804732371274e-01  1.0004620450090607e-01  1.0003683751597908e-01  1.0005219255763255e-01  1.0002780844001488e-01  1.0003834210528467e-01  1.0003292387936474e-01  1.0002712744989618e-01  1.0002629542964420e-01  1.0002563129110058e-01  1.0002022188858180e-01  1.0001992924491565e-01  1.0001883652653008e-01  1.0001581255516695e-01  1.0001513057804806e-01  1.0001439269563447e-01  1.0001236352170575e-01  1.0001166749726398e-01  1.0001105940920790e-01  1.0000951253094803e-01  1.0000912088408005e-01  1.0000800496396460e-01  1.0000777974685592e-01  1.0000580627066298e-01  1.0000757609376835e-01  1.0000274680631699e-01  1.0000858583803561e-01  1.0000000000000003e-01  9.9992444258273500e-02  1.0000000000000003e-01  9.9995540759180421e-02  9.9993608479284443e-02  9.9991774161897404e-02  9.9991890494930513e-02  9.9991224378710886e-02  9.9986948202928402e-02  9.9988131773818364e-02  9.9987344384293630e-02  9.9983034556043932e-02  9.9981574199022219e-02  9.9987547232921692e-02  9.9963885699265634e-02  9.9975396234980224e-02  9.9969545667045218e-02  9.9961037063349786e-02  9.9964724867476290e-02  9.9958668512791934e-02  9.9945600965285861e-02  9.9948836807399799e-02  9.9942212681269113e-02  9.9923318487054769e-02  9.9935092637459269e-02  9.9911414300699414e-02  9.9921043963629524e-02  9.9888206274333036e-02  9.9939664168736578e-02  9.9820904692270659e-02  1.0003674417028935e-01  9.9632230656019366e-02  9.9924382036458051e-02  1.0038645657575757e-01  1.0022888399042695e-01  1.0004024156434370e-01  1.0006170352793767e-01  1.0009684617630667e-01  1.0003565811443069e-01  1.0006997479895205e-01  1.0005717745396579e-01  1.0004600642708426e-01  1.0004617115188255e-01  1.0004611879577820e-01  1.0003509488705239e-01  1.0003581815839124e-01  1.0003389707235015e-01  1.0002783357305735e-01  1.0002708388805139e-01  1.0002610650657309e-01  1.0002204336707587e-01  1.0002130671229559e-01  1.0002027794221885e-01  1.0001771943653372e-01  1.0001669036523682e-01  1.0001596808439200e-01  1.0001374110652701e-01  1.0001352905645390e-01  1.0001140453259387e-01  1.0001214437996765e-01  1.0000765919615000e-01  1.0001360671270641e-01  1.0000000000000003e-01  9.9990585415785080e-02  1.0000000000000003e-01  9.9994267244007118e-02  9.9989784204133791e-02  9.9990685443930194e-02  9.9989811670783274e-02  9.9985121940654259e-02  9.9986221141588560e-02  9.9985120315276857e-02  9.9979284663204132e-02  9.9981499153679182e-02  9.9981156202699303e-02  9.9968230279708900e-02  9.9983606533473407e-02  9.9960853436475400e-02  9.9960316304886818e-02  9.9962966548610574e-02  9.9961633294712221e-02  9.9945859218464911e-02  9.9954649319308961e-02  9.9944578081308119e-02  9.9931499576086838e-02  9.9933889561001576e-02  9.9932579754419409e-02  9.9902081268889956e-02  9.9936955681010756e-02  9.9878474625359162e-02  9.9953426493914740e-02  9.9815132922240951e-02  1.0006103991226334e-01  9.9613266529751610e-02  9.9943093141373784e-02  1.0049439663666948e-01  1.0013820295197409e-01  1.0002492980222429e-01  1.0017843667992461e-01  9.9994955811975872e-02  1.0009022585248263e-01  1.0005916486431495e-01  1.0005237521969688e-01  1.0005066512355744e-01  1.0005574946909190e-01  1.0003778850221186e-01  1.0004175019737567e-01  1.0003957590501159e-01  1.0003133124905449e-01  1.0003074005423476e-01  1.0002995690353908e-01  1.0002422552751826e-01  1.0002370578792753e-01  1.0002272312295626e-01  1.0001904419196786e-01  1.0001820748892667e-01  1.0001698644776666e-01  1.0001471825352644e-01  1.0001316734757246e-01  1.0001278256152148e-01  1.0000960125672406e-01  1.0001084694174169e-01  1.0000571240154577e-01  1.0001084679632014e-01  1.0000000000000003e-01  9.9988687358142606e-02  1.0000000000000003e-01  9.9991929162556920e-02  9.9989015911912199e-02  9.9989438539835745e-02  9.9984262125903223e-02  9.9985496485289149e-02  9.9983982403423516e-02  9.9977302452864361e-02  9.9979695798507337e-02  9.9979014022414561e-02  9.9967655677903583e-02  9.9974713585116157e-02  9.9967285976190257e-02  9.9969409481215021e-02  9.9951112500045750e-02  9.9959081208542439e-02  9.9940617399008558e-02  9.9952743250537435e-02  9.9944664949198250e-02  9.9925522712868517e-02  9.9937477407493730e-02  9.9922834248979076e-02  9.9910269639780475e-02  9.9907407175128415e-02  9.9919911632551456e-02  9.9860123883582938e-02  9.9951765198456347e-02  9.9790250575700248e-02  1.0006739704407150e-01  9.9555848944413661e-02  9.9851042170200272e-02  1.0054858989755919e-01  1.0019600062939782e-01  1.0008517958451753e-01  1.0007986008550587e-01  1.0011087049324370e-01  1.0007198110396801e-01  1.0006612817162723e-01  1.0005880412976055e-01  1.0007803714377501e-01  1.0004555381171129e-01  1.0005574631514559e-01  1.0005260026648884e-01  1.0004060554511812e-01  1.0004073967144206e-01  1.0004054651351513e-01  1.0003144143672935e-01  1.0003130458349657e-01  1.0003032997412738e-01  1.0002497198057034e-01  1.0002406302359514e-01  1.0002314280693962e-01  1.0001930930070368e-01  1.0001839628414046e-01  1.0001671229937549e-01  1.0001481905606320e-01  1.0001233321136341e-01  1.0001300249921272e-01  1.0000751381193036e-01  1.0001280564322468e-01  1.0000000000000003e-01  9.9986463789695099e-02  1.0000000000000003e-01  9.9991593871651893e-02  9.9987654262561357e-02  9.9984971349673074e-02  9.9984533187060881e-02  9.9983780400939928e-02  9.9977012133297571e-02  9.9978496126415253e-02  9.9977807223121162e-02  9.9968168079250644e-02  9.9971760355717573e-02  9.9968502494545530e-02  9.9959325062959264e-02  9.9960337947541750e-02  9.9974891810236027e-02  9.9927500604017158e-02  9.9953503555561762e-02  9.9942799604985866e-02  9.9927179521913684e-02  9.9938004579130865e-02  9.9931674577112814e-02  9.9902475666494558e-02  9.9926540089979560e-02  9.9899031198184690e-02  9.9903194041339363e-02  9.9871174863574205e-02  9.9947120695090416e-02  9.9771055849535717e-02  1.0009247595616941e-01  9.9511871442786337e-02  9.9885404424696789e-02  1.0050785536018966e-01  1.0024442181777762e-01  1.0000216636273639e-01  1.0012177604959348e-01  1.0009898285453026e-01  1.0010671790054479e-01  1.0003911247733840e-01  1.0010475246562758e-01  1.0004039272648825e-01  1.0006871070925176e-01  1.0006160206707185e-01  1.0004673980982892e-01  1.0004694271698081e-01  1.0004895386168805e-01  1.0003579519039296e-01  1.0003692697273329e-01  1.0003593692776375e-01  1.0002823977045580e-01  1.0002774426219242e-01  1.0002704859917153e-01  1.0002193178457623e-01  1.0002088719416517e-01  1.0001993062379551e-01  1.0001600149991664e-01  1.0001540458959282e-01  1.0001263696119383e-01  1.0001241259258069e-01  1.0000721890958371e-01  1.0001196523030714e-01  1.0000000000000003e-01  9.9985264858440490e-02  1.0000000000000003e-01  9.9990958793298224e-02  9.9983775946829223e-02  9.9985291856740308e-02  9.9983345841650834e-02  9.9977481527533454e-02  9.9978232732119116e-02  9.9977536015513138e-02  9.9968041619414763e-02  9.9971781013420288e-02  9.9969036931039021e-02  9.9956631562903533e-02  9.9961489984511154e-02  9.9963812449888056e-02  9.9939766613040992e-02  9.9970645115172133e-02  9.9930651828896211e-02  9.9925910526373507e-02  9.9936803707355401e-02  9.9931715162733747e-02  9.9907064509271906e-02  9.9921690280358313e-02  9.9916346574921600e-02  9.9875642130489065e-02  9.9919866300105492e-02  9.9860582965390757e-02  9.9925901146919988e-02  9.9780566995228873e-02  1.0008690820913474e-01  9.9475478919520854e-02  9.9908914035976237e-02  1.0055678644384401e-01  1.0018786027029392e-01  1.0004087932196096e-01  1.0015512388365715e-01  1.0005962645742177e-01  1.0008926592186816e-01  1.0013917934917203e-01  1.0003194409564252e-01  1.0008424885722571e-01  1.0006869003220792e-01  1.0005785522306129e-01  1.0005408209573148e-01  1.0006073105278487e-01  1.0004164176818400e-01  1.0004448729975389e-01  1.0004403767558832e-01  1.0003410530905499e-01  1.0003330267953982e-01  1.0003295221785247e-01  1.0002606891845807e-01  1.0002540219310015e-01  1.0002418695329128e-01  1.0001997808193161e-01  1.0001823689672401e-01  1.0001739868345495e-01  1.0001317754971879e-01  1.0001363750126373e-01  1.0000824435863755e-01  1.0001261895463069e-01  1.0000000000000003e-01  9.9984081058917207e-02  1.0000000000000003e-01  9.9988914508238394e-02  9.9983888509551005e-02  9.9984626458749407e-02  9.9978107166927760e-02  9.9979009028805993e-02  9.9977628266116322e-02  9.9969034373319818e-02  9.9971963040615036e-02  9.9970586294733224e-02  9.9957589139625047e-02  9.9962315816460576e-02  9.9961281791533060e-02  9.9943118802771513e-02  9.9958556723960548e-02  9.9945991357159286e-02  9.9949029732679814e-02  9.9922525783840116e-02  9.9935319961621777e-02  9.9902758071412051e-02  9.9930350819711022e-02  9.9913098249464816e-02  9.9891654204685723e-02  9.9900050444474045e-02  9.9912626694818096e-02  9.9835719524893979e-02  9.9948470904505010e-02  9.9769304541585710e-02  1.0007575279705704e-01  9.9473129630409288e-02  9.9850331541040019e-02  1.0060594975390977e-01  1.0022256224643079e-01  1.0007113145624720e-01  1.0010872163666824e-01  1.0007389295768079e-01  1.0012821338735516e-01  1.0006144054699119e-01  1.0011701527656169e-01  1.0005984315352554e-01  1.0007212860388266e-01  1.0005305756735791e-01  1.0007527870675395e-01  1.0004479119525736e-01  1.0005187362327495e-01  1.0005108820534990e-01  1.0003858300109157e-01  1.0003850436877681e-01  1.0003918370675072e-01  1.0002944724966283e-01  1.0002903564846535e-01  1.0002839619296114e-01  1.0002242067008744e-01  1.0002147421768043e-01  1.0001988159509549e-01  1.0001655073528665e-01  1.0001381506884710e-01  1.0001415867058984e-01  1.0000793347807715e-01  1.0001241416459944e-01  1.0000000000000003e-01  9.9982494151293469e-02  1.0000000000000003e-01  9.9989123656636425e-02  9.9983385946141048e-02  9.9980779792782540e-02  9.9979247778304317e-02  9.9978843674086271e-02  9.9970642540772717e-02  9.9972294875243783e-02  9.9971534943603849e-02  9.9960684203395281e-02  9.9963370108036576e-02  9.9962264774154250e-02  9.9945849199889789e-02  9.9955189349462417e-02  9.9951249245523011e-02  9.9936138779472869e-02  9.9940579966951978e-02  9.9962238405549519e-02  9.9889551732337614e-02  9.9930367784370172e-02  9.9917775318637894e-02  9.9886654071254563e-02  9.9919186554657813e-02  9.9893745458032701e-02  9.9881533512553050e-02  9.9866474595715293e-02  9.9939910400437135e-02  9.9743556002459169e-02  1.0009918910153645e-01  9.9458071290766642e-02  9.9858017018258652e-02  1.0058550991830119e-01  1.0025763757386572e-01  1.0002467276181040e-01  1.0013043087661477e-01  1.0011022815560021e-01  1.0008149063287507e-01  1.0008541299705001e-01  1.0010234009341788e-01  1.0009818574364356e-01  1.0004185493841337e-01  1.0009300645627996e-01  1.0004365004881724e-01  1.0006188712362631e-01  1.0005843972920465e-01  1.0004443809233285e-01  1.0004326185071308e-01  1.0004612776334081e-01  1.0003375697957641e-01  1.0003408428048131e-01  1.0003339405642121e-01  1.0002573003662539e-01  1.0002465949184428e-01  1.0002411924487031e-01  1.0001853782616764e-01  1.0001785082528894e-01  1.0001514410426963e-01  1.0001379113807121e-01  1.0000853096447312e-01  1.0001278138116099e-01  1.0000000000000003e-01  9.9981852266897611e-02  1.0000000000000003e-01  9.9988999634569947e-02  9.9980281929278894e-02  9.9981803964684576e-02  9.9979182305552763e-02  9.9973016936665923e-02  9.9973281756283755e-02  9.9972547119667854e-02  9.9962563161153442e-02  9.9965634491315250e-02  9.9964342495313677e-02  9.9949018527601713e-02  9.9955567617305174e-02  9.9954069091275827e-02  9.9935460536976758e-02  9.9944705587534058e-02  9.9949585620884046e-02  9.9911280030816160e-02  9.9961258732147409e-02  9.9902023866411435e-02  9.9893954728994774e-02  9.9911867163835252e-02  9.9913333133683224e-02  9.9859564821475580e-02  9.9919456460993331e-02  9.9859566710021233e-02  9.9906952265499824e-02  9.9777929902016380e-02  1.0009164777970449e-01  9.9431418376557140e-02  9.9877178692576618e-02  1.0061152292433928e-01  1.0022442794226413e-01  1.0003714561127856e-01  1.0016323449087000e-01  1.0006846729669162e-01  1.0009972083260202e-01  1.0010525848298313e-01  1.0007811500262198e-01  1.0007082651105666e-01  1.0012292444003504e-01  1.0003092308427214e-01  1.0007414814192070e-01  1.0005983932672517e-01  1.0005289677709302e-01  1.0004655966623138e-01  1.0005374961737626e-01  1.0003689520030147e-01  1.0003827864612691e-01  1.0003889762438554e-01  1.0002949738902542e-01  1.0002808412907185e-01  1.0002768842243390e-01  1.0002138040139071e-01  1.0001983330495444e-01  1.0001914867549151e-01  1.0001398926108600e-01  1.0001422785654004e-01  1.0000890174104167e-01  1.0001246626389135e-01  1.0000000000000003e-01  9.9981307138338610e-02  1.0000000000000003e-01  9.9987608964944977e-02  9.9981029784954836e-02  9.9982119082428711e-02  9.9975018554369063e-02  9.9975492808985836e-02  9.9973932235138299e-02  9.9965430075380599e-02  9.9967273916744828e-02  9.9966893045362978e-02  9.9953220791297981e-02  9.9957968111881110e-02  9.9956722224230118e-02  9.9938975811313807e-02  9.9947968126558900e-02  9.9947828804004504e-02  9.9920678710092636e-02  9.9944972830208659e-02  9.9928881934046768e-02  9.9928089103867163e-02  9.9899979743646464e-02  9.9911939070262634e-02  9.9871840895008876e-02  9.9903530588098810e-02  9.9909740885041273e-02  9.9823590782967847e-02  9.9947872375103081e-02  9.9775900898160574e-02  1.0005369229559689e-01  9.9471069008872370e-02  9.9835807668549478e-02  1.0066115471677664e-01  1.0023449620583848e-01  1.0006406345739666e-01  1.0012816072453730e-01  1.0007974263897416e-01  1.0012702964702085e-01  1.0007575693255810e-01  1.0008069346979659e-01  1.0010007439579988e-01  1.0006113892064750e-01  1.0009683431223898e-01  1.0005097738827422e-01  1.0006362371611519e-01  1.0004489405157162e-01  1.0006412675191742e-01  1.0003926184407197e-01  1.0004336569017613e-01  1.0004366969275638e-01  1.0003269556118992e-01  1.0003207657840230e-01  1.0003289769394390e-01  1.0002383353761636e-01  1.0002307031143996e-01  1.0002185991472057e-01  1.0001727537131938e-01  1.0001465747015763e-01  1.0001505856455130e-01  1.0000843051178393e-01  1.0001257461819939e-01  1.0000000000000003e-01  9.9980234185323480e-02  1.0000000000000003e-01  9.9988051080397516e-02  9.9981169410513410e-02  9.9979172467479754e-02  9.9976709152457849e-02  9.9976337382165326e-02  9.9968207355470920e-02  9.9969106782956521e-02  9.9968703172260184e-02  9.9957771949345589e-02  9.9960056025022517e-02  9.9959751787243645e-02  9.9943931468972541e-02  9.9950173696093936e-02  9.9950727226290906e-02  9.9927063646581729e-02  9.9942233782751910e-02  9.9937746901913413e-02  9.9915517317255301e-02  9.9924087102078160e-02  9.9956536347137026e-02  9.9849836751283283e-02  9.9920345197720487e-02  9.9888856381552718e-02  9.9869351489844840e-02  9.9875184108006429e-02  9.9941295083999918e-02  9.9735679850395054e-02  1.0009535016127254e-01  9.9475870278822529e-02  9.9819007366969692e-02  1.0065863528266997e-01  1.0026881959863518e-01  1.0003109954196691e-01  1.0013315749374505e-01  1.0010674443008416e-01  1.0009597303693156e-01  1.0008087217185622e-01  1.0010847914563480e-01  1.0006576306605063e-01  1.0007364953126752e-01  1.0007974866346106e-01  1.0008525444231574e-01  1.0003201414472489e-01  1.0007663876335895e-01  1.0003685465921408e-01  1.0005015855233211e-01  1.0004779718611723e-01  1.0003656974449941e-01  1.0003442850073105e-01  1.0003717122408312e-01  1.0002707813903162e-01  1.0002640063060840e-01  1.0002570382376405e-01  1.0001876068429663e-01  1.0001789478195576e-01  1.0001581005095936e-01  1.0001353863869514e-01  1.0000864832448719e-01  1.0001256013802634e-01  1.0000000000000003e-01  9.9980194354652691e-02  1.0000000000000003e-01  9.9988487774786167e-02  9.9979158042579175e-02  9.9980803792834874e-02  9.9977698531457049e-02  9.9972187100510645e-02  9.9971557548572842e-02  9.9970950146567497e-02  9.9961548181016921e-02  9.9963688008748552e-02  9.9962796226170186e-02  9.9948942365047366e-02  9.9953538007329354e-02  9.9954495302969501e-02  9.9934163802144968e-02  9.9943847854938567e-02  9.9944332325033816e-02  9.9917182858983461e-02  9.9932807214439492e-02  9.9940199789223041e-02  9.9887254139941276e-02  9.9955712113605932e-02  9.9885997716195205e-02  9