<?xml version="1.0"?>
<VTKFile type="UnstructuredGrid"  version="0.1"  >
<UnstructuredGrid>
<Piece  NumberOfPoints="1933" NumberOfCells="3640">
<Points>
<DataArray  type="Float64"  NumberOfComponents="3"  format="ascii">-0.2940062243255369 0.000809166181343241 0  4.705993779513111 0.0007774954584483392 0  4.706041311580396 7.500777521001769 0  -0.2939587052160777 7.500809168441933 0  9.705993778704071 0.0007457941502469561 0  9.706041346530128 7.500745829588536 0  14.70599378953386 0.0007140326993677814 0  14.70604141111844 7.500714072272049 0  19.70599383340735 0.0006821980088075402 0  19.7060415174668 7.500682239250771 0  24.70599393253446 0.0006502875764020067 0  24.70604167850667 7.500650329587475 0  29.70599410845904 0.0006183058825742712 0  29.70604190774124 7.500618348540468 0  34.70599438185067 0.000586262152347699 0  34.70604221907532 7.500586305735131 0  39.70599477285033 0.0005541690332433591 0  39.70604262679466 7.500554214038728 0  44.705995301648 0.0005220419079978795 0  44.70604314567424 7.500522088973208 0  49.70599598915233 0.0004898986662061104 0  49.70604379117499 7.50048994853999 0  54.70599685769875 0.000457759830574353 0  54.70604457969325 7.500457813376337 0  59.70599793178485 0.0004256489852435268 0  59.70604552883621 7.500425707202752 0  64.7059992388424 0.0003935934939579684 0  64.70604665770013 7.500393657555518 0  69.70600081006349 0.0003616255310954754 0  69.70604798713036 7.500361696830692 0  74.70600268130643 0.0003297834844767744 0  74.7060495399367 7.500329863699776 0  79.70600489410531 0.0002981138314733171 0  79.70605134102566 7.500298204997525 0  84.70600749680762 0.0002666736469126872 0  84.70605341739105 7.500266778235805 0  89.70601054585391 0.0002355339836224297 0  89.70605579786772 7.500235654971211 0  94.7060141071922 0.0002047844915597801 0  94.70605851250367 7.500204925361229 0  99.70601825775958 0.0001745398378403048 0  99.70606159132143 7.500174704399679 0  104.7060230868421 0.0001449488054510249 0  104.7060650621291 7.500145140549394 0  109.7060286968498 0.0001162074646637348 0  109.7060689468903 7.500116427813421 0  114.7060352024656 8.857866809786519e-05 0  114.7060732560153 7.50008882272503 0  119.7060427259038 6.242155939567215e-05 0  119.7060779798895 7.500062668269439 0  124.7060513834479 3.823722197845295e-05 0  124.7060830773631 7.500038427226996 0  129.7060612530555 1.674072966845473e-05 0  129.7060884626939 7.500016727351375 0  134.7060723014831 -1.023242546334451e-06 0  134.7060939978985 7.49999841886611 0  139.706084225216 -1.349373203222649e-05 0  139.7060995126214 7.499984638313402 0  144.7060961060049 -1.830106719323734e-05 0  144.7061049144238 7.499976859841055 0  149.706105652248 -1.18934752650432e-05 0  149.7061105659387 7.499976920123832 0  159.7061073738537 4.730011379929941e-19 0  164.7060575045876 -6.135547520509694e-05 0  164.7060981543076 7.499930298820072 0  159.7061136132756 7.499979203284826 0  169.7060273129457 -0.0001174082234398429 0  169.7060822826766 7.49987841771984 0  174.7060081964124 -0.0001697149221326931 0  174.7060687101424 7.4998279411348 0  179.7059956939823 -0.0002188945867343126 0  179.7060578098285 7.499779707630088 0  184.7059873197733 -0.0002654641502440606 0  184.7060492967327 7.499733668914769 0  189.7059816229706 -0.0003098856948102938 0  189.7060427429879 7.499689558914731 0  194.7059777233483 -0.0003525480474665528 0  194.7060377417765 7.49964708558724 0  199.7059750664221 -0.0003937652341734416 0  199.7060339521262 7.499605986704482 0  204.7059732896637 -0.0004337865259326246 0  204.7060311022956 7.499566041812109 0  209.7059721474218 -0.0004728093918300512 0  209.7060289802229 7.499527069860924 0  214.7059714676871 -0.0005109913145317855 0  214.7060274215663 7.499488922919975 0  219.7059711264953 -0.0005484593059062816 0  219.7060262989256 7.49945147965532 0  224.7059710323049 -0.0005853171657386699 0  224.7060255131356 7.499414639723513 0  229.705971116154 -0.0006216508963331068 0  229.7060249865605 7.499378319281401 0  234.7059713252528 -0.0006575327207179562 0  234.7060246580371 7.499342447492334 0  239.7059716186779 -0.0006930240799901576 0  239.7060244790918 7.49930696383139 0  244.705971964397 -0.0007281778957200866 0  244.7060244111079 7.499271816001078 0  249.705972337157 -0.0007630403058178435 0  249.7060244232001 7.499236958303136 0  254.7059727169608 -0.0007976520228569041 0  254.7060244906136 7.499202350347592 0  259.7059730879521 -0.0008320494205460093 0  259.7060245935105 7.499167956010866 0  264.7059734376069 -0.0008662654227591316 0  264.7060247160553 7.499133742578755 0  269.7059737561549 -0.0009003302461365756 0  269.7060248457288 7.499099680029597 0  274.7059740362087 -0.0009342720276812267 0  274.7060249728164 7.499065740429918 0  279.705974272574 -0.0009681173483717361 0  279.7060250900468 7.49903189743238 0  284.705974462259 -0.001001891635969079 0  284.7060251923335 7.498998125887673 0  289.7059746046976 -0.001035619383140382 0  289.7060252766066 7.498964401613847 0  294.7059747022229 -0.0010693240272875 0  294.7060253416928 7.49893070141501 0  299.7059747608021 -0.001103027155265983 0  299.706025388223 7.498897003514188 0  304.7059747909515 -0.00113674630081219 0  304.7060254185877 7.498863288660194 0  309.7059748084514 -0.001170489694879138 0  309.7060254371515 7.498829542240331 0  4.706088725709646 15.00077758870108 0  -0.2939112948896109 15.00080917748974 0  9.706088767092826 15.00074592238472 0  14.70608884056422 15.00071417385102 0  19.70608895477911 15.000682342573 0  24.70608911753793 15.00065043241777 0  29.70608933657985 15.00061845107735 0  34.70608961987978 15.00058640938772 0  39.70608997573393 15.00055432081572 0  44.70609041276584 15.00052220119565 0  49.70609093990713 15.00049006872429 0  54.70609156636326 15.00045794420566 0  59.70609230155667 15.00042585154172 0  64.70609315502793 15.00039381848156 0  69.70609413626633 15.00036187766114 0  74.70609525443487 15.00033006799107 0  79.70609651794135 15.00029843647947 0  84.7060979337984 15.00026704061453 0  89.70609950669908 15.00023595147774 0  94.7061012377268 15.00020525781569 0  99.70610312262367 15.00017507136018 0  104.7061051495805 15.00014553374092 0  109.706107296637 15.0001168253383 0  114.7061095290697 15.00008917627605 0  119.7061117977574 15.00006287922267 0  124.7061140406952 15.00003830224247 0  129.7061161919284 15.00001589648252 0  134.7061182054859 14.99999618548133 0  139.7061201058892 14.99997970436113 0  144.7061220771455 14.99996681186282 0  149.7061245789426 14.99995717118416 0  164.7061253371068 14.99990847586361 0  159.7061283825506 14.99994800520273 0  169.7061199220377 14.99986461991409 0  174.7061134707278 14.99981931491189 0  179.706107039278 14.99977424297253 0  184.7061011740538 14.99973013070564 0  189.7060960867385 14.99968720942952 0  194.7060918082297 14.99964548412476 0  199.7060882831893 14.99960486713398 0  204.7060854220208 14.9995652407472 0  209.7060831274594 14.99952648493322 0  214.7060813070945 14.99948848850065 0  219.7060798784579 14.99945115262448 0  224.7060787703752 14.99941439103351 0  229.7060779225694 14.99937812888174 0  234.7060772845499 14.99934230122464 0  239.7060768142969 14.99930685149478 0  244.7060764769789 14.99927173012475 0  249.706076243808 14.99923689335534 0  254.706076091056 14.9992023022214 0  259.706075999231 14.99916792169154 0  264.706075952398 14.99913371993575 0  269.7060759376221 14.99909966769859 0  274.706075944508 14.99906573776205 0  279.7060759648191 14.99903190448933 0  284.706075992155 14.99899814344932 0  289.7060760216624 14.99896443112591 0  294.706076049792 14.99893074471058 0  299.7060760741113 14.99889706193169 0  304.7060760932637 14.99886336071865 0  309.7060761072553 14.99882961802829 0  4.706135978512168 22.50077774366447 0  -0.293864042726693 22.50080926389593 0  9.706136015709484 22.5007461091864 0  14.70613607847885 22.50071437244901 0  19.70613617308491 22.50068254352158 0  24.70613630400663 22.50065063263459 0  29.7061364748808 22.50061865113958 0  34.70613668898906 22.50058661190379 0  39.70613694945231 22.50055452948925 0  44.70613725924785 22.50052242031121 0  49.70613762112036 22.50049030287887 0  54.70613803741917 22.50045819817221 0  59.70613850987296 22.50042613018985 0  64.70613903929845 22.50039412669913 0  69.70613962522837 22.50036222022353 0  74.70614026544193 22.5003304493145 0  79.70614095537717 22.50029886016569 0  84.70614168741056 22.50026750864168 0  89.70614245000296 22.50023646280085 0  94.70614322674352 22.50020580598828 0  99.70614399538184 22.50017564054058 0  104.7061447270526 22.5001460920468 0  109.7061453860834 22.50011731388621 0  114.7061459310737 22.50008949129446 0  119.7061463183651 22.50006284329007 0  124.7061465095628 22.50003761906162 0  129.7061464852131 22.50001408230644 0  134.7061462664633 22.49999247174144 0  139.7061459438721 22.49997291798955 0  144.7061457037289 22.49995528829496 0  149.7061458201214 22.49993893782327 0  164.7061518323643 22.49988457968684 0  159.7061488523526 22.49991865249684 0  169.7061525169021 22.49984650557581 0  174.7061514670816 22.49980614041252 0  179.7061493411657 22.49976481428362 0  184.7061466945329 22.49972339339192 0  189.7061439124948 22.49968236417969 0  194.7061412301853 22.49964196218765 0  199.7061387742163 22.49960227457805 0  204.7061366004426 22.49956330717754 0  209.706134721817 22.49952502455741 0  214.70613312707 22.49948737274219 0  219.7061317925333 22.49945029152639 0  224.7061306893002 22.49941372082933 0  229.7061297873702 22.49937760373101 0  234.7061290579227 22.49934188770961 0  239.7061284744555 22.4993065249363 0  244.7061280132607 22.49927147209778 0  249.7061276535214 22.49923669000177 0  254.7061273772095 22.49920214309869 0  259.7061271688775 22.49916779898895 0  264.7061270154112 22.49913362794771 0  269.7061269057671 22.49909960248274 0  274.7061268307136 22.49906569692984 0  279.7061267825775 22.49903188708588 0  284.7061267550009 22.49899814987238 0  289.7061267427076 22.49896446300976 0  294.7061267412892 22.49893080465169 0
[...]
<PointData  Scalars="p"> 
<DataArray  type="Float64"  Name="p"  format="ascii">1.0000000000000001e-01  1.0000000000000003e-01  1.0000258762148168e-01  1.0000000000000003e-01  1.0000000000000003e-01  1.0000370449464537e-01  1.0000000000000003e-01  1.0000559151167547e-01  1.0000000000000003e-01  1.0000685826248476e-01  1.0000000000000003e-01  1.0000827565461753e-01  1.0000000000000003e-01  1.0001010234705092e-01  1.0000000000000003e-01  1.0001128351817426e-01  1.0000000000000003e-01  1.0001253885675603e-01  1.0000000000000003e-01  1.0001455336639133e-01  1.0000000000000003e-01  1.0001579765030522e-01  1.0000000000000003e-01  1.0001899356476025e-01  1.0000000000000003e-01  1.0002237548184657e-01  1.0000000000000003e-01  1.0002488679593678e-01  1.0000000000000003e-01  1.0002734248343670e-01  1.0000000000000003e-01  1.0003092992821956e-01  1.0000000000000003e-01  1.0003271119143191e-01  1.0000000000000003e-01  1.0003487921140596e-01  1.0000000000000003e-01  1.0003839624736967e-01  1.0000000000000003e-01  1.0003902715038664e-01  1.0000000000000003e-01  1.0004157718472353e-01  1.0000000000000003e-01  1.0004283018195559e-01  1.0000000000000003e-01  1.0004519038045763e-01  1.0000000000000003e-01  1.0004266891529218e-01  1.0000000000000003e-01  1.0005003532527244e-01  1.0000000000000003e-01  1.0003998220563314e-01  1.0000000000000003e-01  1.0005578184508319e-01  1.0000000000000003e-01  1.0003375209100669e-01  1.0000000000000003e-01  1.0006529402373543e-01  1.0000000000000003e-01  1.0002385777120668e-01  1.0000000000000001e-01  1.0008442489389632e-01  1.0000000000000001e-01  1.0000000000000003e-01  9.9898411276467772e-02  9.9828270943820865e-02  1.0000000000000003e-01  9.9955296041342456e-02  1.0000000000000003e-01  9.9917109013195698e-02  1.0000000000000003e-01  9.9934426748928468e-02  1.0000000000000003e-01  9.9927544556903794e-02  1.0000000000000003e-01  9.9931600082999686e-02  1.0000000000000003e-01  9.9927617523388801e-02  1.0000000000000003e-01  9.9930964931743457e-02  1.0000000000000003e-01  9.9929577510369752e-02  1.0000000000000003e-01  9.9930185097905327e-02  1.0000000000000003e-01  9.9930902102576061e-02  1.0000000000000003e-01  9.9931495947891844e-02  1.0000000000000003e-01  9.9931763051089764e-02  1.0000000000000003e-01  9.9932876685697378e-02  1.0000000000000003e-01  9.9933431533828374e-02  1.0000000000000003e-01  9.9934066249644335e-02  1.0000000000000003e-01  9.9934891857849914e-02  1.0000000000000003e-01  9.9935671057503700e-02  1.0000000000000003e-01  9.9936066786468561e-02  1.0000000000000003e-01  9.9937191485173729e-02  1.0000000000000003e-01  9.9937221726857733e-02  1.0000000000000003e-01  9.9938798254805436e-02  1.0000000000000003e-01  9.9937739003592679e-02  1.0000000000000003e-01  9.9941275379027361e-02  1.0000000000000003e-01  9.9936582846226640e-02  1.0000000000000003e-01  9.9946000501973789e-02  1.0000000000000003e-01  9.9931523310965373e-02  1.0000000000000003e-01  9.9956763968929052e-02  1.0000000000000003e-01  9.9913247388231458e-02  1.0000000000000001e-01  1.0000000000000003e-01  1.0000350437427946e-01  1.0000000000000003e-01  1.0000389867801238e-01  1.0000424722204729e-01  1.0000479098362289e-01  1.0000591251397502e-01  1.0000592810155885e-01  1.0000599722882605e-01  1.0000747491210976e-01  1.0000702910145802e-01  1.0000744015559214e-01  1.0000986440119423e-01  1.0001227621210312e-01  1.0001289567198471e-01  1.0001640884269157e-01  1.0001532984855531e-01  1.0001590000663696e-01  1.0001874116872041e-01  1.0001739533831561e-01  1.0001723789240166e-01  1.0002087844287183e-01  1.0001734656050598e-01  1.0001938688210993e-01  1.0001827180434285e-01  1.0002118009218537e-01  1.0001185387385707e-01  1.0002967961156398e-01  9.9999009116947285e-02  1.0004996747370334e-01  9.9972488051408806e-02  1.0008642575763148e-01  1.0005991883982028e-01  9.9712214678506356e-02  9.9931977528748869e-02  9.9983254563371260e-02  9.9976846221842192e-02  9.9981187228296020e-02  9.9970480595142491e-02  9.9979126398426876e-02  9.9973932816829397e-02  9.9973537052157210e-02  9.9974667365994418e-02  9.9974380104209337e-02  9.9973382866548041e-02  9.9974932170251551e-02  9.9974845146298341e-02  9.9974718485681485e-02  9.9975691009396850e-02  9.9975821453351224e-02  9.9975909658832671e-02  9.9976418429558234e-02  9.9976860036977588e-02  9.9976476311222418e-02  9.9977729755903008e-02  9.9976516878555341e-02  9.9978898211019449e-02  9.9975273550743149e-02  9.9982310363245341e-02  9.9969838967184782e-02  9.9991571513193059e-02  9.9957939386612224e-02  1.0000000000000003e-01  1.0000481029504435e-01  1.0000000000000003e-01  1.0000365416266604e-01  1.0000559097112903e-01  1.0000684497754744e-01  1.0000737130162839e-01  1.0000743714069345e-01  1.0000967636453013e-01  1.0000925214177737e-01  1.0000903221070070e-01  1.0001193797761093e-01  1.0001221722405725e-01  1.0001223391161906e-01  1.0002051958385616e-01  1.0001978627651541e-01  1.0002095715605859e-01  1.0002609880941178e-01  1.0002361838070438e-01  1.0002417344200028e-01  1.0002922652732155e-01  1.0002617074833726e-01  1.0002528874236127e-01  1.0003204990445369e-01  1.0002397403426302e-01  1.0002980392987199e-01  1.0002357380657119e-01  1.0003507223619031e-01  1.0000923494152490e-01  1.0005993568711037e-01  9.9969189373515205e-02  1.0013754247947081e-01  1.0006999284003108e-01  9.9696475397188331e-02  9.9859154742691553e-02  9.9966173914765061e-02  9.9964206831838737e-02  9.9939408069471089e-02  9.9964958384695865e-02  9.9950492914995345e-02  9.9950371900889817e-02  9.9952934947196911e-02  9.9951833665552534e-02  9.9949064177561761e-02  9.9952285341697714e-02  9.9951472686287735e-02  9.9950960782884221e-02  9.9952840111842009e-02  9.9953041440947424e-02  9.9952807474418343e-02  9.9954223936078279e-02  9.9954312145596358e-02  9.9954576803309006e-02  9.9955044156704365e-02  9.9955976273939554e-02  9.9954837165868324e-02  9.9957577001650935e-02  9.9954126274884592e-02  9.9960177774907538e-02  9.9950351386577332e-02  9.9969027028032537e-02  9.9933442593230809e-02  1.0000000000000003e-01  1.0000554340603260e-01  1.0000000000000003e-01  1.0000373306522885e-01  1.0000632193204562e-01  1.0000632811255790e-01  1.0000632459857622e-01  1.0000849790995535e-01  1.0000783141002684e-01  1.0000713933971113e-01  1.0000979320103016e-01  1.0000855874527916e-01  1.0000806426224612e-01  1.0001348333622612e-01  1.0001098736968238e-01  1.0001548063576031e-01  1.0002115854743593e-01  1.0001900088508066e-01  1.0001829806149143e-01  1.0002438974019522e-01  1.0001918569608384e-01  1.0001954691497411e-01  1.0002398201011359e-01  1.0002026788216027e-01  1.0001571422658298e-01  1.0002746723023426e-01  1.0000865803887771e-01  1.0003042375714107e-01  9.9996246675278816e-02  1.0005695017305848e-01  9.9948526142516952e-02  1.0014834348763478e-01  1.0008549780321324e-01  9.9636560947376329e-02  9.9897851759725972e-02  9.9997667361737513e-02  9.9919611949714743e-02  9.9998270541690526e-02  9.9963655590823861e-02  9.9968930629489042e-02  9.9969752512744925e-02  9.9969440467795878e-02  9.9963175646817296e-02  9.9968497015038349e-02  9.9966094572202915e-02  9.9964869837991244e-02  9.9967152116939267e-02  9.9967049713712147e-02  9.9966410271222661e-02  9.9968157785453773e-02  9.9968294091694124e-02  9.9967911687199790e-02  9.9969232407185360e-02  9.9968874255053186e-02  9.9969541913641366e-02  9.9968844514845667e-02  9.9971213005682666e-02  9.9967068399437475e-02  9.9974570780638469e-02  9.9962308221378804e-02  9.9982582467380690e-02  9.9949686549031289e-02  1.0000000000000003e-01  1.0000630301063641e-01  1.0000000000000003e-01  1.0000428461113768e-01  1.0000621483578667e-01  1.0000562909836481e-01  1.0000853179876637e-01  1.0000775948725137e-01  1.0000756798738353e-01  1.0001023905124770e-01  1.0000875567362476e-01  1.0000777888833078e-01  1.0001242140354090e-01  1.0001027963692304e-01  1.0001092965983648e-01  1.0001561815420326e-01  1.0001812242530951e-01  1.0001828639515398e-01  1.0002600289258380e-01  1.0002085861942868e-01  1.0001988002307087e-01  1.0002778062250693e-01  1.0001958752162925e-01  1.0002085576551022e-01  1.0002399202482370e-01  1.0002251156050003e-01  1.0000969635476356e-01  1.0003660166059389e-01  9.9990459149279745e-02  1.0006366638106444e-01  9.9937249986613449e-02  1.0017595398610739e-01  1.0014081273162052e-01  9.9580988676217397e-02  9.9878929727972021e-02  9.9973774883480485e-02  9.9941062149419974e-02  9.9957449527100270e-02  9.9962931275409270e-02  9.9963732233629116e-02  9.9968353356192266e-02  9.9954087364654123e-02  9.9964479270998080e-02  9.9959509656986176e-02  9.9957247717236838e-02  9.9960321960174958e-02  9.9959837551672745e-02  9.9958135906438247e-02  9.9960927781404821e-02  9.9960809415905558e-02  9.9960380238964405e-02  9.9961903929828372e-02  9.9962224635115615e-02  9.9961551477557184e-02  9.9963207217174652e-02  9.9962074709447818e-02  9.9963902850561587e-02  9.9961093496651138e-02  9.9966835014697109e-02  9.9956395957147198e-02  9.9975406295140526e-02  9.9941511965056268e-02  1.0000000000000003e-01  1.0000722145808166e-01  1.0000000000000003e-01  1.0000415695573056e-01  1.0000593209309741e-01  1.0000699632752361e-01  1.0000726679460864e-01  1.0000689465351718e-01  1.0000969670412507e-01  1.0000863678646521e-01  1.0000717040925970e-01  1.0001115108077992e-01  1.0000919250097913e-01  1.0000827060811623e-01  1.0001388555832295e-01  1.0001172696285052e-01  1.0000878450971869e-01  1.0002345184031128e-01  1.0001838576988256e-01  1.0001849834469205e-01  1.0002675344398948e-01  1.0001931340915540e-01  1.0001653729767403e-01  1.0002813487085664e-01  1.0001361705985277e-01  1.0001983644058449e-01  1.0001433463112488e-01  1.0002861383220517e-01  9.9983639711240704e-02  1.0007255454523686e-01  9.9915648306655877e-02  1.0020000412592651e-01  1.0015399852671385e-01  9.9579192592029103e-02  9.9855590635841776e-02  1.0001830747088117e-01  9.9943313145644558e-02  9.9955665742545788e-02  9.9951600221695761e-02  9.9987798445380957e-02  9.9953779745731886e-02  9.9977097944627252e-02  9.9965683749175763e-02  9.9963279322170737e-02  9.9966856832695683e-02  9.9966139386588215e-02  9.9962526046540948e-02  9.9966511943305247e-02  9.9965777026684868e-02  9.9964685726321501e-02  9.9967180640743697e-02  9.9967090502144113e-02  9.9966718805363050e-02  9.9967791921713192e-02  9.9968448047038833e-02  9.9966883021130534e-02  9.9969780634876937e-02  9.9965975001944929e-02  9.9972071187486578e-02  9.9961617911404899e-02  9.9980004903485645e-02  9.9948132379896915e-02  1.0000000000000003e-01  1.0000773519763026e-01  1.0000000000000003e-01  1.0000392527191107e-01  1.0000736364721725e-01  1.0000626892403112e-01  1.0000653311620937e-01  1.0000888192651550e-01  1.0000868109945421e-01  1.0000721045507317e-01  1.0001122162217495e-01  1.0000913358438006e-01  1.0000768666146911e-01  1.0001351933021961e-01  1.0001062950548804e-01  1.0000816330105247e-01  1.0001725894975722e-01  1.0001014285017144e-01  1.0001617206274110e-01  1.0002674090689742e-01  1.0001972563057498e-01  1.0001844822758624e-01  1.0002773013774577e-01  1.0001894879780517e-01  1.0001313299897391e-01  1.0003087597661853e-01  1.0000476685802931e-01  1.0002885102957020e-01  9.9990377665375246e-02  1.0006945945899215e-01  9.9904756838305367e-02  1.0022865251024406e-01  1.0015173627145751e-01  9.9550844663946703e-02  9.9874958294654106e-02  1.0001859922412204e-01  9.9926603035788458e-02  9.9975765959009741e-02  9.9955431664149871e-02  9.9942314509871469e-02  9.9982143579100582e-02  9.9963567266789094e-02  9.9964590215866525e-02  9.9965579617923239e-02  9.9966434101168511e-02  9.9959929926072152e-02  9.9965485524967340e-02  9.9963796908095329e-02  9.9962019379018677e-02  9.9964793991686618e-02  9.9964910605733134e-02  9.9963870397252047e-02  9.9966142349722370e-02  9.9965781851607899e-02  9.9965938633745866e-02  9.9965912483663766e-02  9.9967701217124616e-02  9.9964119990411937e-02  9.9970290191995631e-02  9.9960005668084329e-02  9.9977777595974371e-02  9.9946257101225719e-02  1.0000000000000003e-01  1.0000809901521673e-01  1.0000000000000003e-01  1.0000468177286403e-01  1.0000709597312785e-01  1.0000564058730158e-01  1.0000837143753789e-01  1.0000766692774057e-01  1.0000691934831595e-01  1.0001065193111591e-01  1.0000891369784574e-01  1.0000744957269128e-01  1.0001279620233433e-01  1.0001009967998621e-01  1.0000803662609649e-01  1.0001554989685514e-01  1.0000967226744527e-01  1.0000912734816851e-01  1.0001626649336882e-01  1.0001775102935245e-01  1.0001629846900538e-01  1.0003000993234845e-01  1.0001735905482552e-01  1.0001750846029842e-01  1.0002550709321871e-01  1.0001933758307499e-01  1.0000257443424511e-01  1.0004142688222123e-01  9.9977291752016056e-02  1.0007278914168231e-01  9.9902155656130615e-02  1.0024273227880313e-01  1.0018486371912384e-01  9.9518630720212817e-02  9.9867935160388832e-02  1.0000986243094914e-01  9.9949867591987207e-02  9.9983568139210249e-02  9.9944316454862209e-02  9.9966527917515022e-02  9.9953247597554001e-02  9.9974515002575662e-02  9.9965946658265775e-02  9.9974595549864279e-02  9.9960972274023729e-02  9.9970125387984637e-02  9.9966783319814650e-02  9.9964125421310335e-02  9.9967375345645468e-02  9.9967147281717336e-02  9.9965264105943155e-02  9.9968025593965365e-02  9.9968223720016999e-02  9.9967134499164070e-02  9.9969375808800387e-02  9.9968215372151725e-02  9.9969620896621897e-02  9.9967070868786145e-02  9.9972521734841155e-02  9.9962345014704634e-02  9.9979900142656231e-02  9.9949447892209983e-02  1.0000000000000003e-01  1.0000877672828826e-01  1.0000000000000003e-01  1.0000450571038955e-01  1.0000673288270646e-01  1.0000712592369310e-01  1.0000762713934830e-01  1.0000631331824755e-01  1.0000975162587247e-01  1.0000857315682203e-01  1.0000725233535711e-01  1.0001185222521358e-01  1.0001020292793761e-01  1.0000794808369859e-01  1.0001495679819049e-01  1.0001058979861684e-01  1.0000766712677218e-01  1.0001624779579114e-01  1.0001081544513149e-01  1.0000528302475357e-01  1.0002744383176029e-01  1.0001827173622665e-01  1.0001606740658386e-01  1.0003232177291295e-01  1.0001322008612124e-01  1.0001785763390955e-01  1.0001860981905046e-01  1.0002873354232947e-01  9.9974867338262260e-02  1.0008937513802790e-01  9.9884265518907486e-02  1.0025961765924138e-01  1.0019312679788364e-01  9.9519634041511346e-02  9.9850745343617944e-02  1.0003196559500085e-01  9.9948726069281568e-02  9.9971354364551041e-02  9.9964681318385248e-02  9.9967579870859830e-02  9.9948772105711597e-02  9.9955972026659054e-02  9.9982138381529251e-02  9.9957868384726284e-02  9.9974782973321838e-02  9.9967186921111784e-02  9.9964686090765253e-02  9.9967863316915498e-02  9.9967894880304886e-02  9.9964348092837246e-02  9.9968062372721184e-02  9.9967488544108973e-02  9.9966528435685029e-02  9.9968487019157878e-02  9.9969112945303196e-02  9.9967390813104948e-02  9.9970362533103305e-02  9.9967072002724117e-02  9.9971995960568355e-02  9.9962932514869596e-02  9.9979403724798022e-02  9.9949743597815999e-02  1.0000000000000003e-01  1.0000902681122735e-01  1.0000000000000003e-01  1.0000425017468216e-01  1.0000808363759718e-01  1.0000661272775975e-01  1.0000671525471648e-01  1.0000881523359981e-01  1.0000833721757697e-01  1.0000681592481103e-01  1.0001094544822939e-01  1.0000967803168008e-01  1.0000759723349488e-01  1.0001444401979721e-01  1.0001122879393401e-01  1.0000783405785107e-01  1.0001635618980899e-01  1.0001056260917726e-01  1.0000532051842549e-01  1.0001961900741875e-01  1.0000649018724640e-01  1.0001457416877120e-01  1.0002992194651079e-01  1.0001917665930581e-01  1.0001187490875456e-01  1.0003613135227066e-01  1.0000314244783833e-01  1.0002732937880736e-01  9.9992322049004864e-02  1.0007710363192993e-01  9.9877943371973685e-02  1.0028657541730424e-01  1.0018966818534666e-01  9.9511532338633094e-02  9.9863758986523776e-02  1.0003507560261983e-01  9.9936278497057815e-02  9.9990550208252010e-02  9.9967197306443475e-02  9.9962041491105463e-02  9.9963194203358183e-02  9.9964050692233283e-02  9.9946794479946685e-02  9.9983423068831276e-02  9.9966944346907366e-02  9.9969605705834241e-02  9.9969286695851658e-02  9.9971160901949047e-02  9.9965432334455595e-02  9.9970097956790571e-02  9.9969101007768804e-02  9.9967095953656104e-02  9.9969739614091169e-02  9.9969576506398469e-02  9.9969193049976368e-02  9.9969930816392799e-02  9.9971572803095543e-02  9.9968032139817919e-02  9.9973844612931823e-02  9.9964490498734307e-02  9.9980312624813647e-02  9.9951984958945611e-02  1.0000000000000003e-01  1.0000919584945549e-01  1.0000000000000003e-01  1.0000491503837573e-01  1.0000786849047386e-01  1.0000593909493756e-01  1.0000866343959361e-01  1.0000780977598814e-01  1.0000692581530005e-01  1.0001007143133944e-01  1.0000902235704161e-01  1.0000704459100419e-01  1.0001315770658298e-01  1.0001100122959734e-01  1.0000851822810447e-01  1.0001624989253136e-01  1.0001120925570424e-01  1.0000681719970653e-01  1.0001791720996865e-01  1.0000827702890400e-01  1.0000583732610198e-01  1.0001806993774469e-01  1.0001565373447019e-01  1.0001509602324112e-01  1.0003186087223279e-01  1.0001913217025608e-01  1.0000244920198956e-01  1.0004855178841422e-01  9.9975909710606867e-02  1.0007501488841530e-01  9.9895872506946218e-02  1.0027936172470336e-01  1.0020595849448731e-01  9.9499900952987580e-02  9.9863192909437612e-02  1.0002619435987729e-01  9.9950064237352906e-02  9.9992134378579803e-02  9.9956785971978573e-02  9.9976386844565127e-02  9.9968860786832772e-02  9.9955889557777733e-02  9.9962870782483060e-02  9.9957491282084962e-02  9.9975520349209909e-02  9.9968077353475626e-02  9.9976040055132220e-02  9.9965117926228114e-02  9.9972317750860420e-02  9.9970131771323911e-02  9.9967740282566886e-02  9.9970258789204083e-02  9.9970383003441896e-02  9.9968220892421938e-02  9.9971139803779974e-02  9.9970234799057978e-02  9.9971132581150063e-02  9.9969453940704986e-02  9.9974195979531263e-02  9.9965019131359939e-02  9.9980757743703894e-02  9.9953164988015694e-02  1.0000000000000003e-01  1.0000968538375962e-01  1.0000000000000003e-01  1.0000480883891526e-01  1.0000749109607411e-01  1.0000739616069326e-01  1.0000813885554087e-01  1.0000664372911773e-01  1.0000971298701347e-01  1.0000877266064270e-01  1.0000690853835163e-01  1.0001158081041416e-01  1.0001037244917294e-01  1.0000824898951326e-01  1.0001537679077013e-01  1.0001240998167833e-01  1.0000784462924149e-01  1.0001768669940990e-01  1.0001059191392260e-01  1.0000539533179821e-01  1.0001806024377256e-01  1.0000948650518632e-01  9.9999368909408512e-02  1.0003348566682496e-01  1.0001300808244133e-01  1.0001751379239412e-01  1.0002724602282928e-01  1.0002757027463109e-01  9.9974940420577946e-02  1.0009858023813162e-01  9.9879378752765660e-02  1.0027750627343211e-01  1.0020979154336951e-01  9.9515376961323121e-02  9.9853743664219230e-02  1.0003928533068138e-01  9.9951746890567600e-02  9.9982502358068881e-02  9.9969370422079540e-02  9.9979681205099827e-02  9.9960578914954648e-02  9.9971214696037952e-02  9.9965744798677106e-02  9.9956496143988383e-02  9.9958488417005664e-02  9.9983554669224664e-02  9.9963456751965454e-02  9.9977193536325865e-02  9.9971447036901306e-02  9.9969523635218535e-02  9.9971870198043419e-02  9.9972080535802574e-02  9.9969170932575790e-02  9.9971633823728021e-02  9.9971795620840367e-02  9.9969887590154682e-02  9.9973136809378221e-02  9.9970436746811872e-02  9.9974527089563225e-02  9.9966855498982279e-02  9.9981428919614715e-02  9.9954967695904978e-02  1.0000000000000003e-01  1.0000988563372103e-01  1.0000000000000003e-01  1.0000462437529985e-01  1.0000873215825988e-01  1.0000710575165069e-01  1.0000743613120773e-01  1.0000904532653117e-01  1.0000888929921674e-01  1.0000721872962644e-01  1.0001092924608673e-01  1.0000979194390343e-01  1.0000785417884314e-01  1.0001406587775270e-01  1.0001250064308513e-01  1.0000867959765609e-01  1.0001759824354307e-01  1.0001281706686103e-01  1.0000658117564432e-01  1.0001909511835884e-01  1.0001015636756218e-01  1.0000213877348497e-01  1.0002243836198287e-01  1.0000407408685691e-01  1.0000896138306663e-01  1