<?xml version="1.0"?>
<VTKFile type="UnstructuredGrid"  version="0.1"  >
<UnstructuredGrid>
<Piece  NumberOfPoints="1933" NumberOfCells="3640">
<Points>
<DataArray  type="Float64"  NumberOfComponents="3"  format="ascii">0.4752750462399634 0.001968481657624021 0  5.475275035418279 0.00190158653896301 0  5.475375424326251 7.501901587760166 0  0.4753754203688051 7.50196845511885 0  10.47527500582741 0.001834671625049558 0  10.47537544286212 7.501834687312535 0  15.47527496798914 0.001767687559031259 0  15.47537548862755 7.501767710944068 0  20.47527494302361 0.001700601264018544 0  20.47537557638981 7.50170062891234 0  25.4752749566061 0.001633391463064939 0  25.47537572329744 7.501633421797892 0  30.47527503631507 0.001566045193741836 0  30.47537594867443 7.501566077707962 0  35.47527521075966 0.001498555236798733 0  35.47537627387754 7.501498590060461 0  40.47527550964966 0.001430918322476785 0  40.47537672235339 7.501430955991551 0  45.47527596437548 0.001363133956614603 0  45.47537731990591 7.501363175300034 0  50.475276608885 0.001295203729236502 0  50.47537809515094 7.501295249828377 0  55.47527748076548 0.001227131003587185 0  55.47537908013553 7.501227183200175 0  60.47527862250763 0.001158920919489094 0  60.47538031110978 7.501158980861439 0  65.4752800829735 0.001090580677336393 0  65.47538182945105 7.501090650401595 0  70.47528191912053 0.001022120098496644 0  70.47538368275228 7.501022202158251 0  75.47528419806721 0.0009535524869412761 0  75.47538592609632 7.500953650139906 0  80.4752869996217 0.0008848958494584972 0  80.47538862354325 7.500885013337114 0  85.47529041944745 0.0008161745735358778 0  85.47539184986439 7.50081631754162 0  90.47529457311609 0.0007474217220214822 0  90.47539569254656 7.500747597866155 0  95.47529960141614 0.000678682197804778 0  95.47540025407201 7.500678902273335 0  100.4753056774698 0.0006100171893584555 0  100.4754056544175 7.50061029661517 0  105.4753130165022 0.0005415105860299679 0  105.4754120335875 7.500541872015784 0  110.47532188957 0.0004732785649163828 0  110.4754195537203 7.500473756012023 0  115.475332643285 0.0004054845360598665 0  115.4754283997633 7.5004061299066 0  120.4753457286981 0.0003383635952561212 0  120.4754387766554 7.500339256663456 0  125.4753617441735 0.0002722646877276596 0  125.4754508990051 7.500273527061088 0  130.4753814993067 0.000207727376511819 0  130.4754649658184 7.500209537880244 0  135.4754061091814 0.0001456295139949858 0  135.4754811073195 7.500148226468788 0  140.4754371281294 8.748749677989631e-05 0  140.4754992837105 7.500091103393302 0  145.4754767216157 3.610253174859129e-05 0  145.4755191122755 7.500040649780448 0  150.4755278290747 -2.964149803409475e-06 0  150.4755396251502 7.500000969650786 0  160.4755282581476 6.33445210853658e-19 0  165.4754596132565 -6.842321043706634e-05 0  165.4755146442562 7.499924663541311 0  160.4755387929324 7.49998188624344 0  170.4754120238547 -0.000139900653720916 0  170.4754900785307 7.49985654423889 0  175.475377590647 -0.0002133868062452606 0  175.4754681505794 7.499784476194328 0  180.4753519250636 -0.0002877110659918733 0  180.4754494563896 7.499710908163721 0  185.4753323630682 -0.0003621942402989324 0  185.4754338328793 7.499636875259224 0  190.4753172018729 -0.000436493058967606 0  190.4754208962007 7.499562858742674 0  195.4753053088754 -0.0005104446115608418 0  195.4754102316438 7.499489090172734 0  200.4752959031926 -0.0005839773680624983 0  200.4754014598755 7.499415679573779 0  205.4752884282777 -0.0006570658513634772 0  205.4753942553777 7.499342675068518 0  210.4752824754504 -0.0007297081643078851 0  210.4753883464821 7.499270092185748 0  215.4752777367401 -0.0008019147565974795 0  215.4753835090814 7.499197928826425 0  220.4752739749642 -0.0008737026422798049 0  220.47537955895 7.499126173186997 0  225.4752710041641 -0.0009450922861041092 0  225.4753763445442 7.499054808121676 0  230.4752686764057 -0.001016105834031624 0  230.4753737408581 7.49898381364678 0  235.4752668726005 -0.001086766053724642 0  235.4753716443871 7.498913168436612 0  240.4752654959278 -0.00115709567674773 0  240.4753699690717 7.498842850743556 0  245.4752644669927 -0.00122711698927457 0  245.4753686430462 7.498772838967494 0  250.4752637201698 -0.001296851593570303 0  250.475367606032 7.498703111994243 0  255.4752632007817 -0.001366320301111024 0  255.4753668072401 7.49863364936689 0  260.4752628628756 -0.001435543139896288 0  260.4753662036744 7.498564431322678 0  265.475262667447 -0.001504539472729995 0  265.4753657587582 7.498495438708819 0  270.4752625810023 -0.001573328234469531 0  270.4753654412253 7.498426652777253 0  275.4752625744067 -0.001641928306407387 0  275.4753652242305 7.49835805484839 0  280.4752626219851 -0.001710359054983535 0  280.4753650846627 7.49828962582642 0  285.4752627009032 -0.001778641067087753 0  285.475365002633 7.49822134554653 0  290.4752627908994 -0.001846797105872351 0  290.475364961135 7.498153191941806 0  295.4752628745286 -0.001914853263048122 0  295.4753649458543 7.498085140046017 0  300.4752629382094 -0.001982840122624131 0  300.4753649450861 7.49801716091318 0  305.4752629745387 -0.002050793258946798 0  305.4753649496864 7.49794922064142 0  310.4752629865972 -0.002118750855584087 0  310.4753649529653 7.497881279726474 0  5.475475692901574 15.00190161413513 0  0.4754756825467412 15.00196839810052 0  10.47547572880755 15.00183475891764 0  15.47547580505369 15.00176780621607 0  20.47547593445262 15.00170073688279 0  25.47547612962066 15.00163353782723 0  30.47547640398981 15.0015662008717 0  35.47547677234706 15.00149872164412 0  40.47547725115064 15.00143109867075 0  45.47547785876888 15.00136333273558 0  50.47547861571562 15.00129542651687 0  55.47547954491269 15.00122738449165 0  60.47548067198611 15.00115921310097 0  65.47548202558811 15.00109092118153 0  70.4754836377254 15.00102252069063 0  75.47548554406086 15.00095402777941 0  80.47548778413451 15.00088546430788 0  85.47549040141944 15.00081685995047 0  90.47549344307538 15.00074825512217 0  95.47549695918386 15.00067970507972 0  100.4755010011247 15.00061128574498 0  105.4755056185705 15.00054310209709 0  110.4755108543179 15.00047530043975 0  115.4755167358488 15.00040808653263 0  120.4755232621888 15.00034175251583 0  125.4755303845451 15.00027671662539 0  130.475537979989 15.00021358018999 0  135.4755458205337 15.00015320379057 0  140.4755535481353 15.00009679073994 0  145.4755606833849 15.00004591644254 0  150.4755667211407 15.00000227864303 0  165.4755593953913 14.99990731261892 0  160.4755657939779 14.99996219245208 0  170.475550856204 14.99984421780859 0  175.4755411378974 14.9997760122926 0  180.4755313062676 14.99970506146477 0  185.4755220112322 14.99963276210275 0  190.4755135704223 14.99955989983773 0  195.4755060962734 14.99948691213714 0  200.475499587001 14.99941404098901 0  205.4754939827847 14.99934141788608 0  210.475489198305 14.9992691110664 0  215.4754851407169 14.99919715204936 0  220.4754817190595 14.99912555077618 0  225.4754788487902 14.99905430441534 0  230.4754764536168 14.99898340259477 0  235.4754744658909 14.99891283057943 0  240.4754728262663 14.99884257123794 0  245.4754714830244 14.99877260627254 0  250.4754703912765 14.99870291698301 0  255.4754695121589 14.99863348472026 0  260.4754688120757 14.99856429111965 0  265.4754682620162 14.99849531816494 0  270.4754678369533 14.99842654810974 0  275.4754675153225 14.99835796326873 0  280.4754672785677 14.99828954568144 0  285.475467110738 14.99822127664842 0  290.4754669980982 14.99815313613986 0  295.4754669287107 14.99808510207701 0  300.4754668919153 14.99801714946679 0  305.4754668776189 14.99794924925632 0  310.4754668752684 14.99788136633465 0  5.475575730759066 22.50190171759813 0  0.4755757177611766 22.50196837995266 0  10.47557576835859 22.50183493333694 0  15.47557584542666 22.50176802194937 0  20.47557597292018 22.50170097818501 0  25.47557615996833 22.50163379804305 0  30.47557641516543 22.50156647923647 0  35.47557674734161 22.50149902125528 0  40.4755771659926 22.50143142527937 0  45.47557768149537 22.50136369409778 0  50.47557830519036 22.50129583212712 0  55.4755790493712 22.50122784558577 0  60.47557992719506 22.50115974286429 0  65.47558095250263 22.50109153513354 0  70.47558213951575 22.50102323724271 0  75.47558350236004 22.50095486898253 0  80.47558505433332 22.50088645682195 0  85.47558680680949 22.5008180362752 0  90.47558876762817 22.50074965512332 0  95.47559093877119 22.500681377808 0  100.4755933130796 22.50061329143967 0  105.4755958697243 22.50054551401889 0  110.4755985681609 22.50047820563777 0  115.4756013404331 22.50041158353957 0  120.4756040820957 22.50034594177371 0  125.4756066429377 22.50028167531513 0  130.4756088204272 22.5002193058428 0  135.4756103616581 22.50015949960464 0  140.475610983151 22.50010305254069 0  145.4756104191314 22.50005078742751 0  150.475608497533 22.50000326070421 0  165.4756101995429 22.49988909852544 0  160.4756073724939 22.49994393747953 0  170.4756108587603 22.49982844204454 0  175.4756096443511 22.4997633281929 0  180.4756070918838 22.49969517577289 0  185.4756037489928 22.49962513035963 0  190.4756000495578 22.49955400045536 0  195.475596295354 22.49948232148172 0  200.4755926779994 22.49941043636242 0  205.4755893084054 22.49933855984456 0  210.4755862423893 22.49926682336845 0  215.4755834999844 22.49919530472822 0  220.4755810790151 22.49912404725243 0  225.4755789642535 22.49905307212622 0  230.4755771334171 22.49898238632136 0  235.4755755610005 22.49891198773087 0  240.475574220662 22.49884186851897 0  245.4755730866613 22.49877201731983 0  250.4755721346863 22.49870242068161 0  255.4755713422889 22.49863306400473 0  260.4755706890766 22.49856393213188 0  265.4755701567522 22.49849500968904 0  270.4755697290572 22.49842628124214 0  275.475569391654 22.49835773131091 0  280.4755691319544 22.49828934426973 0  285.4755689388905 22.498221104158 0  290.4755688026083 22.49815299441913 0  295.4755687140426 22.49808499758085 0  300.4755686643099 22.49801709486555
[...]
<PointData  Scalars="p"> 
<DataArray  type="Float64"  Name="p"  format="ascii">1.0000000000000001e-01  1.0000000000000003e-01  1.0000212284237658e-01  1.0000000000000003e-01  1.0000000000000003e-01  1.0000133817269331e-01  1.0000000000000003e-01  1.0000202423845597e-01  1.0000000000000003e-01  1.0000187223191788e-01  1.0000000000000003e-01  1.0000227378237848e-01  1.0000000000000003e-01  1.0000374594569489e-01  1.0000000000000003e-01  1.0000381465415617e-01  1.0000000000000003e-01  1.0000481796011758e-01  1.0000000000000003e-01  1.0000655237337633e-01  1.0000000000000003e-01  1.0000527576547245e-01  1.0000000000000003e-01  1.0001249403288384e-01  1.0000000000000003e-01  1.0001385893103562e-01  1.0000000000000003e-01  1.0001710864623016e-01  1.0000000000000003e-01  1.0001902891468951e-01  1.0000000000000003e-01  1.0002515995798147e-01  1.0000000000000003e-01  1.0002710352678103e-01  1.0000000000000003e-01  1.0003237594250800e-01  1.0000000000000003e-01  1.0004015989043136e-01  1.0000000000000003e-01  1.0004312852741730e-01  1.0000000000000003e-01  1.0005242659658405e-01  1.0000000000000003e-01  1.0005857931959734e-01  1.0000000000000003e-01  1.0006941995450368e-01  1.0000000000000003e-01  1.0007005217844080e-01  1.0000000000000003e-01  1.0009481796787056e-01  1.0000000000000003e-01  1.0007749031087387e-01  1.0000000000000003e-01  1.0012678887653008e-01  1.0000000000000003e-01  1.0007737662767700e-01  1.0000000000000003e-01  1.0016842672823056e-01  1.0000000000000003e-01  1.0006549809005343e-01  1.0000000000000001e-01  1.0023413259932951e-01  1.0000000000000001e-01  1.0000000000000003e-01  9.9863446609610343e-02  9.9659205952101107e-02  1.0000000000000003e-01  9.9984639063141936e-02  1.0000000000000003e-01  9.9896394780720960e-02  1.0000000000000003e-01  9.9949009800905028e-02  1.0000000000000003e-01  9.9935911413553971e-02  1.0000000000000003e-01  9.9950142814426268e-02  1.0000000000000003e-01  9.9946724623819871e-02  1.0000000000000003e-01  9.9958878785462960e-02  1.0000000000000003e-01  9.9958471024573711e-02  1.0000000000000003e-01  9.9963409156064845e-02  1.0000000000000003e-01  9.9967379546970811e-02  1.0000000000000003e-01  9.9970182406294281e-02  1.0000000000000003e-01  9.9972245296250525e-02  1.0000000000000003e-01  9.9975637746411813e-02  1.0000000000000003e-01  9.9977183852465540e-02  1.0000000000000003e-01  9.9978824432784427e-02  1.0000000000000003e-01  9.9980797884537037e-02  1.0000000000000003e-01  9.9981963040376778e-02  1.0000000000000003e-01  9.9982921283480033e-02  1.0000000000000003e-01  9.9984240789016215e-02  1.0000000000000003e-01  9.9984854617815894e-02  1.0000000000000003e-01  9.9985698803320186e-02  1.0000000000000003e-01  9.9986114138355162e-02  1.0000000000000003e-01  9.9987167683241493e-02  1.0000000000000003e-01  9.9986607777571762e-02  1.0000000000000003e-01  9.9988754487685350e-02  1.0000000000000003e-01  9.9986255823188042e-02  1.0000000000000003e-01  9.9991309429947051e-02  1.0000000000000003e-01  9.9983262825339425e-02  1.0000000000000001e-01  1.0000000000000003e-01  1.0000472137459075e-01  1.0000000000000003e-01  1.0000398516945123e-01  1.0000416178242245e-01  1.0000471575168696e-01  1.0000664600304621e-01  1.0000634454747064e-01  1.0000693514872257e-01  1.0000996276200477e-01  1.0000817535346700e-01  1.0000967812031773e-01  1.0001070300011891e-01  1.0001958000300756e-01  1.0001487653390527e-01  1.0002300759063282e-01  1.0001869712389165e-01  1.0002310192007545e-01  1.0002936681813132e-01  1.0002845485421855e-01  1.0003227722939154e-01  1.0004265748588281e-01  1.0003816934877267e-01  1.0004915432641989e-01  1.0004968073241639e-01  1.0006154097905630e-01  1.0004568487727596e-01  1.0009118746184018e-01  1.0001935760757527e-01  1.0014847572778091e-01  9.9951011967613496e-02  1.0023632407701027e-01  1.0016449279586573e-01  9.9517712210597936e-02  9.9825522037573056e-02  9.9981969874949686e-02  9.9953816563212963e-02  9.9963179218805764e-02  9.9947831129406126e-02  9.9972207910890731e-02  9.9961677584217382e-02  9.9967095482681109e-02  9.9972891142977652e-02  9.9973723532341227e-02  9.9974388530722338e-02  9.9979797287634342e-02  9.9980090469826088e-02  9.9981183569544954e-02  9.9984207253481408e-02  9.9984889432261026e-02  9.9985627355452203e-02  9.9987656304331457e-02  9.9988352022780780e-02  9.9988960305101418e-02  9.9990506141443294e-02  9.9990898564233738e-02  9.9992012429934982e-02  9.9992240232793808e-02  9.9994208059478520e-02  9.9992447615761232e-02  9.9997259955766374e-02  9.9991446703306175e-02  1.0000000000000003e-01  1.0000756335180115e-01  1.0000000000000003e-01  1.0000446149859034e-01  1.0000639477312143e-01  1.0000822656924181e-01  1.0000810996556843e-01  1.0000877508137014e-01  1.0001304952124078e-01  1.0001186555811349e-01  1.0001265211479010e-01  1.0001695994690715e-01  1.0001841954951649e-01  1.0001244681422476e-01  1.0003610240357304e-01  1.0002459392327048e-01  1.0003044297780134e-01  1.0003894922354613e-01  1.0003526318824585e-01  1.0004131860836937e-01  1.0005438362383474e-01  1.0005115010364150e-01  1.0005777388365296e-01  1.0007666421059719e-01  1.0006489512584155e-01  1.0008856858726531e-01  1.0007894268612581e-01  1.0011177295924929e-01  1.0006033038415145e-01  1.0017905905927782e-01  9.9963274115819803e-02  1.0036769283539625e-01  1.0007553636303551e-01  9.9613911220654813e-02  9.9771244619132671e-02  9.9959788380575135e-02  9.9938329588865796e-02  9.9903204431502968e-02  9.9964371710702660e-02  9.9930064615110031e-02  9.9942860523631841e-02  9.9954029262205896e-02  9.9953865150201118e-02  9.9953919278151435e-02  9.9964941317738254e-02  9.9964219237457824e-02  9.9966141033933642e-02  9.9972203920350319e-02  9.9972954063525160e-02  9.9973931883156189e-02  9.9977994386012528e-02  9.9978731184903025e-02  9.9979759679381996e-02  9.9982317831782297e-02  9.9983346028029177e-02  9.9984068863083267e-02  9.9986293458991862e-02  9.9986507810440536e-02  9.9988627284858869e-02  9.9987894646518000e-02  9.9992365136339245e-02  9.9986444755640086e-02  1.0000000000000003e-01  1.0000942483222258e-01  1.0000000000000003e-01  1.0000573631972864e-01  1.0001022068311378e-01  1.0000931774721683e-01  1.0001019148180749e-01  1.0001487942261814e-01  1.0001378015821483e-01  1.0001488041607004e-01  1.0002071397992636e-01  1.0001849961309134e-01  1.0001884189782710e-01  1.0003176402154680e-01  1.0001639058474351e-01  1.0003913848947849e-01  1.0003967426051230e-01  1.0003702525120371e-01  1.0003835829910956e-01  1.0005412887348100e-01  1.0004534236763699e-01  1.0005541205295009e-01  1.0006848827245308e-01  1.0006610053954480e-01  1.0006741167232712e-01  1.0009790249057536e-01  1.0006303970324837e-01  1.0012150515184277e-01  1.0004657491040102e-01  1.0018483032119944e-01  9.9938991270160801e-02  1.0038664403023347e-01  1.0005677930999156e-01  9.9506091159770105e-02  9.9861922278343312e-02  9.9975073602638159e-02  9.9821633707306998e-02  1.0000505214045245e-01  9.9909806419904518e-02  9.9940861068340256e-02  9.9947648956881630e-02  9.9949358156486104e-02  9.9944277493401568e-02  9.9962234646600132e-02  9.9958275134920033e-02  9.9960450486811944e-02  9.9968694380419734e-02  9.9969286516662884e-02  9.9970070644151393e-02  9.9975801515157586e-02  9.9976321688061379e-02  9.9977304768586850e-02  9.9980982925515716e-02  9.9981819886824128e-02  9.9983040122063938e-02  9.9985308604269171e-02  9.9986857306757687e-02  9.9987244760957744e-02  9.9990419840998740e-02  9.9989183088438890e-02  9.9994301600154406e-02  9.9989192109429262e-02  1.0000000000000003e-01  1.0001132531933811e-01  1.0000000000000003e-01  1.0000807509164043e-01  1.0001099097944210e-01  1.0001056583146251e-01  1.0001574165949746e-01  1.0001450649975380e-01  1.0001602036053202e-01  1.0002269798296437e-01  1.0002030502773629e-01  1.0002098608977099e-01  1.0003234102575777e-01  1.0002528431107158e-01  1.0003270975143061e-01  1.0003058516763864e-01  1.0004887873594515e-01  1.0004091092117971e-01  1.0005937026184648e-01  1.0004724829288816e-01  1.0005532554924239e-01  1.0007446357112589e-01  1.0006251419787841e-01  1.0007715463077196e-01  1.0008971769930802e-01  1.0009258047346278e-01  1.0008008251807009e-01  1.0013985184574092e-01  1.0004824131609739e-01  1.0020970583194497e-01  9.9932643496909307e-02  1.0044404025966941e-01  1.0014875608615034e-01  9.9452002114363475e-02  9.9804163137452440e-02  9.9914838018011473e-02  9.9920205595701528e-02  9.9889167827360806e-02  9.9928053510729323e-02  9.9933904229999676e-02  9.9941222583112013e-02  9.9921998118095406e-02  9.9954473174179742e-02  9.9944284163187028e-02  9.9947431405474824e-02  9.9959424707354014e-02  9.9959291768152672e-02  9.9959486640093617e-02  9.9968590793392278e-02  9.9968728640606172e-02  9.9969703945519975e-02  9.9975061416945024e-02  9.9975970382439647e-02  9.9976890932375398e-02  9.9980723085964188e-02  9.9981636619477468e-02  9.9983318618711556e-02  9.9985213480373411e-02  9.9987694308448768e-02  9.9987032334823742e-02  9.9992505908528553e-02  9.9987239540930098e-02  1.0000000000000003e-01  1.0001355088035600e-01  1.0000000000000003e-01  1.0000841147715876e-01  1.0001235443673621e-01  1.0001503364936722e-01  1.0001547257520009e-01  1.0001622453217079e-01  1.0002299099888376e-01  1.0002150717953190e-01  1.0002219576025168e-01  1.0003183206906956e-01  1.0002824041301135e-01  1.0003149710834107e-01  1.0004067133642594e-01  1.0003965885711803e-01  1.0002510720540549e-01  1.0007248743991122e-01  1.0004649050976762e-01  1.0005719233040108e-01  1.0007280863450152e-01  1.0006198817224041e-01  1.0006831795914559e-01  1.0009750996238714e-01  1.0007345500274471e-01  1.0010095666624751e-01  1.0009679832721741e-01  1.0012880629519676e-01  1.0005288958352582e-01  1.0022889333210901e-01  9.9907581786063807e-02  1.0048799566955144e-01  1.0011435581850517e-01  9.9492786513388554e-02  9.9755776440718619e-02  9.9997813928303411e-02  9.9878300578603682e-02  9.9901057746654462e-02  9.9893329007525219e-02  9.9960903219979122e-02  9.9895286077415116e-02  9.9959627077120264e-02  9.9931316487464186e-02  9.9938425251495266e-02  9.9953285304737363e-02  9.9953083405593404e-02  9.9951074999892059e-02  9.9964231941978621e-02  9.9963101787440542e-02  9.9964093146754501e-02  9.9971789530028429e-02  9.9972285783512291e-02  9.9972981778995024e-02  9.9978098029767967e-02  9.9979141980736805e-02  9.9980099185345062e-02  9.9984025630163037e-02  9.9984624764729566e-02  9.9987386904289099e-02  9.9987618502662037e-02  9.9992797438471420e-02  9.9988074775221106e-02  1.0000000000000003e-01  1.0001475179738462e-01  1.0000000000000003e-01  1.0000904748010964e-01  1.0001623367557505e-01  1.0001471465963477e-01  1.0001666148116491e-01  1.0002252318250734e-01  1.0002177259308757e-01  1.0002246872947394e-01  1.0003196073766001e-01  1.0002822196390108e-01  1.0003096539981497e-01  1.0004336696885410e-01  1.0003850967219391e-01  1.0003618723129330e-01  1.0006022676429496e-01  1.0002935493030746e-01  1.0006933984421755e-01  1.0007407841108934e-01  1.0006318968218551e-01  1.0006827730105375e-01  1.0009292290126248e-01  1.0007830266375242e-01  1.0008364756766944e-01  1.0012434042259574e-01  1.0008013400513543e-01  1.0013939623666190e-01  1.0007410732312366e-01  1.0021938349652286e-01  9.9913159205357691e-02  1.0052436402251147e-01  1.0009082519878949e-01  9.9443902562796005e-02  9.9812337764277878e-02  9.9959096714077156e-02  9.9844971816284780e-02  9.9940404997732907e-02  9.9910785217318734e-02  9.9860869759938672e-02  9.9968076465465697e-02  9.9915783359573754e-02  9.9931338485339055e-02  9.9942172292684567e-02  9.9945944406010304e-02  9.9939299598783490e-02  9.9958385710947104e-02  9.9955542408979553e-02  9.9955993699419515e-02  9.9965925284864143e-02  9.9966728842918753e-02  9.9967080446734843e-02  9.9973962727504723e-02  9.9974629964959219e-02  9.9975844719322901e-02  9.9980053348314779e-02  9.9981792581945700e-02  9.9982632602415286e-02  9.9986848215966401e-02  9.9986395148058557e-02  9.9991773877541948e-02  9.9987422436083537e-02  1.0000000000000003e-01  1.0001593733380255e-01  1.0000000000000003e-01  1.0001109218157320e-01  1.0001612281444965e-01  1.0001538131654579e-01  1.0002190041887399e-01  1.0002099763171186e-01  1.0002237848310458e-01  1.0003096997590072e-01  1.0002804198132799e-01  1.0002941843466739e-01  1.0004241203658631e-01  1.0003768656741122e-01  1.0003872007040510e-01  1.0005687804269744e-01  1.0004144382413126e-01  1.0005400632953958e-01  1.0005096675913969e-01  1.0007746674892737e-01  1.0006467471344448e-01  1.0009722870485049e-01  1.0006964507570378e-01  1.0008689387431081e-01  1.0010833455124012e-01  1.0009994090539157e-01  1.0008737380527222e-01  1.0016425291698046e-01  1.0005154891314479e-01  1.0023064028064242e-01  9.9924321892090745e-02  1.0052669820936809e-01  1.0014937694042432e-01  9.9394760080208366e-02  9.9777648728138643e-02  9.9928843499863529e-02  9.9891363533093427e-02  9.9926135819308634e-02  9.9871851839229225e-02  9.9938596053448042e-02  9.9883029400363366e-02  9.9940181059321315e-02  9.9927901969028940e-02  9.9946965099750151e-02  9.9924752157694502e-02  9.9955233234558308e-02  9.9948153791823577e-02  9.9948940951997897e-02  9.9961445069183696e-02  9.9961524910155655e-02  9.9960847313687873e-02  9.9970582823779533e-02  9.9970994948647390e-02  9.9971635163351349e-02  9.9977609155468578e-02  9.9978556159358620e-02  9.9980146880691442e-02  9.9983478918346455e-02  9.9986209464345693e-02  9.9985872400632836e-02  9.9992083336446158e-02  9.9987624684895346e-02  1.0000000000000003e-01  1.0001752563267118e-01  1.0000000000000003e-01  1.0001088388120706e-01  1.0001662680865296e-01  1.0001922818518966e-01  1.0002076152831130e-01  1.0002116431790706e-01  1.0002936383929274e-01  1.0002771148336177e-01  1.0002847162407956e-01  1.0003931923571181e-01  1.0003663422337915e-01  1.0003773920526003e-01  1.0005415046072583e-01  1.0004481259725174e-01  1.0004875181456059e-01  1.0006385766719694e-01  1.0005941863697401e-01  1.0003776397532757e-01  1.0011043438451035e-01  1.0006962824581757e-01  1.0008221894193543e-01  1.0011333158084748e-01  1.0008081187358761e-01  1.0010624467555485e-01  1.0011845974167957e-01  1.0013350725430964e-01  1.0006011074705015e-01  1.0025637771306291e-01  9.9900904241944241e-02  1.0054173552060486e-01  1.0014169196620165e-01  9.9415180553991900e-02  9.9742581703950325e-02  9.9975285176530232e-02  9.9869658538538617e-02  9.9889807662924268e-02  9.9918565586942662e-02  9.9914629944506159e-02  9.9897711140932599e-02  9.9901854916592189e-02  9.9958166262497969e-02  9.9907029467848366e-02  9.9956373010825009e-02  9.9938141347186440e-02  9.9941589239695636e-02  9.9955589566946515e-02  9.9956766612968651e-02  9.9953903364221039e-02  9.9966272625158212e-02  9.9965946624111721e-02  9.9966637670537692e-02  9.9974300899875759e-02  9.9975371087238793e-02  9.9975912040618675e-02  9.9981490755134309e-02  9.9982179368562768e-02  9.9984881148973817e-02  9.9986239809894031e-02  9.9991486433227403e-02  9.9987257142463079e-02  1.0000000000000003e-01  1.0001816893245487e-01  1.0000000000000003e-01  1.0001100860061912e-01  1.0001973138005070e-01  1.0001820529615026e-01  1.0002082832343243e-01  1.0002699076377680e-01  1.0002672649717376e-01  1.0002746067096342e-01  1.0003744216652057e-01  1.0003437159564123e-01  1.0003566339636073e-01  1.0005098340961197e-01  1.0004443598763954e-01  1.0004593446397159e-01  1.0006453787691608e-01  1.0005529564146164e-01  1.0005041668939040e-01  1.0008871275879132e-01  1.0003874580450768e-01  1.0009796838688782e-01  1.0010603392163517e-01  1.0008812781513984e-01  1.0008666428184571e-01  1.0014041638447606e-01  1.0008054942318176e-01  1.0014041276684760e-01  1.0009306230982028e-01  1.0022201086383098e-01  9.9908453886990503e-02  1.0056836284220033e-01  1.0012254285748606e-01  9.9389138417412481e-02  9.9775777698863713e-02  9.9962812391443820e-02  9.9836859572593098e-02  9.9931555318220247e-02  9.9900337058365152e-02  9.9894789174872087e-02  9.9921933377357067e-02  9.9929213648684165e-02  9.9877122867763721e-02  9.9969096680259745e-02  9.9925883529826953e-02  9.9940187641382225e-02  9.9947130851824481e-02  9.9953466758324103e-02  9.9946280480804214e-02  9.9963132518236131e-02  9.9961750693446844e-02  9.9961133198056148e-02  9.9970532335370704e-02  9.9971946211407300e-02  9.9972341937691306e-02  9.9978649406515518e-02  9.9980194753390886e-02  9.9980880947631551e-02  9.9986034976758384e-02  9.9985802131789828e-02  9.9991115059121755e-02  9.9987570455578281e-02  1.0000000000000003e-01  1.0001871532370551e-01  1.0000000000000003e-01  1.0001239952520823e-01  1.0001898487639782e-01  1.0001789120515120e-01  1.0002499214611886e-01  1.0002451649582708e-01  1.0002607737480965e-01  1.0003457689199584e-01  1.0003273366642176e-01  1.0003311436531212e-01  1.0004678333560843e-01  1.0004203707971138e-01  1.0004328302939273e-01  1.0006102476945931e-01  1.0005203520787688e-01  1.0005217468738700e-01  1.0007931785288045e-01  1.0005503015526600e-01  1.0007111806949606e-01  1.0007190796145139e-01  1.0010001507784722e-01  1.0008805631560774e-01  1.0012814643692811e-01  1.0009646390436068e-01  1.0009026286257917e-01  1.0017637781914751e-01  1.0005215705071843e-01  1.0022403545983709e-01  9.9946407605902829e-02  1.0052870715161022e-01  1.0016392755566110e-01  9.9339459222414175e-02  9.9765702186658659e-02  9.9935899160415412e-02  9.9871922192744364e-02  9.9920279820615437e-02  9.9873031930474213e-02  9.9924282902921574e-02  9.9919355299555590e-02  9.9899975249436834e-02  9.9938902211136493e-02  9.9903206984683815e-02  9.9949048002506591e-02  9.9936407328878055e-02  9.9955130534456496e-02  9.9935904268705633e-02  9.9960764474891953e-02  9.9956662846740235e-02  9.9956360179662418e-02  9.9967333442872300e-02  9.9967952885778130e-02  9.9967133113109258e-02  9.9976195512571683e-02  9.9976959357271494e-02  9.9978168277904039e-02  9.9982753435879548e-02  9.9985366701227790e-02  9.9984971022241700e-02  9.9991586080047851e-02  9.9987461109392911e-02  1.0000000000000003e-01  1.0001978926403556e-01  1.0000000000000003e-01  1.0001195804986404e-01  1.0001884638417145e-01  1.0002083790757327e-01  1.0002330294975741e-01  1.0002367312410819e-01  1.0003180178928897e-01  1.0003090202259905e-01  1.0003130580056570e-01  1.0004223408143603e-01  1.0003995057875566e-01  1.0004025501705018e-01  1.0005607124047829e-01  1.0004983086565114e-01  1.0004927790045577e-01  1.0007293567293764e-01  1.0005776980153964e-01  1.0006225624776643e-01  1.0008447956448936e-01  1.0007591367300582e-01  1.0004347098840767e-01  1.0015014552973410e-01  1.0007965668032588e-01  1.0011113490227075e-01  1.0013064115110859e-01  1.0012479991772197e-01  1.0005873340446723e-01  1.0026424187687692e-01  9.9904770082900052e-02  1.0052389161703457e-01  1.0018075678806140e-01  9.9341915144174259e-02  9.9731366334132071e-02  9.9968860695581155e-02  9.9866922513164230e-02  9.9893279641084812e-02  9.9904078962674434e-02  9.9919165995845063e-02  9.9891573478544993e-02  9.9934279429830311e-02  9.9926396056569639e-02  9.9920295265339243e-02  9.9914785956245894e-02  9.9968007586666505e-02  9.9923395487369213e-02  9.9963169368201599e-02  9.9949869836965188e-02  9.9952231294494098e-02  9.9963457868848735e-02  9.9965599442548514e-02  9.9962858416705533e-02  9.9972950257302531e-02  9.9973627759143854e-02  9.9974325396331151e-02  9.9981265951571197e-02  9.9982133195386833e-02  9.9984213627563809e-02  9.9986489599855496e-02  9.9991367770739525e-02  9.9987474079452493e-02  1.0000000000000003e-01  1.0001983018772569e-01  1.0000000000000003e-01  1.0001152193996071e-01  1.0002085821585081e-01  1.0001920767334306e-01  1.0002231476525347e-01  1.0002782317283752e-01  1.0002845324331243e-01  1.0002906001935341e-01  1.0003845981266205e-01  1.0003632019134027e-01  1.0003721202179669e-01  1.0005106225482399e-01  1.0004646790618732e-01  1.0004551119589843e-01  1.0006583779008200e-01  1.0005615653299146e-01  1.0005567319257934e-01  1.0008281559081800e-01  1.0006719630949122e-01  1.0005980565174198e-01  1.0011273858400115e-01  1.0004429624243627e-01  1.0011399832069956e-01  1