<?xml version="1.0"?>
<VTKFile type="UnstructuredGrid"  version="0.1"  >
<UnstructuredGrid>
<Piece  NumberOfPoints="1933" NumberOfCells="3640">
<Points>
<DataArray  type="Float64"  NumberOfComponents="3"  format="ascii">-0.2935539341932731 -0.002867646617964153 0  4.706446101482356 -0.00278184023249765 0  4.706317346886918 7.497218225204968 0  -0.2936826878625266 7.497132423587834 0  9.706446172530166 -0.002696070951439889 0  9.706317396278399 7.497303985517938 0  14.7064462987745 -0.002610295973825149 0  14.70631746066695 7.497389752422057 0  19.7064464872844 -0.002524467105651775 0  19.70631753672307 7.49747557497408 0  24.70644673556575 -0.002438536080270771 0  24.70631761722378 7.497561501138194 0  29.70644703416112 -0.00235245595870131 0  29.70631769087692 7.497647577321253 0  34.706447368279 -0.002266180938596909 0  34.70631774217657 7.497733848823605 0  39.70644771857472 -0.002179665540994175 0  39.70631775117213 7.497820360697998 0  44.70644806127368 -0.002092863577259517 0  44.70631769306173 7.49790715876406 0  49.7064483677829 -0.002005727049378362 0  49.70631753755235 7.497994290672726 0  54.70644860387243 -0.001918205022743582 0  54.70631724794206 7.498081806993697 0  59.70644872844895 -0.001830242455643665 0  59.70631677987681 7.498169762341126 0  64.70644869188996 -0.001741778939194599 0  64.70631607971572 7.498258216577227 0  69.7064484338473 -0.001652747278557838 0  69.70631508241351 7.498347236150724 0  74.70644788036611 -0.001563071821514801 0  74.70631370878911 7.49843689564316 0  79.70644694006648 -0.001472666407042397 0  79.70631186199948 7.49852727961349 0  84.7064454989977 -0.001381431758186369 0  84.7063094229716 7.498618484849686 0  89.70644341354465 -0.001289252073626991 0  89.70630624446518 7.498710623149067 0  94.70644050039479 -0.001195990474507521 0  94.70630214335078 7.498803824738881 0  99.70643652192874 -0.001101482835896432 0  99.70629689062271 7.498898242371676 0  104.7064311642885 -0.001005529393404842 0  104.7062901986959 7.498994055884731 0  109.7064240034061 -0.0009078834407151166 0  109.7062817058489 7.499091476371656 0  114.7064144507604 -0.0008082366596127779 0  114.7062709587055 7.499190747585452 0  119.7064016642812 -0.0007062018114523184 0  119.7062573963073 7.499292138718974 0  124.7063843983541 -0.0006012974361479418 0  124.7062403456222 7.499395915088445 0  129.7063607461627 -0.0004929505411020125 0  129.7062190522887 7.499502257000293 0  134.7063276904591 -0.0003805647243078447 0  134.7061928000897 7.499611063598938 0  139.7062803127887 -0.0002637891925529284 0  139.7061612335222 7.499721513365985 0  144.7062103934774 -0.0001433838696467201 0  144.70612511893 7.49983114342296 0  149.7061039109272 -2.392334495798576e-05 0  149.7060880186566 7.499934117041101 0  159.7061073738538 9.464967015039221e-19 0  164.7061459995794 7.335363246410602e-06 0  164.7061152634701 7.500001848545541 0  159.7060962272863 7.499987365747669 0  169.7061846784511 3.767515493334257e-05 0  169.7061340999657 7.500035326907173 0  174.7062199757862 8.347472426199746e-05 0  174.706152525469 7.500082549883574 0  179.7062509427791 0.0001399271415080917 0  179.706170052062 7.500139652421028 0  184.7062776244066 0.0002038716026835027 0  184.706186312 7.500203888565526 0  189.7063004239807 0.0002731799154743444 0  189.7062011115893 7.500273320543436 0  194.7063198362359 0.0003463879778636216 0  194.7062143949006 7.500346573670344 0  199.7063363409485 0.000422467480441218 0  199.706226195943 7.500422662106893 0  204.7063503659313 0.0005006817695356863 0  204.7062366002881 7.500500869441056 0  209.7063622790823 0.0005804933089534575 0  209.7062457187902 7.500580667745783 0  214.7063723917447 0.0006615032074589974 0  214.7062536710695 7.500661662628629 0  219.7063809657452 0.000743410934326009 0  219.7062605758164 7.50074355560132 0  224.7063882209644 0.0008259869350635632 0  224.7062665455115 7.500826117978281 0  229.7063943422801 0.0009090536324663891 0  229.7062716838868 7.500909172500185 0  234.7063994855546 0.000992471983153309 0  234.7062760850261 7.500992580193167 0  239.7064037826703 0.001076131791444243 0  239.7062798334153 7.501076230830312 0  244.7064073457444 0.001159944621169443 0  244.7062830045157 7.5011600359158 0  249.7064102706645 0.001243838547756327 0  249.7062856656088 7.501243923472726 0  254.7064126400946 0.001327754251313814 0  254.7062878767677 7.501327834153928 0  259.706414526068 0.001411642123208767 0  259.7062896918583 7.501411718356453 0  264.70641599228 0.001495460178952839 0  264.7062911595289 7.501495534134484 0  269.7064170961467 0.001579172661831158 0  269.7062923241515 7.501579245791689 0  274.7064178907107 0.001662749300543612 0  274.7062932266796 7.501662823105762 0  279.7064184263993 0.001746165262869889 0  279.7062939053999 7.501746241204003 0  284.7064187526275 0.00182940193700917 0  284.7062943965256 7.501829481175489 0  289.7064189191018 0.001912448781699779 0  289.7062947345936 7.501912531573988 0  294.7064189765163 0.001995306614166017 0  294.7062949526191 7.501995391028665 0  299.7064189759416 0.002077992806585226 0  299.7062950820461 7.502078072217699 0  304.7064189654882 0.002160548714382498 0  304.7062951527436 7.502160607454277 0  309.7064189813595 0.002243048289795056 0  309.7062951938747 7.502243056237607 0  4.706188563780058 14.99721834732181 0  -0.2938114653481181 14.9971325926928 0  9.706188586669994 14.99730406265443 0  14.7061885976308 14.99738979329231 0  19.70618858842422 14.99747558758089 0  24.70618854881528 14.99756149093305 0  29.70618846622809 14.99764754713661 0  34.70618832519581 14.99773379923971 0  39.70618810677868 14.99782029039766 0  44.70618778795583 14.99790706474416 0  49.70618734095238 14.99799416828332 0  54.70618673245689 14.99808164979692 0  59.70618592268885 14.99816956177224 0  64.70618486428349 14.99825796136414 0  69.70618350096542 14.99834691140752 0  74.70618176600033 14.99843648149132 0  79.7061795804308 14.99852674908734 0  84.70617685116191 14.99861780068603 0  89.70617346905104 14.99870973280608 0  94.70616930734863 14.99880265257352 0  99.70616422116836 14.99889667723141 0  104.7061580492666 14.99899193130242 0  109.7061506204193 14.99908853892459 0  114.7061417683483 14.99918660667537 0  119.7061313616793 14.99928618825488 0  124.7061193588776 14.99938721563239 0  129.7061059017942 14.99948937040434 0  134.7060914623307 14.99959185384481 0  139.7060770458859 14.99969299915156 0  144.7060644099085 14.99978967606298 0  149.7060561232003 14.99987652841108 0  164.7060734593986 14.99998697299899 0  159.7060661840105 14.99995378629973 0  169.7060799305533 15.00002933693056 0  174.706086660308 15.00008072772271 0  179.7060937939638 15.00013972183619 0  184.7061011570882 15.00020475429906 0  189.7061085105784 15.0002744622274 0  194.7061156463015 15.00034775118738 0  199.7061224130627 15.00042377137022 0  204.7061287149025 15.00050187158735 0  209.7061345004434 15.00058155439839 0  214.7061397510683 15.000662438949 0  219.706144470728 15.00074423212276 0  224.7061486780406 15.00082670676941 0  229.7061524005244 15.0009096854523 0  234.7061556705696 15.00099302833916 0  239.7061585227136 15.00107662415486 0  244.7061609918677 15.00116038339049 0  249.7061631122185 15.00124423318521 0  254.7061649165913 15.00132811346486 0  259.7061664361247 15.00141197404698 0  264.7061677001471 15.00149577251381 0  269.706168736178 15.00157947272638 0  274.7061695699949 15.00166304390766 0  279.7061702257341 15.00174646026524 0  284.7061707260291 15.00182970115577 0  289.7061710922032 15.00191275180502 0  294.7061713446577 15.00199560457837 0  299.7061715036731 15.00207826072393 0  304.7061715911046 15.00216073236394 0  309.7061716337854 15.00224304431363 0  4.706059913414066 22.49721852173043 0  -0.2939401107290309 22.49713288464852 0  9.706059919923852 22.49730414465541 0  14.70605989809212 22.49738980164296 0  19.70605983767005 22.49747553557789 0  24.7060597279754 22.49756138666251 0  29.70605955726339 22.4976473939583 0  34.7060593121376 22.49773359633588 0  39.70605897700221 22.49782003319061 0  44.70605853356185 22.49790674507875 0  49.70605796036439 22.49799377432658 0  54.70605723237595 22.49808116561987 0  59.70605632058963 22.49816896656411 0  64.7060551916867 22.49825722819321 0  69.70605380779625 22.49834600538636 0  74.70605212644416 22.49843535712352 0  79.70605010084179 22.49852534645624 0  84.70604768076365 22.4986160399789 0  89.70604481440563 22.49870750643228 0  94.70604145182597 22.49879981381414 0  99.70603755087386 22.49889302395045 0  104.7060330869081 22.49898718280207 0  109.7060280680931 22.49908230372069 0  114.7060225585138 22.49917833928735 0  119.7060167114635 22.49927513520169 0  124.7060108143486 22.499372357211 0  129.7060053432663 22.49946938055568 0  134.7060010169926 22.49956513476962 0  139.7059988233726 22.49965791499426 0  144.7059999635605 22.49974522771941 0  149.7060056293558 22.4998238848668 0  164.7060142945474 22.49996877214572 0  159.7060141763907 22.49992115853992 0  169.7060138696514 22.50002044443448 0  174.7060136237405 22.50007729046635 0  179.7060139447022 22.50013928516628 0  184.7060149274708 22.50020586028802 0  189.7060165020924 22.50027627963235 0  194.7060185303972 22.50034982170103 0  199.706020861819 22.50042585199251 0  204.706023360371 22.50050384105969 0  209.7060259147343 22.50058335902251 0  214.7060284395989 22.50066406169706 0  219.7060308730502 22.50074567523489 0  224.7060331725884 22.5008279820654 0  229.7060353110437 22.50091080902157 0  234.7060372729387 22.5009940177015 0  239.7060390514701 22.50107749680748 0  244.7060406461089 22.50116115612544 0  249.7060420607413 22.50124492182498 0  254.7060433022582 22.50132873281039 0  259.7060443794908 22.50141253790931 0  264.7060453024227 22.50149629373544 0  269.706046081605 22.5015799631035 0  274.7060467277433 22.50166351390471 0  279.7060472514343 22.50174691836802 0  284.7060476630708 22.50183015263114 0  289.7060479729759 22.5019131965185 0  294.7060481918946 22.50199603335414 0  299.706048332027 22.5020786495045 
[...]
<PointData  Scalars="p"> 
<DataArray  type="Float64"  Name="p"  format="ascii">1.0000000000000001e-01  1.0000000000000003e-01  9.9996279273829647e-02  1.0000000000000003e-01  1.0000000000000003e-01  9.9996371120809419e-02  1.0000000000000003e-01  9.9994517249848314e-02  1.0000000000000003e-01  9.9993884659232285e-02  1.0000000000000003e-01  9.9992605671337970e-02  1.0000000000000003e-01  9.9990002987716972e-02  1.0000000000000003e-01  9.9989203004425889e-02  1.0000000000000003e-01  9.9987422515877750e-02  1.0000000000000003e-01  9.9984441738747501e-02  1.0000000000000003e-01  9.9984948221009812e-02  1.0000000000000003e-01  9.9975753099576126e-02  1.0000000000000003e-01  9.9972296599719124e-02  1.0000000000000003e-01  9.9967493611772040e-02  1.0000000000000003e-01  9.9964054434108301e-02  1.0000000000000003e-01  9.9955705108279100e-02  1.0000000000000003e-01  9.9952659948084319e-02  1.0000000000000003e-01  9.9946046829303900e-02  1.0000000000000003e-01  9.9936088346289351e-02  1.0000000000000003e-01  9.9932729758839559e-02  1.0000000000000003e-01  9.9921854669911020e-02  1.0000000000000003e-01  9.9914927773696566e-02  1.0000000000000003e-01  9.9902627324927273e-02  1.0000000000000003e-01  9.9903554813754014e-02  1.0000000000000003e-01  9.9874233119638250e-02  1.0000000000000003e-01  9.9897778859013048e-02  1.0000000000000003e-01  9.9838707560746892e-02  1.0000000000000003e-01  9.9901746199694386e-02  1.0000000000000003e-01  9.9791186278071251e-02  1.0000000000000003e-01  9.9919744595389465e-02  1.0000000000000001e-01  9.9713647245574188e-02  1.0000000000000001e-01  1.0000000000000003e-01  1.0019940842158917e-01  1.0044706589901675e-01  1.0000000000000003e-01  1.0004302067584690e-01  1.0000000000000003e-01  1.0015489212762455e-01  1.0000000000000003e-01  1.0009156194714643e-01  1.0000000000000003e-01  1.0010891800730444e-01  1.0000000000000003e-01  1.0009217706452986e-01  1.0000000000000003e-01  1.0009805903418727e-01  1.0000000000000003e-01  1.0008383357651524e-01  1.0000000000000003e-01  1.0008509979798623e-01  1.0000000000000003e-01  1.0007978569275029e-01  1.0000000000000003e-01  1.0007537182761672e-01  1.0000000000000003e-01  1.0007220179342068e-01  1.0000000000000003e-01  1.0006997381525098e-01  1.0000000000000003e-01  1.0006589258243143e-01  1.0000000000000003e-01  1.0006400343315809e-01  1.0000000000000003e-01  1.0006197027816995e-01  1.0000000000000003e-01  1.0005948614395202e-01  1.0000000000000003e-01  1.0005783898451460e-01  1.0000000000000003e-01  1.0005663589240557e-01  1.0000000000000003e-01  1.0005462050109787e-01  1.0000000000000003e-01  1.0005398790580410e-01  1.0000000000000003e-01  1.0005216819417687e-01  1.0000000000000003e-01  1.0005240811114108e-01  1.0000000000000003e-01  1.0004916645189894e-01  1.0000000000000003e-01  1.0005262954106274e-01  1.0000000000000003e-01  1.0004465590493464e-01  1.0000000000000003e-01  1.0005611166547641e-01  1.0000000000000003e-01  1.0003544129246475e-01  1.0000000000000003e-01  1.0007041206090679e-01  1.0000000000000001e-01  1.0000000000000003e-01  9.9993117694535658e-02  1.0000000000000003e-01  9.9993607016137923e-02  9.9993214913699197e-02  9.9992324203005495e-02  9.9989699994539410e-02  9.9989991292053798e-02  9.9989357274563581e-02  9.9985415555453816e-02  9.9987478029034293e-02  9.9985720329477709e-02  9.9983196253167123e-02  9.9972827579094314e-02  9.9977147413197104e-02  9.9966844141512912e-02  9.9971821504289973e-02  9.9967063648503468e-02  9.9959042345480073e-02  9.9960786297060428e-02  9.9957060937404155e-02  9.9944429912529970e-02  9.9951102061143646e-02  9.9938854431878651e-02  9.9939018677791314e-02  9.9925358496948169e-02  9.9946982824301048e-02  9.9890454371114282e-02  9.9981255138387501e-02  9.9820615880979610e-02  1.0006600575004398e-01  9.9710216821457365e-02  9.9798424086307236e-02  1.0066041631867756e-01  1.0021656878901430e-01  1.0002839346849308e-01  1.0006051035183591e-01  1.0004846103531538e-01  1.0007043259455649e-01  1.0004070559750014e-01  1.0005444898242379e-01  1.0004927547474979e-01  1.0004278051082806e-01  1.0004212617956645e-01  1.0004207838257308e-01  1.0003571154052338e-01  1.0003547279803303e-01  1.0003445839117465e-01  1.0003083341834658e-01  1.0003007092413213e-01  1.0002927857066445e-01  1.0002693500097476e-01  1.0002596616160025e-01  1.0002559523061205e-01  1.0002327381886254e-01  1.0002363171731149e-01  1.0002104432310369e-01  1.0002305896265129e-01  1.0001673722076952e-01  1.0002621365807124e-01  1.0000795502079785e-01  1.0003457671471716e-01  1.0000000000000003e-01  9.9989471551318598e-02  1.0000000000000003e-01  9.9993282529725683e-02  9.9990153165822340e-02  9.9987544208484450e-02  9.9987335077795406e-02  9.9986628129536778e-02  9.9980968650083227e-02  9.9982414021254226e-02  9.9981762331593060e-02  9.9975657296225595e-02  9.9974024246938784e-02  9.9979985524454126e-02  9.9951206710262239e-02  9.9963168085768508e-02  9.9956594162347520e-02  9.9944909092760409e-02  9.9950128601872829e-02  9.9943729146212662e-02  9.9927540561626199e-02  9.9932663250675138e-02  9.9926584278832581e-02  9.9903513657400120e-02  9.9920276818898882e-02  9.9892995967170314e-02  9.9906477210763497e-02  9.9866532484283052e-02  9.9933956908057051e-02  9.9783866677305225e-02  1.0005578499446134e-01  9.9547228509327373e-02  9.9881123968660057e-02  1.0057402271045177e-01  1.0031591981787834e-01  1.0006114101197523e-01  1.0008381907144150e-01  1.0013428653860856e-01  1.0005730893297686e-01  1.0010056525826430e-01  1.0008784294951448e-01  1.0007508792884366e-01  1.0007593359527572e-01  1.0007759283425802e-01  1.0006457824770436e-01  1.0006580399324937e-01  1.0006419934021345e-01  1.0005697442374016e-01  1.0005610051404187e-01  1.0005526776809796e-01  1.0005032929860840e-01  1.0004953827453147e-01  1.0004834602385709e-01  1.0004549873035767e-01  1.0004389378279976e-01  1.0004387546868582e-01  1.0003995548666819e-01  1.0004187587268119e-01  1.0003601196877977e-01  1.0004282399359453e-01  1.0002679848538235e-01  1.0005473509387450e-01  1.0000000000000003e-01  9.9987159646176563e-02  1.0000000000000003e-01  9.9991960234184663e-02  9.9985877568929071e-02  9.9986774848839916e-02  9.9985903090768533e-02  9.9979870880511759e-02  9.9981381634536071e-02  9.9980708317916445e-02  9.9973233407056092e-02  9.9976210228094914e-02  9.9976172455331802e-02  9.9959899408885264e-02  9.9976815458315216e-02  9.9951288177103928e-02  9.9947241992630192e-02  9.9951224755167628e-02  9.9950325335207091e-02  9.9930788873008797e-02  9.9942793087081802e-02  9.9932498904473172e-02  9.9916681710496044e-02  9.9921365116072580e-02  9.9922869420157448e-02  9.9885110338325936e-02  9.9931606122728209e-02  9.9859674883069946e-02  9.9955748736905284e-02  9.9779940442620563e-02  1.0009285040480190e-01  9.9521594084498455e-02  9.9890254474205145e-02  1.0071898378932415e-01  1.0020132296887750e-01  1.0002636692996202e-01  1.0022811027069056e-01  9.9996020006870759e-02  1.0011268145149681e-01  1.0007836104623481e-01  1.0007106327867253e-01  1.0006954666094822e-01  1.0007850269562006e-01  1.0005725321040761e-01  1.0006269996144516e-01  1.0006128262194686e-01  1.0005162754942543e-01  1.0005109994055737e-01  1.0005071202335922e-01  1.0004390072258969e-01  1.0004329695389984e-01  1.0004255067816253e-01  1.0003805562344488e-01  1.0003744040234284e-01  1.0003580688360809e-01  1.0003396969417026e-01  1.0003095534868603e-01  1.0003313177945353e-01  1.0002531455416326e-01  1.0003413787416834e-01  1.0001647519415342e-01  1.0004193735921471e-01  1.0000000000000003e-01  9.9984792149519289e-02  1.0000000000000003e-01  9.9989281553118425e-02  9.9985175360708625e-02  9.9985959884713149e-02  9.9978990126316683e-02  9.9980701502623434e-02  9.9979305594135592e-02  9.9970975862837860e-02  9.9974285312859443e-02  9.9974206847889727e-02  9.9959981074993015e-02  9.9968361157803845e-02  9.9960532362021196e-02  9.9959758027733936e-02  9.9939915444149915e-02  9.9947780641290507e-02  9.9924550901885012e-02  9.9939853311123927e-02  9.9932380112203567e-02  9.9908358026619459e-02  9.9925373515809421e-02  9.9909946965444821e-02  9.9895446984403322e-02  9.9893497193181011e-02  9.9913920804968359e-02  9.9837509891918599e-02  9.9957662320966451e-02  9.9750909192647855e-02  1.0010617728588471e-01  9.9447115672145453e-02  9.9764020233159154e-02  1.0080751407334951e-01  1.0027081187692335e-01  1.0010138078118840e-01  1.0011627641519770e-01  1.0013716010914533e-01  1.0009488375834000e-01  1.0008853514029754e-01  1.0007835623582755e-01  1.0010640554100868e-01  1.0006750022080962e-01  1.0008076438835480e-01  1.0007901638914914e-01  1.0006512180205730e-01  1.0006555566402890e-01  1.0006641422158435e-01  1.0005558384093927e-01  1.0005552042329324e-01  1.0005481113513477e-01  1.0004851155146217e-01  1.0004740464871359e-01  1.0004690051542445e-01  1.0004204390719973e-01  1.0004183090345610e-01  1.0003901736957090e-01  1.0003886023015227e-01  1.0003282665012275e-01  1.0003994676586951e-01  1.0002271098200829e-01  1.0004894756495104e-01  1.0000000000000003e-01  9.9982001098120984e-02  1.0000000000000003e-01  9.9989025086554578e-02  9.9983988363738813e-02  9.9980648295853194e-02  9.9980042779546724e-02  9.9979519754942028e-02  9.9971020745832431e-02  9.9973159330328146e-02  9.9973376285590845e-02  9.9961278476972518e-02  9.9966080303029767e-02  9.9963392052631703e-02  9.9950746004142291e-02  9.9953092337279406e-02  9.9969461711179333e-02  9.9913013094566600e-02  9.9942142122990657e-02  9.9931369253391231e-02  9.9910650178562710e-02  9.9926070523563504e-02  9.9921456138936229e-02  9.9885094106288638e-02  9.9918126654886891e-02  9.9886775159506738e-02  9.9894341013350124e-02  9.9853495595311120e-02  9.9957232374022764e-02  9.9726226728703918e-02  1.0014460259027853e-01  9.9388279754801995e-02  9.9790236418024342e-02  1.0076788150667651e-01  1.0033365406895201e-01  9.9990846165102953e-02  1.0015680040181042e-01  1.0012637472374138e-01  1.0013662125941128e-01  1.0004664737194392e-01  1.0013331007297549e-01  1.0005454020917739e-01  1.0008991262955563e-01  1.0008429023407386e-01  1.0006721701659961e-01  1.0006786393980271e-01  1.0007210822536962e-01  1.0005648625186436e-01  1.0005807265971134e-01  1.0005775716979604e-01  1.0004851819415203e-01  1.0004807871215224e-01  1.0004761286357584e-01  1.0004183292833520e-01  1.0004038315311191e-01  1.0004039381925967e-01  1.0003467423430702e-01  1.0003642919070822e-01  1.0002989465723891e-01  1.0003612990032035e-01  1.0001957437394057e-01  1.0004401609293311e-01  1.0000000000000003e-01  9.9980484656416166e-02  1.0000000000000003e-01  9.9988533133769722e-02  9.9979225795011423e-02  9.9981418163150676e-02  9.9979308708351963e-02  9.9971993682982388e-02  9.9972868601842679e-02  9.9973080457918057e-02  9.9961108494944759e-02  9.9966137485128462e-02  9.9964287372847807e-02  9.9948279272571022e-02  9.9954922531024698e-02  9.9958768051818928e-02  9.9929104889943887e-02  9.9964375964823535e-02  9.9920661492424359e-02  9.9909389261729611e-02  9.9924615585577595e-02  9.9920315982580929e-02  9.9889933446584200e-02  9.9909982372773168e-02  9.9908232944128067e-02  9.9856568636405046e-02  9.9916922833733379e-02  9.9842758096742840e-02  9.9931853009465763e-02  9.9737649330705738e-02  1.0014576424148024e-01  9.9334190810220394e-02  9.9815146388697915e-02  1.0083432523857001e-01  1.0026511982052520e-01  1.0002937912709224e-01  1.0020047345965137e-01  1.0007459478480633e-01  1.0011680163909664e-01  1.0017482126791159e-01  1.0004297247196953e-01  1.0010675760115746e-01  1.0009056715017949e-01  1.0007912064121459e-01  1.0007482037741387e-01  1.0008548898848531e-01  1.0006296641793905e-01  1.0006685606902310e-01  1.0006750502688398e-01  1.0005585801507637e-01  1.0005498378683317e-01  1.0005527626273793e-01  1.0004698900227453e-01  1.0004654535122726e-01  1.0004523339097278e-01  1.0004104074378686e-01  1.0003819450157073e-01  1.0003956944020836e-01  1.0003153565102708e-01  1.0003835101826578e-01  1.0002197611070626e-01  1.0004582857324640e-01  1.0000000000000003e-01  9.9979076005970821e-02  1.0000000000000003e-01  9.9986021581060500e-02  9.9979503623871091e-02  9.9981140941525048e-02  9.9972934678826980e-02  9.9974271703390141e-02  9.9973352705304469e-02  9.9962453258411174e-02  9.9966455510168237e-02  9.9965983249983820e-02  9.9949683784912757e-02  9.9956075831471258e-02  9.9956316244622506e-02  9.9933512927388821e-02  9.9952580506839694e-02  9.9940352969048019e-02  9.9938979208825149e-02  9.9911560804139044e-02  9.9925249411418171e-02  9.9884219120597376e-02  9.9919625198853557e-02  9.9902281265973294e-02  9.9875898616262171e-02  9.9888103832270925e-02  9.9911038561793175e-02  9.9810128829643699e-02  9.9962505746771513e-02  9.9724331009231185e-02  1.0013621901989640e-01  9.9323142396503666e-02  9.9736092244778016e-02  1.0090338899686514e-01  1.0030416070103654e-01  1.0006503050873568e-01  1.0013969153973501e-01  1.0008403995888845e-01  1.0016261703384392e-01  1.0008211799533499e-01  1.0014590049221156e-01  1.0007558638477382e-01  1.0009316611891479e-01  1.0006875150738549e-01  1.0009939173967113e-01  1.0006324778040893e-01  1.0007239629010785e-01  1.0007325363749409e-01  1.0005874001180089e-01  1.0005880281149312e-01  1.0006064609708240e-01  1.0004920316856210e-01  1.0004866952951548e-01  1.0004870332446125e-01  1.0004134282774370e-01  1.0004111377508290e-01  1.0003865281637195e-01  1.0003689784130883e-01  1.0003079415547467e-01  1.0003742653308954e-01  1.0002035355500886e-01  1.0004365202450194e-01  1.0000000000000003e-01  9.9977070371709387e-02  1.0000000000000003e-01  9.9986339449048445e-02  9.9979225316097237e-02  9.9976376877873377e-02  9.9974534993729589e-02  9.9974942634052183e-02  9.9964617700091643e-02  9.9966997925823281e-02  9.9967053812515069e-02  9.9953361972354327e-02  9.9957066446038009e-02  9.9957354072566243e-02  9.9936609616903524e-02  9.9948646842116212e-02  9.9946512756543052e-02  9.9926102013189785e-02  9.9933899271552717e-02  9.9958972422562631e-02  9.9872601573206182e-02  9.9919078499424788e-02  9.9907849196911716e-02  9.9866687897449402e-02  9.9911019750852648e-02  9.9882713974452905e-02  9.9870041986919372e-02  9.9848723889268590e-02  9.9955443374215691e-02  9.9688339951120170e-02  1.0017070512283047e-01  9.9297654238165584e-02  9.9738675695308282e-02  1.0088231881759771e-01  1.0034985667663665e-01  1.0000491055457454e-01  1.0016210626441796e-01  1.0012792236068371e-01  1.0010330704525748e-01  1.0010544036903919e-01  1.0013399084088258e-01  1.0012538630440310e-01  1.0005288694291090e-01  1.0011903666844586e-01  1.0005922737936804e-01  1.0008215958310780e-01  1.0008025801798855e-01  1.0006429279025632e-01  1.0006309782438039e-01  1.0006815577436540e-01  1.0005348955171325e-01  1.0005417203333129e-01  1.0005407536420034e-01  1.0004520100569109e-01  1.0004374408479905e-01  1.0004426819491437e-01  1.0003685052491541e-01  1.0003819719230203e-01  1.0003244799899286e-01  1.0003669583824742e-01  1.0002125776814928e-01  1.0004383646235493e-01  1.0000000000000003e-01  9.9976273913135280e-02  1.0000000000000003e-01  9.9986373275511381e-02  9.9975286946992273e-02  9.9977718001047516e-02  9.9975032855116608e-02  9.9967570618186549e-02  9.9968130588542217e-02  9.9968335811177908e-02  9.9955801229437077e-02  9.9959655131471786e-02  9.9959648656824662e-02  9.9940095664020373e-02  9.9948630507134942e-02  9.9949229330993941e-02  9.9925357139621793e-02  9.9938180893035355e-02  9.9946298888095100e-02  9.9899163079021594e-02  9.9957247281668327e-02  9.9893023854546070e-02  9.9875471476666713e-02  9.9900020576333778e-02  9.9905997935683388e-02  9.9837247566384360e-02  9.9917517514332393e-02  9.9842684807217308e-02  9.9911705035288831e-02  9.9730293688771871e-02  1.0016706885530421e-01  9.9254353001899026e-02  9.9759977785019757e-02  1.0091333293908136e-01  1.0030859981025629e-01  1.0001546340175979e-01  1.0020260118877469e-01  1.0007429664252575e-01  1.0011998286013767e-01  1.0012870787088879e-01  1.0010085115063427e-01  1.0009303553308005e-01  1.0015579733485797e-01  1.0004116029985141e-01  1.0009456965628130e-01  1.0007861670319529e-01  1.0007187103220946e-01  1.0006437674503620e-01  1.0007510704362454e-01  1.0005536935399441e-01  1.0005736957498958e-01  1.0005922773625278e-01  1.0004819385752248e-01  1.0004688193636782e-01  1.0004672338102481e-01  1.0003995951707202e-01  1.0003739814351938e-01  1.0003890164197260e-01  1.0003015064868026e-01  1.0003616979626849e-01  1.0002106685179492e-01  1.0004213626044779e-01  1.0000000000000003e-01  9.9975624276696512e-02  1.0000000000000003e-01  9.9984571917429724e-02  9.9976167591088475e-02  9.9978449233108502e-02  9.9969665763346927e-02  9.9970667478086681e-02  9.9969652978951315e-02  9.9959208058712931e-02  9.9961699768995507e-02  9.9962540707391884e-02  9.9945092512078976e-02  9.9951171621278659e-02  9.9951459694402819e-02  9.9928937905875218e-02  9.9941043678118555e-02  9.9943617789873943e-02  9.9909612430805664e-02  9.9939860069339650e-02  9.9925278326153236e-02  9.9916926497349332e-02  9.9890313582472481e-02  9.9902613765076392e-02  9.9852162550824061e-02  9.9891711878780542e-02  9.9908231165604641e-02  9.9793602000869383e-02  9.9962760605539186e-02  9.9729557155981183e-02  1.0011803852380921e-01  9.9298461425451914e-02  9.9708539441607749e-02  1.0097014474043441e-01  1.0031901775306076e-01  1.0004787007641414e-01  1.0015900471406175e-01  1.0008459433960644e-01  1.0015372501553238e-01  1.0009033900601687e-01  1.0009992847847229e-01  1.0012732603521751e-01  1.0008407595626055e-01  1.0012309693915784e-01  1.0006609912684657e-01  1.0008334434048434e-01  1.0005969527384527e-01  1.0008567779243430e-01  1.0005636355384163e-01  1.0006181911314248e-01  1.0006360124876913e-01  1.0005107074821240e-01  1.0005037552933081e-01  1.0005253299745094e-01  1.0004166520792872e-01  1.0004146164706663e-01  1.0003969671181764e-01  1.0003614956595290e-01  1.0003060174928974e-01  1.0003667377967557e-01  1.0002032049532936e-01  1.0004151539048546e-01  1.0000000000000003e-01  9.9974248869969695e-02  1.0000000000000003e-01  9.9985079588730832e-02  9.9976540298725977e-02  9.9974602617634009e-02  9.9971680297215967e-02  9.9972232367487868e-02  9.9962206580494428e-02  9.9963686900198551e-02  9.9964434908794864e-02  9.9950617833883648e-02  9.9953648158536024e-02  9.9954655575434079e-02  9.9934432737516635e-02  9.9942507326057611e-02  9.9945881336426970e-02  9.9916139159385964e-02  9.9935691357879830e-02  9.9934415593923007e-02  9.9904363157168247e-02  9.9918229662622399e-02  9.9956925474527558e-02  9.9829158463062881e-02  9.9912310120052417e-02  9.9878039712249497e-02  9.9852525789635840e-02  9.9858154121355083e-02  9.9956782029933425e-02  9.9674783689638516e-02  1.0016987966775882e-01  9.9304414731355498e-02  9.9689376789421566e-02  1.0095804869533022e-01  1.0035917828073863e-01  1.0000681345770678e-01  1.0016296295271067e-01  1.0011754831062963e-01  1.0011488878933018e-01  1.0009341966838149e-01  1.0013283154578864e-01  1.0008354230691408e-01  1.0009481100356550e-01  1.0010662626501872e-01  1.0011089996311381e-01  1.0004217108444878e-01  1.0009921563716809e-01  1.0005094248998211e-01  1.0006779857879473e-01  1.0006662618135458e-01  1.0005394853772488e-01  1.0005167810751379e-01  1.0005621912814348e-01  1.0004460396592156e-01  1.0004382709823417e-01  1.0004430965686932e-01  1.0003535875445159e-01  1.0003616174389406e-01  1.0003154967697457e-01  1.0003401897772315e-01  1.0002012356588091e-01  1.0004038690362602e-01  1.0000000000000003e-01  9.9974085207150842e-02  1.0000000000000003e-01  9.9985630159323866e-02  9.9973762237922981e-02  9.9976413174110559e-02  9.9973103668764510e-02  9.9966598595774586e-02  9.9966065348901859e-02  9.9966490112454814e-02  9.9954796369713703e-02  9.9957638631425136e-02  9.9957943966101193e-02  9.9940253342055294e-02  9.9945815443924793e-02  9.9949133307509097e-02  9.9923293309545066e-02  9.9935930525993269e-02  9.9940267706660008e-02  9.9905389183899670e-02  9.9926535134805233e-02  9.9938880185331869e-02  9.9873398500400237e-02  9.9953194390128716e-02  9.9880468670310210e-02  9