<?xml version="1.0"?>
<VTKFile type="UnstructuredGrid"  version="0.1"  >
<UnstructuredGrid>
<Piece  NumberOfPoints="1933" NumberOfCells="3640">
<Points>
<DataArray  type="Float64"  NumberOfComponents="3"  format="ascii">0.4752765044375429 0.001916534687658654 0  5.475276496758251 0.001849859100244348 0  5.475376558036724 7.501849869085317 0  0.4753765488068201 7.501916513277383 0  10.47527647165683 0.001783156327601407 0  10.47537658578804 7.50178318190761 0  15.47527644359198 0.001716374605505288 0  15.47537664666884 7.501716408101355 0  20.47527643772002 0.001649481535883353 0  20.47537675729427 7.501649519211298 0  25.47527648332454 0.001582458297973318 0  25.47537693657228 7.501582498519823 0  30.47527661108043 0.001515295473994277 0  30.47537720545045 7.501515337777926 0  35.47527685225088 0.001447990118796484 0  35.47537758673901 7.501448034715176 0  40.47527723886861 0.001380543800845137 0  40.47537810515308 7.501380591317995 0  45.47527780442631 0.001312961385075193 0  45.47537878757586 7.501313012746571 0  50.47527858484889 0.00124525038184888 0  50.4753796635093 7.501245306763081 0  55.47527961965151 0.001177420740794295 0  55.4753807656809 7.501177483576612 0  60.4752809532602 0.001109485016600135 0  60.47538213078634 7.50110955604734 0  65.47528263651634 0.001041458875334402 0  65.47538380035975 7.501041540228766 0  70.47528472841438 0.0009733619472053364 0  70.47538582177292 7.500973456261881 0  75.47528729815276 0.0009052190690665776 0  75.47538824937195 7.500905329672843 0  80.47529042760681 0.0008370620028521002 0  80.47539114575817 7.500837193170701 0  85.47529421437618 0.0007689317720732485 0  85.47539458321985 7.500769089102397 0  90.47529877561746 0.0007008818391542628 0  90.47539864529652 7.500701072810529 0  95.47530425296274 0.0006329824713099443 0  95.47540342842593 7.500633217275273 0  100.4753108189529 0.0005653268468152879 0  100.4754090435402 7.500565619639995 0  105.4753186856077 0.0004980398018071831 0  105.4754156173279 7.500498410578989 0  110.4753281160347 0.0004312907350909652 0  110.4754232925955 7.500431768067811 0  115.4753394403555 0.0003653133222172751 0  115.4754322266583 7.500365938140139 0  120.4753530777021 0.0003004368455380794 0  120.4754425857942 7.500301266963112 0  125.4753695664317 0.0002371381888016087 0  125.4754545323414 7.500238251540924 0  130.4753896045141 0.0001761321942683912 0  130.4754681988366 7.500177621353536 0  135.4754140995906 0.0001185363596096914 0  135.4754836410856 7.500120471365824 0  140.4754442188288 6.618568825615086e-05 0  140.4755007618181 7.500068479468221 0  145.4754813988129 2.22609451357997e-05 0  145.4755192094166 7.50002426096078 0  150.4755271828085 -7.428784928667891e-06 0  150.4755383233049 7.499991955431277 0  160.4755282581476 5.105687152570353e-19 0  165.475453486136 -7.877130903550741e-05 0  165.4755137094542 7.49991251797516 0  160.4755393683609 7.499977769391984 0  170.4754032448238 -0.0001581447152453731 0  170.4754876123361 7.499837396922326 0  175.4753678917161 -0.0002377683880299571 0  175.4754645448823 7.499759608520519 0  180.4753421760076 -0.0003169076748254757 0  180.4754451253601 7.499681440629156 0  185.4753229915295 -0.0003952031254776598 0  185.4754291119697 7.499603712126505 0  190.4753084048406 -0.0004725500121420163 0  190.4754160303795 7.499526712755952 0  195.4752971620762 -0.0005489625550629826 0  195.4754053892908 7.499450520545277 0  200.4752884186278 -0.0006245006634188522 0  200.4753967511166 7.499375126496705 0  205.4752815848752 -0.0006992369474527189 0  205.475389748232 7.49930048734733 0  210.4752762355706 -0.0007732434578469343 0  210.4753840793793 7.499226548363338 0  215.4752720551359 -0.0008465871094098497 0  215.4753795000213 7.499153253043982 0  220.4752688036609 -0.0009193286362801953 0  220.4753758120139 7.499080547044003 0  225.4752662950999 -0.0009915228398558809 0  225.4753728544558 7.499008379569041 0  230.4752643828318 -0.001063219215922076 0  230.4753704961558 7.498936703697463 0  235.4752629497833 -0.001134462620435962 0  235.4753686296264 7.498865476268711 0  240.4752619014615 -0.001205293869374988 0  240.4753671663542 7.498794657611597 0  245.475261160897 -0.001275750258943195 0  245.4753660330883 7.498724211221874 0  250.4752606648754 -0.001345866023586451 0  250.4753651689162 7.498654103426229 0  255.4752603610674 -0.001415672757647804 0  255.4753645229528 7.498584303038519 0  260.4752602057984 -0.001485199827440122 0  260.4753640525022 7.498514781000456 0  265.4752601622938 -0.001554474800147518 0  265.4753637215929 7.498445509992535 0  270.4752601992871 -0.00162352391629514 0  270.4753634998145 7.498376463997411 0  275.4752602899342 -0.001692372633628294 0  275.4753633614005 7.498307617796103 0  280.4752604110033 -0.001761046270321936 0  280.4753632845295 7.498238946377639 0  285.475260542365 -0.001829570769778973 0  285.4753632508118 7.49817042424869 0  290.47526066685 -0.00189797358585496 0  290.4753632449486 7.498102024647224 0  295.4752607706228 -0.001966284616043448 0  295.475363254536 7.498033718704874 0  300.4752608443205 -0.002034536911846334 0  300.4753632699664 7.497965474682379 0  305.4752608853167 -0.002102766346332299 0  305.4753632843775 7.497897257524819 0  310.4752609015923 -0.00217100781687939 0  310.4753632936394 7.497829029040257 0  5.47547647737573 15.00184991474521 0  0.4754764614488525 15.0019164685026 0  10.47547652196837 15.00178327432751 0  15.47547661156793 15.0017165235214 0  20.47547675994321 15.00164964598599 0  25.47547698040857 15.00158263198636 0  30.47547728694977 15.00151547723902 0  35.47547769478062 15.00144818175064 0  40.4754782206382 15.00138074888401 0  45.47547888298539 15.00131318473552 0  50.4754797022006 15.00124549783678 0  55.4754807007846 15.0011776991699 0  60.4754819035864 15.00110980248994 0  65.47548333803485 15.00104182496443 0  70.47548503434916 15.00097378816491 0  75.47548702568787 15.00090571947769 0  80.47548934817362 15.00083765404476 0  85.47549204070231 15.00076963740437 0  90.47549514439631 15.00070172908647 0  95.47549870149233 15.00063400754152 0  100.4755027533553 15.00056657696375 0  105.475507337173 15.00049957683733 0  110.475512480722 15.00043319541428 0  115.4755181944367 15.00036768884063 0  120.4755244599773 15.00030340822367 0  125.4755312148749 15.00024083728175 0  130.4755383342828 15.0001806423382 0  135.4755456146955 15.00012373129466 0  140.4755527728636 15.00007129997091 0  145.4755594877991 15.00002478588425 0  150.4755655266902 14.99998546257517 0  165.4755604228932 14.99989011089609 0  160.4755668503176 14.99994973172159 0  170.4755513437257 14.99982214146807 0  175.4755409208278 14.99974945783213 0  180.4755304207616 14.99967461721425 0  185.4755205772881 14.99959902852131 0  190.4755117277777 14.99952341793974 0  195.4755039747459 14.99944814371812 0  200.4754972954329 14.99937337046013 0  205.4754916070528 14.99929916170562 0  210.4754868032552 14.99922552873537 0  215.4754827734457 14.99915245631414 0  220.4754794123442 14.99907991630217 0  225.4754766241695 14.99900787486638 0  230.4754743239737 14.99893629629797 0  235.4754724375364 14.99886514501645 0  240.4754709005875 14.99879438659303 0  245.4754696577725 14.99872398823344 0  250.4754686615696 14.99865391895317 0  255.4754678712635 14.99858414956788 0  260.4754672520183 14.99851465256268 0  265.4754667740651 14.99844540187073 0  270.475466412002 14.99837637257443 0  275.4754661441978 14.99830754053182 0  280.4754659522781 14.99823888192692 0  285.4754658206762 14.9981703727425 0  290.4754657362067 14.99810198815633 0  295.4754656876328 14.99803370186013 0  300.4754656651648 14.99796548526864 0  305.4754656598507 14.99789730643747 0  310.4754656628144 14.99782912797848 0  5.475576146851747 22.5018500553333 0  0.475576128482705 22.50191648304813 0  10.47557619141286 22.50178348569602 0  15.47557627798121 22.50171677384256 0  20.47557641792917 22.50164991877937 0  25.47557662047801 22.50158292061295 0  30.47557689411106 22.50151578127657 0  35.47557724738935 22.50144850472493 0  40.47557768937942 22.50138109692843 0  45.47557822983917 22.50131356586651 0  50.47557887925468 22.50124592163422 0  55.47557964877311 22.50117817672832 0  60.47558055004689 22.50111034655964 0  65.47558159497854 22.50104245023795 0  70.47558279533446 22.50097451168568 0  75.47558416217814 22.50090656116096 0  80.47558570504957 22.50083863730111 0  85.47558743079487 22.50077078984366 0  90.47558934192243 22.50070308323985 0  95.47559143433446 22.50063560145134 0  100.475593694265 22.50056845431066 0  105.4755960942673 22.50050178591726 0  110.4755985881764 22.50043578559567 0  115.4756011052002 22.50037070185545 0  120.4756035437901 22.50030685932848 0  125.4756057669009 22.50024467728692 0  130.4756076018646 22.50018468495887 0  135.4756088503628 22.5001275212602 0  140.4756093159444 22.50007389084591 0  145.4756088542324 22.50002441962799 0  150.4756074329521 22.49997931585574 0  165.4756117010686 22.49986619270332 0  160.4756082857602 22.49992366018185 0  170.47561246906 22.49980243163975 0  175.475611049345 22.49973414773977 0  180.4756081323097 22.49966300692498 0  185.4756043758335 22.49959027221798 0  190.4756002794519 22.499516787203 0  195.4755961778827 22.49944307800684 0  200.4755922749879 22.49936945793408 0  205.4755886821432 22.49929610521037 0  210.4755854496569 22.49922311464478 0  215.4755825895595 22.49915053033749 0  220.475580091123 22.49907836593182 0  225.4755779310184 22.49900661703561 0  230.4755760797599 22.49893526881771 0  235.4755745056807 22.49886430065368 0  240.4755731773037 22.49879368896528 0  245.4755720646902 22.4987234089464 0  250.475571140149 22.49865343559386 0  255.4755703785525 22.49858374429516 0  260.4755697574137 22.49851431112715 0  265.4755692568267 22.49844511295816 0  270.4755688593212 22.49837612741117 0  275.4755685496709 22.49830733272399 0  280.4755683146571 22.49823870752964 0  285.475568142791 22.49817023057361 0  290.4755680239738 22.49810188037575 0  295.4755679490648 22.49803363483026 0  300.4755679093072 22
[...]
<PointData  Scalars="p"> 
<DataArray  type="Float64"  Name="p"  format="ascii">1.0000000000000001e-01  1.0000000000000003e-01  1.0000212152306291e-01  1.0000000000000003e-01  1.0000000000000003e-01  1.0000133922171962e-01  1.0000000000000003e-01  1.0000202667823357e-01  1.0000000000000003e-01  1.0000187623201898e-01  1.0000000000000003e-01  1.0000227912909880e-01  1.0000000000000003e-01  1.0000375266495462e-01  1.0000000000000003e-01  1.0000382256854932e-01  1.0000000000000003e-01  1.0000482718177914e-01  1.0000000000000003e-01  1.0000656275393363e-01  1.0000000000000003e-01  1.0000528721628947e-01  1.0000000000000003e-01  1.0001250703780908e-01  1.0000000000000003e-01  1.0001387299078317e-01  1.0000000000000003e-01  1.0001712381961493e-01  1.0000000000000003e-01  1.0001904516150648e-01  1.0000000000000003e-01  1.0002517703434738e-01  1.0000000000000003e-01  1.0002712129253451e-01  1.0000000000000003e-01  1.0003239442939375e-01  1.0000000000000003e-01  1.0004017894434301e-01  1.0000000000000003e-01  1.0004314765622939e-01  1.0000000000000003e-01  1.0005244666403862e-01  1.0000000000000003e-01  1.0005859885220847e-01  1.0000000000000003e-01  1.0006944069194179e-01  1.0000000000000003e-01  1.0007007151979581e-01  1.0000000000000003e-01  1.0009484022754092e-01  1.0000000000000003e-01  1.0007750784803703e-01  1.0000000000000003e-01  1.0012681421906187e-01  1.0000000000000003e-01  1.0007739094743004e-01  1.0000000000000003e-01  1.0016845610749606e-01  1.0000000000000003e-01  1.0006550812279828e-01  1.0000000000000001e-01  1.0023416974947445e-01  1.0000000000000001e-01  1.0000000000000003e-01  9.9863384693527082e-02  9.9659080060442773e-02  1.0000000000000003e-01  9.9984612921101224e-02  1.0000000000000003e-01  9.9896343667375556e-02  1.0000000000000003e-01  9.9948970313380153e-02  1.0000000000000003e-01  9.9935868007302184e-02  1.0000000000000003e-01  9.9950102273686003e-02  1.0000000000000003e-01  9.9946681911008944e-02  1.0000000000000003e-01  9.9958838516025786e-02  1.0000000000000003e-01  9.9958429880281363e-02  1.0000000000000003e-01  9.9963368498930810e-02  1.0000000000000003e-01  9.9967339320324006e-02  1.0000000000000003e-01  9.9970142356906891e-02  1.0000000000000003e-01  9.9972205286479626e-02  1.0000000000000003e-01  9.9975598283753006e-02  1.0000000000000003e-01  9.9977144524363737e-02  1.0000000000000003e-01  9.9978785392475636e-02  1.0000000000000003e-01  9.9980759283105514e-02  1.0000000000000003e-01  9.9981924838896660e-02  1.0000000000000003e-01  9.9982883351328475e-02  1.0000000000000003e-01  9.9984203583585798e-02  1.0000000000000003e-01  9.9984817512411256e-02  1.0000000000000003e-01  9.9985662734578123e-02  1.0000000000000003e-01  9.9986077606259896e-02  1.0000000000000003e-01  9.9987133316934082e-02  1.0000000000000003e-01  9.9986570857258539e-02  1.0000000000000003e-01  9.9988723110789782e-02  1.0000000000000003e-01  9.9986216226709460e-02  1.0000000000000003e-01  9.9991284441180897e-02  1.0000000000000003e-01  9.9983212851082595e-02  1.0000000000000001e-01  1.0000000000000003e-01  1.0000471675595020e-01  1.0000000000000003e-01  1.0000398347721277e-01  1.0000416017658673e-01  1.0000471482228615e-01  1.0000664573510527e-01  1.0000634482448137e-01  1.0000693617593098e-01  1.0000996444922614e-01  1.0000817760300103e-01  1.0000968134043442e-01  1.0001070680096161e-01  1.0001958496868807e-01  1.0001488220381113e-01  1.0002301387208259e-01  1.0001870356791039e-01  1.0002310916220560e-01  1.0002937403981058e-01  1.0002846217540753e-01  1.0003228490745765e-01  1.0004266538239191e-01  1.0003817643534119e-01  1.0004916312237104e-01  1.0004968749186879e-01  1.0006155056874041e-01  1.0004569033235167e-01  1.0009120109943304e-01  1.0001935655530822e-01  1.0014850049003182e-01  9.9950997316243892e-02  1.0023636471466411e-01  1.0016453994519192e-01  9.9517472367641524e-02  9.9825474458479183e-02  9.9981957647942363e-02  9.9953801366687411e-02  9.9963167371030101e-02  9.9947813545445865e-02  9.9972196867610177e-02  9.9961663439846554e-02  9.9967081552593332e-02  9.9972878048614044e-02  9.9973709891785625e-02  9.9974374055380233e-02  9.9979783436646208e-02  9.9980075966110749e-02  9.9981168659185646e-02  9.9984192634075625e-02  9.9984874515281055e-02  9.9985612347353786e-02  9.9987641528483148e-02  9.9988337408504852e-02  9.9988945536500798e-02  9.9990492204063336e-02  9.9990884033666752e-02  9.9991999439870138e-02  9.9992225353896888e-02  9.9994197386779268e-02  9.9992429964830584e-02  9.9997254935617660e-02  9.9991422474563788e-02  1.0000000000000003e-01  1.0000755594387956e-01  1.0000000000000003e-01  1.0000445913923334e-01  1.0000639160455214e-01  1.0000822525544088e-01  1.0000810909578235e-01  1.0000877542275981e-01  1.0001305069080488e-01  1.0001186757891724e-01  1.0001265536874146e-01  1.0001696412511626e-01  1.0001842479494387e-01  1.0001245325682706e-01  1.0003611055700301e-01  1.0002460247025356e-01  1.0003045297821535e-01  1.0003895953171273e-01  1.0003527355307178e-01  1.0004133010336300e-01  1.0005439478415318e-01  1.0005116129881748e-01  1.0005778551626746e-01  1.0007667644967484e-01  1.0006490522128059e-01  1.0008858300461954e-01  1.0007895140998499e-01  1.0011179005729251e-01  1.0006033458209593e-01  1.0017908815840107e-01  9.9963256732212430e-02  1.0036776043896656e-01  1.0007560711230082e-01  9.9613604224355945e-02  9.9771139455412466e-02  9.9959767732889587e-02  9.9938305506382677e-02  9.9903166122622386e-02  9.9964351715500915e-02  9.9930035908958811e-02  9.9942833045814847e-02  9.9954004152388420e-02  9.9953839037154255e-02  9.9953891526974842e-02  9.9964915409810728e-02  9.9964191921211906e-02  9.9966112941912988e-02  9.9972176473056659e-02  9.9972925941849339e-02  9.9973903285362362e-02  9.9977966395108489e-02  9.9978702907103686e-02  9.9979731552542458e-02  9.9982290076534058e-02  9.9983318854109535e-02  9.9984041280911803e-02  9.9986267725617264e-02  9.9986480351426432e-02  9.9988603593793371e-02  9.9987865625501868e-02  9.9992347036392953e-02  9.9986406449141113e-02  1.0000000000000003e-01  1.0000941492773770e-01  1.0000000000000003e-01  1.0000573280695187e-01  1.0001021546386915e-01  1.0000931424401863e-01  1.0001018832090436e-01  1.0001487703510950e-01  1.0001377827255005e-01  1.0001487953953447e-01  1.0002071385069007e-01  1.0001850016848708e-01  1.0001884381237165e-01  1.0003176708296251e-01  1.0001639384915476e-01  1.0003914434298153e-01  1.0003968028106894e-01  1.0003703166562299e-01  1.0003836570162065e-01  1.0005413632672902e-01  1.0004534915704509e-01  1.0005542029805520e-01  1.0006849527455049e-01  1.0006610818452009e-01  1.0006741845719506e-01  1.0009791236821064e-01  1.0006304257728596e-01  1.0012152134401262e-01  1.0004657018396164e-01  1.0018486032413959e-01  9.9938963443321760e-02  1.0038671894778550e-01  1.0005688935700072e-01  9.9505681747701066e-02  9.9861820957162561e-02  9.9975073471733747e-02  9.9821577482555449e-02  1.0000505061690598e-01  9.9909783276359423e-02  9.9940843464490878e-02  9.9947633546248971e-02  9.9949342781333508e-02  9.9944258816577203e-02  9.9962219559730961e-02  9.9958257614689822e-02  9.9960431860163790e-02  9.9968676554218400e-02  9.9969267431664330e-02  9.9970050537200789e-02  9.9975781922757107e-02  9.9976301439262602e-02  9.9977284064861643e-02  9.9980962910373922e-02  9.9981799523647830e-02  9.9983020317838636e-02  9.9985288682157780e-02  9.9986838971971706e-02  9.9987224452712672e-02  9.9990404211065684e-02  9.9989160810001920e-02  9.9994291229718660e-02  9.9989163226477107e-02  1.0000000000000003e-01  1.0001131314592825e-01  1.0000000000000003e-01  1.0000807059514452e-01  1.0001098401489295e-01  1.0001056143876619e-01  1.0001573701559645e-01  1.0001450295118640e-01  1.0001601741252174e-01  1.0002269590896831e-01  1.0002030344196645e-01  1.0002098585697436e-01  1.0003234178884014e-01  1.0002528572691192e-01  1.0003271316358411e-01  1.0003058882714319e-01  1.0004888417764853e-01  1.0004091763682922e-01  1.0005937727018124e-01  1.0004725503817315e-01  1.0005533344350974e-01  1.0007447123928362e-01  1.0006252052909392e-01  1.0007716344986411e-01  1.0008972366868937e-01  1.0009258939701249e-01  1.0008008674907548e-01  1.0013986690572466e-01  1.0004823476247492e-01  1.0020974074079290e-01  9.9932605788086104e-02  1.0044413218919723e-01  1.0014893152354958e-01  9.9451507247438717e-02  9.9804028536571596e-02  9.9914826742231386e-02  9.9920156124200285e-02  9.9889139860621382e-02  9.9928029420495251e-02  9.9933883223898637e-02  9.9941205457185864e-02  9.9921973557976926e-02  9.9954456269481948e-02  9.9944263490437932e-02  9.9947409414428784e-02  9.9959404229769649e-02  9.9959269678629267e-02  9.9959462802252402e-02  9.9968567855064430e-02  9.9968704407479236e-02  9.9969678920438523e-02  9.9975036937073922e-02  9.9975945600755789e-02  9.9976865797371944e-02  9.9980699092085734e-02  9.9981612129082839e-02  9.9983295592265306e-02  9.9985189358772056e-02  9.9987673878084549e-02  9.9987006500832767e-02  9.9992491310278528e-02  9.9987206038074442e-02  1.0000000000000003e-01  1.0001353668249414e-01  1.0000000000000003e-01  1.0000840604621085e-01  1.0001234600470386e-01  1.0001502794031784e-01  1.0001546637645170e-01  1.0001621955813272e-01  1.0002298641341588e-01  1.0002150300230020e-01  1.0002219266893031e-01  1.0003182967874867e-01  1.0002823859384899e-01  1.0003149704672989e-01  1.0004067196168739e-01  1.0003966034923387e-01  1.0002510984712167e-01  1.0007249218574205e-01  1.0004649467139380e-01  1.0005719856145390e-01  1.0007281406366778e-01  1.0006199327725376e-01  1.0006832385361947e-01  1.0009751616149810e-01  1.0007345788316160e-01  1.0010096558410982e-01  1.0009679870071987e-01  1.0012881943153583e-01  1.0005288074413600e-01  1.0022892822938079e-01  9.9907533772134599e-02  1.0048810290826378e-01  1.0011456062238067e-01  9.9492257774213375e-02  9.9755613272803759e-02  9.9997836682050562e-02  9.9878240087698841e-02  9.9901027865778341e-02  9.9893295677510791e-02  9.9960895452019569e-02  9.9895258814190979e-02  9.9959616852460118e-02  9.9931298858225437e-02  9.9938407186582104e-02  9.9953269680986459e-02  9.9953066012380423e-02  9.9951054909058937e-02  9.9964213653213868e-02  9.9963081419311733e-02  9.9964071337714677e-02  9.9971768527126498e-02  9.9972263708919068e-02  9.9972959236075964e-02  9.9978076098972524e-02  9.9979120282509173e-02  9.9980076963864864e-02  9.9984005551613006e-02  9.9984602969699313e-02  9.9987369189649081e-02  9.9987595534442308e-02  9.9992785360697584e-02  9.9988045209589829e-02  1.0000000000000003e-01  1.0001473577548887e-01  1.0000000000000003e-01  1.0000904133593641e-01  1.0001622378267432e-01  1.0001470777644297e-01  1.0001665420809575e-01  1.0002251717658661e-01  1.0002176646553723e-01  1.0002246383697604e-01  1.0003195619511657e-01  1.0002821788173143e-01  1.0003096273990969e-01  1.0004336513959890e-01  1.0003850838054507e-01  1.0003618767697282e-01  1.0006022827328556e-01  1.0002935581856306e-01  1.0006934454354029e-01  1.0007408271945367e-01  1.0006319351764491e-01  1.0006828307885794e-01  1.0009292719629544e-01  1.0007830701512002e-01  1.0008365151735224e-01  1.0012434728807536e-01  1.0008013221033046e-01  1.0013941089632074e-01  1.0007409457753580e-01  1.0021941938145580e-01  9.9913105851218667e-02  1.0052448192512616e-01  1.0009104473078574e-01  9.9443340156149460e-02  9.9812179867659098e-02  9.9959121707000262e-02  9.9844895551661317e-02  9.9940385421072572e-02  9.9910747523267701e-02  9.9860833355213882e-02  9.9968066568667122e-02  9.9915762145998788e-02  9.9931320111803973e-02  9.9942155668668320e-02  9.9945927519972902e-02  9.9939278752106814e-02  9.9958367985798102e-02  9.9955521921445009e-02  9.9955971469923799e-02  9.9965903908676143e-02  9.9966706019786494e-02  9.9967056404687824e-02  9.9973939643062074e-02  9.9974606117273976e-02  9.9975821097300285e-02  9.9980030096339378e-02  9.9981770636228817e-02  9.9982609333931535e-02  9.9986829160063753e-02  9.9986371010678657e-02  9.9991760400516161e-02  9.9987391933930747e-02  1.0000000000000003e-01  1.0001591976032868e-01  1.0000000000000003e-01  1.0001108532803479e-01  1.0001611155111491e-01  1.0001537360701915e-01  1.0002189193684489e-01  1.0002099028469835e-01  1.0002237161853855e-01  1.0003096370698053e-01  1.0002803591209437e-01  1.0002941346607340e-01  1.0004240774654455e-01  1.0003768262048211e-01  1.0003871781244639e-01  1.0005687657232865e-01  1.0004144234076517e-01  1.0005400744912855e-01  1.0005096712534325e-01  1.0007746915363958e-01  1.0006467841550389e-01  1.0009723254166325e-01  1.0006964697465279e-01  1.0008689911562840e-01  1.0010833606680081e-01  1.0009994548026838e-01  1.0008737258528515e-01  1.0016426543013805e-01  1.0005153217432676e-01  1.0023067987521758e-01  9.9924258886792849e-02  1.0052682681748766e-01  1.0014962257403773e-01  9.9394189370819619e-02  9.9777480515125860e-02  9.9928868414734473e-02  9.9891299904122613e-02  9.9926117081306318e-02  9.9871801624391202e-02  9.9938572613943108e-02  9.9882997404593277e-02  9.9940166470324901e-02  9.9927883384966609e-02  9.9946951931752931e-02  9.9924731526693691e-02  9.9955218787023709e-02  9.9948135699408386e-02  9.9948920907953348e-02  9.9961426295826342e-02  9.9961504355798328e-02  9.9960824897445830e-02  9.9970561347589804e-02  9.9970972471661576e-02  9.9971611854937859e-02  9.9977587208893881e-02  9.9978533544658965e-02  9.9980125622504301e-02  9.9983456996879369e-02  9.9986191261575749e-02  9.9985849447667738e-02  9.9992070970761029e-02  9.9987596162472367e-02  1.0000000000000003e-01  1.0001750666765087e-01  1.0000000000000003e-01  1.0001087636449783e-01  1.0001661453322974e-01  1.0001921958818631e-01  1.0002075181236947e-01  1.0002115633045817e-01  1.0002935589082237e-01  1.0002770406025899e-01  1.0002846494566822e-01  1.0003931319473033e-01  1.0003662825458440e-01  1.0003773479794291e-01  1.0005414660382633e-01  1.0004480886512510e-01  1.0004875013692692e-01  1.0006385621314130e-01  1.0005941750299863e-01  1.0003776416271661e-01  1.0011043665720652e-01  1.0006962943907421e-01  1.0008222216666279e-01  1.0011333471263222e-01  1.0008081126100520e-01  1.0010625087549635e-01  1.0011845611789351e-01  1.0013351772498930e-01  1.0006009461917671e-01  1.0025641666572838e-01  9.9900833989335011e-02  1.0054187624412077e-01  1.0014192985365312e-01  9.9414644394404048e-02  9.9742408315507763e-02  9.9975327947438297e-02  9.9869590637052974e-02  9.9889782495322571e-02  9.9918526330624188e-02  9.9914599609718935e-02  9.9897673400349093e-02  9.9901828038585577e-02  9.9958154793257162e-02  9.9907004932897656e-02  9.9956360644548325e-02  9.9938123003273663e-02  9.9941569920197551e-02  9.9955571964611661e-02  9.9956747253546571e-02  9.9953881288946264e-02  9.9966252220431637e-02  9.9965924348933463e-02  9.9966614313591745e-02  9.9974278413141632e-02  9.9975348390416219e-02  9.9975888682634781e-02  9.9981469647749843e-02  9.9982156935872035e-02  9.9984862375134320e-02  9.9986217067498731e-02  9.9991473617506960e-02  9.9987228955575852e-02  1.0000000000000003e-01  1.0001814873172425e-01  1.0000000000000003e-01  1.0001100062472147e-01  1.0001971807045776e-01  1.0001819578835848e-01  1.0002081789084356e-01  1.0002698185448060e-01  1.0002671738057252e-01  1.0002745273258122e-01  1.0003743458143229e-01  1.0003436410939992e-01  1.0003565717869166e-01  1.0005097765919915e-01  1.0004443028275883e-01  1.0004593042003898e-01  1.0006453423394926e-01  1.0005529196457755e-01  1.0005041483638925e-01  1.0008871176377618e-01  1.0003874277577909e-01  1.0009797097344156e-01  1.0010603451219466e-01  1.0008812871569861e-01  1.0008666528042659e-01  1.0014042032315293e-01  1.0008054321152002e-01  1.0014042550681347e-01  1.0009304271769455e-01  1.0022204910129821e-01  9.9908380919042639e-02  1.0056850984540369e-01  1.0012276152493199e-01  9.9388639576116350e-02  9.9775624457346987e-02  9.9962852113597928e-02  9.9836787675326610e-02  9.9931545239952291e-02  9.9900295095580752e-02  9.9894754263932767e-02  9.9921900511824743e-02  9.9929185944756943e-02  9.9877088319164545e-02  9.9969087721377997e-02  9.9925862891159040e-02  9.9940170450618232e-02  9.9947113984465999e-02  9.9953449654015217e-02  9.9946259715083127e-02  9.9963114213095020e-02  9.9961730080972422e-02  9.9961111016446016e-02  9.9970511260474140e-02  9.9971923967648077e-02  9.9972319385703251e-02  9.9978627521780203e-02  9.9980173883421425e-02  9.9980858911743700e-02  9.9986017118576992e-02  9.9985780067692431e-02  9.9991102697492146e-02  9.9987543732418277e-02  1.0000000000000003e-01  1.0001869408522433e-01  1.0000000000000003e-01  1.0001239107466028e-01  1.0001897055446214e-01  1.0001788116895662e-01  1.0002498082336263e-01  1.0002450660028442e-01  1.0002606775536571e-01  1.0003456811601624e-01  1.0003272486860421e-01  1.0003310674394357e-01  1.0004677608398492e-01  1.0004202994730031e-01  1.0004327718195374e-01  1.0006101936382551e-01  1.0005202950332247e-01  1.0005217084662406e-01  1.0007931428741998e-01  1.0005502580375722e-01  1.0007111672020291e-01  1.0007190527637273e-01  1.0010001374268288e-01  1.0008805830573714e-01  1.0012814542913326e-01  1.0009646516873609e-01  1.0009025920501294e-01  1.0017638808629621e-01  1.0005213461671661e-01  1.0022407686333401e-01  9.9946329197200340e-02  1.0052885845851668e-01  1.0016413320905916e-01  9.9339013834302894e-02  9.9765556904746464e-02  9.9935931817273213e-02  9.9871865696485235e-02  9.9920268038975552e-02  9.9872986401785019e-02  9.9924258233556232e-02  9.9919320714572324e-02  9.9899938669407939e-02  9.9938875326220200e-02  9.9903178072047544e-02  9.9949032414409930e-02  9.9936388264015491e-02  9.9955115551787696e-02  9.9935883207418405e-02  9.9960748091538307e-02  9.9956643438488230e-02  9.9956339145321801e-02  9.9967313499996741e-02  9.9967931826713929e-02  9.9967110581080557e-02  9.9976174525914771e-02  9.9976937438885707e-02  9.9978147288492289e-02  9.9982732283497661e-02  9.9985348814598224e-02  9.9984949273073609e-02  9.9991573966691463e-02  9.9987435206882913e-02  1.0000000000000003e-01  1.0001976708070072e-01  1.0000000000000003e-01  1.0001194912834717e-01  1.0001883136011550e-01  1.0002082721553565e-01  1.0002329067753751e-01  1.0002366278843976e-01  1.0003179136795420e-01  1.0003089219229719e-01  1.0003129674632254e-01  1.0004222558666509e-01  1.0003994216693449e-01  1.0004024780204188e-01  1.0005606443625428e-01  1.0004982372329457e-01  1.0004927230633617e-01  1.0007293026626243e-01  1.0005776364750725e-01  1.0006225249737646e-01  1.0008447522600905e-01  1.0007590934971497e-01  1.0004346762290431e-01  1.0015014573226179e-01  1.0007965246216065e-01  1.0011113869095310e-01  1.0013063504754759e-01  1.0012480723134908e-01  1.0005871404466941e-01  1.0026428087157500e-01  9.9904687554336513e-02  1.0052404928361482e-01  1.0018092731552526e-01  9.9341547359159080e-02  9.9731233256513299e-02  9.9968899593722099e-02  9.9866867538322662e-02  9.9893264899050246e-02  9.9904046460222232e-02  9.9919141150303356e-02  9.9891535010374038e-02  9.9934251984170358e-02  9.9926363690952438e-02  9.9920263626882680e-02  9.9914759134105149e-02  9.9967995391326656e-02  9.9923371980683226e-02  9.9963155681776758e-02  9.9949851070156401e-02  9.9952211870718247e-02  9.9963439737423387e-02  9.9965580021742814e-02  9.9962837120219736e-02  9.9972930424893677e-02  9.9973607180015744e-02  9.9974303853875179e-02  9.9981246603404850e-02  9.9982112570523501e-02  9.9984196121967892e-02  9.9986469065370329e-02  9.9991356015734403e-02  9.9987449388830599e-02  1.0000000000000003e-01  1.0001980714367900e-01  1.0000000000000003e-01  1.0001151270445649e-01  1.0002084241195504e-01  1.0001919627278744e-01  1.0002230195626131e-01  1.0002781212874352e-01  1.0002844185604559e-01  1.0002904988432827e-01  1.0003844996576944e-01  1.0003631061364653e-01  1.0003720347978277e-01  1.0005105427071620e-01  1.0004645967602867e-01  1.0004550428730102e-01  1.0006583100336224e-01  1.0005614913371935e-01  1.0005566740414404e-01  1.0008280981523267e-01  1.0006718950731328e-01  1.0005980126756808e-01  1.0011273423231033e-01  1.0004428969147387e-01  1.0011399714701469e-01  1