<?xml version="1.0"?>
<VTKFile type="UnstructuredGrid"  version="0.1"  >
<UnstructuredGrid>
<Piece  NumberOfPoints="1933" NumberOfCells="3640">
<Points>
<DataArray  type="Float64"  NumberOfComponents="3"  format="ascii">-0.2940067296069292 0.000826651828832542 0  4.705993273183825 0.0007949023376814279 0  4.706040922850499 7.500794924959624 0  -0.2939590921887315 7.500826652378543 0  9.705993270876435 0.0007631247243066696 0  9.70604095472903 7.50076315686577 0  14.70599327844523 0.0007312902309013145 0  14.70604101428041 7.500731326434456 0  19.7059933159505 0.000699385531911673 0  19.70604111301087 7.500699423432942 0  24.70599340440055 0.000667407304673446 0  24.70604126326628 7.50066744602171 0  29.70599356430847 0.0006353588466644377 0  29.70604147800969 7.500635398243143 0  34.70599381546069 0.0006032479570707084 0  34.70604177066264 7.500603288284307 0  39.70599417722556 0.000571085669701868 0  39.70604215508947 7.50057112739477 0  44.70599466909412 0.0005388855800573023 0  44.70604264570704 7.500538929308503 0  49.70599531131808 0.0005066636034637057 0  49.70604325768272 7.500506710052889 0  54.70599612559261 0.0004744380663622775 0  54.7060440071882 7.50047448806925 0  59.7059971357729 0.0004422300804681519 0  59.70604491168466 7.50044228460592 0  64.70599836863418 0.0004100641868241907 0  64.706045990219 7.500410124377055 0  69.7059998546934 0.000377969289382525 0  69.70604726371373 7.500378036510154 0  74.70600162912021 0.0003459799308717702 0  74.70604875522841 7.500346055836768 0  79.7060037327652 0.0003141380028593837 0  79.70605049016054 7.50031422461817 0  84.70600621333737 0.0002824950341645474 0  84.70605249633761 7.500282594847294 0  89.70600912675754 0.0002511152772447468 0  89.70605480391725 7.500251231337144 0  94.70601253870312 0.0002200799270276983 0  94.70605744497071 7.500220215906092 0  99.70601652631861 0.0001894929875153237 0  99.70606045254577 7.500189653118166 0  104.7060211799756 0.0001594895935662458 0  104.7060638589016 7.500159678254438 0  109.7060266047565 0.0001302480767218962 0  109.7060676924606 7.500130468508237 0  114.7060329208708 0.0001020078713215149 0  114.7060719728617 7.500102258841673 0  119.7060402612134 7.509673201120515e-05 0  119.706076703398 7.500075364515877 0  124.7060487621269 4.997310795858172e-05 0  124.7060818603663 7.5000502129209 0  129.706058538859 2.72936688572596e-05 0  129.7060873802039 7.500027387609949 0  134.706069627433 8.023251087655036e-06 0  134.7060931497513 7.500007686326585 0  139.7060818535692 -6.383298006849337e-06 0  139.7060990178101 7.499992189946866 0  144.7060945422502 -1.368264439036057e-05 0  144.7061048815325 7.499982328096239 0  149.7061058676719 -1.04052443247073e-05 0  149.706111000993 7.499979925976341 0  159.7061073738537 4.215207957976589e-19 0  164.7060595421857 -5.791092323226195e-05 0  164.706098465427 7.499934342120429 0  159.7061134225508 7.499980574520582 0  169.7060302311349 -0.0001113369514485847 0  169.7060831026346 7.499884789854289 0  174.706011418756 -0.0001616033683688746 0  174.7060699084622 7.499836214575819 0  179.7059989311691 -0.0002091837421529235 0  179.7060592486561 7.499789508684367 0  184.7059904296894 -0.0002544883472755363 0  184.7060508644494 7.499744696062954 0  189.7059845402688 -0.0002978997081526373 0  189.7060443581146 7.499701574527412 0  194.7059804230223 -0.0003397475837503221 0  194.7060393483384 7.499659903239992 0  199.7059775446515 -0.0003803021729738098 0  199.7060355135422 7.499619459663005 0  204.7059755536127 -0.0004197800429472974 0  204.7060325959991 7.499580053813374 0  209.7059742097473 -0.0004583540087974282 0  209.7060303934924 7.499541528068272 0  214.7059733435595 -0.0004961627288565733 0  214.7060287484752 7.499503752633813 0  219.7059728319773 -0.0005333186402663128 0  219.7060275381747 7.499466620358334 0  224.7059725834746 -0.0005699140967037839 0  224.7060266665345 7.499430042115367 0  229.7059725286414 -0.0006060259838229738 0  229.706026057972 7.499393943041273 0  234.7059726140076 -0.0006417191621778474 0  234.706025652645 7.499358259577511 0  239.7059727978669 -0.0006770490452259628 0  239.7060254028916 7.499322937173256 0  244.7059730473731 -0.0007120635518195498 0  244.7060252705524 7.499287928498492 0  249.7059733364647 -0.0007468046098376048 0  249.7060252249492 7.499253192040676 0  254.7059736443578 -0.0007813093382953999 0  254.7060252413555 7.49921869098555 0  259.7059739544339 -0.0008156109988753015 0  259.7060252998307 7.499184392307315 0  264.7059742534226 -0.0008497397814090747 0  264.7060253843353 7.499150266013276 0  269.7059745308092 -0.0008837234680755686 0  269.706025482062 7.499116284504118 0  274.7059747784402 -0.000917588004515244 0  274.7060255829355 7.499082422025391 0  279.7059749903055 -0.0009513579886415901 0  279.7060256792524 7.499048654200649 0  284.7059751625098 -0.0009850570636651965 0  284.7060257654258 7.499014957655828 0  289.7059752934548 -0.001018708159817259 0  289.7060258378145 7.498981309772933 0  294.7059753842685 -0.001052333447309198 0  294.7060258946078 7.498947688655469 0  299.7059754395114 -0.001085953692286711 0  299.7060259357364 7.498914073455897 0  304.7059754681065 -0.001119586331182614 0  304.7060259628296 7.498880445305288 0  309.7059754842005 -0.001153240693056851 0  309.7060259793982 7.49884678915087 0  4.706088461776639 15.00079498623072 0  -0.2939115569659038 15.00082665734084 0  9.706088500266084 15.00076324272652 0  14.7060885692901 15.00073142130192 0  19.70608867718593 15.00069952049266 0  24.70608883152209 15.00066754304596 0  29.70608903985395 15.00063549535467 0  34.70608931001511 15.0006033867942 0  39.70608965020987 15.00057122921839 0  44.70609006903151 15.00053903668996 0  49.70609057545819 15.00050682545387 0  54.70609117883739 15.00047461414506 0  59.70609188885246 15.00044242422681 0  64.70609271545386 15.00041028067062 0  69.70609366872928 15.00037821290714 0  74.70609475867923 15.00034625610135 0  79.70609599485397 15.00031445283375 0  84.70609738579552 15.00028285530445 0  89.70609893821349 15.00025152822361 0  94.70610065581076 15.00022055260747 0  99.70610253767265 15.00019003076562 0  104.7061045761565 15.00016009282953 0  109.7061067543131 15.00013090520264 0  114.7061090431051 15.00010268122286 0  119.7061113992007 15.00007569391873 0  124.7061137651498 15.00005028955259 0  129.7061160756253 15.00002689764771 0  134.7061182764712 15.00000602603449 0  139.7061203672357 14.99998821243487 0  144.7061224790566 14.99997386170296 0  149.7061249807684 14.99996277863347 0  164.7061249979827 14.99991420352062 0  159.706128034082 14.99995215670656 0  169.7061197624646 14.99987196761681 0  174.7061135454653 14.99982815006303 0  179.7061073362395 14.99978436920535 0  184.7061016532543 14.99974134771945 0  189.70609670164 14.99969933680403 0  194.7060925156124 14.99965836788516 0  199.7060890468288 14.99961837912394 0  204.7060862133459 14.99957927547576 0  209.7060839249054 14.99954095590394 0  214.7060820950083 14.99950332480729 0  219.7060806459544 14.99946629605759 0  224.7060795103101 14.99942979371925 0  229.7060786306794 14.99939375139268 0  234.7060779587581 14.99935811108215 0  239.706077454164 14.9993228219859 0  244.7060770832743 14.99928783936837 0  249.7060768181761 14.99925312356464 0  254.7060766357556 14.99921863912072 0  259.7060765169324 14.9991843540547 0  264.7060764460223 14.99915023921942 0  269.7060764102136 14.9991162677492 0  274.7060763991318 14.99908241457751 0  279.7060764044786 14.99904865601866 0  284.7060764197244 14.99901496941328 0  289.7060764398316 14.99898133284181 0  294.7060764610166 14.99894772490445 0  299.7060764805561 14.99891412452565 0  304.706076496712 14.99888051059699 0  309.7060765089308 14.9988468608323 0  4.70613584574548 22.50079512882174 0  -0.2938641737038366 22.50082673284461 0  9.706135880624423 22.50076341721912 0  14.70613594023134 22.500731608381 0  19.70613603069304 22.50069971095678 0  24.70613615645835 22.50066773380695 0  29.70613632120164 22.50063568687551 0  34.7061365282949 22.50060358154076 0  39.70613678100274 22.50057143076726 0  44.7061370825096 22.50053924923948 0  49.70613743584583 22.50050705357326 0  54.70613784374382 22.50047486265527 0  59.70613830843496 22.50044269814355 0  64.70613883138316 22.50041058515874 0  69.70613941294083 22.50037855319961 0  74.70614005190924 22.50034663732839 0  79.70614074498025 22.50031487968278 0  84.70614148604079 22.50028333138686 0  89.70614226532976 22.50025205494349 0  94.70614306846331 22.50022112719326 0  99.7061438753932 22.50019064290227 0  104.7061446594585 22.5001607189655 0  109.7061453868573 22.50013149902663 0  114.7061460171279 22.50010315791208 0  119.7061465056369 22.50007590446552 0  124.7061468095855 22.50004997980472 0  129.7061468995439 22.5000256451515 0  134.7061467784341 22.50000314839037 0  139.7061465077703 22.49998265064781 0  144.7061462333383 22.49996408487844 0  149.7061461825981 22.4999469223917 0  164.7061513398116 22.49989220768742 0  159.7061485555217 22.4999254086563 0  169.7061519882926 22.49985516367886 0  174.7061510069595 22.49981585009323 0  179.7061490025043 22.49977551473903 0  184.7061464935961 22.49973498475174 0  189.7061438436937 22.49969473494033 0  194.7061412769736 22.49965500398591 0  199.7061389159822 22.4996158889522 0  204.7061368164297 22.49957740785855 0  209.7061349931109 22.49953953749902 0  214.7061334374272 22.49950223513761 0  219.7061321285624 22.49946545046908 0  224.7061310403099 22.49942913194186 0  229.7061301450698 22.49939322990555 0  234.7061294160744 22.49935769801191 0  239.7061288285318 22.49932249368018 0  244.7061283601324 22.49928757807725 0  249.7061279911843 22.4992529158612 0  254.7061277045514 22.49921847481977 0  259.706127485483 22.49918422547492 0  264.7061273214004 22.49915014068722 0  269.7061272016625 22.49911619527824 0  274.7061271173337 22.4990823656772 0  279.7061270609498 22.49904862959413 0  284.7061270262927 22.49901496571456 0  289.7061270081669 22.49898135339942 0  294.706127002189 22.49894777234607 0  29
[...]
<PointData  Scalars="p"> 
<DataArray  type="Float64"  Name="p"  format="ascii">1.0000000000000001e-01  1.0000000000000003e-01  1.0000258762995554e-01  1.0000000000000003e-01  1.0000000000000003e-01  1.0000370448075674e-01  1.0000000000000003e-01  1.0000559148142324e-01  1.0000000000000003e-01  1.0000685821684237e-01  1.0000000000000003e-01  1.0000827559753343e-01  1.0000000000000003e-01  1.0001010227337880e-01  1.0000000000000003e-01  1.0001128343454314e-01  1.0000000000000003e-01  1.0001253876458621e-01  1.0000000000000003e-01  1.0001455326030916e-01  1.0000000000000003e-01  1.0001579753886361e-01  1.0000000000000003e-01  1.0001899344409110e-01  1.0000000000000003e-01  1.0002237534885265e-01  1.0000000000000003e-01  1.0002488666009389e-01  1.0000000000000003e-01  1.0002734234470922e-01  1.0000000000000003e-01  1.0003092977674183e-01  1.0000000000000003e-01  1.0003271104269190e-01  1.0000000000000003e-01  1.0003487906167156e-01  1.0000000000000003e-01  1.0003839608419027e-01  1.0000000000000003e-01  1.0003902699614298e-01  1.0000000000000003e-01  1.0004157702586768e-01  1.0000000000000003e-01  1.0004283001804014e-01  1.0000000000000003e-01  1.0004519021471767e-01  1.0000000000000003e-01  1.0004266876636936e-01  1.0000000000000003e-01  1.0005003513974653e-01  1.0000000000000003e-01  1.0003998207094665e-01  1.0000000000000003e-01  1.0005578164688300e-01  1.0000000000000003e-01  1.0003375197669549e-01  1.0000000000000003e-01  1.0006529379336468e-01  1.0000000000000003e-01  1.0002385769636936e-01  1.0000000000000001e-01  1.0008442459616822e-01  1.0000000000000001e-01  1.0000000000000003e-01  9.9898411946234972e-02  9.9828271463074186e-02  1.0000000000000003e-01  9.9955296501008831e-02  1.0000000000000003e-01  9.9917109567529305e-02  1.0000000000000003e-01  9.9934427256134939e-02  1.0000000000000003e-01  9.9927545083516214e-02  1.0000000000000003e-01  9.9931600593440154e-02  1.0000000000000003e-01  9.9927618036148913e-02  1.0000000000000003e-01  9.9930965437198246e-02  1.0000000000000003e-01  9.9929578014966020e-02  1.0000000000000003e-01  9.9930185593653326e-02  1.0000000000000003e-01  9.9930902596538793e-02  1.0000000000000003e-01  9.9931496436431233e-02  1.0000000000000003e-01  9.9931763532972062e-02  1.0000000000000003e-01  9.9932877163601053e-02  1.0000000000000003e-01  9.9933432006642453e-02  1.0000000000000003e-01  9.9934066715438599e-02  1.0000000000000003e-01  9.9934892319727450e-02  1.0000000000000003e-01  9.9935671513080818e-02  1.0000000000000003e-01  9.9936067237258674e-02  1.0000000000000003e-01  9.9937191928808428e-02  1.0000000000000003e-01  9.9937222169310655e-02  1.0000000000000003e-01  9.9938798684835919e-02  1.0000000000000003e-01  9.9937739440851284e-02  1.0000000000000003e-01  9.9941275790887282e-02  1.0000000000000003e-01  9.9936583289659570e-02  1.0000000000000003e-01  9.9946000879523836e-02  1.0000000000000003e-01  9.9931523788519272e-02  1.0000000000000003e-01  9.9956764270370466e-02  1.0000000000000003e-01  9.9913247992152579e-02  1.0000000000000001e-01  1.0000000000000003e-01  1.0000350441213215e-01  1.0000000000000003e-01  1.0000389868596052e-01  1.0000424722899895e-01  1.0000479098649895e-01  1.0000591250565012e-01  1.0000592809080891e-01  1.0000599721702620e-01  1.0000747488693004e-01  1.0000702907825720e-01  1.0000744013244767e-01  1.0000986436254601e-01  1.0001227617244418e-01  1.0001289563764287e-01  1.0001640878651391e-01  1.0001532980541188e-01  1.0001589996436011e-01  1.0001874110367170e-01  1.0001739528892095e-01  1.0001723784638716e-01  1.0002087836585685e-01  1.0001734651109997e-01  1.0001938682203824e-01  1.0001827173487837e-01  1.0002118001421224e-01  1.0001185384422862e-01  1.0002967947484306e-01  9.9999009136936032e-02  1.0004996725906963e-01  9.9972488174675675e-02  1.0008642538940837e-01  1.0005991894841963e-01  9.9712215623990103e-02  9.9931977769946279e-02  9.9983254753370152e-02  9.9976846429540106e-02  9.9981187407702857e-02  9.9970480790293859e-02  9.9979126580301572e-02  9.9973933005233176e-02  9.9973537228298104e-02  9.9974667547462120e-02  9.9974380283196815e-02  9.9973383039083263e-02  9.9974932345648859e-02  9.9974845320505906e-02  9.9974718654581504e-02  9.9975691180421905e-02  9.9975821623309299e-02  9.9975909824432649e-02  9.9976418597188782e-02  9.9976860201332382e-02  9.9976476476033929e-02  9.9977729914859245e-02  9.9976517045445704e-02  9.9978898359981833e-02  9.9975273725612684e-02  9.9982310488511236e-02  9.9969839177925734e-02  9.9991571572686025e-02  9.9957939679039709e-02  1.0000000000000003e-01  1.0000481035588137e-01  1.0000000000000003e-01  1.0000365417654064e-01  1.0000559099364352e-01  1.0000684497553239e-01  1.0000737129576057e-01  1.0000743713207141e-01  1.0000967633717264e-01  1.0000925211233119e-01  1.0000903218391273e-01  1.0001193792685077e-01  1.0001221717658283e-01  1.0001223387182789e-01  1.0002051950238489e-01  1.0001978621473413e-01  1.0002095709816479e-01  1.0002609871332790e-01  1.0002361831165564e-01  1.0002417337592419e-01  1.0002922641733959e-01  1.0002617067068094e-01  1.0002528867273663e-01  1.0003204977418056e-01  1.0002397396293435e-01  1.0002980382586499e-01  1.0002357370971386e-01  1.0003507208610828e-01  1.0000923493927298e-01  1.0005993538501212e-01  9.9969189566767591e-02  1.0013754185676267e-01  1.0006999287581585e-01  9.9696476685511598e-02  9.9859155333489533e-02  9.9966174312929604e-02  9.9964207160474564e-02  9.9939408465060400e-02  9.9964958732153081e-02  9.9950493282359082e-02  9.9950372244090868e-02  9.9952935300625767e-02  9.9951834013936189e-02  9.9949064513772376e-02  9.9952285683077333e-02  9.9951473026241452e-02  9.9950961111388112e-02  9.9952840445693761e-02  9.9953041772232423e-02  9.9952807798134383e-02  9.9954224262059854e-02  9.9954312470179107e-02  9.9954577120543328e-02  9.9955044477305993e-02  9.9955976587156187e-02  9.9954837483503312e-02  9.9957577302962161e-02  9.9954126598728529e-02  9.9960178054595242e-02  9.9950351734263101e-02  9.9969027244952630e-02  9.9933443055684718e-02  1.0000000000000003e-01  1.0000554348939071e-01  1.0000000000000003e-01  1.0000373309235926e-01  1.0000632196650629e-01  1.0000632812970128e-01  1.0000632462094636e-01  1.0000849791209158e-01  1.0000783141193000e-01  1.0000713934810374e-01  1.0000979318463073e-01  1.0000855873423321e-01  1.0000806426066258e-01  1.0001348329819812e-01  1.0001098735203671e-01  1.0001548061414410e-01  1.0002115848918711e-01  1.0001900085216052e-01  1.0001829803869916e-01  1.0002438966326466e-01  1.0001918566260147e-01  1.0001954688077191e-01  1.0002398192380085e-01  1.0002026783096073e-01  1.0001571419997891e-01  1.0002746709999621e-01  1.0000865803073691e-01  1.0003042361941625e-01  9.9996246702760444e-02  1.0005694986832754e-01  9.9948526470912874e-02  1.0014834268894827e-01  1.0008549760998685e-01  9.9636562648360766e-02  9.9897852331139167e-02  9.9997667562312320e-02  9.9919612300469807e-02  9.9998270760690011e-02  9.9963655864156883e-02  9.9968930856487767e-02  9.9969752763794287e-02  9.9969440706374438e-02  9.9963175873998097e-02  9.9968497248247745e-02  9.9966094806379871e-02  9.9964870057160676e-02  9.9967152345674049e-02  9.9967049941318095e-02  9.9966410489559565e-02  9.9968158010528357e-02  9.9968294315504261e-02  9.9967911905956816e-02  9.9969232627852483e-02  9.9968874477875586e-02  9.9969542127045369e-02  9.9968844738378984e-02  9.9971213211839161e-02  9.9967068631107367e-02  9.9974570961565951e-02  9.9962308485553000e-02  9.9982582589359159e-02  9.9949686897717951e-02  1.0000000000000003e-01  1.0000630311656399e-01  1.0000000000000003e-01  1.0000428464292076e-01  1.0000621488681560e-01  1.0000562913084136e-01  1.0000853182047903e-01  1.0000775950148194e-01  1.0000756800840402e-01  1.0001023904634405e-01  1.0000875567542099e-01  1.0000777889807172e-01  1.0001242137741700e-01  1.0001027962714469e-01  1.0001092965738692e-01  1.0001561811180061e-01  1.0001812239510975e-01  1.0001828638186089e-01  1.0002600281902681e-01  1.0002085859070275e-01  1.0001988000419319e-01  1.0002778052806327e-01  1.0001958749350247e-01  1.0002085572749006e-01  1.0002399193128030e-01  1.0002251148818309e-01  1.0000969636092651e-01  1.0003660145136936e-01  9.9990459249325592e-02  1.0006366602795978e-01  9.9937250385034315e-02  1.0017595299349982e-01  1.0014081233646174e-01  9.9580990725463156e-02  9.9878930444633057e-02  9.9973775116390481e-02  9.9941062579800247e-02  9.9957449864282705e-02  9.9962931545337266e-02  9.9963732557192417e-02  9.9968353642374386e-02  9.9954087646318329e-02  9.9964479555734953e-02  9.9959509944774511e-02  9.9957247981808439e-02  9.9960322239953589e-02  9.9959837828725806e-02  9.9958136170106446e-02  9.9960928055304293e-02  9.9960809689214544e-02  9.9960380502459908e-02  9.9961904201428906e-02  9.9962224904041025e-02  9.9961551743201954e-02  9.9963207481567784e-02  9.9962074980370463e-02  9.9963903103888307e-02  9.9961093773096227e-02  9.9966835249570132e-02  9.9956396260762082e-02  9.9975406467608802e-02  9.9941512369627700e-02  1.0000000000000003e-01  1.0000722158197582e-01  1.0000000000000003e-01  1.0000415699674040e-01  1.0000593216474851e-01  1.0000699636256605e-01  1.0000726683263593e-01  1.0000689469188190e-01  1.0000969672106745e-01  1.0000863680414353e-01  1.0000717043990943e-01  1.0001115107882022e-01  1.0000919250898728e-01  1.0000827063079347e-01  1.0001388553563671e-01  1.0001172696136607e-01  1.0000878453412655e-01  1.0002345177906330e-01  1.0001838576350071e-01  1.0001849834902070e-01  1.0002675336985510e-01  1.0001931339735999e-01  1.0001653730446310e-01  1.0002813476245681e-01  1.0001361706374937e-01  1.0001983639626127e-01  1.0001433457669151e-01  1.0002861369403680e-01  9.9983639875054250e-02  1.0007255407364099e-01  9.9915648898505169e-02  1.0020000292037883e-01  1.0015399794650237e-01  9.9579194998551696e-02  9.9855591387583625e-02  1.0001830761942547e-01  9.9943313570439896e-02  9.9955665998479576e-02  9.9951600563113599e-02  9.9987798672772396e-02  9.9953780000789735e-02  9.9977098186711730e-02  9.9965684004575547e-02  9.9963279539455566e-02  9.9966857074992449e-02  9.9966139624077535e-02  9.9962526264789048e-02  9.9966512177087061e-02  9.9965777260382679e-02  9.9964685946162202e-02  9.9967180872501893e-02  9.9967090734337044e-02  9.9966719027376402e-02  9.9967792153886223e-02  9.9968448273608249e-02  9.9966883250685604e-02  9.9969780852574269e-02  9.9965975243718821e-02  9.9972071382482097e-02  9.9961618179986944e-02  9.9980005043364809e-02  9.9948132736678186e-02  1.0000000000000003e-01  1.0000773534016562e-01  1.0000000000000003e-01  1.0000392532447704e-01  1.0000736372517068e-01  1.0000626897115852e-01  1.0000653317623889e-01  1.0000888195734979e-01  1.0000868113193767e-01  1.0000721049740695e-01  1.0001122163453589e-01  1.0000913360308170e-01  1.0000768670017124e-01  1.0001351932166015e-01  1.0001062951538409e-01  1.0000816333671800e-01  1.0001725891605444e-01  1.0001014286506583e-01  1.0001617207699942e-01  1.0002674084346695e-01  1.0001972563243916e-01  1.0001844824182941e-01  1.0002773005572732e-01  1.0001894878897843e-01  1.0001313302772619e-01  1.0003087583083280e-01  1.0000476691473213e-01  1.0002885090140980e-01  9.9990377768089569e-02  1.0006945901901956e-01  9.9904757566084301e-02  1.0022865100477797e-01  1.0015173542992767e-01  9.9550847386898789e-02  9.9874959168344629e-02  1.0001859935066695e-01  9.9926603451163706e-02  9.9975766265873525e-02  9.9955432020262566e-02  9.9942314791686263e-02  9.9982143832574255e-02  9.9963567555039462e-02  9.9964590437265619e-02  9.9965579881811928e-02  9.9966434352291023e-02  9.9959930154399121e-02  9.9965485771207979e-02  9.9963797155059181e-02  9.9962019606312499e-02  9.9964794235714124e-02  9.9964910848889060e-02  9.9963870629925428e-02  9.9966142591341553e-02  9.9965782095570305e-02  9.9965938866185627e-02  9.9965912728822132e-02  9.9967701448504934e-02  9.9964120239602175e-02  9.9970290402883369e-02  9.9960005946930663e-02  9.9977777749524557e-02  9.9946257470062749e-02  1.0000000000000003e-01  1.0000809917628567e-01  1.0000000000000003e-01  1.0000468182862852e-01  1.0000709606586811e-01  1.0000564065273741e-01  1.0000837149619558e-01  1.0000766697438065e-01  1.0000691940587075e-01  1.0001065195950083e-01  1.0000891373149477e-01  1.0000744962270937e-01  1.0001279621138856e-01  1.0001009970593304e-01  1.0000803667428551e-01  1.0001554988327087e-01  1.0000967229237950e-01  1.0000912739169038e-01  1.0001626646518691e-01  1.0001775103374985e-01  1.0001629850816224e-01  1.0003000985366962e-01  1.0001735908066706e-01  1.0001750848063073e-01  1.0002550701578591e-01  1.0001933755835019e-01  1.0000257453244882e-01  1.0004142662603846e-01  9.9977292005941215e-02  1.0007278866928558e-01  9.9902156421724980e-02  1.0024273061837562e-01  1.0018486280122832e-01  9.9518633505984069e-02  9.9867936121132650e-02  1.0000986240264448e-01  9.9949868060505542e-02  9.9983568420920765e-02  9.9944316755708612e-02  9.9966528217069264e-02  9.9953247915766444e-02  9.9974515183466409e-02  9.9965946927740953e-02  9.9974595782300543e-02  9.9960972484188185e-02  9.9970125618399422e-02  9.9966783551883293e-02  9.9964125624708217e-02  9.9967375572824563e-02  9.9967147507035753e-02  9.9965264315116889e-02  9.9968025819461584e-02  9.9968223943756290e-02  9.9967134715356148e-02  9.9969376030057081e-02  9.9968215600030289e-02  9.9969621105250622e-02  9.9967071103565369e-02  9.9972521929434274e-02  9.9962345272981881e-02  9.9979900282595346e-02  9.9949448237107330e-02  1.0000000000000003e-01  1.0000877690370201e-01  1.0000000000000003e-01  1.0000450577382131e-01  1.0000673299477739e-01  1.0000712598955096e-01  1.0000762721228244e-01  1.0000631338826219e-01  1.0000975167511526e-01  1.0000857320119480e-01  1.0000725239810160e-01  1.0001185225147372e-01  1.0001020296176413e-01  1.0000794814313710e-01  1.0001495680539421e-01  1.0001058982843607e-01  1.0000766718748016e-01  1.0001624778022027e-01  1.0001081547376890e-01  1.0000528309643933e-01  1.0002744376489932e-01  1.0001827176262744e-01  1.0001606746380245e-01  1.0003232167043874e-01  1.0001322014526851e-01  1.0001785763971877e-01  1.0001860978263634e-01  1.0002873341751997e-01  9.9974867659752428e-02  1.0008937447631373e-01  9.9884266531264615e-02  1.0025961578542783e-01  1.0019312581637972e-01  9.9519637104697925e-02  9.9850746201154986e-02  1.0003196560549332e-01  9.9948726573758986e-02  9.9971354543560861e-02  9.9964681684697548e-02  9.9967580190338773e-02  9.9948772358707513e-02  9.9955972331367701e-02  9.9982138613453342e-02  9.9957868603512412e-02  9.9974783205595316e-02  9.9967187163718496e-02  9.9964686287543236e-02  9.9967863548459671e-02  9.9967895107220345e-02  9.9964348297449102e-02  9.9968062597900503e-02  9.9967488769974050e-02  9.9966528645208635e-02  9.9968487245393450e-02  9.9969113166659893e-02  9.9967391032485170e-02  9.9970362747517721e-02  9.9967072236607987e-02  9.9971996152567924e-02  9.9962932772655194e-02  9.9979403867459904e-02  9.9949743938114635e-02  1.0000000000000003e-01  1.0000902700151958e-01  1.0000000000000003e-01  1.0000425024851368e-01  1.0000808375469744e-01  1.0000661280451967e-01  1.0000671534989511e-01  1.0000881529795179e-01  1.0000833728140780e-01  1.0000681599884055e-01  1.0001094549183556e-01  1.0000967807670398e-01  1.0000759730400488e-01  1.0001444404220380e-01  1.0001122883069476e-01  1.0000783413279940e-01  1.0001635619185285e-01  1.0001056264448194e-01  1.0000532060169431e-01  1.0001961897514891e-01  1.0000649024454289e-01  1.0001457422369948e-01  1.0002992188146567e-01  1.0001917669125168e-01  1.0001187500300469e-01  1.0003613119760983e-01  1.0000314259026667e-01  1.0002732927703446e-01  9.9992322237125120e-02  1.0007710307128373e-01  9.9877944546660741e-02  1.0028657316530432e-01  1.0018966690775258e-01  9.9511535562453665e-02  9.9863759991560025e-02  1.0003507561156678e-01  9.9936278858433480e-02  9.9990550448716145e-02  9.9967197683120915e-02  9.9962041704175691e-02  9.9963194528192925e-02  9.9964050988583630e-02  9.9946794714066936e-02  9.9983423286409967e-02  9.9966944602128432e-02  9.9969605884159735e-02  9.9969286926561915e-02  9.9971161121543556e-02  9.9965432526371870e-02  9.9970098173407254e-02  9.9969101224399531e-02  9.9967096150509402e-02  9.9969739828378451e-02  9.9969576722220455e-02  9.9969193250188729e-02  9.9969931033484671e-02  9.9971573007485118e-02  9.9968032357161021e-02  9.9973844798784767e-02  9.9964490744462384e-02  9.9980312757977696e-02  9.9951985282887110e-02  1.0000000000000003e-01  1.0000919605476777e-01  1.0000000000000003e-01  1.0000491511505653e-01  1.0000786861999929e-01  1.0000593918907819e-01  1.0000866353448178e-01  1.0000780985346748e-01  1.0000692590598780e-01  1.0001007149291787e-01  1.0000902241853385e-01  1.0000704466982852e-01  1.0001315774704617e-01  1.0001100127742889e-01  1.0000851830757279e-01  1.0001624991215428e-01  1.0001120930265051e-01  1.0000681728793796e-01  1.0001791720338957e-01  1.0000827708264176e-01  1.0000583741959168e-01  1.0001806990448879e-01  1.0001565378238214e-01  1.0001509609807220e-01  1.0003186080139354e-01  1.0001913219356685e-01  1.0000244938384918e-01  1.0004855148205277e-01  9.9975910119052935e-02  1.0007501431987621e-01  9.9895873621532655e-02  1.0027935939988422e-01  1.0020595733167501e-01  9.9499903944128540e-02  9.9863193990653423e-02  1.0002619413932841e-01  9.9950064716111633e-02  9.9992134633775639e-02  9.9956786212171078e-02  9.9976387139089698e-02  9.9968861118957378e-02  9.9955889779437160e-02  9.9962871073993001e-02  9.9957491571273135e-02  9.9975520508170795e-02  9.9968077602491767e-02  9.9976040273567379e-02  9.9965118114559604e-02  9.9972317967505997e-02  9.9970131988874084e-02  9.9967740470241165e-02  9.9970259003641149e-02  9.9970383214051356e-02  9.9968221089112824e-02  9.9971140011906129e-02  9.9970235011904926e-02  9.9971132772946156e-02  9.9969454158672352e-02  9.9974196161978779e-02  9.9965019366536567e-02  9.9980757876461032e-02  9.9953165301907843e-02  1.0000000000000003e-01  1.0000968560044930e-01  1.0000000000000003e-01  1.0000480892178615e-01  1.0000749124276485e-01  1.0000739625617992e-01  1.0000813896254351e-01  1.0000664383027823e-01  1.0000971307216537e-01  1.0000877273661035e-01  1.0000690863204562e-01  1.0001158087089979e-01  1.0001037250813564e-01  1.0000824907761327e-01  1.0001537683095325e-01  1.0001241003149750e-01  1.0000784472500192e-01  1.0001768671918361e-01  1.0001059196737945e-01  1.0000539543778583e-01  1.0001806023548580e-01  1.0000948656216890e-01  9.9999369047794662e-02  1.0003348556590773e-01  1.0001300818876525e-01  1.0001751384834213e-01  1.0002724599965936e-01  1.0002757018588528e-01  9.9974940900445022e-02  1.0009857939484117e-01  9.9879380182691935e-02  1.0027750378159103e-01  1.0020979044195447e-01  9.9515380171729215e-02  9.9853744475306386e-02  1.0003928525153911e-01  9.9951747411359149e-02  9.9982502411375407e-02  9.9969370769393329e-02  9.9979681506403517e-02  9.9960579123530943e-02  9.9971214992659971e-02  9.9965745106284906e-02  9.9956496347344631e-02  9.9958488696475889e-02  9.9983554881311290e-02  9.9963456942038550e-02  9.9977193749282503e-02  9.9971447258374840e-02  9.9969523811446956e-02  9.9971870410137331e-02  9.9972080743716538e-02  9.9969171116999489e-02  9.9971634030390513e-02  9.9971795822361501e-02  9.9969887783254469e-02  9.9973137003455531e-02  9.9970436956238501e-02  9.9974527259227897e-02  9.9966855727692455e-02  9.9981429046745299e-02  9.9954967994166768e-02  1.0000000000000003e-01  1.0000988586206967e-01  1.0000000000000003e-01  1.0000462446702675e-01  1.0000873231009043e-01  1.0000710585644872e-01  1.0000743625895567e-01  1.0000904542510168e-01  1.0000888939712807e-01  1.0000721883494999e-01  1.0001092932746614e-01  1.0000979201918295e-01  1.0000785427821732e-01  1.0001406593591089e-01  1.0001250070278270e-01  1.0000867969957014e-01  1.0001759828257650e-01  1.0001281712104097e-01  1.0000658129491825e-01  1.0001909513092380e-01  1.0001015642919162e-01  1.0000213890913447e-01  1.0002243833240389e-01  1.0000407417424610e-01  1.0000896152432051e-01  1