<?xml version="1.0"?>
<VTKFile type="UnstructuredGrid"  version="0.1"  >
<UnstructuredGrid>
<Piece  NumberOfPoints="1933" NumberOfCells="3640">
<Points>
<DataArray  type="Float64"  NumberOfComponents="3"  format="ascii">0.2935832136098245 0.001909081867488749 0  5.293583238256403 0.001825182429479689 0  5.293709167093637 7.501825291180969 0  0.2937090974992373 7.501909110661336 0  10.29358325522984 0.001741167480245361 0  10.29370930348146 7.501741308562213 0  15.29358332603054 0.001656944300619434 0  15.29370954676281 7.501657097933466 0  20.29358352697937 0.001572478675958724 0  20.29370993843255 7.501572636780696 0  25.29358393504615 0.001487773183717095 0  25.2937105219799 7.501487933061984 0  30.29358462343266 0.001402854322785727 0  30.29371134205453 7.501403015858758 0  35.29358566131263 0.001317764842433651 0  35.29371244387062 7.501317929197455 0  40.29358711529042 0.001232559433763667 0  40.2937138731061 7.501232728439109 0  45.2935890515064 0.001147302707771224 0  45.29371567620262 7.501147478601809 0  50.2935915379387 0.001062068815272996 0  50.29371790090781 7.501062254157141 0  55.29359464673787 0.0009769423447264127 0  55.29372059692486 7.500977140022692 0  60.29359845655891 0.0008920203316833352 0  60.29372381655635 7.500892233626092 0  65.29360305491512 0.000807415366335332 0  65.29372761523955 7.50080764804697 0  70.29360854058854 0.0007232599205013672 0  70.2937320518664 7.500723516365756 0  75.29361502613661 0.0006397121556576035 0  75.29373718874467 7.500639997478162 0  80.29362264050187 0.0005569636434357133 0  80.29374309099489 7.500557283791032 0  85.29363153168471 0.0004752496596152409 0  85.29374982508156 7.500475611420356 0  90.29364186932227 0.0003948630454403167 0  90.29375745601156 7.500395273795519 0  95.29365384681191 0.0003161731330162982 0  95.29376604250534 7.50031663997333 0  100.2936676821808 0.0002396520116912682 0  100.2937756291248 7.500240179527399 0  105.2936836160764 0.0001659116424157228 0  105.2937862339076 7.500166496654406 0  110.2937019035599 9.575728505034536e-05 0  110.2937978296063 7.500096377147219 0  115.2937227930681 3.026582656324617e-05 0  115.2938103163767 7.500030853041477 0  120.2937464792147 -2.90974617585697e-05 0  120.2938234844245 7.499971290632572 0  125.2937730027208 -8.030261100214695e-05 0  125.2938369686225 7.499919506961388 0  130.2938020437555 -0.0001204871809812777 0  130.2938502080714 7.499877914717167 0  135.293832500052 -0.0001455539733286631 0  135.2938624533627 7.499849679433892 0  140.2938616267602 -0.0001496018706206871 0  140.2938729406816 7.4998388379655 0  145.2938832616244 -0.000124319407100806 0  145.2938815484141 7.499850298393664 0  150.2938840111316 -5.951536446721762e-05 0  150.2938907970227 7.499889931671793 0  160.2938926261471 7.425557127951938e-19 0  165.2937286543833 -0.0002160291832651806 0  165.2938640499432 7.499752957722095 0  160.293913732641 7.499926413027405 0  170.2936347041573 -0.0004058866498304203 0  170.2938136180223 7.499578381551462 0  175.2935790992718 -0.0005766268098015802 0  175.2937714167069 7.499414608927846 0  180.2935455289695 -0.0007320976606543679 0  180.2937384823261 7.499262771272877 0  185.2935250926487 -0.0008753737635578013 0  185.2937136329306 7.499121518899947 0  190.2935127440627 -0.001008964597039346 0  190.2936952573324 7.498989099019109 0  195.293505525536 -0.001134853285833846 0  195.2936818761585 7.498863908433387 0  200.2935016447492 -0.001254575133215724 0  200.2936722821238 7.498744615042582 0  205.2934999777283 -0.001369311656221238 0  205.2936655368313 7.498630149475439 0  210.2934997951268 -0.001479975648273017 0  210.2936609259472 7.498519662143097 0  215.2935006080265 -0.00158727916061274 0  215.2936579095793 7.498412477312995 0  220.2935020788675 -0.001691784759323728 0  220.2936560796263 7.498308053729846 0  225.2935039685501 -0.001793943177875572 0  225.2936551263691 7.498205953459812 0  230.2935061040689 -0.001894120745458612 0  230.2936548133804 7.498105818060997 0  235.293508358088 -0.001992619409867287 0  235.293654959039 7.498007350581686 0  240.2935106356567 -0.002089691480874956 0  240.2936554229977 7.497910301970928 0  245.2935128653304 -0.002185550625228391 0  245.2936560962875 7.497814460756179 0  250.2935149930933 -0.002280380192869454 0  250.2936568940571 7.49771964511943 0  255.2935169781394 -0.002374339629268409 0  255.2936577502373 7.49762569673439 0  260.2935187899283 -0.002467569499793637 0  260.2936586136067 7.497532475905064 0  265.2935204061812 -0.002560195489588672 0  265.2936594449069 7.497439857680549 0  270.2935218115981 -0.002652331622041404 0  270.2936602147485 7.497347728725246 0  275.2935229972031 -0.002744082839872955 0  275.2936609021193 7.497255984811055 0  280.2935239602807 -0.002835546994029611 0  280.2936614933627 7.497164528883308 0  285.2935247049286 -0.002926816160024669 0  285.2936619815029 7.497073269751087 0  290.2935252432649 -0.00301797700512175 0  290.2936623657978 7.496982121584307 0  295.2935255973404 -0.003109109581628575 0  295.2936626514208 7.496891004588259 0  300.2935258015918 -0.003200283257338937 0  300.2936628491679 7.496799847491662 0  305.2935259052015 -0.003291547163446764 0  305.2936629753582 7.496708592815218 0  310.293525972259 -0.003382909768845388 0  310.2936630528677 7.49661720617002 0  5.293834677993685 15.00182556050215 0  0.2938345965349881 15.00190918709884 0  10.2938348302137 15.00174165460656 0  15.29383509108899 15.00165746628186 0  20.29383548871709 15.00157300514541 0  25.29383604780626 15.00148829525148 0  30.29383679236705 15.00140337350373 0  35.29383774661731 15.0013182875861 0  40.29383893513406 15.00123309448088 0  45.29384038271725 15.00114785988085 0  50.29384211413598 15.00106265853111 0  55.29384415378468 15.00097757547651 0  60.2938465252043 15.00089270821581 0  65.29384925038819 15.00080816982248 0  70.29385234875853 15.0007240931677 0  75.29385583567664 15.00064063647153 0  80.29385972031376 15.00055799051438 0  85.29386400268366 15.00047638796699 0  90.29386866961541 15.00039611544501 0  95.29387368947965 15.00031752904968 0  100.2938790055946 15.00024107428371 0  105.2938845286124 15.00016731122481 0  110.2938901289639 15.00009694546446 0  115.2938956321064 15.00003086405345 0  120.2939008224587 14.99997017244511 0  125.293905467563 14.99991622094709 0  130.293909383301 14.99987059293315 0  135.2939125742985 14.999834992652 0  140.2939154968334 14.99981089677183 0  145.2939194827658 14.99979866098226 0  150.293927242351 14.99979526523047 0  165.2939464005397 14.99966800945833 0  160.2939548057757 14.99979751694655 0  170.2939288620036 14.99952625565271 0  175.29390775063 14.99938283515505 0  180.2938869252446 14.99924315835786 0  185.2938682604501 14.99910916831048 0  190.2938524105284 14.99898113850335 0  195.2938393989196 14.99885865074659 0  200.2938289652644 14.99874105845356 0  205.2938207497803 14.99862768983999 0  210.2938143836941 14.99851792801062 0  215.2938095290432 14.99841123525756 0  220.2938058926113 14.99830715358623 0  225.2938032274741 14.99820529628399 0  230.2938013291775 14.99810533711658 0  235.2938000300888 14.99800699986924 0  240.2937991935605 14.99791004918486 0  245.2937987086188 14.99781428288428 0  250.293798485415 14.99771952565374 0  255.2937984514498 14.99762562388894 0  260.2937985485054 14.99753244148359 0  265.2937987301667 14.99743985637858 0  270.2937989598361 14.99734775773109 0  275.2937992091317 14.99725604360634 0  280.293799456571 14.99716461913816 0  285.2937996864841 14.99707339514462 0  290.293799888074 14.99698228720963 0  295.2938000546798 14.99689121521539 0  300.2938001833553 14.99680010314155 0  305.2938002752038 14.99670887837107 0  310.2938003373034 14.9966174680677 0  5.293959659352251 22.5018261462797 0  0.2939595769604351 22.50190956280598 0  10.29395979266212 22.50174232935034 0  15.29396000749341 22.50165816539802 0  20.29396032293902 22.50157369955792 0  25.29396075180913 22.50148897671317 0  30.29396130375517 22.50140404530386 0  35.29396198680777 22.5013189590207 0  40.29396280789904 22.50123377769666 0  45.2939637727756 22.50114856812055 0  50.29396488554263 22.50106340514844 0  55.2939661479522 22.5009783733113 0  60.29396755847292 22.50089356904465 0  65.29396911112973 22.5008091036522 0  70.29397079407994 22.50072510712881 0  75.29397258788748 22.50064173299775 0  80.29397446347524 22.50055916434597 0  85.2939763797811 22.50047762126 0  90.29397828124927 22.50039736984474 0  95.29398009547683 22.50031873290784 0  100.2939817316659 22.50024210212317 0  105.293983081088 22.50016795089797 0  110.2939840216414 22.50009684597198 0  115.2939844298713 22.5000294534938 0  120.2939842055148 22.49996653113686 0  125.2939833154339 22.49990889046915 0  130.2939818644837 22.49985730149471 0  135.2939801973177 22.49981229214685 0  140.2939790199005 22.49977376974886 0  145.2939794870567 22.49974037161442 0  150.2939831053267 22.49970851320672 0  165.2940181377669 22.49957390745426 0  160.294007012997 22.49967714627034 0  170.2940204908148 22.49945724568473 0  175.2940165123016 22.49933401309867 0  180.2940088179534 22.49920910241604 0  185.2939994823284 22.4990854434769 0  190.2939898795769 22.49896451136733 0  195.2939808080566 22.49884688029664 0  200.2939726677059 22.49873262525994 0  205.2939656085045 22.49862157097211 0  210.2939596353646 22.49851343367872 0  215.2939546761046 22.49840789703029 0  220.2939506230224 22.49830465001421 0  225.293947357074 22.4982034040228 0  230.2939447611547 22.49810389891597 0  235.2939427268153 22.49800590356139 0  240.2939411571518 22.49790921381488 0  245.2939399675591 22.49781364948895 0  250.2939390853493 22.49771905108707 0  255.2939384488296 22.49762527666892 0  260.2939380061493 22.49753219899924 0  265.2939377141134 22.49743970302711 0  270.2939375370261 22.49734768369335 0  275.293937445613 22.49725604404337 0  280.2939374160252 22.49716469361093 0  285.2939374289305 22.49707354701853 0  290.2939374687111 22.49698252269022 0  295.2939375228355 22.49689154144816 0  300.2939375814898 22.496800
[...]
<PointData  Scalars="p"> 
<DataArray  type="Float64"  Name="p"  format="ascii">1.0000000000000001e-01  1.0000000000000003e-01  1.0000372061986786e-01  1.0000000000000003e-01  1.0000000000000003e-01  1.0000362865751931e-01  1.0000000000000003e-01  1.0000548242048436e-01  1.0000000000000003e-01  1.0000611488524723e-01  1.0000000000000003e-01  1.0000739376069932e-01  1.0000000000000003e-01  1.0000999635401267e-01  1.0000000000000003e-01  1.0001079620167985e-01  1.0000000000000003e-01  1.0001257661578308e-01  1.0000000000000003e-01  1.0001555727510288e-01  1.0000000000000003e-01  1.0001505049589307e-01  1.0000000000000003e-01  1.0002424573369843e-01  1.0000000000000003e-01  1.0002770178896175e-01  1.0000000000000003e-01  1.0003250462005302e-01  1.0000000000000003e-01  1.0003594348351821e-01  1.0000000000000003e-01  1.0004429267946281e-01  1.0000000000000003e-01  1.0004733753726454e-01  1.0000000000000003e-01  1.0005395051306126e-01  1.0000000000000003e-01  1.0006390881965094e-01  1.0000000000000003e-01  1.0006726715937063e-01  1.0000000000000003e-01  1.0007814213964356e-01  1.0000000000000003e-01  1.0008506885245096e-01  1.0000000000000003e-01  1.0009736918074526e-01  1.0000000000000003e-01  1.0009644148154791e-01  1.0000000000000003e-01  1.0012576323229265e-01  1.0000000000000003e-01  1.0010221723453275e-01  1.0000000000000003e-01  1.0016128845051256e-01  1.0000000000000003e-01  1.0009825009047987e-01  1.0000000000000003e-01  1.0020880905897404e-01  1.0000000000000003e-01  1.0008025242275716e-01  1.0000000000000001e-01  1.0028634640536331e-01  1.0000000000000001e-01  1.0000000000000003e-01  9.9800589968403797e-02  9.9552934261282727e-02  1.0000000000000003e-01  9.9956978287860640e-02  1.0000000000000003e-01  9.9845106829936414e-02  1.0000000000000003e-01  9.9908437041194634e-02  1.0000000000000003e-01  9.9891081068194207e-02  1.0000000000000003e-01  9.9907822096151996e-02  1.0000000000000003e-01  9.9901940280408039e-02  1.0000000000000003e-01  9.9916165766708212e-02  1.0000000000000003e-01  9.9914899729261611e-02  1.0000000000000003e-01  9.9920213902638860e-02  1.0000000000000003e-01  9.9924627866487925e-02  1.0000000000000003e-01  9.9927798013894620e-02  1.0000000000000003e-01  9.9930026067245020e-02  1.0000000000000003e-01  9.9934107367160505e-02  1.0000000000000003e-01  9.9935996599076773e-02  1.0000000000000003e-01  9.9938029803644635e-02  1.0000000000000003e-01  9.9940513987561444e-02  1.0000000000000003e-01  9.9942161199993482e-02  1.0000000000000003e-01  9.9943364325873862e-02  1.0000000000000003e-01  9.9945379745817700e-02  1.0000000000000003e-01  9.9946012375612348e-02  1.0000000000000003e-01  9.9947832097788986e-02  1.0000000000000003e-01  9.9947592207107971e-02  1.0000000000000003e-01  9.9950833859894422e-02  1.0000000000000003e-01  9.9947370812876343e-02  1.0000000000000003e-01  9.9955344395925128e-02  1.0000000000000003e-01  9.9943888743984924e-02  1.0000000000000003e-01  9.9964558960272523e-02  1.0000000000000003e-01  9.9929588497300090e-02  1.0000000000000001e-01  1.0000000000000003e-01  1.0000688224523331e-01  1.0000000000000003e-01  1.0000639288722996e-01  1.0000678496275787e-01  1.0000767565451915e-01  1.0001029986698395e-01  1.0001000851868019e-01  1.0001064255072128e-01  1.0001458431307589e-01  1.0001252173376965e-01  1.0001427948914875e-01  1.0001680329879981e-01  1.0002717236637015e-01  1.0002285198083928e-01  1.0003315545693867e-01  1.0002817779064849e-01  1.0003293579831199e-01  1.0004095706540890e-01  1.0003921299664517e-01  1.0004293838679718e-01  1.0005556947949763e-01  1.0004889710417245e-01  1.0006114489067582e-01  1.0006098054976867e-01  1.0007464080240461e-01  1.0005301613841504e-01  1.0010954518391822e-01  1.0001874357034032e-01  1.0017938335655592e-01  9.9933993057559692e-02  1.0028978217111763e-01  1.0020157097173665e-01  9.9339589320974850e-02  9.9783429994347417e-02  9.9971605551993026e-02  9.9939488127954987e-02  9.9951537755612177e-02  9.9929566415912482e-02  9.9959293274304972e-02  9.9945550156160037e-02  9.9950723697349669e-02  9.9957218700271022e-02  9.9957873156852242e-02  9.9957921004103917e-02  9.9964287884707487e-02  9.9964526731641898e-02  9.9965541168537120e-02  9.9969166185303479e-02  9.9969928758584153e-02  9.9970721142143198e-02  9.9973064754761740e-02  9.9974033650740757e-02  9.9974404613408938e-02  9.9976726055468243e-02  9.9976368208770705e-02  9.9978955615604909e-02  9.9976941034726180e-02  9.9983262765038758e-02  9.9973786447313306e-02  9.9992044970572569e-02  9.9965423553704691e-02  1.0000000000000003e-01  1.0001052839965882e-01  1.0000000000000003e-01  1.0000671739127395e-01  1.0000984669125786e-01  1.0001245564360708e-01  1.0001266467514040e-01  1.0001337162274408e-01  1.0001903111709258e-01  1.0001758564938452e-01  1.0001823737911293e-01  1.0002434234986521e-01  1.0002597546322198e-01  1.0002001359068206e-01  1.0004879322549967e-01  1.0003683086133976e-01  1.0004340502959157e-01  1.0005508997423741e-01  1.0004987028746151e-01  1.0005626981511812e-01  1.0007245846639044e-01  1.0006733549551421e-01  1.0007341455458105e-01  1.0009648533036483e-01  1.0007972176386826e-01  1.0010700293577937e-01  1.0009352148117302e-01  1.0013346658014935e-01  1.0006604103669747e-01  1.0021613336495354e-01  9.9944211715478931e-02  1.0045277179795387e-01  1.0011886761278133e-01  9.9425987136753186e-02  9.9684081333693067e-02  9.9938855497393494e-02  9.9916179393367263e-02  9.9865711919129976e-02  9.9942689123035444e-02  9.9899433365594398e-02  9.9912155691665394e-02  9.9924910745313164e-02  9.9924065347581928e-02  9.9922406179722256e-02  9.9935420796725918e-02  9.9934195274086882e-02  9.9935799969006228e-02  9.9943024948129511e-02  9.9943899005963982e-02  9.9944731790951827e-02  9.9949670325727685e-02  9.9950461460606890e-02  9.9951653750856559e-02  9.9954501104658006e-02  9.9956106127008448e-02  9.9956124488383855e-02  9.9960044505512574e-02  9.9958124202200530e-02  9.9963988108224988e-02  9.9957176201655631e-02  9.9973201633206207e-02  9.9945265330705468e-02  1.0000000000000003e-01  1.0001284030118827e-01  1.0000000000000003e-01  1.0000803970973200e-01  1.0001412240332509e-01  1.0001322503945748e-01  1.0001409681868831e-01  1.0002012907689434e-01  1.0001861822766331e-01  1.0001929162521805e-01  1.0002676659511603e-01  1.0002378967601273e-01  1.0002382745932482e-01  1.0004010084807068e-01  1.0002318376920596e-01  1.0004871226361799e-01  1.0005275759304565e-01  1.0004877485622715e-01  1.0004967424814949e-01  1.0006921099933952e-01  1.0005720643311111e-01  1.0006750092321925e-01  1.0008331819525114e-01  1.0007863460588198e-01  1.0007713035432222e-01  1.0011488990536695e-01  1.0006839339001214e-01  1.0014032551865668e-01  1.0004425055756426e-01  1.0022006090296025e-01  9.9907146106251885e-02  1.0047841079392708e-01  1.0010973416910540e-01  9.9281031917853493e-02  9.9798678256317969e-02  9.9973629005109796e-02  9.9771888093603697e-02  1.0000397765546848e-01  9.9887316752800104e-02  9.9921637227423976e-02  9.9928934958572913e-02  9.9930451949540047e-02  9.9921495979916578e-02  9.9942745463015681e-02  9.9937299011295846e-02  9.9938716352786630e-02  9.9948371498808392e-02  9.9948899304059993e-02  9.9949287245895427e-02  9.9956098612207306e-02  9.9956702520847054e-02  9.9957448836641719e-02  9.9961943957311214e-02  9.9962559288355290e-02  9.9964192846175429e-02  9.9966030105990020e-02  9.9969044516092134e-02  9.9966868161610253e-02  9.9974685396772026e-02  9.9965862228610078e-02  9.9983524823365630e-02  9.9958062962385297e-02  1.0000000000000003e-01  1.0001520780166337e-01  1.0000000000000003e-01  1.0001071843328709e-01  1.0001482458319884e-01  1.0001404008133567e-01  1.0002100985939531e-01  1.0001929839848735e-01  1.0002069435613255e-01  1.0002902418344327e-01  1.0002571460054772e-01  1.0002579311906397e-01  1.0004001914601592e-01  1.0003163866915563e-01  1.0003946794592050e-01  1.0004024138132150e-01  1.0006008507467928e-01  1.0005221893277667e-01  1.0007544912647078e-01  1.0006014617392579e-01  1.0006761981780068e-01  1.0009164207008012e-01  1.0007462622788300e-01  1.0009005317096413e-01  1.0010455327271635e-01  1.0010650292747091e-01  1.0008607917895922e-01  1.0016249119460360e-01  1.0004233681340120e-01  1.0024909289673990e-01  9.9893819344155893e-02  1.0055289055625580e-01  1.0023596432266466e-01  9.9192505806773537e-02  9.9729190927650715e-02  9.9898614564037230e-02  9.9883721703675626e-02  9.9862836674104630e-02  9.9905114583273058e-02  9.9911462489814085e-02  9.9921641936657396e-02  9.9893592810183826e-02  9.9932498046068088e-02  9.9919234284552780e-02  9.9920982306839712e-02  9.9934876967353786e-02  9.9934443348517060e-02  9.9933584836903414e-02  9.9944415296941022e-02  9.9944478899146344e-02  9.9945188220527240e-02  9.9951487881165840e-02  9.9952594926406665e-02  9.9953099107742263e-02  9.9957955788602726e-02  9.9958168906489897e-02  9.9960982480605171e-02  9.9961139712327882e-02  9.9967173335697337e-02  9.9960053354071987e-02  9.9977289073315836e-02  9.9951052812405863e-02  1.0000000000000003e-01  1.0001799887238393e-01  1.0000000000000003e-01  1.0001097488229233e-01  1.0001601163330082e-01  1.0001935176072942e-01  1.0001995721492424e-01  1.0002048027676082e-01  1.0002897938859706e-01  1.0002684069126494e-01  1.0002662382825932e-01  1.0003872177751374e-01  1.0003391977266901e-01  1.0003660828790474e-01  1.0004925428695047e-01  1.0004690812846408e-01  1.0003053774347173e-01  1.0008698829910037e-01  1.0005785751572041e-01  1.0006863111502221e-01  1.0008935016679087e-01  1.0007392962657125e-01  1.0007854434603664e-01  1.0011490684434272e-01  1.0008187367961800e-01  1.0011322588532558e-01  1.0010565997744808e-01  1.0014650570852580e-01  1.0004276767399060e-01  1.0027377670338916e-01  9.9855393751435165e-02  1.0061172854188527e-01  1.0020974669413386e-01  9.9232140715467418e-02  9.9666349432014509e-02  1.0000914738358548e-01  9.9843198397581059e-02  9.9873622115961888e-02  9.9863375733189083e-02  9.9953350619595607e-02  9.9866687884673691e-02  9.9945457615054190e-02  9.9910085752313846e-02  9.9915708146309637e-02  9.9932781396419840e-02  9.9932134836154013e-02  9.9927890580495449e-02  9.9943512589235603e-02  9.9941926463376726e-02  9.9942241976306814e-02  9.9951481018858673e-02  9.9951920689661328e-02  9.9952386565123300e-02  9.9958166585397301e-02  9.9959616497622208e-02  9.9959605888677763e-02  9.9965325538251451e-02  9.9963570713746966e-02  9.9970105264749823e-02  9.9963870174600122e-02  9.9980425651378060e-02  9.9955984245148025e-02  1.0000000000000003e-01  1.0001951531298751e-01  1.0000000000000003e-01  1.0001146687063020e-01  1.0002077427451862e-01  1.0001858186259271e-01  1.0002069137652174e-01  1.0002800651421011e-01  1.0002713146478338e-01  1.0002691972699548e-01  1.0003889182986202e-01  1.0003386262719198e-01  1.0003571297524008e-01  1.0005172121137368e-01  1.0004507782182748e-01  1.0004123229833339e-01  1.0007089624508779e-01  1.0003562335173390e-01  1.0007934021432149e-01  1.0009061113826807e-01  1.0007538477559035e-01  1.0007968458518776e-01  1.0011006765106854e-01  1.0009001824571470e-01  1.0009176818720371e-01  1.0014343311349981e-01  1.0008307803136909e-01  1.0015724399769738e-01  1.0006814803805540e-01  1.0026235396965774e-01  9.9854232938804785e-02  1.0066581865523563e-01  1.0018483447412108e-01  9.9165700287807149e-02  9.9734883307180805e-02  9.9970614369964211e-02  9.9799525279144041e-02  9.9925401202094075e-02  9.9883196132092011e-02  9.9825175549676057e-02  9.9957025300622282e-02  9.9893240345309095e-02  9.9909430879473016e-02  9.9920877405528380e-02  9.9925178121160030e-02  9.9914509525933393e-02  9.9937032153593744e-02  9.9933142860827384e-02  9.9932493879151610e-02  9.9944140994370323e-02  9.9945015471651341e-02  9.9944723006114830e-02  9.9953010350879792e-02  9.9953454174830647e-02  9.9954766175285939e-02  9.9958958917891139e-02  9.9961805281187463e-02  9.9960430426251135e-02  9.9968464261009651e-02  9.9961649069649369e-02  9.9978023917928427e-02  9.9954171782190127e-02  1.0000000000000003e-01  1.0002092399372176e-01  1.0000000000000003e-01  1.0001397847258024e-01  1.0002049642405984e-01  1.0001885916192864e-01  1.0002706553257111e-01  1.0002572843667393e-01  1.0002664754393605e-01  1.0003754713167333e-01  1.0003354472187201e-01  1.0003401712031118e-01  1.0005031681094073e-01  1.0004392453954608e-01  1.0004368431469891e-01  1.0006648806855352e-01  1.0004741985295394e-01  1.0005964842979401e-01  1.0006102077475354e-01  1.0008844114189486e-01  1.0007475120342349e-01  1.0011578235544691e-01  1.0008037536760900e-01  1.0009772027209375e-01  1.0012410321109116e-01  1.0011189768548467e-01  1.0008896327485087e-01  1.0018987423147581e-01  1.0003749525275239e-01  1.0027567320112268e-01  9.9863779390469920e-02  1.0067686687658781e-01  1.0026388664992605e-01  9.9096636896244289e-02  9.9695843695135677e-02  9.9934961898314342e-02  9.9860306420481798e-02  9.9915956390104518e-02  9.9837380502419332e-02  9.9917878664748369e-02  9.9854096713542839e-02  9.9924411549053058e-02  9.9906831471994015e-02  9.9931246669740181e-02  9.9900606453630830e-02  9.9936750461238386e-02  9.9927602377886629e-02  9.9926745022445820e-02  9.9941258759011178e-02  9.9941196224726192e-02  9.9939352969528022e-02  9.9950796006858855e-02  9.9951329843105063e-02  9.9951296078474472e-02  9.9958656661521914e-02  9.9958885882396986e-02  9.9961346883287866e-02  9.9963101978802288e-02  9.9969205746134771e-02  9.9962573517902165e-02  9.9979646454627619e-02  9.9956348321424734e-02  1.0000000000000003e-01  1.0002292966807036e-01  1.0000000000000003e-01  1.0001366059744393e-01  1.0002077479967898e-01  1.0002362333105425e-01  1.0002546517429702e-01  1.0002505763209373e-01  1.0003538272360467e-01  1.0003300239779277e-01  1.0003294662885513e-01  1.0004663865086812e-01  1.0004293400361748e-01  1.0004264656384905e-01  1.0006339131912148e-01  1.0005135372858219e-01  1.0005348837363813e-01  1.0007389913350118e-01  1.0006610218419409e-01  1.0004102759965700e-01  1.0012740159888518e-01  1.0008092206836275e-01  1.0009215254269974e-01  1.0013331403948549e-01  1.0008898168293577e-01  1.0011728840233110e-01  1.0012996079247906e-01  1.0015127870224012e-01  1.0004455877957066e-01  1.0031166509908866e-01  9.9829293457946292e-02  1.0070235528418427e-01  1.0026130376855388e-01  9.9117706674709413e-02  9.9650146885096436e-02  9.9995080676207312e-02  9.9837892492489727e-02  9.9872073188897639e-02  9.9896689922128482e-02  9.9894556797938489e-02  9.9866006426124684e-02  9.9874610289193227e-02  9.9947111301365410e-02  9.9880961067519952e-02  9.9940770497226786e-02  9.9917838823473798e-02  9.9919740353470399e-02  9.9935705674617334e-02  9.9936901028037137e-02  9.9931843087718575e-02  9.9946509373062792e-02  9.9945827192239614e-02  9.9945923886446769e-02  9.9954798328749553e-02  9.9956255443000380e-02  9.9955731373196674e-02  9.9963149132506243e-02  9.9961802639241870e-02  9.9967551863789583e-02  9.9963304197881214e-02  9.9978742250268163e-02  9.9956163887245167e-02  1.0000000000000003e-01  1.0002372615603092e-01  1.0000000000000003e-01  1.0001362681873675e-01  1.0002471326327007e-01  1.0002228218452409e-01  1.0002496742581594e-01  1.0003242980928423e-01  1.0003186976270290e-01  1.0003166469210729e-01  1.0004419947815761e-01  1.0004034536177520e-01  1.0004035206651617e-01  1.0005990531122998e-01  1.0005137015624749e-01  1.0005077170038455e-01  1.0007464418945371e-01  1.0006182029453543e-01  1.0005370237613888e-01  1.0010083950058439e-01  1.0004275252463622e-01  1.0010697977854535e-01  1.0012453036927466e-01  1.0009998120094314e-01  1.0009400422784616e-01  1.0016275570640380e-01  1.0008248459632778e-01  1.0015731890345871e-01  1.0008829821983450e-01  1.0026971076665318e-01  9.9832931223972174e-02  1.0074565677060400e-01  1.0024000026616446e-01  9.9086693315118948e-02  9.9691402931170736e-02  9.9984528644812665e-02  9.9797396593772472e-02  9.9925698137799543e-02  9.9880014716515086e-02  9.9871288691917484e-02  9.9899145751493529e-02  9.9906961983662751e-02  9.9844199555847293e-02  9.9958837502630390e-02  9.9905428394131246e-02  9.9921381340777882e-02  9.9928127115285287e-02  9.9935621871533473e-02  9.9924891543483302e-02  9.9944629345122063e-02  9.9942629485318291e-02  9.9940771282690785e-02  9.9951805293233220e-02  9.9953117476503914e-02  9.9953276032830538e-02  9.9960040006463108e-02  9.9962601538696697e-02  9.9961098123060907e-02  9.9969849183298085e-02  9.9963830248169849e-02  9.9978933144863294e-02  9.9957864085818096e-02  1.0000000000000003e-01  1.0002437583921661e-01  1.0000000000000003e-01  1.0001542822842953e-01  1.0002383260569424e-01  1.0002155103273365e-01  1.0003033464591062e-01  1.0002933288433519e-01  1.0003034751160356e-01  1.0004079263810491e-01  1.0003830080288478e-01  1.0003746003105322e-01  1.0005490849237543e-01  1.0004882912226222e-01  1.0004854131843924e-01  1.0007106343203738e-01  1.0005895736733046e-01  1.0005638364117421e-01  1.0009038971209280e-01  1.0006014113048693e-01  1.0007472447454598e-01  1.0008307439731359e-01  1.0010969009625009e-01  1.0009738838551546e-01  1.0014784077509871e-01  1.0010829029371682e-01  1.0009177218597719e-01  1.0020640252431219e-01  1.0003724203142515e-01  1.0027044825188031e-01  9.9881963050121189e-02  1.0070154695519679e-01  1.0029143842681451e-01  9.9029878164458796e-02  9.9680986015734996e-02  9.9952120583419818e-02  9.9840992379763682e-02  9.9915401278033028e-02  9.9846271687536001e-02  9.9909657008870556e-02  9.9900069073586881e-02  9.9872670981491732e-02  9.9915921148399020e-02  9.9876900346931224e-02  9.9933898902575508e-02  9.9916653394847316e-02  9.9940303111052078e-02  9.9914320510250662e-02  9.9943634885055019e-02  9.9938179732726951e-02  9.9936397575201827e-02  9.9948928226097911e-02  9.9949623691886744e-02  9.9947466260052117e-02  9.9958334183946229e-02  9.9958537937676048e-02  9.9960302899001707e-02  9.9963850172891444e-02  9.9969398108476465e-02  9.9963326230772115e-02  9.9979679495390480e-02  9.9958484965961852e-02  1.0000000000000003e-01  1.0002575131459086e-01  1.0000000000000003e-01  1.0001492056432358e-01  1.0002345997716962e-01  1.0002539776101392e-01  1.0002832008430848e-01  1.0002776812273007e-01  1.0003779409621102e-01  1.0003631370217934e-01  1.0003556585343455e-01  1.0004938316433844e-01  1.0004635268905737e-01  1.0004534546387980e-01  1.0006556861465857e-01  1.0005749373441489e-01  1.0005412007345678e-01  1.0008386278502393e-01  1.0006431005086258e-01  1.0006558670727519e-01  1.0009563919345384e-01  1.0008177310980183e-01  1.0004307541587222e-01  1.0017084705404680e-01  1.0008769172347665e-01  1.0012196412187405e-01  1.0014747812243274e-01  1.0014184948093875e-01  1.0004322181246002e-01  1.0032522273095452e-01  9.9830121385544507e-02  1.0069559408598022e-01  1.0031060377177013e-01  9.9041971023541189e-02  9.9640823191930794e-02  9.9993176701492617e-02  9.9837035242868605e-02  9.9882446073150721e-02  9.9885107421538555e-02  9.9906577135374902e-02  9.9867165177769696e-02  9.9916454446473860e-02  9.9905186698562895e-02  9.9893371033627304e-02  9.9889096977690509e-02  9.9957827377459604e-02  9.9900782291392251e-02  9.9949055664721217e-02  9.9932200064754659e-02  9.9933372404081386e-02  9.9946050184379145e-02  9.9948320981759237e-02  9.9943779967850935e-02  9.9955395212772802e-02  9.9956172361768666e-02  9.9955689854577062e-02  9.9964640837899785e-02  9.9963838055034365e-02  9.9968450133762918e-02  9.9965981024162862e-02  9.9979876438049620e-02  9.9959613452385881e-02  1.0000000000000003e-01  1.0002591500864821e-01  1.0000000000000003e-01  1.0001437002065555e-01  1.0002623811173016e-01  1.0002358716289361e-01  1.0002689678789248e-01  1.0003340201955209e-01  1.0003393522527543e-01  1.0003351061133595e-01  1.0004520457846927e-01  1.0004236216863618e-01  1.0004205706678745e-01  1.0005974798067899e-01  1.0005418560079070e-01  1.0005086803438311e-01  1.0007670847447292e-01  1.0006407086172273e-01  1.0005973423962795e-01  1.0009461325271173e-01  1.0007346703465929e-01  1.0006112218355510e-01  1.0012660570878659e-01  1.0004680606285520e-01  1.0011953712188693e-01  1