<?xml version="1.0"?>
<VTKFile type="UnstructuredGrid"  version="0.1"  >
<UnstructuredGrid>
<Piece  NumberOfPoints="1933" NumberOfCells="3640">
<Points>
<DataArray  type="Float64"  NumberOfComponents="3"  format="ascii">0.29402732090949 -0.001304570517017337 0  5.294027347922364 -0.001271291358476396 0  5.293977420228803 7.498728772279398 0  0.2939773837341871 7.498695478097491 0  10.29402739423745 -0.00123806003737826 0  10.29397748033201 7.498762005494814 0  15.29402748537155 -0.001204871825905796 0  15.2939775732097 7.498795191709448 0  20.2940276425706 -0.001171705710853973 0  20.29397770614408 7.49882835505914 0  25.29402788153218 -0.001138532398046344 0  25.29397788453735 7.498861525858647 0  30.2940282129536 -0.001105318018901945 0  30.29397811161524 7.498894738236082 0  35.29402864343133 -0.001072025733678322 0  35.29397838820182 7.49892802901677 0  40.29402917624027 -0.00103861621631233 0  40.29397871255361 7.498961437421113 0  45.2940298118654 -0.001005047499855046 0  45.29397908017781 7.498995005284783 0  50.29403054827229 -0.0009712744176476629 0  50.29397948356583 7.499028777635762 0  55.29403138092625 -0.0009372477454003625 0  55.29397991178445 7.499062803549502 0  60.29403230256584 -0.0009029130729645322 0  60.29398034987135 7.499097137262313 0  65.29403330271516 -0.0008682093829089128 0  65.29398077797282 7.499131839566368 0  70.29403436688789 -0.0008330672699537176 0  70.29398117014517 7.499166979546702 0  75.29403547539843 -0.0007974066902423827 0  75.29398149271036 7.499202636758028 0  80.29403660162929 -0.0007611340730629473 0  80.29398170201414 7.499238903983327 0  85.29403770951285 -0.0007241385497522575 0  85.29398174137259 7.499275890770662 0  90.29403874981838 -0.000686286941963472 0  90.29398153691214 7.499313728012464 0  95.29403965457384 -0.0006474169862024581 0  95.29398099190618 7.499352573910042 0  100.2940403284669 -0.0006073280300567996 0  100.2939799791034 7.499392621738314 0  105.2940406352283 -0.0005657680919745161 0  105.2939783304714 7.499434109842275 0  110.2940403754593 -0.0005224157175647426 0  110.2939758238699 7.499477334123386 0  115.2940392495439 -0.0004768545409831537 0  115.2939721667374 7.499522662597991 0  120.2940367940534 -0.0004285381292422651 0  120.2939669786176 7.499570549705658 0  125.2940322703193 -0.0003767434338206087 0  125.2939597788847 7.499621543327729 0  130.2940244656727 -0.0003205156972988073 0  130.2939499967523 7.499676266594123 0  135.294011333883 -0.0002586241403267273 0  135.2939370448402 7.499735332942508 0  140.2939893374381 -0.0001896024814011329 0  140.2939205503785 7.499799106022113 0  145.2939522302765 -0.0001121362603518193 0  145.2939009524685 7.499867142509712 0  150.2938887503523 -2.677565476216083e-05 0  150.2938809317647 7.499937153276185 0  160.2938926261463 1.376794237944096e-18 0  165.2938802285399 -4.192347279743087e-05 0  165.2938907062926 7.499948085656313 0  160.293890208373 7.499976217522731 0  170.2938829009501 -6.440685851554782e-05 0  170.293890897866 7.499930820079038 0  175.2938917845793 -7.359238470009837e-05 0  175.2938926260431 7.499923985248556 0  180.2939028251448 -7.318969010657893e-05 0  180.2938958263181 7.49992555252718 0  185.2939141481706 -6.573792374925489e-05 0  185.2939000251043 7.499933609534305 0  190.2939249150588 -5.303583690295701e-05 0  190.2939047603333 7.499946634673822 0  195.2939347866939 -3.63741539953276e-05 0  195.2939096803979 7.499963471896923 0  200.2939436633933 -1.668928108014003e-05 0  200.2939145455663 7.499983253431093 0  205.2939515571144 5.330699880193952e-06 0  205.2939192043689 7.50000532711443 0  210.2939585284896 2.917289236490842e-05 0  210.2939235683555 7.500029199209678 0  215.2939646560076 5.444921664856739e-05 0  215.293927591665 7.500054492034383 0  220.2939700212283 8.086161459948372e-05 0  220.2939312561571 7.500080913275459 0  225.2939747020042 0.0001081778138836496 0  225.2939345611414 7.500108233898603 0  230.2939787696941 0.0001362142439762809 0  230.2939375165105 7.500136272199692 0  235.2939822883513 0.0001648238217789398 0  235.2939401382541 7.500164882199907 0  240.2939853148632 0.0001938870865247145 0  240.2939424455946 7.500193945113652 0  245.2939878995454 0.0002233056701254294 0  245.2939444592053 7.500223363004839 0  250.2939900869272 0.0002529974238787077 0  250.2939462001547 7.500253054020381 0  255.293991916622 0.0002828927449487339 0  255.2939476893347 7.500282948780293 0  260.293993424224 0.0003129317966665017 0  260.293948947206 7.500312987637403 0  265.2939946422297 0.0003430624226267624 0  265.2939499937615 7.500343118616005 0  270.2939956009745 0.0003732386344848863 0  270.2939508486331 7.500373295912055 0  275.2939963296166 0.000403419621205541 0  275.2939515312723 7.50040347889877 0  280.2939968571596 0.0004335692953473913 0  280.2939520611774 7.50043363163882 0  285.2939972135212 0.0004636564721398906 0  285.2939524580952 7.500463722965183 0  290.293997430565 0.0004936558845408704 0  290.2939527421602 7.500493727261974 0  295.2939975429323 0.0005235503892119173 0  295.2939529339167 7.500523626154862 0  300.2939975882229 0.0005533349242056245 0  300.2939530542269 7.500553411401351 0  305.2939976055489 0.0005830229851870774 0  305.2939531242463 7.500583089340705 0  310.2939976303093 0.0006126561911343064 0  310.2939531661617 7.500612687385687 0  5.293927382295738 14.99872890544007 0  0.2939273464927653 14.99869559608494 0  10.29392743020194 14.99876212906452 0  15.29392749530317 14.99879529868034 0  20.2939275789861 14.99882844517107 0  25.29392768068569 14.99886160092859 0  30.29392779827892 14.99889480027031 0  35.29392792795782 14.99892807949717 0  40.29392806391581 14.99896147705897 0  45.29392819795423 14.99899503393228 0  50.29392831902467 14.99902879421651 0  55.29392841268656 14.99906280593851 0  60.29392846044651 14.99909712206806 0  65.29392843894253 14.99913180176415 0  70.29392831893161 14.99916691188959 0  75.29392806404509 14.99920252884815 0  80.29392762927844 14.99923874080999 0  85.29392695921233 14.99927565039344 0  90.29392598601147 14.99931337785105 0  95.29392462736944 14.99935206473809 0  100.2939227847915 14.99939187786678 0  105.2939203430494 14.99943301296414 0  110.2939171724108 14.99947569664845 0  115.2939131366008 14.99952018374378 0  120.2939081116356 14.99956674389125 0  125.2939020239453 14.99961562575902 0  130.2938949203737 14.99966697717902 0  135.2938870859551 14.99972068306807 0  140.293879221554 14.99977605840928 0  145.2938726641401 14.99983130129139 0  150.2938695267863 14.99988256005831 0  165.2938830839579 14.99992113627608 0  160.2938807837422 14.99992895360027 0  170.2938829988407 14.99991613790597 0  175.2938823227668 14.99991612004545 0  180.2938819652637 14.99992140396283 0  185.2938822228957 14.99993148194762 0  190.2938830923359 14.99994560680556 0  195.2938844535555 14.99996304178046 0  200.2938861596761 14.99998314596941 0  205.2938880754497 15.00000539059581 0  210.2938900902765 15.00002934954476 0  215.2938921196907 15.00005468253816 0  220.2938941022821 15.00008111816619 0  225.2938959953328 15.00010843920509 0  230.2938977705724 15.00013647070087 0  235.293899410577 15.00016507058137 0  240.2939009059 15.00019412235729 0  245.2939022528812 15.0002235294741 0  250.2939034520162 15.00025321094394 0  255.2939045067687 15.00028309796653 0  260.293905422715 15.00031313132166 0  265.2939062069372 15.00034325937691 0  270.2939068675954 15.00037343660556 0  275.2939074136194 15.00040362255146 0  280.2939078544836 15.00043378121233 0  285.2939082000536 15.00046388084007 0  290.2939084604942 15.00049389416913 0  295.2939086463376 15.00052379906684 0  300.2939087688638 15.00055357951973 0  305.2939088411723 15.00058322665683 0  310.2939088806077 15.00061273902689 0  5.293877304933866 22.49872914033458 0  0.2938772718783548 22.49869585383797 0  10.29387733892451 22.49876232892013 0  15.29387737435533 22.49879546013509 0  20.29387740943111 22.49882856954867 0  25.29387744069195 22.49886169110849 0  30.29387746333732 22.49889485889876 0  35.29387747122071 22.49892810807521 0  40.29387745664288 22.49896147548153 0  45.29387741003801 22.49899500020032 0  50.29387731960416 22.49902872415265 0  55.29387717089726 22.49906269279422 0  60.29387694639813 22.49909695592946 0  65.29387662506214 22.4991315686539 0  70.29387618187184 22.49916659242679 0  75.29387558743986 22.4992020962652 0  80.29387480774646 22.49923815802397 0  85.29387380416937 22.49927486567538 0  90.29387253406637 22.49931231840567 0  95.29387095234208 22.49935062716995 0  100.2938690146792 22.49938991403688 0  105.2938666834722 22.49943030912178 0  110.2938639379774 22.49947194301573 0  115.2938607907376 22.49951493118481 0  120.2938573127639 22.49955934462819 0  125.2938536697861 22.49960515804081 0  130.2938501699856 22.49965216322383 0  135.2938473178632 22.49969983348347 0  140.2938458555915 22.49974713039646 0  145.2938467476883 22.49979227444674 0  150.2938510263323 22.49983260219916 0  165.2938628576141 22.49989028044076 0  160.2938606197882 22.4998839871058 0  170.2938629393241 22.49989612904689 0  175.2938618027771 22.4999036458168 0  180.2938602291358 22.49991385779781 0  185.2938587139995 22.49992705462675 0  190.293857506996 22.49994311615533 0  195.2938566948562 22.49996173831552 0  200.2938562721538 22.49998256173401 0  205.2938561889331 22.50000523565367 0  210.2938563790568 22.5000294450013 0  215.2938567754908 22.50005491839085 0  220.2938573176099 22.50008142713725 0  225.293857953983 22.50010878058707 0  230.2938586427738 22.50013682039351 0  235.2938593510061 22.50016541493645 0  240.2938600533835 22.50019445436643 0  245.2938607310192 22.50022384640271 0  250.2938613702471 22.50025351286159 0  255.2938619615826 22.50028338683336 0  260.2938624988415 22.50031341041418 0  265.2938629784135 22.5003435329059 0  270.2938633986673 22.5003737094117 0  275.2938637594693 22.50040389976825 0  280.2938640618124 22.50043406776321 0  285.2938643075601 22.50046418058153 0  290.293864499351 22.50049420839708 0  295.2938646407512 22.50052
[...]
<PointData  Scalars="p"> 
<DataArray  type="Float64"  Name="p"  format="ascii">1.0000000000000001e-01  1.0000000000000003e-01  9.9997412513931419e-02  1.0000000000000003e-01  1.0000000000000003e-01  9.9996295484902659e-02  1.0000000000000003e-01  9.9994408435981133e-02  1.0000000000000003e-01  9.9993141576305219e-02  1.0000000000000003e-01  9.9991724084587050e-02  1.0000000000000003e-01  9.9989897366459052e-02  1.0000000000000003e-01  9.9988716060251240e-02  1.0000000000000003e-01  9.9987460599254674e-02  1.0000000000000003e-01  9.9985446051066851e-02  1.0000000000000003e-01  9.9984201596098721e-02  1.0000000000000003e-01  9.9981005935647474e-02  1.0000000000000003e-01  9.9977624074739466e-02  1.0000000000000003e-01  9.9975112784646505e-02  1.0000000000000003e-01  9.9972657028556025e-02  1.0000000000000003e-01  9.9969069777275002e-02  1.0000000000000003e-01  9.9967288402189297e-02  1.0000000000000003e-01  9.9965120407927183e-02  1.0000000000000003e-01  9.9961603565191848e-02  1.0000000000000003e-01  9.9960972577371590e-02  1.0000000000000003e-01  9.9958422581478398e-02  1.0000000000000003e-01  9.9957169809393787e-02  1.0000000000000003e-01  9.9954809528151847e-02  1.0000000000000003e-01  9.9957331055585380e-02  1.0000000000000003e-01  9.9949964836529875e-02  1.0000000000000003e-01  9.9960017919708183e-02  1.0000000000000003e-01  9.9944218305352273e-02  1.0000000000000003e-01  9.9966248169092151e-02  1.0000000000000003e-01  9.9934706256403216e-02  1.0000000000000003e-01  9.9976142283883504e-02  1.0000000000000001e-01  9.9915575455130148e-02  1.0000000000000001e-01  1.0000000000000003e-01  1.0010158777109314e-01  1.0017172983906546e-01  1.0000000000000003e-01  1.0004470262414780e-01  1.0000000000000003e-01  1.0008289011479586e-01  1.0000000000000003e-01  1.0006557196973943e-01  1.0000000000000003e-01  1.0007245424549402e-01  1.0000000000000003e-01  1.0006839866347728e-01  1.0000000000000003e-01  1.0007238124242482e-01  1.0000000000000003e-01  1.0006903375193305e-01  1.0000000000000003e-01  1.0007042123238181e-01  1.0000000000000003e-01  1.0006981360016068e-01  1.0000000000000003e-01  1.0006909657926613e-01  1.0000000000000003e-01  1.0006850275161940e-01  1.0000000000000003e-01  1.0006823563505020e-01  1.0000000000000003e-01  1.0006712198394477e-01  1.0000000000000003e-01  1.0006656714649367e-01  1.0000000000000003e-01  1.0006593241701491e-01  1.0000000000000003e-01  1.0006510679549441e-01  1.0000000000000003e-01  1.0006432760282508e-01  1.0000000000000003e-01  1.0006393185986945e-01  1.0000000000000003e-01  1.0006280716338975e-01  1.0000000000000003e-01  1.0006277691279455e-01  1.0000000000000003e-01  1.0006120040562874e-01  1.0000000000000003e-01  1.0006225962020253e-01  1.0000000000000003e-01  1.0005872331939024e-01  1.0000000000000003e-01  1.0006341574120248e-01  1.0000000000000003e-01  1.0005399829302312e-01  1.0000000000000003e-01  1.0006847515944779e-01  1.0000000000000003e-01  1.0004323506684262e-01  1.0000000000000003e-01  1.0008675066958446e-01  1.0000000000000001e-01  1.0000000000000003e-01  9.9996495984917402e-02  1.0000000000000003e-01  9.9996101503737403e-02  9.9995752929573259e-02  9.9995209093496476e-02  9.9994087616720850e-02  9.9994071914235927e-02  9.9994002670285048e-02  9.9992525084320064e-02  9.9992970678609905e-02  9.9992559530384412e-02  9.9990135445890915e-02  9.9987724064564187e-02  9.9987104312123529e-02  9.9983591512895723e-02  9.9984670132000408e-02  9.9984099925826755e-02  9.9981259099430869e-02  9.9982604632991454e-02  9.9982762032305855e-02  9.9979121914492874e-02  9.9982653432849664e-02  9.9980613082451847e-02  9.9981728533663522e-02  9.9978819853367262e-02  9.9988146050749863e-02  9.9970320365993279e-02  1.0000099085280116e-01  9.9950031810519868e-02  1.0002751207289903e-01  9.9913573354499907e-02  9.9940078546379124e-02  1.0028778638051711e-01  1.0006802335270014e-01  1.0001674475420635e-01  1.0002315328020676e-01  1.0001881226652733e-01  1.0002951892751472e-01  1.0002087292439427e-01  1.0002606669588500e-01  1.0002646238932855e-01  1.0002533204588952e-01  1.0002561937989293e-01  1.0002661660475758e-01  1.0002506728158997e-01  1.0002515436834818e-01  1.0002528100856807e-01  1.0002430846875349e-01  1.0002417805537235e-01  1.0002408983542856e-01  1.0002358105148138e-01  1.0002313947006423e-01  1.0002352317750732e-01  1.0002226975034477e-01  1.0002348261045180e-01  1.0002110132897472e-01  1.0002472590574944e-01  1.0001768925606867e-01  1.0003016037393996e-01  1.0000842831141388e-01  1.0004205968530457e-01  1.0000000000000003e-01  9.9995190317240620e-02  1.0000000000000003e-01  9.9996346052122945e-02  9.9994409282504373e-02  9.9993155287777830e-02  9.9992628872273240e-02  9.9992562868328430e-02  9.9990323815825274e-02  9.9990747815218300e-02  9.9990967513225421e-02  9.9988061962784466e-02  9.9987782632912803e-02  9.9987765535380538e-02  9.9979481217976368e-02  9.9980213920963290e-02  9.9979042959227993e-02  9.9973901788826938e-02  9.9976381707733847e-02  9.9975826521723307e-02  9.9970774167811000e-02  9.9973829346735835e-02  9.9974711278895664e-02  9.9967950886136220e-02  9.9976026061273163e-02  9.9970196112218732e-02  9.9976426809185379e-02  9.9964927721332059e-02  9.9990765130148082e-02  9.9940064153501096e-02  1.0003081146113608e-01  9.9862456344474104e-02  9.9930005394220145e-02  1.0030352188138844e-01  1.0014084516589952e-01  1.0003382473796130e-01  1.0003579244419868e-01  1.0006059101802496e-01  1.0003504019461359e-01  1.0004950609447839e-01  1.0004962690611467e-01  1.0004706377948060e-01  1.0004816523862051e-01  1.0005093467934779e-01  1.0004771343117030e-01  1.0004852623195891e-01  1.0004903810663116e-01  1.0004715875102571e-01  1.0004695750951709e-01  1.0004719144637590e-01  1.0004577496731372e-01  1.0004568680616947e-01  1.0004542213786910e-01  1.0004495477116228e-01  1.0004402270582276e-01  1.0004516178402849e-01  1.0004242200581456e-01  1.0004587267581863e-01  1.0003982131627791e-01  1.0004964749118471e-01  1.0003097227660965e-01  1.0006655592622676e-01  1.0000000000000003e-01  9.9994457400827824e-02  1.0000000000000003e-01  9.9996267222197163e-02  9.9993678620090093e-02  9.9993672250561647e-02  9.9993675663168413e-02  9.9991502561677256e-02  9.9992168873443213e-02  9.9992860738569833e-02  9.9990207162623704e-02  9.9991441322276234e-02  9.9991935580097072e-02  9.9986517243326217e-02  9.9989012428358462e-02  9.9984520096219318e-02  9.9978842564025061e-02  9.9980999741469234e-02  9.9981702234556644e-02  9.9975611391458594e-02  9.9980814671568996e-02  9.9980453373289382e-02  9.9976019163819679e-02  9.9979732516154579e-02  9.9984285995204814e-02  9.9972533908920372e-02  9.9991342160948321e-02  9.9969576327843535e-02  1.0000375411347923e-01  9.9943049534349501e-02  1.0005147472910504e-01  9.9851655283696938e-02  9.9914501802756489e-02  1.0036343368247849e-01  1.0010214653838796e-01  1.0000233135426281e-01  1.0008038799502261e-01  1.0000172785442993e-01  1.0003634372556704e-01  1.0003106824049753e-01  1.0003024624731650e-01  1.0003055853638888e-01  1.0003682332275055e-01  1.0003150182795605e-01  1.0003390449826131e-01  1.0003512915904518e-01  1.0003284684896299e-01  1.0003294940533662e-01  1.0003358882782572e-01  1.0003184129535551e-01  1.0003170507891868e-01  1.0003208746096200e-01  1.0003076674130122e-01  1.0003112494034402e-01  1.0003045729683252e-01  1.0003115467563770e-01  1.0002878627803422e-01  1.0003293080188759e-01  1.0002542859977133e-01  1.0003769091182056e-01  1.0001741713037732e-01  1.0005031233493424e-01  1.0000000000000003e-01  9.9993697981336505e-02  1.0000000000000003e-01  9.9995715860077342e-02  9.9993785815797265e-02  9.9994371286834943e-02  9.9991468852384927e-02  9.9992240960898510e-02  9.9992432319339131e-02  9.9989761575723188e-02  9.9991244639411114e-02  9.9992221152488153e-02  9.9987579278106475e-02  9.9989720536664800e-02  9.9989070522665979e-02  9.9984382260821403e-02  9.9981878782171310e-02  9.9981714275483913e-02  9.9973998808677050e-02  9.9979142074836949e-02  9.9980120500735140e-02  9.9972220996740926e-02  9.9980413082090006e-02  9.9979144743867973e-02  9.9976009580066985e-02  9.9977489078137305e-02  9.9990303891659041e-02  9.9963399850344831e-02  1.0000954110128246e-01  9.9936333821535453e-02  1.0006275144193667e-01  9.9824045426491523e-02  9.9859187360631110e-02  1.0041900173277174e-01  1.0012106801423509e-01  1.0002622398912758e-01  1.0005893594847730e-01  1.0004254961450797e-01  1.0003706748869105e-01  1.0003626614193334e-01  1.0003164532325139e-01  1.0004591129488768e-01  1.0003551914417326e-01  1.0004048910927825e-01  1.0004275095649072e-01  1.0003967664890764e-01  1.0004016123829924e-01  1.0004186285360943e-01  1.0003907096912693e-01  1.0003918948478698e-01  1.0003961864423451e-01  1.0003809494176052e-01  1.0003777433209897e-01  1.0003844747108609e-01  1.0003679175577238e-01  1.0003792429894212e-01  1.0003609621219194e-01  1.0003890551331741e-01  1.0003316416800376e-01  1.0004360301343870e-01  1.0002459311987021e-01  1.0005848672702665e-01  1.0000000000000003e-01  9.9992779758125816e-02  1.0000000000000003e-01  9.9995843565946624e-02  9.9994068630294558e-02  9.9993004398919144e-02  9.9992733879399970e-02  9.9993105803050569e-02  9.9990304121247917e-02  9.9991363815181034e-02  9.9992829897478819e-02  9.9988849769833951e-02  9.9990808011954105e-02  9.9991729689136430e-02  9.9986115406227108e-02  9.9988273663945637e-02  9.9991215152228002e-02  9.9976550605153036e-02  9.9981615392119735e-02  9.9981502665006286e-02  9.9973248687436220e-02  9.9980687550831407e-02  9.9983463367776526e-02  9.9971867391138280e-02  9.9986383688202438e-02  9.9980164285284417e-02  9.9985667257104227e-02  9.9971387095012354e-02  1.0001636032869765e-01  9.9927447532901795e-02  1.0008435193009198e-01  9.9799996545200387e-02  9.9846004270485275e-02  1.0042079218615164e-01  1.0014440595896179e-01  9.9981690790104508e-02  1.0005668528135206e-01  1.0004433276337996e-01  1.0004839829130778e-01  1.0001220018901158e-01  1.0004621897628206e-01  1.0002290023752393e-01  1.0003431501215052e-01  1.0003671926408050e-01  1.0003314164732303e-01  1.0003385939467220e-01  1.0003747267740368e-01  1.0003348668121387e-01  1.0003422183367129e-01  1.0003531311908290e-01  1.0003281819737503e-01  1.0003290848803517e-01  1.0003328017174402e-01  1.0003220704641777e-01  1.0003155103372972e-01  1.0003311603270612e-01  1.0003021848734629e-01  1.0003402410192659e-01  1.0002792807772673e-01  1.0003838114200007e-01  1.0001999460535912e-01  1.0005186645041038e-01  1.0000000000000003e-01  9.9992266174148803e-02  1.0000000000000003e-01  9.9996075279328633e-02  9.9992637399058379e-02  9.9993731825405899e-02  9.9993467571755701e-02  9.9991119009703394e-02  9.9991319684578889e-02  9.9992790059152223e-02  9.9988779435067940e-02  9.9990867110144349e-02  9.9992313803435526e-02  9.9986481946380962e-02  9.9989371287126955e-02  9.9991836923191621e-02  9.9982742683829715e-02  9.9989857171678909e-02  9.9983829584157566e-02  9.9973261737384495e-02  9.9980275928441636e-02  9.9981552842097157e-02  9.9972272540618717e-02  9.9981052385648458e-02  9.9986867835162432e-02  9.9969126836105926e-02  9.9995233889410298e-02  9.9971150121531197e-02  1.0000962399457460e-01  9.9930542371683806e-02  1.0009524247895521e-01  9.9771351508790476e-02  9.9848268415048846e-02  1.0044913601518855e-01  1.0012503601477281e-01  9.9981400182766328e-02  1.0007339478404820e-01  1.0002423179800324e-01  1.0004456662410878e-01  1.0005768420944119e-01  1.0001785436639085e-01  1.0003643135858155e-01  1.0003540814963835e-01  1.0003441859381239e-01  1.0003356447694678e-01  1.0004006859962163e-01  1.0003451287795612e-01  1.0003620179339726e-01  1.0003797923223065e-01  1.0003520459502835e-01  1.0003508821373433e-01  1.0003612841031433e-01  1.0003385646909627e-01  1.0003421709233605e-01  1.0003406032044461e-01  1.0003408646088306e-01  1.0003229785822026e-01  1.0003587902491849e-01  1.0002970898537514e-01  1.0003999333705470e-01  1.0002222184222172e-01  1.0005374166738341e-01  1.0000000000000003e-01  9.9991902491637127e-02  1.0000000000000003e-01  9.9995318949383724e-02  9.9992905127917905e-02  9.9994360159485110e-02  9.9991629670597618e-02  9.9992333975028894e-02  9.9993081363842370e-02  9.9989349237539465e-02  9.9991087177851656e-02  9.9992551031827748e-02  9.9987205216758024e-02  9.9989901319240015e-02  9.9991963993240188e-02  9.9984451835774688e-02  9.9990328419658533e-02  9.9990873332396008e-02  9.9983734706071678e-02  9.9982251268121200e-02  9.9983703024328199e-02  9.9969993501484666e-02  9.9982642466720201e-02  9.9982492857887670e-02  9.9974496027970899e-02  9.9980663914808143e-02  9.9997426242751999e-02  9.9958576725156859e-02  1.0002270842365499e-01  9.9927213258845890e-02  1.0009784450517582e-01  9.9757273089841558e-02  9.9815142367842696e-02  1.0048134421926731e-01  1.0013205878327765e-01  9.9990137188259359e-02  1.0005012905518836e-01  1.0001643036301987e-01  1.0005568156832728e-01  1.0003346964722640e-01  1.0004675111252657e-01  1.0002548329323656e-01  1.0003405144645933e-01  1.0002540291569792e-01  1.0003902616450566e-01  1.0002987284175137e-01  1.0003321532065532e-01  1.0003587312186778e-01  1.0003262314039901e-01  1.0003285142319078e-01  1.0003473457448428e-01  1.0003197310784905e-01  1.0003177518558348e-01  1.0003286439670454e-01  1.0003062311697317e-01  1.0003178364598657e-01  1.0003037817248329e-01  1.0003292815292127e-01  1.0002747749204290e-01  1.0003765401202570e-01  1.0002009931940026e-01  1.0005055093199201e-01  1.0000000000000003e-01  9.9991224956448729e-02  1.0000000000000003e-01  9.9995495034497603e-02  9.9993268239789712e-02  9.9992875140698975e-02  9.9992373965984621e-02  9.9993687509026305e-02  9.9990249657030350e-02  9.9991427885398484e-02  9.9992748400735909e-02  9.9988149186538297e-02  9.9989798241106626e-02  9.9992052725809022e-02  9.9985045069396858e-02  9.9989411367424466e-02  9.9992333604277880e-02  9.9983754077932821e-02  9.9989185779038675e-02  9.9994716714495585e-02  9.9972560339786909e-02  9.9981730366791963e-02  9.9983934409360500e-02  9.9967682134500885e-02  9.9986781498727084e-02  9.9982143860419120e-02  9.9981393584639533e-02  9.9971268540680253e-02  1.0002513247441955e-01  9.9910630409078480e-02  1.0011573219624270e-01  9.9740389980799149e-02  9.9806883049412265e-02  1.0048033430407034e-01  1.0014924678168027e-01  9.9968033618583113e-02  1.0005127107212329e-01  1.0002864394550259e-01  1.0003531581367801e-01  1.0003241838036124e-01  1.0005122578856651e-01  1.0004402596627220e-01  1.0001786003957991e-01  1.0004212996890867e-01  1.0002521500954238e-01  1.0003281162879978e-01  1.0003531230425160e-01  1.0003213498828925e-01  1.0003210376159542e-01  1.0003565048245266e-01  1.0003193611183518e-01  1.0003251020161900e-01  1.0003347032669933e-01  1.0003151175599227e-01  1.0003088602581593e-01  1.0003260813220796e-01  1.0002963647538946e-01  1.0003292703727554e-01  1.0002800322155785e-01  1.0003706648116226e-01  1.0002059572234048e-01  1.0005025520699368e-01  1.0000000000000003e-01  9.9990974982686581e-02  1.0000000000000003e-01  9.9995750572124883e-02  9.9991917765161170e-02  9.9993388330402583e-02  9.9993285804715282e-02  9.9991186081120786e-02  9.9991663989911050e-02  9.9993184991006887e-02  9.9989056038053747e-02  9.9990323172052850e-02  9.9992403678405950e-02  9.9985557917214612e-02  9.9988772653188007e-02  9.9992166894997209e-02  9.9983646034010762e-02  9.9989438791203408e-02  9.9994679959141353e-02  9.9980383817288743e-02  9.9993510052257331e-02  9.9985428414219424e-02  9.9970082411135017e-02  9.9980825871685969e-02  9.9988126716749962e-02  9.9963873333710443e-02  9.9996858837607935e-02  9.9972672786674405e-02  1.0000768062604265e-01  9.9922900600469683e-02  1.0012205318689121e-01  9.9713437130658417e-02  9.9810343815231503e-02  1.0048843190301457e-01  1.0013623072575083e-01  9.9964925373909233e-02  1.0006371785101094e-01  1.0000944737707686e-01  1.0003280060884077e-01  1.0003795645370527e-01  1.0003680312760006e-01  1.0003594745087051e-01  1.0005320388586639e-01  1.0001657479557180e-01  1.0003305419142158e-01  1.0003039257009538e-01  1.0003071148086334e-01  1.0002883766598694e-01  1.0003456617084200e-01  1.0002990045208003e-01  1.0003089770843680e-01  1.0003290265888358e-01  1.0003025900329676e-01  1.0003042236326995e-01  1.0003080584340328e-01  1.0003006808771851e-01  1.0002842628157572e-01  1.0003196688270501e-01  1.0002615456221048e-01  1.0003550854001203e-01  1.0001968682292028e-01  1.0004801386528901e-01  1.0000000000000003e-01  9.9990806029121373e-02  1.0000000000000003e-01  9.9995085843384554e-02  9.9992132937075345e-02  9.9994061917774643e-02  9.9991337991252829e-02  9.9992191473140396e-02  9.9993075275154553e-02  9.9989930104794497e-02  9.9990978968675426e-02  9.9992956385600587e-02  9.9986844150534132e-02  9.9989000303061640e-02  9.9991482928149508e-02  9.9983752446859822e-02  9.9988792375112878e-02  9.9993183772656327e-02  9.9982085533644849e-02  9.9991724122274694e-02  9.9994163747757603e-02  9.9981932229066012e-02  9.9984349551889187e-02  9.9984906277884505e-02  9.9968144327922531e-02  9.9980870291351068e-02  9.9997552115369662e-02  9.9951454042458962e-02  1.0002409042631583e-01  9.9924989616139048e-02  1.0010412636954208e-01  9.9720651048256809e-02  9.9794055151695316e-02  1.0050005723392455e-01  1.0013679681818423e-01  9.9973806736875837e-02  1.0004993079900575e-01  1.0000786440184216e-01  1.0004321139991008e-01  1.0002361046141962e-01  1.0003113728556279e-01  1.0004410834409833e-01  1.0003712666356174e-01  1.0004250729835473e-01  1.0002447786381266e-01  1.0003192071688481e-01  1.0002395842795610e-01  1.0003488049004597e-01  1.0002768052392146e-01  1.0002986689956427e-01  1.0003225828986632e-01  1.0002973974234659e-01  1.0002961573540237e-01  1.0003177782115578e-01  1.0002885898627710e-01  1.0002976417017662e-01  1.0002886644413556e-01  1.0003054504865919e-01  1.0002580323411435e-01  1.0003497988801947e-01  1.0001924168819357e-01  1.0004683383931531e-01  1.0000000000000003e-01  9.9990316621834496e-02  1.0000000000000003e-01  9.9995192052562368e-02  9.9992510322236036e-02  9.9992605122131747e-02  9.9991862556215352e-02  9.9993357406852529e-02  9.9990288612749681e-02  9.9991228770144450e-02  9.9993092584192950e-02  9.9988420980355847e-02  9.9989629145925199e-02  9.9991752219762753e-02  9.9984625510302100e-02  9.9987591883763952e-02  9.9992156590836032e-02  9.9982316088864168e-02  9.9989409843644711e-02  9.9994605746149573e-02  9.9981942658216125e-02  9.9990515377061523e-02  1.0000063078820175e-01  9.9966520549194360e-02  9.9986994646980687e-02  9.9982489003351577e-02  9.9972759248633636e-02  9.9972432847463474e-02  1.0002505936810888e-01  9.9901428716205290e-02  1.0012061677249441e-01  9.9722508067160071e-02  9.9790226545070498e-02  1.0048457508133229e-01  1.0014624404808517e-01  9.9960715417924700e-02  1.0004824913774285e-01  1.0001749602684294e-01  1.0003062604066876e-01  1.0002031710039787e-01  1.0003941877460361e-01  1.0002878266704532e-01  1.0003425343399704e-01  1.0004350176120984e-01  1.0004150956917021e-01  1.0001644383509534e-01  1.0003654163099980e-01  1.0002280458432694e-01  1.0002855161767789e-01  1.0003047486940655e-01  1.0002812825152055e-01  1.0002791822076414e-01  1.0003082775859137e-01  1.0002836478062095e-01  1.0002820324037587e-01  1.0003011128759962e-01  1.0002686215389174e-01  1.0002956231546715e-01  1.0002547209912944e-01  1.0003314351417825e-01  1.0001857053708758e-01  1.0004503113805867e-01  1.0000000000000003e-01  9.9990116433148951e-02  1.0000000000000003e-01  9.9995376498019456e-02  9.9991269479002595e-02  9.9992895509901689e-02  9.9992565206847281e-02  9.9990956217808583e-02  9.9991112220858935e-02  9.9992782523958129e-02  9.9989072558702222e-02  9.9990209662424182e-02  9.9992147129661896e-02  9.9985936344542878e-02  9.9987501277073773e-02  9.9991321774748634e-02  9.9982404522423754e-02  9.9987185033538165e-02  9.9993420111393685e-02  9.9980908093153742e-02  9.9989845670883176e-02  9.9997861903619326e-02  9.9977565826529502e-02  9.9995926402367097e-02  9.9991041813520740e-02  9