<?xml version="1.0"?>
<VTKFile type="UnstructuredGrid"  version="0.1"  >
<UnstructuredGrid>
<Piece  NumberOfPoints="1933" NumberOfCells="3640">
<Points>
<DataArray  type="Float64"  NumberOfComponents="3"  format="ascii">-0.0002630469126363999 0.001714328482416001 0  4.999736968390762 0.0016428532500476 0  4.999844245213621 7.501642929491648 0  -0.0001558041476557581 7.501714343873859 0  9.999736974962293 0.001571293758610534 0  9.999844343860957 7.501571395184991 0  14.99973701765981 0.001499576365682604 0  14.99984452208356 7.501499687939098 0  19.99973715359563 0.001427671231703374 0  19.99984481152284 7.501427786688303 0  24.99973744114755 0.001355576343213443 0  24.99984524563794 7.501355693512361 0  29.9997379363948 0.001283307891054896 0  29.9998458590861 7.501283426598802 0  34.99973869277843 0.001210894444802802 0  34.99984668728048 7.501211015524203 0  39.99973976213265 0.001138373615451015 0  39.99984776633104 7.501138498440747 0  44.99974119625981 0.001065790426137477 0  44.99984913330282 7.501065920708956 0  49.99974304869682 0.0009931969155130215 0  49.99985082667937 7.500993334637441 0  54.99974537654214 0.0009206527007387193 0  54.9998528869305 7.500920800120951 0  59.99974824231499 0.0008482263715776889 0  59.99985535710593 7.500848386079639 0  64.99975171586819 0.0007759976994060191 0  64.99985828338239 7.500776172699096 0  69.99975587638905 0.0007040607443255562 0  69.99986171549266 7.500704254561291 0  74.99976081453373 0.000632528046475679 0  74.99986570694179 7.500632744852336 0  79.99976663472179 0.0005615362117659397 0  79.99987031487331 7.500561780948935 0  84.99977345760004 0.0004912533696085838 0  84.99987559938258 7.500491531837314 0  89.99978142261307 0.0004218892227807261 0  89.99988162195922 7.500422208029001 0  94.99979069050575 0.0003537087767627878 0  94.99988844257766 7.500354074937555 0  99.99980144530974 0.0002870514078937829 0  99.9998961147202 7.500287471108027 0  104.9998138948538 0.0002223578373859816 0  104.9999046772926 7.500222833293943 0  109.9998282677544 0.0001602090370228836 0  109.9999141420223 7.500160731189708 0  114.9998448026832 0.0001013834520608498 0  114.9999244746505 7.500101915632423 0  119.9998637212877 4.694273988715385e-05 0  119.9999355684841 7.500047385070468 0  124.9998851671856 -1.637705194766607e-06 0  124.999947210924 7.499998475340737 0  129.9999090751503 -4.226796568717254e-05 0  129.9999590505258 7.499956975396677 0  134.9999348969619 -7.193542315128508e-05 0  134.9999705917461 7.499925262485704 0  139.9999610310682 -8.625000783777203e-05 0  139.9999812961105 7.499906429160427 0  144.9999836257914 -7.889120993377558e-05 0  144.9999910040756 7.499904357764245 0  149.9999939699662 -4.165752249469231e-05 0  150.0000012738342 7.49992389518221 0  160.0000000000004 1.018078884688627e-18 0  164.99987254765 -0.0001638203491357582 0  164.9999775893237 7.499813206501182 0  160.0000167173457 7.499945006123191 0  169.9997979552287 -0.0003099723198991549 0  169.9999378098027 7.499678381224188 0  174.9997526160694 -0.0004432147188703647 0  174.9999042558591 7.499550269815308 0  179.9997243201322 -0.0005660012245321396 0  179.9998777719246 7.499430159404068 0  184.9997063530317 -0.0006803355218567825 0  184.9998575058146 7.499317320889861 0  189.9996948702145 -0.0007878936972782695 0  189.9998422624676 7.499210632421455 0  194.9996875917596 -0.0008900219050320972 0  194.999830932149 7.499109025644346 0  199.9996831174342 -0.0009877734835176599 0  199.9998226011757 7.499011596069614 0  204.9996805560434 -0.001081965235332606 0  204.9998165533647 7.498917609303931 0  209.9996793200401 -0.001173231984522284 0  209.9998122388992 7.498826477139216 0  214.9996790089941 -0.001262071518843172 0  214.9998092385994 7.498737728678505 0  219.9996793417383 -0.001348879018104928 0  219.9998072327637 7.498650984584224 0  224.9996801157069 -0.001433972578014963 0  224.9998059765249 7.498565936314866 0  229.99968118181 -0.001517611909005002 0  229.9998052811954 7.498482330071783 0  234.9996824284085 -0.001600012037989754 0  234.9998050004213 7.498399954587993 0  239.9996837707698 -0.001681353425799323 0  239.9998050199734 7.498318631864418 0  244.9996851439347 -0.001761789531600136 0  244.9998052502267 7.498238210104632 0  249.9996864977657 -0.001841452557595825 0  249.9998056205983 7.498158558269554 0  254.9996877934592 -0.001920457889781089 0  254.999806075425 7.498079561822961 0  259.9996890010594 -0.00199890759598499 0  259.9998065708946 7.498001119355445 0  264.9996900977206 -0.002076893232459217 0  264.9998070727715 7.497923139864287 0  269.9996910665332 -0.002154498128811372 0  269.9998075547242 7.497845540536389 0  274.9996918958506 -0.002231799254077354 0  274.9998079971153 7.497768244940388 0  279.9996925790712 -0.00230886869951385 0  279.999808386157 7.497691181591942 0  284.9996931149112 -0.002385774726941989 0  284.999808713343 7.497614282924873 0  289.9996935081915 -0.002462582192721887 0  289.9998089750689 7.497537484794046 0  294.9996937712169 -0.002539351905181 0  294.9998091723725 7.497460726772958 0  299.9996939256783 -0.002616137979307479 0  299.9998093107098 7.497383953706123 0  304.9996940047121 -0.002692981232262357 0  304.9998093998738 7.49730711922705 0  309.9996940537833 -0.002769894446370616 0  309.9998094546938 7.497230192157012 0  4.999951208425761 15.00164312243433 0  -4.885037546059623e-05 15.00171438707381 0  9.999951321262897 15.00157164984703 0  14.99995151727189 15.00149996241703 0  19.99995181838751 15.00142806343325 0  24.99995224413958 15.00135596736049 0  29.99995281371569 15.00128369852105 0  34.99995354669108 15.00121128944619 0  39.99995446319257 15.00113877967333 0  44.99995558384781 15.001066215215 0  49.9999569296524 15.00099364872619 0  54.99995852177961 15.0009211403513 0  59.99996038130283 15.0008487592498 0  64.99996252877368 15.00077658584311 0  69.9999649835718 15.00070471488168 0  74.9999677629266 15.00063325949977 0  79.99997088047881 15.00056235650618 0  84.99997434422791 15.00049217325753 0  89.99997815368617 15.0004229165794 0  94.99998229606514 15.00035484433239 0  99.9999867413793 15.00028828034664 0  104.9999914365716 15.00022363350212 0  109.9999962992561 15.00016142156209 0  115.0000012127638 15.00010229962233 0  120.0000060262922 15.00004709096712 0  125.0000105678597 14.99999681314142 0  130.0000146843594 14.99995268086059 0  135.0000183328169 14.99991604298278 0  140.0000217576476 14.99988815695216 0  145.0000257858371 14.9998695747198 0  150.0000321929774 14.99985853182426 0  165.0000438002647 14.99975075567194 0  160.0000507848892 14.99985166511022 0  170.0000300414557 14.99963971903424 0  175.000013551424 14.99952651352477 0  179.9999972248537 14.99941537194629 0  184.999982495656 14.99930792362853 0  189.999969883155 14.99920451483879 0  194.9999594271009 14.99910494134708 0  199.9999509470729 14.99900880109092 0  204.9999441818623 14.9989156524393 0  209.9999388588333 14.99882507931675 0  214.9999347251837 14.99873671340681 0  219.9999315595228 14.99865023755106 0  224.999929173857 14.9985653816524 0  229.9999274113097 14.99848191621144 0  234.9999261422805 14.99839964568926 0  239.9999252603263 14.99831840252754 0  244.9999246783398 14.99823804205077 0  249.9999243252336 14.99815843822513 0  254.9999241431582 14.9980794801599 0  259.9999240852221 14.99800106922218 0  264.9999241136351 14.99792311664772 0  269.9999241982103 14.99784554155635 0  274.9999243151508 14.99776826930683 0  279.9999244460412 14.99769123015524 0  284.9999245770182 14.9976143582078 0  289.9999246980385 14.99753759067618 0  294.9999248022869 14.99746086742505 0  299.999924885787 14.99738413067977 0  304.9999249475078 14.99730732433743 0  309.9999249905239 14.99723039107292 0  5.00005776020296 22.50164355032988 0  5.770027201823513e-05 22.50171464635119 0  10.00005786014337 22.50157215262526 0  15.00005802415417 22.5015004896056 0  20.00005826754984 22.5014285918775 0  25.00005860092563 22.50135649009672 0  30.00005903257302 22.50128421770954 0  35.00005956969343 22.50121181214392 0  40.00006021884115 22.50113931541325 0  45.0000609859019 22.50106677466585 0  50.00006187579012 22.50099424296018 0  55.00006289195076 22.50092178041341 0  60.00006403569364 22.50084945581918 0  65.00006530535131 22.50077734881994 0  70.00006669522871 22.50070555273039 0  75.00006819431071 22.50063417813453 0  80.00006978469436 22.50056335740473 0  85.0000714397451 22.50049325031332 0  90.00007312203748 22.50042405090727 0  95.0000747812627 22.50035599576507 0  100.0000763525065 22.5002893735928 0  105.0000777556777 22.50022453573882 0  110.0000788974754 22.50016190640941 0  115.0000796782069 22.50010198980713 0  120.0000800070161 22.5000453684842 0  125.0000798305082 22.49999268193896 0  130.0000791805723 22.49994456543532 0  135.0000782452909 22.4999015144403 0  140.000077456962 22.49986361927188 0  145.0000775620776 22.49983009499686 0  150.0000795687057 22.49979856528015 0  165.0001039560926 22.49968180011452 0  160.0000955940277 22.49976449438854 0  170.0001057956507 22.49958865608566 0  175.0001028613353 22.49949008131118 0  180.0000970740719 22.49938975161285 0  185.0000899834829 22.49928992801086 0  190.0000826307912 22.4991917946667 0  195.0000756311304 22.49909585573064 0  200.000069300937 22.49900223029298 0  205.0000637668937 22.4989108381209 0  210.0000590438876 22.49882150712097 0  215.0000550860796 22.49873403196364 0  220.0000518184943 22.49864820425672 0  225.0000491556485 22.49856382685467 0  230.0000470119772 22.49848071964469 0  235.0000453072668 22.49839872093792 0  240.000043969142 22.49831768672571 0  245.0000429338781 22.49823748900354 0  250.0000421463027 22.49815801378209 0  255.0000415592437 22.49807915908908 0  260.0000411327666 22.49800083310011 0  265.0000408333595 22.49792295245032 0  270.0000406331188 22.49784544073898 0  275.0000405089783 22.49776822721936 0  280.0000404419823 22.49769124565605 0  285.0000404166116 22.49761443331644 0  290.0000404201667 22.4975377300269 0  295.0000404422555 22.49746107713656 0  300.0000404
[...]
<PointData  Scalars="p"> 
<DataArray  type="Float64"  Name="p"  format="ascii">1.0000000000000001e-01  1.0000000000000003e-01  1.0000389869239765e-01  1.0000000000000003e-01  1.0000000000000003e-01  1.0000453205638707e-01  1.0000000000000003e-01  1.0000684395842481e-01  1.0000000000000003e-01  1.0000801767838398e-01  1.0000000000000003e-01  1.0000968400217640e-01  1.0000000000000003e-01  1.0001242144455702e-01  1.0000000000000003e-01  1.0001364570334477e-01  1.0000000000000003e-01  1.0001552183906479e-01  1.0000000000000003e-01  1.0001860901049264e-01  1.0000000000000003e-01  1.0001906465500086e-01  1.0000000000000003e-01  1.0002672291715536e-01  1.0000000000000003e-01  1.0003094898859446e-01  1.0000000000000003e-01  1.0003546934684865e-01  1.0000000000000003e-01  1.0003911229105500e-01  1.0000000000000003e-01  1.0004648962345150e-01  1.0000000000000003e-01  1.0004947219695910e-01  1.0000000000000003e-01  1.0005489912398048e-01  1.0000000000000003e-01  1.0006322741447980e-01  1.0000000000000003e-01  1.0006569277585936e-01  1.0000000000000003e-01  1.0007398986891392e-01  1.0000000000000003e-01  1.0007904528592895e-01  1.0000000000000003e-01  1.0008810587558242e-01  1.0000000000000003e-01  1.0008597412883286e-01  1.0000000000000003e-01  1.0010864875410899e-01  1.0000000000000003e-01  1.0008788324201556e-01  1.0000000000000003e-01  1.0013415587055809e-01  1.0000000000000003e-01  1.0008158111484526e-01  1.0000000000000003e-01  1.0016940383683062e-01  1.0000000000000003e-01  1.0006434298099731e-01  1.0000000000000001e-01  1.0022914752472913e-01  1.0000000000000001e-01  1.0000000000000003e-01  9.9813970867977705e-02  9.9617560562704946e-02  1.0000000000000003e-01  9.9945781582953017e-02  1.0000000000000003e-01  9.9853039794132334e-02  1.0000000000000003e-01  9.9902883106614798e-02  1.0000000000000003e-01  9.9887902990033542e-02  1.0000000000000003e-01  9.9900756012385267e-02  1.0000000000000003e-01  9.9894659416626327e-02  1.0000000000000003e-01  9.9905520080719415e-02  1.0000000000000003e-01  9.9903880146706425e-02  1.0000000000000003e-01  9.9907539985951269e-02  1.0000000000000003e-01  9.9910711097850019e-02  1.0000000000000003e-01  9.9913037392115420e-02  1.0000000000000003e-01  9.9914579483092722e-02  1.0000000000000003e-01  9.9917790141113863e-02  1.0000000000000003e-01  9.9919300684231591e-02  1.0000000000000003e-01  9.9920949559334629e-02  1.0000000000000003e-01  9.9922995135787326e-02  1.0000000000000003e-01  9.9924494763022023e-02  1.0000000000000003e-01  9.9925482917564340e-02  1.0000000000000003e-01  9.9927423640585489e-02  1.0000000000000003e-01  9.9927833323519163e-02  1.0000000000000003e-01  9.9929932357064780e-02  1.0000000000000003e-01  9.9929129422910185e-02  1.0000000000000003e-01  9.9933318555510506e-02  1.0000000000000003e-01  9.9928278034196544e-02  1.0000000000000003e-01  9.9939026617203594e-02  1.0000000000000003e-01  9.9922998934231552e-02  1.0000000000000003e-01  9.9951373962491208e-02  1.0000000000000003e-01  9.9902865366867627e-02  1.0000000000000001e-01  1.0000000000000003e-01  1.0000641931389340e-01  1.0000000000000003e-01  1.0000636054765184e-01  1.0000681825100594e-01  1.0000770475799439e-01  1.0001001980564231e-01  1.0000984931635713e-01  1.0001028385081835e-01  1.0001363334479006e-01  1.0001208295251071e-01  1.0001342332614793e-01  1.0001648141468789e-01  1.0002438060921356e-01  1.0002209307525804e-01  1.0003063250150500e-01  1.0002688902631522e-01  1.0003018202541937e-01  1.0003689558917950e-01  1.0003498571749495e-01  1.0003719080852243e-01  1.0004724752783918e-01  1.0004094067604458e-01  1.0004977123751643e-01  1.0004898075153658e-01  1.0005922048497984e-01  1.0004009167292423e-01  1.0008604580552456e-01  1.0001097161312551e-01  1.0014174626155292e-01  9.9942202449981976e-02  1.0023250820887077e-01  1.0016161033924360e-01  9.9413976345192098e-02  9.9824111046313876e-02  9.9972101265105709e-02  9.9948291027701100e-02  9.9958421080117793e-02  9.9938224820936686e-02  9.9961940530168075e-02  9.9950237009593962e-02  9.9953189821482033e-02  9.9957902534971610e-02  9.9958129513581143e-02  9.9957542742308905e-02  9.9962435229096480e-02  9.9962529093907238e-02  9.9963077766401454e-02  9.9965919214596174e-02  9.9966471156696476e-02  9.9967015395438577e-02  9.9968778275462217e-02  9.9969650043004968e-02  9.9969642153126592e-02  9.9971851586461796e-02  9.9970880815444418e-02  9.9973951725066332e-02  9.9970466414774778e-02  9.9978722611518939e-02  9.9965157924373757e-02  9.9989874237560006e-02  9.9952634791866626e-02  1.0000000000000003e-01  1.0000947992255574e-01  1.0000000000000003e-01  1.0000640999309265e-01  1.0000954096993840e-01  1.0001192847235518e-01  1.0001238287557995e-01  1.0001286041474938e-01  1.0001774221821363e-01  1.0001658656293738e-01  1.0001685334201912e-01  1.0002242243068052e-01  1.0002360425498903e-01  1.0001992958818744e-01  1.0004283797664197e-01  1.0003499109564928e-01  1.0003977781284577e-01  1.0005017753409524e-01  1.0004541826054504e-01  1.0004971638672164e-01  1.0006284497382306e-01  1.0005778979581990e-01  1.0006100172723065e-01  1.0007943942046896e-01  1.0006408728401445e-01  1.0008455111962695e-01  1.0007236903083915e-01  1.0010416267290320e-01  1.0004652263255953e-01  1.0017062045213561e-01  9.9946478432814706e-02  1.0036483365937010e-01  1.0011672391593711e-01  9.9457643250019392e-02  9.9717700985174018e-02  9.9941303796326458e-02  9.9926073373402952e-02  9.9879555823637223e-02  9.9942921622512906e-02  9.9907247899799767e-02  9.9915035895729254e-02  9.9924503028610862e-02  9.9923300003913390e-02  9.9920562896762724e-02  9.9930597186489348e-02  9.9929337592019829e-02  9.9930012966936946e-02  9.9935639759707776e-02  9.9936304444483551e-02  9.9936674534797904e-02  9.9940602163813855e-02  9.9941145672068243e-02  9.9942046132511342e-02  9.9944094751100360e-02  9.9945662842948230e-02  9.9944970175466344e-02  9.9949086264533069e-02  9.9945766740029723e-02  9.9953131014786159e-02  9.9942847795113074e-02  9.9964294656510730e-02  9.9925035946701352e-02  1.0000000000000003e-01  1.0001136187273990e-01  1.0000000000000003e-01  1.0000727599912937e-01  1.0001263540513436e-01  1.0001208455408299e-01  1.0001262111169608e-01  1.0001769258436292e-01  1.0001634680019950e-01  1.0001633517826189e-01  1.0002259535552023e-01  1.0001999241263285e-01  1.0001971002563546e-01  1.0003311716991505e-01  1.0002111860769113e-01  1.0003967361756359e-01  1.0004568302360392e-01  1.0004188776268605e-01  1.0004200910293432e-01  1.0005784893615546e-01  1.0004721290253263e-01  1.0005379852220841e-01  1.0006631576864293e-01  1.0006112518845700e-01  1.0005738111730869e-01  1.0008798234036664e-01  1.0004762040191308e-01  1.0010552918168374e-01  1.0002502897367690e-01  1.0017120290000808e-01  9.9910799767302313e-02  1.0038735676297586e-01  1.0012066228504528e-01  9.9331024997714346e-02  9.9812441680273298e-02  9.9982259530111958e-02  9.9809334460389337e-02  1.0000138830813450e-01  9.9907894482409082e-02  9.9932365822567745e-02  9.9937384031426602e-02  9.9938128895220829e-02  9.9928721838214968e-02  9.9945143585748866e-02  9.9940292793583879e-02  9.9940411805943402e-02  9.9947789571324580e-02  9.9948052570563523e-02  9.9947897130637481e-02  9.9953186838410230e-02  9.9953644380213147e-02  9.9953869296227169e-02  9.9957463718734874e-02  9.9957622705031696e-02  9.9959044970600028e-02  9.9959749447328328e-02  9.9963076353722383e-02  9.9959169723281491e-02  9.9968637952551981e-02  9.9955606030154590e-02  9.9979052743846303e-02  9.9942984986048061e-02  1.0000000000000003e-01  1.0001329455196598e-01  1.0000000000000003e-01  1.0000927249521985e-01  1.0001300317410619e-01  1.0001215625112134e-01  1.0001825790730119e-01  1.0001672275674310e-01  1.0001746707928962e-01  1.0002426623798104e-01  1.0002130384066305e-01  1.0002074856304458e-01  1.0003241037741020e-01  1.0002590689809146e-01  1.0003114745822225e-01  1.0003452314173855e-01  1.0004833530358430e-01  1.0004357464231899e-01  1.0006270148070077e-01  1.0005006373013985e-01  1.0005407790372409e-01  1.0007380805789270e-01  1.0005822738103828e-01  1.0006854562976596e-01  1.0007944625114919e-01  1.0007973565625831e-01  1.0005919253776253e-01  1.0012304747090678e-01  1.0002026870943967e-01  1.0019329696162638e-01  9.9895594375412983e-02  1.0045045299236025e-01  1.0023286396392460e-01  9.9241964946699845e-02  9.9757801131295648e-02  9.9921131235405622e-02  9.9891707802128221e-02  9.9888929261046255e-02  9.9918446057110824e-02  9.9922864273424963e-02  9.9932011829311856e-02  9.9905859443814582e-02  9.9936326869822470e-02  9.9925058145022033e-02  9.9924740493303771e-02  9.9935227889191069e-02  9.9934660629506275e-02  9.9933078352362398e-02  9.9941497464484802e-02  9.9941463707804157e-02  9.9941636854345345e-02  9.9946471984762850e-02  9.9947354459112514e-02  9.9947250035881854e-02  9.9951274987281596e-02  9.9950706804997250e-02  9.9953575613522638e-02  9.9951936482239739e-02  9.9959214088601922e-02  9.9948361820152584e-02  9.9970763551564631e-02  9.9933600126309127e-02  1.0000000000000003e-01  1.0001558721297013e-01  1.0000000000000003e-01  1.0000935208255857e-01  1.0001356205207373e-01  1.0001628420390984e-01  1.0001682548815979e-01  1.0001691866568110e-01  1.0002390340995386e-01  1.0002192641910819e-01  1.0002088599146178e-01  1.0003082348994920e-01  1.0002664497264324e-01  1.0002773672500258e-01  1.0003902301931832e-01  1.0003623871022657e-01  1.0002430203709498e-01  1.0006825697068460e-01  1.0004712107128526e-01  1.0005384916698977e-01  1.0007175693462113e-01  1.0005762758576554e-01  1.0005876383817831e-01  1.0008840592587510e-01  1.0005901675187286e-01  1.0008223748677396e-01  1.0007416190495151e-01  1.0010823067914740e-01  1.0001632028716834e-01  1.0021404706310176e-01  9.9858494326463071e-02  1.0050168227358756e-01  1.0022481084965026e-01  9.9265348735683059e-02  9.9704537666961038e-02  1.0001696708555256e-01  9.9868054451467014e-02  9.9894492088330900e-02  9.9885646649978968e-02  9.9963626721115417e-02  9.9889040959822650e-02  9.9952135015673654e-02  9.9923219776051384e-02  9.9925208540431867e-02  9.9937971446123056e-02  9.9937128627219707e-02  9.9932272322310528e-02  9.9944390711429035e-02  9.9942956359560423e-02  9.9942476897911109e-02  9.9949728923340198e-02  9.9949945042695193e-02  9.9950003263582693e-02  9.9954238768468623e-02  9.9955540461793085e-02  9.9954566665898303e-02  9.9959892518320451e-02  9.9956455947555145e-02  9.9964262342127380e-02  9.9953948181643243e-02  9.9975544252381032e-02  9.9940739700141459e-02  1.0000000000000003e-01  1.0001684194428412e-01  1.0000000000000003e-01  1.0000951294696597e-01  1.0001739040913654e-01  1.0001535877991878e-01  1.0001682574679736e-01  1.0002279860146772e-01  1.0002213354967376e-01  1.0002109367005001e-01  1.0003097222540254e-01  1.0002657329781252e-01  1.0002682251738827e-01  1.0004032144187422e-01  1.0003442927438833e-01  1.0003052811066443e-01  1.0005448380646280e-01  1.0002828474375342e-01  1.0005903049930100e-01  1.0007252861851895e-01  1.0005878185702843e-01  1.0006064964383166e-01  1.0008516508803965e-01  1.0006734573096016e-01  1.0006483281103923e-01  1.0010773072579432e-01  1.0005429137363880e-01  1.0011501407472267e-01  1.0003617161075158e-01  1.0020507421201803e-01  9.9851044967776928e-02  1.0055282002350467e-01  1.0020801630111638e-01  9.9206765050353016e-02  9.9758863032941861e-02  9.9993333026039521e-02  9.9830734873784771e-02  9.9938915834824130e-02  9.9900264232057556e-02  9.9856298789122375e-02  9.9962402358471036e-02  9.9911500433576883e-02  9.9922138923132037e-02  9.9929824730021904e-02  9.9933011090432483e-02  9.9922397654941389e-02  9.9939751018258791e-02  9.9936303840840152e-02  9.9934804149827097e-02  9.9943717317171568e-02  9.9944329982996294e-02  9.9943506348175906e-02  9.9950032406319417e-02  9.9950083990123131e-02  9.9950991785118820e-02  9.9953566906604951e-02  9.9956431668814127e-02  9.9953368608604348e-02  9.9962147359686379e-02  9.9951578997198434e-02  9.9972683287725253e-02  9.9938460502670579e-02  1.0000000000000003e-01  1.0001793741646629e-01  1.0000000000000003e-01  1.0001153281841725e-01  1.0001705322266796e-01  1.0001514178743029e-01  1.0002190154318222e-01  1.0002063967352752e-01  1.0002074558951822e-01  1.0002978906802990e-01  1.0002624097329764e-01  1.0002562792501385e-01  1.0003900658762752e-01  1.0003338909842328e-01  1.0003196541372823e-01  1.0005070311356055e-01  1.0003528502794094e-01  1.0004250607030037e-01  1.0004776662849207e-01  1.0006563133933574e-01  1.0005627206920378e-01  1.0009010623673216e-01  1.0006040356668189e-01  1.0007121578714401e-01  1.0009246599297851e-01  1.0008110860727525e-01  1.0005657368048035e-01  1.0014295459475352e-01  1.0000913848563645e-01  1.0021536423604099e-01  9.9855338025828813e-02  1.0056835074437219e-01  1.0027734741323165e-01  9.9144170239329296e-02  9.9730394610319753e-02  9.9965898649901117e-02  9.9882677608406356e-02  9.9937900968891408e-02  9.9865078709201305e-02  9.9928556891293527e-02  9.9880930186870179e-02  9.9937531303738558e-02  9.9921370463987927e-02  9.9941805639839926e-02  9.9914449122254986e-02  9.9942444381865087e-02  9.9934725245700559e-02  9.9932552674719524e-02  9.9943531266997163e-02  9.9943351819733031e-02  9.9941048758560067e-02  9.9949827699937863e-02  9.9950280202413241e-02  9.9949586169485377e-02  9.9955520531012892e-02  9.9954945075902371e-02  9.9957334793944835e-02  9.9956843484053065e-02  9.9963984832188227e-02  9.9953596164827782e-02  9.9974997908202287e-02  9.9941777758633707e-02  1.0000000000000003e-01  1.0001959587796827e-01  1.0000000000000003e-01  1.0001122752819540e-01  1.0001700083060276e-01  1.0001900434738048e-01  1.0002045239746223e-01  1.0001938844150279e-01  1.0002789496899732e-01  1.0002569538052082e-01  1.0002484444351457e-01  1.0003614990593784e-01  1.0003284077877064e-01  1.0003126937659107e-01  1.0004842263116095e-01  1.0003828356532919e-01  1.0003779640028562e-01  1.0005571482316297e-01  1.0004753826261470e-01  1.0002862108283811e-01  1.0009570196241957e-01  1.0006130564235717e-01  1.0006688417989609e-01  1.0010237058399049e-01  1.0006316467616178e-01  1.0008352563011375e-01  1.0009182369158891e-01  1.0011125511532940e-01  1.0001200546339564e-01  1.0024786119667874e-01  9.9822966106319300e-02  1.0059454061444853e-01  1.0028085913572593e-01  9.9157810025386123e-02  9.9691527664387450e-02  1.0001671432192032e-01  9.9868119731223393e-02  9.9903230700746332e-02  9.9914319806991822e-02  9.9914793676683891e-02  9.9885524291571423e-02  9.9895291733601010e-02  9.9956272169504673e-02  9.9900389049643087e-02  9.9947807251432430e-02  9.9928940306901512e-02  9.9928569896131081e-02  9.9940400670176940e-02  9.9941159176963765e-02  9.9935841132973768e-02  9.9947200987818993e-02  9.9946424892524838e-02  9.9945891297066311e-02  9.9952586521307549e-02  9.9953874043442567e-02  9.9952485816687600e-02  9.9958906963305644e-02  9.9956041146333080e-02  9.9962637694483908e-02  9.9954410830560766e-02  9.9974132261115289e-02  9.9941846524953748e-02  1.0000000000000003e-01  1.0002024269393647e-01  1.0000000000000003e-01  1.0001104870123563e-01  1.0002026986679800e-01  1.0001785824843587e-01  1.0001958113333885e-01  1.0002549121865464e-01  1.0002484957389725e-01  1.0002378250133759e-01  1.0003408198442124e-01  1.0003091650052345e-01  1.0002963448848631e-01  1.0004595122066202e-01  1.0003868873682052e-01  1.0003622058419569e-01  1.0005624238612683e-01  1.0004473564402352e-01  1.0003647823290071e-01  1.0007444910946753e-01  1.0003043339736228e-01  1.0007512569448246e-01  1.0009545878129768e-01  1.0007364448973963e-01  1.0006543741615988e-01  1.0012292172651931e-01  1.0005292077767845e-01  1.0011412047578953e-01  1.0004982737322210e-01  1.0021434668728538e-01  9.9821306440932719e-02  1.0063796630936596e-01  1.0026555563121908e-01  9.9133634662580405e-02  9.9725067200948980e-02  1.0001211552602346e-01  9.9835398327476080e-02  9.9948236074256000e-02  9.9905569264224697e-02  9.9896989940035555e-02  9.9914918715617612e-02  9.9920279249895202e-02  9.9870824906479250e-02  9.9964313051411222e-02  9.9921120142804784e-02  9.9932624453887883e-02  9.9936596377831449e-02  9.9942387029495594e-02  9.9932214817387136e-02  9.9947297026082932e-02  9.9945445087290211e-02  9.9943057442769739e-02  9.9951510774775473e-02  9.9952221094011293e-02  9.9952082129903863e-02  9.9956718500673475e-02  9.9959316559394648e-02  9.9956199121110367e-02  9.9965200052369682e-02  9.9955698868094092e-02  9.9974811979123834e-02  9.9944282579759125e-02  1.0000000000000003e-01  1.0002074868349620e-01  1.0000000000000003e-01  1.0001257299890305e-01  1.0001959258043983e-01  1.0001698998873626e-01  1.0002410248245824e-01  1.0002295570662920e-01  1.0002303637512307e-01  1.0003143622816892e-01  1.0002924768634165e-01  1.0002750557232061e-01  1.0004206794370210e-01  1.0003697765968929e-01  1.0003526501529994e-01  1.0005396362875819e-01  1.0004336591395090e-01  1.0003906053119503e-01  1.0006693881299375e-01  1.0004228513499139e-01  1.0004979049100740e-01  1.0006251169113534e-01  1.0007746824411803e-01  1.0006951988115330e-01  1.0011106439851228e-01  1.0007875236614017e-01  1.0005823244629986e-01  1.0015757428518780e-01  1.0000812758998520e-01  1.0021351181341548e-01  9.9862692098426742e-02  1.0060624644964219e-01  1.0030741411985110e-01  9.9091330472312070e-02  9.9718279544126390e-02  9.9986597096833066e-02  9.9870861417254167e-02  9.9942851820285394e-02  9.9878279929550173e-02  9.9929568445854433e-02  9.9918991854800882e-02  9.9894042157578647e-02  9.9925086689311687e-02  9.9897646343252391e-02  9.9944016103066066e-02  9.9928757580327737e-02  9.9948295579311092e-02  9.9925487076092570e-02  9.9948054179979817e-02  9.9943331927494120e-02  9.9940752464846461e-02  9.9950053404862585e-02  9.9950560158748758e-02  9.9947890543211973e-02  9.9956411367071618e-02  9.9955978077716903e-02  9.9957623812518423e-02  9.9958778692189151e-02  9.9965138446608787e-02  9.9955714074843466e-02  9.9975548341767334e-02  9.9945395622060645e-02  1.0000000000000003e-01  1.0002190134533384e-01  1.0000000000000003e-01  1.0001219359032411e-01  1.0001912899776234e-01  1.0002026804411643e-01  1.0002253313715193e-01  1.0002126788240949e-01  1.0002936144955678e-01  1.0002786527420818e-01  1.0002625083998810e-01  1.0003767845720050e-01  1.0003505854860964e-01  1.0003312346002247e-01  1.0005002794818936e-01  1.0004320348816426e-01  1.0003829660015191e-01  1.0006276235305256e-01  1.0004629259673310e-01  1.0004386972435067e-01  1.0007027168680389e-01  1.0005640247975155e-01  1.0002623151886818e-01  1.0012628809429357e-01  1.0006223658915522e-01  1.0008620333418997e-01  1.0010798821603377e-01  1.0010470892702437e-01  1.0001122404820888e-01  1.0026193134859682e-01  9.9820455969658078e-02  1.0060142174438294e-01  1.0032162947327017e-01  9.9108366495853181e-02  9.9687616831972012e-02  1.0002006131485788e-01  9.9869456212986610e-02  9.9916531118923804e-02  9.9910058864593046e-02  9.9929701464296070e-02  9.9893537306917690e-02  9.9930573029614250e-02  9.9920229102162625e-02  9.9907210429654156e-02  9.9905800244641796e-02  9.9963770439552957e-02  9.9916093153147367e-02  9.9954417674894991e-02  9.9940449053481525e-02  9.9939984872203694e-02  9.9949270459429654e-02  9.9950804116528277e-02  9.9946199374976813e-02  9.9954900174673192e-02  9.9955480654457654e-02  9.9954003241328790e-02  9.9961543478194387e-02  9.9959378660314568e-02  9.9964757194349982e-02  9.9958489779967852e-02  9.9976084887529446e-02  9.9947207229151180e-02  1.0000000000000003e-01  1.0002212625650239e-01  1.0000000000000003e-01  1.0001173929812213e-01  1.0002161308175174e-01  1.0001896949009047e-01  1.0002121910300556e-01  1.0002623429112117e-01  1.0002646735035682e-01  1.0002517234732644e-01  1.0003469318730723e-01  1.0003223345808007e-01  1.0003084712918912e-01  1.0004562030805023e-01  1.0004121495194318e-01  1.0003680277311544e-01  1.0005828593606186e-01  1.0004752008097345e-01  1.0004098553012193e-01  1.0007027722776862e-01  1.0005168295222801e-01  1.0003909757985442e-01  1.0009211678115912e-01  1.0003144545395735e-01  1.0007941799846479e-01  1