<?xml version="1.0"?>
<VTKFile type="UnstructuredGrid"  version="0.1"  >
<UnstructuredGrid>
<Piece  NumberOfPoints="1933" NumberOfCells="3640">
<Points>
<DataArray  type="Float64"  NumberOfComponents="3"  format="ascii">-0.0002665922054684855 0.001836795583821495 0  4.999733415757785 0.001764766733744252 0  4.999841519137711 7.501764822518811 0  -0.0001585179183264396 7.501836798991404 0  9.999733411835402 0.001692670865877843 0  9.999841596282609 7.501692749208138 0  14.9997334317001 0.001620439933206349 0  14.99984173924351 7.501620527916736 0  19.99973352305267 0.001548042495191561 0  19.99984197535554 7.501548134559483 0  24.99973373586029 0.001475470794064449 0  24.99984233397925 7.501475564899285 0  29.99973411898761 0.001402732739466769 0  29.99984284599132 7.501402828611636 0  34.99973471969444 0.001329846919688777 0  34.99984354342268 7.501329945204462 0  39.99973558440742 0.001256839649424524 0  39.99984445943412 7.501256941505773 0  44.99973676003721 0.001183743440900366 0  44.9998456285845 7.501183850359993 0  49.99973829552323 0.001110596512686129 0  49.99984708730342 7.501110710257256 0  54.99974024348307 0.001037443107914777 0  54.99984887448909 7.501037565720521 0  59.99974266194064 0.00096433450922127 0  59.99985103217005 7.500964468364632 0  64.99974561615446 0.0008913307289498619 0  64.99985360617919 7.500891478620155 0  69.99974918058753 0.0008185029341355017 0  69.99985664679093 7.500818668189058 0  74.99975344107722 0.0007459367492378167 0  74.99986020925972 7.500746123377758 0  79.99975849726157 0.0006737366795722863 0  79.99986435416906 7.50067394954858 0  84.99976446532099 0.0006020320326279464 0  84.99986914745196 7.500602277055441 0  89.99977148106527 0.0005309849088706382 0  89.99987465986034 7.500531269205048 0  94.99977970335 0.0004608011290460787 0  94.99988096553534 7.500461133037728 0  99.99978931766387 0.0003917454284482897 0  99.99988813913951 7.500392134090951 0  104.9998005394422 0.0003241629925215906 0  104.9998962507413 7.500324616847381 0  109.9998136160171 0.000258510623619315 0  109.9999053572857 7.500259033335789 0  114.9998288247582 0.0001954028415285332 0  114.9999154891209 7.500195983398765 0  119.999846462093 0.0001356815844322006 0  119.9999266299163 7.500136271421969 0  124.9998668120752 8.052381277756509e-05 0  124.9999386892085 7.500080985519616 0  129.999890070541 3.161062503983239e-05 0  129.9999514708206 7.500031605257589 0  134.9999161741884 -8.604212964171743e-06 0  134.9999646529852 7.499990140550452 0  139.999944426179 -3.647340545601865e-05 0  139.9999778313316 7.499959294335742 0  144.9999726775673 -4.656074500337201e-05 0  144.9999907734437 7.499942637390677 0  149.9999954778922 -3.124024611188153e-05 0  150.0000043195596 7.499944936480029 0  160.0000000000001 1.229317348506541e-18 0  164.999886808895 -0.0001397108867957285 0  164.9999797668376 7.499841507029697 0  160.0000153826611 7.499954604048946 0  169.9998183792824 -0.0002674781168905916 0  169.9999435485472 7.49972298148719 0  174.9997751682204 -0.0003864408287623959 0  174.9999126425599 7.499608177001362 0  179.9997469754246 -0.0004980345900909533 0  179.9998878416708 7.499498757603327 0  184.9997281168278 -0.0006035164796828658 0  184.9998684773412 7.49939449943897 0  189.9997152852019 -0.0007040056784542108 0  189.9998535654842 7.499294727901005 0  194.9997064829848 -0.0008004348615275356 0  194.9998421748875 7.499198733077402 0  199.999700458227 -0.0008935505752862513 0  199.9998335276176 7.499105888314435 0  204.9996963966094 -0.0009839406929483044 0  204.9998270055853 7.499015672520285 0  209.9996937490249 -0.001072067459074026 0  209.9998221278848 7.498927661473199 0  214.9996921326297 -0.001158296889725025 0  214.9998185228958 7.49884151123679 0  219.9996912724953 -0.001242922140609386 0  219.999815903302 7.498756941750226 0  224.9996909661586 -0.001326181183937197 0  224.9998140459952 7.498673722991368 0  229.9996910613884 -0.001408269913064368 0  229.9998127766579 7.498591664018533 0  234.9996914417803 -0.001489351817216244 0  234.999811958178 7.498510604511702 0  239.999692017119 -0.001569565163508036 0  239.9998114820085 7.498430408290635 0  244.9996927167441 -0.001649028391928486 0  244.9998112617209 7.498350958331261 0  249.999693484858 -0.001727844234381333 0  249.9998112281809 7.498272152894573 0  254.9996942771491 -0.001806102921922284 0  254.9998113259241 7.498193902474277 0  259.9996950583221 -0.001883884738203206 0  259.9998115104165 7.498116127345416 0  264.9996958003079 -0.001961262101219183 0  264.9998117459908 7.49803875555574 0  269.9996964809824 -0.002038301299418814 0  269.9998120043032 7.497961721248492 0  274.9996970833382 -0.002115063962409634 0  274.9998122631852 7.497884963245316 0  279.9996975950592 -0.00219160830016173 0  279.9998125058285 7.497808423857957 0  284.9996980085373 -0.002267990082891737 0  284.9998127202173 7.49773204794667 0  289.999698321367 -0.002344263230286277 0  289.9998128987535 7.49765578231365 0  294.9996985374193 -0.002420479680901267 0  294.9998130380088 7.497579575627603 0  299.9996986685336 -0.002496687805583247 0  299.9998131385393 7.497503379238315 0  304.9996987366931 -0.00257292774154861 0  304.9998132048084 7.497427149454013 0  309.9996987759278 -0.002649219959437061 0  309.9998132456667 7.497350852013895 0  4.999949359286106 15.00176497045713 0  -5.06865136853385e-05 15.00183681358328 0  9.999949451863667 15.00169295531681 0  14.999949616739 15.00162075540952 0  19.99994987362097 15.00154836746271 0  24.99995024041622 15.00147579810121 0  29.99995073502627 15.00140306255258 0  34.99995137603742 15.00133018312385 0  39.99995218293381 15.00125718806107 0  44.99995317613164 15.00118411097551 0  49.99995437695305 15.00111099085907 0  54.999955807566 15.00103787267264 0  59.99995749087099 15.00096480850479 0  64.99995945029011 15.00089185933364 0  69.99996170939218 15.0008190974723 0  74.9999642912712 15.00074660983599 0  79.99996721756581 15.00067450223997 0  84.99997050698269 15.0006029050249 0  89.99997417315198 15.00053198041738 0  94.99997822162302 15.00046193216675 0  99.99998264581438 15.00039301814903 0  104.9999874218365 15.00032556675875 0  109.999992502384 15.00025999792406 0  114.9999978105913 15.00019684924538 0  120.0000032361823 15.00013680653517 0  125.000008639059 15.00008073473711 0  130.0000138705042 15.00002969721891 0  135.0000188302433 14.99998493291112 0  140.0000235878642 14.99994771749981 0  145.0000286002482 14.99991892579348 0  150.0000350069875 14.99989778459537 0  165.0000414274662 14.99979084604106 0  160.0000483467896 14.99988072386343 0  170.0000289253385 14.99969114787996 0  175.0000140752702 14.99958835245278 0  179.9999993040409 14.99948624626763 0  184.9999858502894 14.99938643116936 0  189.9999741874768 14.99928939261844 0  194.9999643785902 14.99919511152101 0  199.9999562921756 14.99910336655441 0  204.9999497206012 14.99901387475137 0  209.999944440275 14.99892635300209 0  214.9999402397734 14.99884054212383 0  219.9999369310812 14.99875621383728 0  224.9999343523906 14.99867317039548 0  229.9999323669886 14.99859124142473 0  234.999930860578 14.99851028002781 0  239.9999297381783 14.99843015900651 0  244.9999289211423 14.99835076750829 0  249.9999283445043 14.99827200815941 0  254.9999279547177 14.99819379464729 0  259.9999277077681 14.99811604968525 0  264.9999275676204 14.99803870328908 0  269.9999275049508 14.99796169130665 0  274.9999274961057 14.99788495415709 0  279.9999275222379 14.99780843575387 0  284.9999275685799 14.99773208260541 0  289.9999276237972 14.99765584309877 0  294.9999276794341 14.99757966695933 0  299.9999277294777 14.99750350478429 0  304.9999277702274 14.99742730720529 0  309.9999278008398 14.99735102219508 0  5.000056832578084 22.50176531174057 0  5.678517835089325e-05 22.50183699653419 0  10.00005691628661 22.50169337192843 0  15.0000570581585 22.50162120196436 0  20.00005727254367 22.50154882251526 0  25.00005756982668 22.5014762546468 0  30.00005795856238 22.5014035219521 0  35.00005844658451 22.50133065143631 0  40.00005904145406 22.50125767393022 0  45.00005975050671 22.50118462446674 0  50.00006058065686 22.50111154285058 0  55.00006153803173 22.50103847454557 0  60.00006262745999 22.50096547196126 0  65.00006385180517 22.50089259621324 0  70.0000652111105 22.50081991944335 0  75.00006670151528 22.5007475278112 0  80.00006831389413 22.50067552529789 0  85.00007003218612 22.50060403849281 0  90.00007183141192 22.50053322255539 0  95.00007367545264 22.50046326853391 0  100.0000755148083 22.50039441214322 0  105.0000772848186 22.50032694387622 0  110.0000789052729 22.50026121979453 0  115.0000802830511 22.50019767124282 0  120.0000813204667 22.5001368095583 0  125.000081933293 22.50007921775709 0  130.0000820835781 22.50002551379252 0  135.0000818318212 22.49997625733004 0  140.0000814069948 22.49993175224475 0  145.0000812720551 22.49989167361511 0  150.0000821086653 22.49985445815136 0  165.0001005109207 22.49973519230176 0  160.0000935187946 22.4998117852014 0  170.0001020981672 22.499649257235 0  175.000099643302 22.49955804155911 0  180.0000947062603 22.49946464520453 0  185.0000885797075 22.4993710557641 0  190.0000821519065 22.49927837599771 0  195.0000759612989 22.49918713206023 0  200.0000702958712 22.49909751236664 0  205.0000652812967 22.49900952204245 0  210.0000609453623 22.49892307456039 0  215.0000572609258 22.49883804327107 0  220.0000541729763 22.49875428908712 0  225.0000516149349 22.49867167456837 0  230.0000495180396 22.49859007049057 0  235.0000478164459 22.49850935838089 0  240.0000464497519 22.49842943096737 0  245.0000453640202 22.49835019160738 0  250.0000445119526 22.4982715532641 0  255.0000438526208 22.49819343732674 0  260.0000433509683 22.49811577242171 0  265.000042977229 22.4980384932821 0  270.000042706319 22.49796153970355 0  275.0000425172406 22.49788485559326 0  280.000042392503 22.49780838810788 0  285.000042317564 22.49773208686277 0  290.0000422802908 22.49765590316746 0  295.0000422704627 22.49757978917694 0  300.0000422793
[...]
<PointData  Scalars="p"> 
<DataArray  type="Float64"  Name="p"  format="ascii">1.0000000000000001e-01  1.0000000000000003e-01  1.0000389869696787e-01  1.0000000000000003e-01  1.0000000000000003e-01  1.0000453206437966e-01  1.0000000000000003e-01  1.0000684397110474e-01  1.0000000000000003e-01  1.0000801769465646e-01  1.0000000000000003e-01  1.0000968402191820e-01  1.0000000000000003e-01  1.0001242146890373e-01  1.0000000000000003e-01  1.0001364573120446e-01  1.0000000000000003e-01  1.0001552186971105e-01  1.0000000000000003e-01  1.0001860904631001e-01  1.0000000000000003e-01  1.0001906469364120e-01  1.0000000000000003e-01  1.0002672295592577e-01  1.0000000000000003e-01  1.0003094903218897e-01  1.0000000000000003e-01  1.0003546939123782e-01  1.0000000000000003e-01  1.0003911233669534e-01  1.0000000000000003e-01  1.0004648967302675e-01  1.0000000000000003e-01  1.0004947224727725e-01  1.0000000000000003e-01  1.0005489917393433e-01  1.0000000000000003e-01  1.0006322746897496e-01  1.0000000000000003e-01  1.0006569282860986e-01  1.0000000000000003e-01  1.0007398992321941e-01  1.0000000000000003e-01  1.0007904534116879e-01  1.0000000000000003e-01  1.0008810593460130e-01  1.0000000000000003e-01  1.0008597418251999e-01  1.0000000000000003e-01  1.0010864882473273e-01  1.0000000000000003e-01  1.0008788329107499e-01  1.0000000000000003e-01  1.0013415596316995e-01  1.0000000000000003e-01  1.0008158114739379e-01  1.0000000000000003e-01  1.0016940393941941e-01  1.0000000000000003e-01  1.0006434296358621e-01  1.0000000000000001e-01  1.0022914753459441e-01  1.0000000000000001e-01  1.0000000000000003e-01  9.9813970871303531e-02  9.9617560039016617e-02  1.0000000000000003e-01  9.9945781809489889e-02  1.0000000000000003e-01  9.9853039676613686e-02  1.0000000000000003e-01  9.9902883128165337e-02  1.0000000000000003e-01  9.9887902933264119e-02  1.0000000000000003e-01  9.9900755960652302e-02  1.0000000000000003e-01  9.9894659330177951e-02  1.0000000000000003e-01  9.9905520016603064e-02  1.0000000000000003e-01  9.9903880053136454e-02  1.0000000000000003e-01  9.9907539895169359e-02  1.0000000000000003e-01  9.9910711006847411e-02  1.0000000000000003e-01  9.9913037293844764e-02  1.0000000000000003e-01  9.9914579382000365e-02  1.0000000000000003e-01  9.9917790042880289e-02  1.0000000000000003e-01  9.9919300580896375e-02  1.0000000000000003e-01  9.9920949455662808e-02  1.0000000000000003e-01  9.9922995033522144e-02  1.0000000000000003e-01  9.9924494658888141e-02  1.0000000000000003e-01  9.9925482813079891e-02  1.0000000000000003e-01  9.9927423538137133e-02  1.0000000000000003e-01  9.9927833219215237e-02  1.0000000000000003e-01  9.9929932255125448e-02  1.0000000000000003e-01  9.9929129318765908e-02  1.0000000000000003e-01  9.9933318456874906e-02  1.0000000000000003e-01  9.9928277926485384e-02  1.0000000000000003e-01  9.9939026525946134e-02  1.0000000000000003e-01  9.9922998816516215e-02  1.0000000000000003e-01  9.9951373888364101e-02  1.0000000000000003e-01  9.9902865217051454e-02  1.0000000000000001e-01  1.0000000000000003e-01  1.0000641931814198e-01  1.0000000000000003e-01  1.0000636055381515e-01  1.0000681825803506e-01  1.0000770476569638e-01  1.0001001981648230e-01  1.0000984932803191e-01  1.0001028386210431e-01  1.0001363336032096e-01  1.0001208296848511e-01  1.0001342334095667e-01  1.0001648143443147e-01  1.0002438062498474e-01  1.0002209309064054e-01  1.0003063252235594e-01  1.0002688904630397e-01  1.0003018204294711e-01  1.0003689561414002e-01  1.0003498574067701e-01  1.0003719082899437e-01  1.0004724755791992e-01  1.0004094070133313e-01  1.0004977126743318e-01  1.0004898078218966e-01  1.0005922052044820e-01  1.0004009170159665e-01  1.0008604583547841e-01  1.0001097162526745e-01  1.0014174623336686e-01  9.9942202468219818e-02  1.0023250787927185e-01  1.0016161098005148e-01  9.9413976006825153e-02  9.9824110628290399e-02  9.9972101306371700e-02  9.9948291016898672e-02  9.9958421030941463e-02  9.9938224733033973e-02  9.9961940527458187e-02  9.9950236940019532e-02  9.9953189771318590e-02  9.9957902502183130e-02  9.9958129464825157e-02  9.9957542693386900e-02  9.9962435195141863e-02  9.9962529048280749e-02  9.9963077722137181e-02  9.9965919177864612e-02  9.9966471114093014e-02  9.9967015353535443e-02  9.9968778237896697e-02  9.9969650002872043e-02  9.9969642112649471e-02  9.9971851550113733e-02  9.9970880775054186e-02  9.9973951689297472e-02  9.9970466372656761e-02  9.9978722581518964e-02  9.9965157870856566e-02  9.9989874223114200e-02  9.9952634715869848e-02  1.0000000000000003e-01  1.0000947992850494e-01  1.0000000000000003e-01  1.0000640999908446e-01  1.0000954097881888e-01  1.0001192848515034e-01  1.0001238289052330e-01  1.0001286042941690e-01  1.0001774223954432e-01  1.0001658658505531e-01  1.0001685336301025e-01  1.0002242246006293e-01  1.0002360428285358e-01  1.0001992961403391e-01  1.0004283800708993e-01  1.0003499112633076e-01  1.0003977783854207e-01  1.0005017757252185e-01  1.0004541829497594e-01  1.0004971641727124e-01  1.0006284501586990e-01  1.0005778983445472e-01  1.0006100175911446e-01  1.0007943946715192e-01  1.0006408731646020e-01  1.0008455116158207e-01  1.0007236905626690e-01  1.0010416270165058e-01  1.0004652265214251e-01  1.0017062041788694e-01  9.9946478496032193e-02  1.0036483342219610e-01  1.0011672399428641e-01  9.9457643570778534e-02  9.9717700646658178e-02  9.9941304013173138e-02  9.9926073303488239e-02  9.9879555703674086e-02  9.9942921701938775e-02  9.9907247788499506e-02  9.9915035838215510e-02  9.9924503001931397e-02  9.9923299934186749e-02  9.9920562824944506e-02  9.9930597146422204e-02  9.9929337521284259e-02  9.9930012898365284e-02  9.9935639705811527e-02  9.9936304375058002e-02  9.9936674464927377e-02  9.9940602103039136e-02  9.9941145601874642e-02  9.9942046062628201e-02  9.9944094685218948e-02  9.9945662773440608e-02  9.9944970103253247e-02  9.9949086198490092e-02  9.9945766664210400e-02  9.9953130949392163e-02  9.9942847710017116e-02  9.9964294604177786e-02  9.9925035826362349e-02  1.0000000000000003e-01  1.0001136187957112e-01  1.0000000000000003e-01  1.0000727600484149e-01  1.0001263541543182e-01  1.0001208456559346e-01  1.0001262112253421e-01  1.0001769260094776e-01  1.0001634681745862e-01  1.0001633519351687e-01  1.0002259537875090e-01  1.0001999243529415e-01  1.0001971004410921e-01  1.0003311719744767e-01  1.0002111863483823e-01  1.0003967363221128e-01  1.0004568305430409e-01  1.0004188778845326e-01  1.0004200912417885e-01  1.0005784897226797e-01  1.0004721293302478e-01  1.0005379854835734e-01  1.0006631580645214e-01  1.0006112522451895e-01  1.0005738114073615e-01  1.0008798238324505e-01  1.0004762041913706e-01  1.0010552921002512e-01  1.0002502899048847e-01  1.0017120285057458e-01  9.9910799905384998e-02  1.0038735639276897e-01  1.0012066234433585e-01  9.9331024866900583e-02  9.9812441782667669e-02  9.9982259523053230e-02  9.9809334162264479e-02  1.0000138852758143e-01  9.9907894318930948e-02  9.9932365786697147e-02  9.9937384024498588e-02  9.9938128837261206e-02  9.9928721771216172e-02  9.9945143577755274e-02  9.9940292735658354e-02  9.9940411756176031e-02  9.9947789544702903e-02  9.9948052521440220e-02  9.9947897081725648e-02  9.9953186804131247e-02  9.9953644332022404e-02  9.9953869248039506e-02  9.9957463678820996e-02  9.9957622656467043e-02  9.9959044923333615e-02  9.9959749401277415e-02  9.9963076307682988e-02  9.9959169668723147e-02  9.9968637912170727e-02  9.9955605963506652e-02  9.9979052713925834e-02  9.9942984890952755e-02  1.0000000000000003e-01  1.0001329455972559e-01  1.0000000000000003e-01  1.0000927250245677e-01  1.0001300318484711e-01  1.0001215626055004e-01  1.0001825792347203e-01  1.0001672277313181e-01  1.0001746709411914e-01  1.0002426626103098e-01  1.0002130386397319e-01  1.0002074858232275e-01  1.0003241040680783e-01  1.0002590692577606e-01  1.0003114747889852e-01  1.0003452317971775e-01  1.0004833532718049e-01  1.0004357466342283e-01  1.0006270151734187e-01  1.0005006376350091e-01  1.0005407792778540e-01  1.0007380810267515e-01  1.0005822741549551e-01  1.0006854566157142e-01  1.0007944628826125e-01  1.0007973569824505e-01  1.0005919255233155e-01  1.0012304751149179e-01  1.0002026871687500e-01  1.0019329695922981e-01  9.9895594474761540e-02  1.0045045268989639e-01  1.0023286440816262e-01  9.9241964820585546e-02  9.9757800924273138e-02  9.9921131122372067e-02  9.9891707936795762e-02  9.9888929102264504e-02  9.9918446004539085e-02  9.9922864289528207e-02  9.9932011778793878e-02  9.9905859341385211e-02  9.9936326883046031e-02  9.9925058069591469e-02  9.9924740431145270e-02  9.9935227864266465e-02  9.9934660570055511e-02  9.9933078291021007e-02  9.9941497428383472e-02  9.9941463648647352e-02  9.9941636795119054e-02  9.9946471938437656e-02  9.9947354400331770e-02  9.9947249975686950e-02  9.9951274935361420e-02  9.9950706743481429e-02  9.9953575554994817e-02  9.9951936419715337e-02  9.9959214032963470e-02  9.9948361742498881e-02  9.9970763509287242e-02  9.9933600014710147e-02  1.0000000000000003e-01  1.0001558722256797e-01  1.0000000000000003e-01  1.0000935208990279e-01  1.0001356206122831e-01  1.0001628421702351e-01  1.0001682550256449e-01  1.0001691867788670e-01  1.0002390343010774e-01  1.0002192643932613e-01  1.0002088600749101e-01  1.0003082351750933e-01  1.0002664499751865e-01  1.0002773674240791e-01  1.0003902305264725e-01  1.0003623873824005e-01  1.0002430206081324e-01  1.0006825699990082e-01  1.0004712110053551e-01  1.0005384918415253e-01  1.0007175697609753e-01  1.0005762762081019e-01  1.0005876385976936e-01  1.0008840597402258e-01  1.0005901678268656e-01  1.0008223752034499e-01  1.0007416192896079e-01  1.0010823072159582e-01  1.0001632029404706e-01  1.0021404707228070e-01  9.9858494411380741e-02  1.0050168204669743e-01  1.0022481097547092e-01  9.9265348867492956e-02  9.9704537416309705e-02  1.0001696732943981e-01  9.9868054296917627e-02  9.9894491986037753e-02  9.9885646641072523e-02  9.9963626715769083e-02  9.9889040804084242e-02  9.9952135086258748e-02  9.9923219675425293e-02  9.9925208478198344e-02  9.9937971437042097e-02  9.9937128568080943e-02  9.9932272259201926e-02  9.9944390691881060e-02  9.9942956302869757e-02  9.9942476842663497e-02  9.9949728890094652e-02  9.9949944988836609e-02  9.9950003209651445e-02  9.9954238726363678e-02  9.9955540408992655e-02  9.9954566610357176e-02  9.9959892472694545e-02  9.9956455888162682e-02  9.9964262293708139e-02  9.9953948113046767e-02  9.9975544215905113e-02  9.9940739597766975e-02  1.0000000000000003e-01  1.0001684195511128e-01  1.0000000000000003e-01  1.0000951295324888e-01  1.0001739042186680e-01  1.0001535879226153e-01  1.0001682575829735e-01  1.0002279861921984e-01  1.0002213356855001e-01  1.0002109368445765e-01  1.0003097225075047e-01  1.0002657332227863e-01  1.0002682253453475e-01  1.0004032147292805e-01  1.0003442930213624e-01  1.0003052813049433e-01  1.0005448384316670e-01  1.0002828478182030e-01  1.0005903050804348e-01  1.0007252865884482e-01  1.0005878188692312e-01  1.0006064966502366e-01  1.0008516513164675e-01  1.0006734577210677e-01  1.0006483282797664e-01  1.0010773077916973e-01  1.0005429139345220e-01  1.0011501411533742e-01  1.0003617161572811e-01  1.0020507425255500e-01  9.9851045013454695e-02  1.0055281988572504e-01  1.0020801641839801e-01  9.9206764887009788e-02  9.9758863087799896e-02  9.9993332993812079e-02  9.9830734694008785e-02  9.9938915944651791e-02  9.9900264157816485e-02  9.9856298587129119e-02  9.9962402477988974e-02  9.9911500306942042e-02  9.9922138864823956e-02  9.9929824716800980e-02  9.9933011028631877e-02  9.9922397577154431e-02  9.9939751004818736e-02  9.9936303775413016e-02  9.9934804088225970e-02  9.9943717284817823e-02  9.9944329924075911e-02  9.9943506288187836e-02  9.9950032364595237e-02  9.9950083931164127e-02  9.9950991727097885e-02  9.9953566855474282e-02  9.9956431612150634e-02  9.9953368544892354e-02  9.9962147310034749e-02  9.9951578922338288e-02  9.9972683246466035e-02  9.9938460395869205e-02  1.0000000000000003e-01  1.0001793742808324e-01  1.0000000000000003e-01  1.0001153282664577e-01  1.0001705323532871e-01  1.0001514179723478e-01  1.0002190155949554e-01  1.0002063968995469e-01  1.0002074560241718e-01  1.0002978909055889e-01  1.0002624099536506e-01  1.0002562794080648e-01  1.0003900661637262e-01  1.0003338912461841e-01  1.0003196543033542e-01  1.0005070314846878e-01  1.0003528505988075e-01  1.0004250608705988e-01  1.0004776667761940e-01  1.0006563136043602e-01  1.0005627208352984e-01  1.0009010627886941e-01  1.0006040360012916e-01  1.0007121580806203e-01  1.0009246603440305e-01  1.0008110865371564e-01  1.0005657368397443e-01  1.0014295465439739e-01  1.0000913848643611e-01  1.0021536428690173e-01  9.9855338038555522e-02  1.0056835070787416e-01  1.0027734778280653e-01  9.9144170018672734e-02  9.9730394414165521e-02  9.9965898586376029e-02  9.9882677677507484e-02  9.9937900902986765e-02  9.9865078546296407e-02  9.9928556987867137e-02  9.9880930021233161e-02  9.9937531268122617e-02  9.9921370442912563e-02  9.9941805599186487e-02  9.9914449017267676e-02  9.9942444387862331e-02  9.9934725174118555e-02  9.9932552609128825e-02  9.9943531242748337e-02  9.9943351761250188e-02  9.9941048696673557e-02  9.9949827665745478e-02  9.9950280145282885e-02  9.9949586110966007e-02  9.9955520488133748e-02  9.9954945017978997e-02  9.9957334738773912e-02  9.9956843429111333e-02  9.9963984781090809e-02  9.9953596092701505e-02  9.9974997870967267e-02  9.9941777655536926e-02  1.0000000000000003e-01  1.0001959589161369e-01  1.0000000000000003e-01  1.0001122753637758e-01  1.0001700084155676e-01  1.0001900436108617e-01  1.0002045241311962e-01  1.0001938845305215e-01  1.0002789498943437e-01  1.0002569540050890e-01  1.0002484445798163e-01  1.0003614993285391e-01  1.0003284080351955e-01  1.0003126939170669e-01  1.0004842266432730e-01  1.0003828359468922e-01  1.0003779641595936e-01  1.0005571486549424e-01  1.0004753829420408e-01  1.0002862110766703e-01  1.0009570199406856e-01  1.0006130567539916e-01  1.0006688418789823e-01  1.0010237063506966e-01  1.0006316470713730e-01  1.0008352565366814e-01  1.0009182372097367e-01  1.0011125517458166e-01  1.0001200544214263e-01  1.0024786127859152e-01  9.9822966091329846e-02  1.0059454065538524e-01  1.0028085930014860e-01  9.9157809996092111e-02  9.9691527440640193e-02  1.0001671449510451e-01  9.9868119604018937e-02  9.9903230576975768e-02  9.9914319878894930e-02  9.9914793584122433e-02  9.9885524193404657e-02  9.9895291699171301e-02  9.9956272158595996e-02  9.9900388910999713e-02  9.9947807291244209e-02  9.9928940215556608e-02  9.9928569826439939e-02  9.9940400651433781e-02  9.9941159114850284e-02  9.9935841063448383e-02  9.9947200960689597e-02  9.9946424831242359e-02  9.9945891235854470e-02  9.9952586481390326e-02  9.9953873985568514e-02  9.9952485755992901e-02  9.9958906917497869e-02  9.9956041083785349e-02  9.9962637641440324e-02  9.9954410762150239e-02  9.9974132220462086e-02  9.9941846421579328e-02  1.0000000000000003e-01  1.0002024270880094e-01  1.0000000000000003e-01  1.0001104870847598e-01  1.0002026988143267e-01  1.0001785826173652e-01  1.0001958114554353e-01  1.0002549123689751e-01  1.0002484959276234e-01  1.0002378251496986e-01  1.0003408200895207e-01  1.0003091652445137e-01  1.0002963450317000e-01  1.0004595125091140e-01  1.0003868876472015e-01  1.0003622059987716e-01  1.0005624242399608e-01  1.0004473567591414e-01  1.0003647825028501e-01  1.0007444915242429e-01  1.0003043344120732e-01  1.0007512569406145e-01  1.0009545882525640e-01  1.0007364452435118e-01  1.0006543742063541e-01  1.0012292178340698e-01  1.0005292080051199e-01  1.0011412050836940e-01  1.0004982737799550e-01  1.0021434677919951e-01  9.9821306384825476e-02  1.0063796643228087e-01  1.0026555575543021e-01  9.9133634462558726e-02  9.9725067185307839e-02  1.0001211551354175e-01  9.9835398160722524e-02  9.9948236167098817e-02  9.9905569165356672e-02  9.9896989826983834e-02  9.9914918748063075e-02  9.9920279201286780e-02  9.9870824728995444e-02  9.9964313136039470e-02  9.9921120030891736e-02  9.9932624398165637e-02  9.9936596353368948e-02  9.9942386971907340e-02  9.9932214740403313e-02  9.9947297006592828e-02  9.9945445024296226e-02  9.9943057380402212e-02  9.9951510740416458e-02  9.9952221035874839e-02  9.9952082071287668e-02  9.9956718456386318e-02  9.9959316504240905e-02  9.9956199059636208e-02  9.9965200007283858e-02  9.9955698797569686e-02  9.9974811939543551e-02  9.9944282480577851e-02  1.0000000000000003e-01  1.0002074869919887e-01  1.0000000000000003e-01  1.0001257300811929e-01  1.0001959259538767e-01  1.0001698999958269e-01  1.0002410249996110e-01  1.0002295572393113e-01  1.0002303638889701e-01  1.0003143625061900e-01  1.0002924770896005e-01  1.0002750558733739e-01  1.0004206797209067e-01  1.0003697768607425e-01  1.0003526503038915e-01  1.0005396366421113e-01  1.0004336594549013e-01  1.0003906054673203e-01  1.0006693885507904e-01  1.0004228517219915e-01  1.0004979050162760e-01  1.0006251174954976e-01  1.0007746826475872e-01  1.0006951988921131e-01  1.0011106444077876e-01  1.0007875241115291e-01  1.0005823243592336e-01  1.0015757435629323e-01  1.0000812759176814e-01  1.0021351188131740e-01  9.9862692057625324e-02  1.0060624661984152e-01  1.0030741440720066e-01  9.9091330237123576e-02  9.9718279379185773e-02  9.9986597046296505e-02  9.9870861449745649e-02  9.9942851754858161e-02  9.9878279794784003e-02  9.9929568498781415e-02  9.9918991784460148e-02  9.9894042037791009e-02  9.9925086743041333e-02  9.9897646206588572e-02  9.9944016071638067e-02  9.9928757546970795e-02  9.9948295540843696e-02  9.9925486979063685e-02  9.9948054173448403e-02  9.9943331860375642e-02  9.9940752399063665e-02  9.9950053375024439e-02  9.9950560101330438e-02  9.9947890480825557e-02  9.9956411329781170e-02  9.9955978019732411e-02  9.9957623756248615e-02  9.9958778641666635e-02  9.9965138395566672e-02  9.9955714004982529e-02  9.9975548305209480e-02  9.9945395523904718e-02  1.0000000000000003e-01  1.0002190136289767e-01  1.0000000000000003e-01  1.0001219359977849e-01  1.0001912901136570e-01  1.0002026805906059e-01  1.0002253315446144e-01  1.0002126789543407e-01  1.0002936147085957e-01  1.0002786529553588e-01  1.0002625085504047e-01  1.0003767848428058e-01  1.0003505857414413e-01  1.0003312347501471e-01  1.0005002798103907e-01  1.0004320351845948e-01  1.0003829661542632e-01  1.0006276239404276e-01  1.0004629263165912e-01  1.0004386973670745e-01  1.0007027173625498e-01  1.0005640251554589e-01  1.0002623153291140e-01  1.0012628813665980e-01  1.0006223661905356e-01  1.0008620333898463e-01  1.0010798825677054e-01  1.0010470898732579e-01  1.0001122401281728e-01  1.0026193145838763e-01  9.9820455923746013e-02  1.0060142190935255e-01  1.0032162961997930e-01  9.9108366421521640e-02  9.9687616636389878e-02  1.0002006143472178e-01  9.9869456108745355e-02  9.9916531016050067e-02  9.9910058903468893e-02  9.9929701396357082e-02  9.9893537187247569e-02  9.9930573076458556e-02  9.9920229024836438e-02  9.9907210358072734e-02  9.9905800196933570e-02  9.9963770433859289e-02  9.9916093033152298e-02  9.9954417697109318e-02  9.9940448973779863e-02  9.9939984807385737e-02  9.9949270435371745e-02  9.9950804059550064e-02  9.9946199310067069e-02  9.9954900144238343e-02  9.9955480598334659e-02  9.9954003182426684e-02  9.9961543439306383e-02  9.9959378601892704e-02  9.9964757143617397e-02  9.9958489719147670e-02  9.9976084849103308e-02  9.9947207134318858e-02  1.0000000000000003e-01  1.0002212627519225e-01  1.0000000000000003e-01  1.0001173930691093e-01  1.0002161309892560e-01  1.0001896950505999e-01  1.0002121911757648e-01  1.0002623431056007e-01  1.0002646737099567e-01  1.0002517236276820e-01  1.0003469321291560e-01  1.0003223348323843e-01  1.0003084714536463e-01  1.0004562033864021e-01  1.0004121498119085e-01  1.0003680278920084e-01  1.0005828597382616e-01  1.0004752011569097e-01  1.0004098554486145e-01  1.0007027727359429e-01  1.0005168298874813e-01  1.0003909759150931e-01  1.0009211683084759e-01  1.0003144550005429e-01  1.0007941798348666e-01  1