<?xml version="1.0"?>
<VTKFile type="UnstructuredGrid"  version="0.1"  >
<UnstructuredGrid>
<Piece  NumberOfPoints="1933" NumberOfCells="3640">
<Points>
<DataArray  type="Float64"  NumberOfComponents="3"  format="ascii">-0.4752568874641065 -0.002504360474743478 0  4.524743158078328 -0.00243694541623942 0  4.524642009832712 7.497563155117836 0  -0.4753580470409068 7.49749572320079 0  9.524743238820992 -0.002369601106792276 0  9.524642100437182 7.497630498822465 0  14.52474339250123 -0.00230230779971653 0  14.52464223612524 7.497697787064265 0  19.52474364746844 -0.002235024067160657 0  19.52464242475441 7.497765065385875 0  24.52474402218356 -0.002167698356650408 0  24.52464267063789 7.497832386494124 0  29.52474452676426 -0.002100273986436212 0  29.52464297413778 7.497899807216792 0  34.52474516464358 -0.002032691035215767 0  34.52464333135549 7.497967387296161 0  39.52474593380432 -0.00196488665224951 0  39.52464373386659 7.498035189318329 0  44.52474682749692 -0.001896794506926797 0  44.52464416837955 7.498103279338554 0  49.52474783447236 -0.001828343715250721 0  49.52464461621501 7.498171727965911 0  54.52474893877223 -0.001759457383084868 0  54.52464505252041 7.49824061180417 0  59.52475011908989 -0.001690050793342928 0  59.52464544513938 7.498310015232413 0  64.52475134767681 -0.001620029189685801 0  64.52464575303718 7.498380032571294 0  69.52475258870776 -0.00154928504727838 0  69.52464592415548 7.498450770733665 0  74.52475379595386 -0.001477694655340078 0  74.52464589251815 7.498522352511714 0  79.5247549094975 -0.001405113752555714 0  79.52464557433663 7.498594920716101 0  84.52475585106728 -0.001331371839771865 0  84.52464486276961 7.498668643460454 0  89.5247565172911 -0.001256264625262734 0  89.52464362085637 7.498743720979381 0  94.52475676971885 -0.001179543810453316 0  94.52464167198592 7.49882039447203 0  99.52475641965542 -0.001100903066070103 0  99.5246387871037 7.498898957543174 0  104.5247552044414 -0.001019958549581555 0  104.5246346677619 7.498979770777707 0  109.5247527492491 -0.0009362216750430346 0  109.5246289243226 7.499063279597355 0  114.5247485038024 -0.0008490611912889421 0  114.5246210496311 7.499150034267783 0  119.5247416348113 -0.0007576514675006773 0  119.5246103914753 7.499240707517074 0  124.5247308389748 -0.0006609058632756599 0  124.5245961347763 7.49933609702428 0  129.5247140118034 -0.0005574030232816066 0  129.5245773223054 7.499437081460291 0  134.5246876525598 -0.000445344328526356 0  134.5245529825466 7.49954445901808 0  139.5246457829259 -0.000322678506760941 0  139.5245225194132 7.499658519599619 0  144.5245779589183 -0.0001878590962814915 0  144.5244867029728 7.499778082969878 0  149.5244655258642 -4.294263990143773e-05 0  149.5244500124464 7.499898747410065 0  159.5244717418521 1.097872689749629e-18 0  164.5244669049673 -5.283631600469436e-05 0  164.5244724890495 7.4999327297242 0  159.5244662096631 7.499966612869819 0  169.5244817517554 -7.40349059035751e-05 0  169.5244784269971 7.499919055788067 0  174.5245037720851 -7.341604349906185e-05 0  174.5244862437854 7.49992313245108 0  179.5245273694549 -5.714847251733307e-05 0  179.5244956996454 7.499941113933992 0  184.5245500848151 -2.946349299386722e-05 0  184.5245060698553 7.49996968052867 0  189.5245709269636 6.660946721857559e-06 0  189.524516695724 7.500006267338708 0  194.5245895914562 4.910272382870534e-05 0  194.5245271024853 7.500048954174257 0  199.5246060867104 9.633125604421216e-05 0  199.5245369877557 7.50009631303501 0  204.5246205541544 0.0001472274062280767 0  204.5245461797683 7.500147278058684 0  209.524633182419 0.0002009606846814435 0  209.5245545967441 7.500201046877812 0  214.5246441673829 0.0002569054375198737 0  214.5245622152968 7.50025700890894 0  219.524653694551 0.0003145833070615674 0  219.5245690480677 7.50031469399871 0  224.524661932226 0.0003736233183321138 0  224.5245751286785 7.500373735716247 0  229.5246690298097 0.0004337338182902487 0  229.5245805019524 7.500433844974834 0  234.5246751184537 0.000494682448269524 0  234.5245852177527 7.500494790899363 0  239.5246803127091 0.0005562816268318554 0  239.5245893272266 7.500556386793152 0  244.5246847125381 0.0006183778705488869 0  244.524592880639 7.500618479726209 0  249.5246884053894 0.0006808438371582709 0  249.5245959262346 7.50068094273022 0  254.5246914682292 0.0007435723434786292 0  254.5245985097775 7.5007436689059 0  259.5246939694872 0.0008064718587616998 0  259.524600674518 7.500806566970697 0  264.5246959709443 0.0008694631485945739 0  264.5246024614412 7.500869557934989 0  269.5246975295713 0.0009324768761894346 0  269.5246039096833 7.500932572716327 0  274.5246986993762 0.0009954520797794551 0  274.5246050570317 7.50099555060222 0  279.5246995332586 0.001058335556226666 0  279.5246059404387 7.501058438566212 0  284.5247000848696 0.001121082311059077 0  284.5246065964712 7.501121191540666 0  289.5247004103288 0.001183657405606224 0  289.5246070616043 7.501183773858497 0  294.5247005694988 0.001246039763625499 0  294.5246073723071 7.501246162195496 0  299.5247006260183 0.001308228790605997 0  299.5246075649075 7.501308350458237 0  304.5247006444199 0.001370254868899373 0  304.5246076755705 7.501370357147845 0  309.5247006806973 0.001432194101505161 0  309.5246077415046 7.501432235917962 0  4.524540717084062 14.99756335937692 0  -0.4754593371045157 14.99749592422963 0  9.524540784051499 14.99763067666291 0  14.5245408681546 14.99769793282361 0  19.52454096838824 14.997765181449 0  24.52454108072421 14.99783247696002 0  29.52454119848765 14.99789987556235 0  34.52454131202615 14.99796743562449 0  39.52454140813821 14.99803521817734 0  44.52454146939466 14.99810328768671 0  49.52454147335824 14.99817171310515 0  54.52454139166164 14.99824056919202 0  59.52454118888814 14.99830993810932 0  64.52454082119792 14.99837991132609 0  69.52454023463723 14.99845059188837 0  74.52453936307984 14.99852209713218 0  79.52453812575939 14.99859456192798 0  84.52453642440202 14.99866814253825 0  89.52453414006261 14.99874302112165 0  94.52453112997493 14.99881941078119 0  99.52452722511141 14.99889756073804 0  104.5245222298905 14.99897776053523 0  109.5245159267564 14.99906034080202 0  114.5245080905923 14.9991456654188 0  119.5244985214982 14.99923410483281 0  124.5244871097551 14.99932597099765 0  129.5244739533657 14.99942137831516 0  134.5244595533628 14.99951996903233 0  139.5244451045793 14.99962040466239 0  144.5244328496584 14.99971948199958 0  149.5244262903904 14.99981067651117 0  164.524451415824 14.99989286065252 0  159.5244459229339 14.99989408031548 0  169.5244534290175 14.99989796074334 0  174.5244547047342 14.99991222992428 0  179.5244564861554 14.99993566231117 0  184.5244591139558 14.99996712863434 0  189.5244625171523 15.00000524883531 0  194.5244664807821 15.00004873620484 0  199.5244707709564 15.0000965015385 0  204.5244751847886 15.00014766094231 0  209.5244795644229 15.00020151035863 0  214.5244837955989 15.00025749266289 0  219.5244878006841 15.00031516695946 0  224.5244915306688 15.00037418292042 0  229.5244949579335 15.00043426035821 0  234.5244980703562 15.00049517332746 0  239.5245008667628 15.00055673786831 0  244.5245033535417 15.00061880258183 0  249.5245055421935 15.0006812413808 0  254.5245074475912 15.0007439479112 0  259.5245090867742 15.0008068312733 0  264.5245104781224 15.00086981277793 0  269.5245116408001 15.00093282356191 0  274.5245125943845 15.00099580295697 0  279.5245133586013 15.0010586975647 0  284.5245139531735 15.00112146103461 0  289.5245143977658 15.00118405456215 0  294.5245147121906 15.00124644809609 0  299.5245149171449 15.00130862212195 0  304.5245150360989 15.00137056957427 0  309.5245150994364 15.00143229676197 0  4.52443941941822 22.49756370538142 0  -0.475560629753438 22.49749633675889 0  9.524439463880615 22.49763094960528 0  14.52443950067494 22.49769813490602 0  19.52443952418146 22.49776531883174 0  24.52443952660943 22.49783255600314 0  29.52443949818763 22.49789990079435 0  34.52443942696213 22.49796740881003 0  39.52443929835855 22.49803513789644 0  44.52443909462704 22.49810314904872 0  49.52443879423009 22.49817150737385 0  54.52443837119309 22.4982402831723 0  59.52443779442846 22.49830955316387 0  64.52443702704993 22.49837940186657 0  69.52443602571527 22.49844992312209 0  74.52443474008358 22.49852122173954 0  79.52443311253916 22.49859341517972 0  84.52443107845362 22.49866663511191 0  89.52442856743724 22.4987410285066 0  94.52442550630829 22.49881675762843 0  99.52442182492149 22.49889399777055 0  104.5244174665792 22.4989729306878 0  109.5244124055107 22.49905373022126 0  114.5244066747538 22.49913653428489 0  119.5244004083891 22.49922139389812 0  124.5243939016253 22.49930818522241 0  129.5243876888829 22.49939646542551 0  134.5243826302365 22.49948525121517 0  139.52437997456 22.49957271067749 0  144.5243813264446 22.49965581275524 0  149.5243883838514 22.49973014912068 0  164.5244087507827 22.49984681934 0  159.5244053389385 22.4998251341107 0  169.5244090637429 22.49986899171877 0  174.524407753737 22.49989479998383 0  179.5244059838552 22.49992560768062 0  184.5244044454636 22.49996163694519 0  189.5244034538955 22.50000251861091 0  194.5244030884148 22.500047645075 0  199.5244033023429 22.50009636100765 0  204.5244039938807 22.50014805280585 0  209.5244050465166 22.50020218267551 0  214.5244063496515 22.50025829518027 0  219.5244078075489 22.50031601150947 0  224.524409341914 22.50037501926032 0  229.5244108912865 22.50043506145301 0  234.5244124090578 22.50049592637995 0  239.524413861069 22.50055743884838 0  244.5244152232674 22.50061945289238 0  249.5244164796184 22.50068184583143 0  254.5244176203453 22.50074451348968 0  259.5244186404714 22.50080736639106 0  264.5244195386486 22.50087032676757 0  269.5244203162125 22.50093332625008 0  274.5244209764408 22.50099630413616 0  279.5244215239939 22.50105920614536 0  284.5244219645622 22.50112198356585 0  289.5244223047835 22.50118459265313 0  294.5244225525894 22.50124699403552 0  299.5244227181973 22.
[...]
<PointData  Scalars="p"> 
<DataArray  type="Float64"  Name="p"  format="ascii">1.0000000000000001e-01  1.0000000000000003e-01  9.9997878427777964e-02  1.0000000000000003e-01  1.0000000000000003e-01  9.9998660726942926e-02  1.0000000000000003e-01  9.9997973122883332e-02  1.0000000000000003e-01  9.9998123583290827e-02  1.0000000000000003e-01  9.9997720724815622e-02  1.0000000000000003e-01  9.9996246960282836e-02  1.0000000000000003e-01  9.9996177191465002e-02  1.0000000000000003e-01  9.9995172661237461e-02  1.0000000000000003e-01  9.9993436914287123e-02  1.0000000000000003e-01  9.9994712934428839e-02  1.0000000000000003e-01  9.9987492339392997e-02  1.0000000000000003e-01  9.9986126199992323e-02  1.0000000000000003e-01  9.9982875272461857e-02  1.0000000000000003e-01  9.9980954087662291e-02  1.0000000000000003e-01  9.9974821540204220e-02  1.0000000000000003e-01  9.9972877684253073e-02  1.0000000000000003e-01  9.9967604438042576e-02  1.0000000000000003e-01  9.9959819318925419e-02  1.0000000000000003e-01  9.9956850994367782e-02  1.0000000000000003e-01  9.9947551886090780e-02  1.0000000000000003e-01  9.9941399039715328e-02  1.0000000000000003e-01  9.9930557589951730e-02  1.0000000000000003e-01  9.9929926729471139e-02  1.0000000000000003e-01  9.9905157327709229e-02  1.0000000000000003e-01  9.9922490216879559e-02  1.0000000000000003e-01  9.9873183665443024e-02  1.0000000000000003e-01  9.9922606716147944e-02  1.0000000000000003e-01  9.9831541435352694e-02  1.0000000000000003e-01  9.9934490124487879e-02  1.0000000000000001e-01  9.9765826433757088e-02  1.0000000000000001e-01  1.0000000000000003e-01  1.0013662458393142e-01  1.0034093813202957e-01  1.0000000000000003e-01  1.0001539222323255e-01  1.0000000000000003e-01  1.0010366411394506e-01  1.0000000000000003e-01  1.0005103632455191e-01  1.0000000000000003e-01  1.0006413928409494e-01  1.0000000000000003e-01  1.0004990459733555e-01  1.0000000000000003e-01  1.0005332533872574e-01  1.0000000000000003e-01  1.0004116866478245e-01  1.0000000000000003e-01  1.0004157738069033e-01  1.0000000000000003e-01  1.0003663881347737e-01  1.0000000000000003e-01  1.0003266809766896e-01  1.0000000000000003e-01  1.0002986502619965e-01  1.0000000000000003e-01  1.0002780214872677e-01  1.0000000000000003e-01  1.0002440917969303e-01  1.0000000000000003e-01  1.0002286291550942e-01  1.0000000000000003e-01  1.0002122204813441e-01  1.0000000000000003e-01  1.0001924817076191e-01  1.0000000000000003e-01  1.0001808256001678e-01  1.0000000000000003e-01  1.0001712405356916e-01  1.0000000000000003e-01  1.0001580375670373e-01  1.0000000000000003e-01  1.0001518984810981e-01  1.0000000000000003e-01  1.0001434446888900e-01  1.0000000000000003e-01  1.0001392975604778e-01  1.0000000000000003e-01  1.0001287363571891e-01  1.0000000000000003e-01  1.0001343665903580e-01  1.0000000000000003e-01  1.0001128329690497e-01  1.0000000000000003e-01  1.0001379189006920e-01  1.0000000000000003e-01  1.0000872067966028e-01  1.0000000000000003e-01  1.0001679742292152e-01  1.0000000000000001e-01  1.0000000000000003e-01  9.9995283205731728e-02  1.0000000000000003e-01  9.9996016321296510e-02  9.9995839695332225e-02  9.9995285111802640e-02  9.9993353855976658e-02  9.9993654968641835e-02  9.9993063765920306e-02  9.9990034964898583e-02  9.9991822337876124e-02  9.9990318681883961e-02  9.9989292904810595e-02  9.9980413790632328e-02  9.9985117554723557e-02  9.9976984494592636e-02  9.9981295958359112e-02  9.9976890281057107e-02  9.9970624226370125e-02  9.9971537092835641e-02  9.9967714389064613e-02  9.9957332389779247e-02  9.9961822624029528e-02  9.9950835820995038e-02  9.9950310093276221e-02  9.9938448052221365e-02  9.9954308617213161e-02  9.9908796118460597e-02  9.9980642427447114e-02  9.9851497291383970e-02  1.0004900158364878e-01  9.9763631206344724e-02  9.9835454314608441e-02  1.0048256570476329e-01  1.0017453188046505e-01  1.0001804516537442e-01  1.0004620231906491e-01  1.0003683549515782e-01  1.0005219023409663e-01  1.0002780650194733e-01  1.0003833996647228e-01  1.0003292184751877e-01  1.0002712545497398e-01  1.0002629342571502e-01  1.0002562931531432e-01  1.0002021995216345e-01  1.0001992729699768e-01  1.0001883461178783e-01  1.0001581066057691e-01  1.0001512868281179e-01  1.0001439083284309e-01  1.0001236166355376e-01  1.0001166566881053e-01  1.0001105756628643e-01  1.0000951076895037e-01  1.0000911902808336e-01  1.0000800330499794e-01  1.0000777780089272e-01  1.0000580487991943e-01  1.0000757373490707e-01  1.0000274614867756e-01  1.0000858255019275e-01  1.0000000000000003e-01  9.9992443884955443e-02  1.0000000000000003e-01  9.9995540684764933e-02  9.9993608351281613e-02  9.9991774205913195e-02  9.9991890565790803e-02  9.9991224457422534e-02  9.9986948426935701e-02  9.9988132006153391e-02  9.9987344585980770e-02  9.9983034948852786e-02  9.9981574560235764e-02  9.9987547527499457e-02  9.9963886299031551e-02  9.9975396699538241e-02  9.9969546082245092e-02  9.9961037785060103e-02  9.9964725387835088e-02  9.9958668986995639e-02  9.9945601779559232e-02  9.9948837383743827e-02  9.9942213163102048e-02  9.9923319435455890e-02  9.9935093130214897e-02  9.9911415032772330e-02  9.9921044597826872e-02  9.9888207303777787e-02  9.9939664083426666e-02  9.9820906577243504e-02  1.0003674291190551e-01  9.9632233694041492e-02  9.9924380631809140e-02  1.0038644778012619e-01  1.0022887761478012e-01  1.0004023786967342e-01  1.0006169985684461e-01  1.0009684158562174e-01  1.0003565456034938e-01  1.0006997065413814e-01  1.0005717354671090e-01  1.0004600259463370e-01  1.0004616727849873e-01  1.0004611496209569e-01  1.0003509114458463e-01  1.0003581436829632e-01  1.0003389335093985e-01  1.0002782988319624e-01  1.0002708019478485e-01  1.0002610285779875e-01  1.0002203975207771e-01  1.0002130309418016e-01  1.0002027438306156e-01  1.0001771587353428e-01  1.0001668687449185e-01  1.0001596453033162e-01  1.0001373775237976e-01  1.0001352544058136e-01  1.0001140140662719e-01  1.0001214048865588e-01  1.0000765677082828e-01  1.0001360151141904e-01  1.0000000000000003e-01  9.9990584901430937e-02  1.0000000000000003e-01  9.9994267082061647e-02  9.9989784012638652e-02  9.9990685362661244e-02  9.9989811546898039e-02  9.9985121971252686e-02  9.9986221170082032e-02  9.9985120283578546e-02  9.9979284827057202e-02  9.9981499273934599e-02  9.9981156238183197e-02  9.9968230600234714e-02  9.9983606711109424e-02  9.9960853595059879e-02  9.9960316775552782e-02  9.9962966829792499e-02  9.9961633481284201e-02  9.9945859828937444e-02  9.9954649611284099e-02  9.9944578347404625e-02  9.9931500243273533e-02  9.9933889980431831e-02  9.9932579947898517e-02  9.9902082252258106e-02  9.9936955741829397e-02  9.9878475608667000e-02  9.9953426301551532e-02  9.9815134831118174e-02  1.0006103794619095e-01  9.9613270709119364e-02  9.9943093454955695e-02  1.0049438328638000e-01  1.0013819824488397e-01  1.0002492751948350e-01  1.0017843254501735e-01  9.9994953846261947e-02  1.0009022268371258e-01  1.0005916221536075e-01  1.0005237256932083e-01  1.0005066248409046e-01  1.0005574681142911e-01  1.0003778601432826e-01  1.0004174759440944e-01  1.0003957338849383e-01  1.0003132875948512e-01  1.0003073752902217e-01  1.0002995442158305e-01  1.0002422305839899e-01  1.0002370330443180e-01  1.0002272065986156e-01  1.0001904176037922e-01  1.0001820501721784e-01  1.0001698406122457e-01  1.0001471578027349e-01  1.0001316506067474e-01  1.0001277997523865e-01  1.0000959925077960e-01  1.0001084398926074e-01  1.0000571104272855e-01  1.0001084287443630e-01  1.0000000000000003e-01  9.9988686701526136e-02  1.0000000000000003e-01  9.9991928979862185e-02  9.9989015614992294e-02  9.9989438350509996e-02  9.9984262031519389e-02  9.9985496434159521e-02  9.9983982293721185e-02  9.9977302546726238e-02  9.9979695839346697e-02  9.9979013986074478e-02  9.9967655923610912e-02  9.9974713710127769e-02  9.9967286022413809e-02  9.9969409865303588e-02  9.9951112752048044e-02  9.9959081330549787e-02  9.9940617994817932e-02  9.9952743526850546e-02  9.9944665112220180e-02  9.9925523467504315e-02  9.9937477674713310e-02  9.9922834553980058e-02  9.9910270358100933e-02  9.9907407764241479e-02  9.9919911574594650e-02  9.9860125421575643e-02  9.9951764454613568e-02  9.9790252963249157e-02  1.0006739444304893e-01  9.9555854747643946e-02  9.9851045363173296e-02  1.0054857323197815e-01  1.0019599386811465e-01  1.0008517633043666e-01  1.0007985627055208e-01  1.0011086677386459e-01  1.0007197786748800e-01  1.0006612481364882e-01  1.0005880099836385e-01  1.0007803377818571e-01  1.0004555081816438e-01  1.0005574310989324e-01  1.0005259719474650e-01  1.0004060251271417e-01  1.0004073659228072e-01  1.0004054348335883e-01  1.0003143843551754e-01  1.0003130154017550e-01  1.0003032698013685e-01  1.0002496898412981e-01  1.0002406003011005e-01  1.0002313981430584e-01  1.0001930637347328e-01  1.0001839326720013e-01  1.0001670946150970e-01  1.0001481598039451e-01  1.0001233059395503e-01  1.0001299909562811e-01  1.0000751188809648e-01  1.0001280109159603e-01  1.0000000000000003e-01  9.9986463026039363e-02  1.0000000000000003e-01  9.9991593629572023e-02  9.9987653824939737e-02  9.9984971164534836e-02  9.9984532982975743e-02  9.9983780175408224e-02  9.9977012082715908e-02  9.9978496064192388e-02  9.9977807050221440e-02  9.9968168169315835e-02  9.9971760362004447e-02  9.9968502367496895e-02  9.9959325308171407e-02  9.9960338029092932e-02  9.9974891691555365e-02  9.9927501099393856e-02  9.9953503680431391e-02  9.9942799603416163e-02  9.9927180149901457e-02  9.9938004757356272e-02  9.9931674565069448e-02  9.9902476539351401e-02  9.9926540147725243e-02  9.9899031562672228e-02  9.9903194477140023e-02  9.9871175922753574e-02  9.9947119531027473e-02  9.9771059108493029e-02  1.0009247199338157e-01  9.9511879002415704e-02  9.9885408497902381e-02  1.0050783678631857e-01  1.0024441433980827e-01  1.0000216501353745e-01  1.0012177177983793e-01  1.0009897970743470e-01  1.0010671462401216e-01  1.0003911001714461e-01  1.0010474925803550e-01  1.0004039032661922e-01  1.0006870783730971e-01  1.0006159946304967e-01  1.0004673723893644e-01  1.0004694008672194e-01  1.0004895128701925e-01  1.0003579266610194e-01  1.0003692437141172e-01  1.0003593438598354e-01  1.0002823723454306e-01  1.0002774167840123e-01  1.0002704607008045e-01  1.0002192922684472e-01  1.0002088467407846e-01  1.0001992803737512e-01  1.0001599909181144e-01  1.0001540189500104e-01  1.0001263477744272e-01  1.0001240959342687e-01  1.0000721734961254e-01  1.0001196121452290e-01  1.0000000000000003e-01  9.9985263979531502e-02  1.0000000000000003e-01  9.9990958471742067e-02  9.9983775487928528e-02  9.9985291590546324e-02  9.9983345481544847e-02  9.9977481384037351e-02  9.9978232574156348e-02  9.9977535766755624e-02  9.9968041616421116e-02  9.9971780957475387e-02  9.9969036703308978e-02  9.9956631710387156e-02  9.9961489990236685e-02  9.9963812244715955e-02  9.9939766950323819e-02  9.9970645124082658e-02  9.9930651730201117e-02  9.9925911083052044e-02  9.9936803786304679e-02  9.9931715107855520e-02  9.9907065203179102e-02  9.9921690462810381e-02  9.9916346405768228e-02  9.9875643277457515e-02  9.9919865979441400e-02  9.9860583917417978e-02  9.9925900449290908e-02  9.9780570090232570e-02  1.0008690323640133e-01  9.9475488783441146e-02  9.9908919725608739e-02  1.0055676484258039e-01  1.0018785285637709e-01  1.0004087756469687e-01  1.0015511919617169e-01  1.0005962359501286e-01  1.0008926236090690e-01  1.0013917585714036e-01  1.0003194166634156e-01  1.0008424562551514e-01  1.0006868734595589e-01  1.0005785243674407e-01  1.0005407933333049e-01  1.0006072831757969e-01  1.0004163913623103e-01  1.0004448455130104e-01  1.0004403501923280e-01  1.0003410264764294e-01  1.0003329997248780e-01  1.0003294954477086e-01  1.0002606626110096e-01  1.0002539947602523e-01  1.0002418431871010e-01  1.0001997536885157e-01  1.0001823432045644e-01  1.0001739588216138e-01  1.0001317520711682e-01  1.0001363438132797e-01  1.0000824263849675e-01  1.0001261480614941e-01  1.0000000000000003e-01  9.9984080063627231e-02  1.0000000000000003e-01  9.9988914176761326e-02  9.9983887954846959e-02  9.9984626062388282e-02  9.9978106843363529e-02  9.9979008777451375e-02  9.9977627921554069e-02  9.9969034260730102e-02  9.9971962885049420e-02  9.9970585998727102e-02  9.9957589174118844e-02  9.9962315718644931e-02  9.9961281499009916e-02  9.9943119003609276e-02  9.9958556648481661e-02  9.9945991092905251e-02  9.9949030083100146e-02  9.9922525813521262e-02  9.9935319723415059e-02  9.9902758747868387e-02  9.9930350759695669e-02  9.9913098153822932e-02  9.9891654875634839e-02  9.9900050755007894e-02  9.9912626031324281e-02  9.9835721428029781e-02  9.9948469204572843e-02  9.9769307817155914e-02  1.0007574760430846e-01  9.9473140721088871e-02  9.9850338762631816e-02  1.0060592722230979e-01  1.0022255373742096e-01  1.0007113048385118e-01  1.0010871747119937e-01  1.0007389002372764e-01  1.0012820978377726e-01  1.0006143783246628e-01  1.0011701192246933e-01  1.0005984083399413e-01  1.0007212580691575e-01  1.0005305507919698e-01  1.0007527608363390e-01  1.0004478880265943e-01  1.0005187105450217e-01  1.0005108577540815e-01  1.0003858055978072e-01  1.0003850187020313e-01  1.0003918126288627e-01  1.0002944479335572e-01  1.0002903316116095e-01  1.0002839371774050e-01  1.0002241823831622e-01  1.0002147168218412e-01  1.0001987923697184e-01  1.0001654813302735e-01  1.0001381290215061e-01  1.0001415576782362e-01  1.0000793192090021e-01  1.0001241028510385e-01  1.0000000000000003e-01  9.9982493072916429e-02  1.0000000000000003e-01  9.9989123275485481e-02  9.9983385258330781e-02  9.9980779415874882e-02  9.9979247359412757e-02  9.9978843249185059e-02  9.9970642291962064e-02  9.9972294649195437e-02  9.9971534564571599e-02  9.9960684122854040e-02  9.9963369963085663e-02  9.9962264413232083e-02  9.9945849264548844e-02  9.9955189238590092e-02  9.9951248864991682e-02  9.9936139024737899e-02  9.9940579871623025e-02  9.9962237979793395e-02  9.9889552292199424e-02  9.9930367719515217e-02  9.9917774943821841e-02  9.9886654943961498e-02  9.9919186277067834e-02  9.9893745460895744e-02  9.9881533891671218e-02  9.9866475599485624e-02  9.9939908179957376e-02  9.9743560636440201e-02  1.0009918227429905e-01  9.9458083845319969e-02  9.9858024340430507e-02  1.0058548627966181e-01  1.0025762940246889e-01  1.0002467239235363e-01  1.0013042610517953e-01  1.0011022551462961e-01  1.0008148731373183e-01  1.0008540976663663e-01  1.0010233709612242e-01  1.0009818276251785e-01  1.0004185253092050e-01  1.0009300364774509e-01  1.0004364773784545e-01  1.0006188444958614e-01  1.0005843733345092e-01  1.0004443564934466e-01  1.0004325936020711e-01  1.0004612533421453e-01  1.0003375456069204e-01  1.0003408178044040e-01  1.0003339163186797e-01  1.0002572757049052e-01  1.0002465703762174e-01  1.0002411675054325e-01  1.0001853546879792e-01  1.0001784822251461e-01  1.0001514194331554e-01  1.0001378826689437e-01  1.0000852937365992e-01  1.0001277755101633e-01  1.0000000000000003e-01  9.9981851097605240e-02  1.0000000000000003e-01  9.9988999181750401e-02  9.9980281228918319e-02  9.9981803515210688e-02  9.9979181726846875e-02  9.9973016585524710e-02  9.9973281405616690e-02  9.9972546672571300e-02  9.9962562964348578e-02  9.9965634274169130e-02  9.9964342066168416e-02  9.9949018491227434e-02  9.9955567468408682e-02  9.9954068626630088e-02  9.9935460656091296e-02  9.9944705451481791e-02  9.9949585095993346e-02  9.9911280398727223e-02  9.9961258493223584e-02  9.9902023471741361e-02  9.9893955335892765e-02  9.9911867077714114e-02  9.9913332508819078e-02  9.9859566061120134e-02  9.9919455624997613e-02  9.9859567430033117e-02  9.9906951105641739e-02  9.9777933830794169e-02  1.0009163982843010e-01  9.9431433560745977e-02  9.9877187599095876e-02  1.0061149812376120e-01  1.0022441959500260e-01  1.0003714499053436e-01  1.0016323035580070e-01  1.0006846504298966e-01  1.0009971718972228e-01  1.0010525571978800e-01  1.0007811200294797e-01  1.0007082363563137e-01  1.0012292153701113e-01  1.0003092101604297e-01  1.0007414536317398e-01  1.0005983713155860e-01  1.0005289437158806e-01  1.0004655730071137e-01  1.0005374730470813e-01  1.0003689291678772e-01  1.0003827626994606e-01  1.0003889532635113e-01  1.0002949507889480e-01  1.0002808175102970e-01  1.0002768613258704e-01  1.0002137802963756e-01  1.0001983104438866e-01  1.0001914622389417e-01  1.0001398721247315e-01  1.0001422511520962e-01  1.0000890024780201e-01  1.0001246262484222e-01  1.0000000000000003e-01  9.9981305875265034e-02  1.0000000000000003e-01  9.9987608504175499e-02  9.9981029005101293e-02  9.9982118508876200e-02  9.9975018006377425e-02  9.9975492367897364e-02  9.9973931686535900e-02  9.9965429757398735e-02  9.9967273593842443e-02  9.9966892569307159e-02  9.9953220631403397e-02  9.9957967888808744e-02  9.9956721739495505e-02  9.9938975818009340e-02  9.9947967920990810e-02  9.9947828247104076e-02  9.9920678905916091e-02  9.9944972592553916e-02  9.9928881320969290e-02  9.9928089537451734e-02  9.9899979503250871e-02  9.9911938575863196e-02  9.9871841556146257e-02  9.9903530590726597e-02  9.9909739646152462e-02  9.9823593046523176e-02  9.9947869751754306e-02  9.9775904718186412e-02  1.0005368496565192e-01  9.9471084609780450e-02  9.9835816373855676e-02  1.0066113131432236e-01  1.0023448722341369e-01  1.0006406401616771e-01  1.0012815655308982e-01  1.0007974006880527e-01  1.0012702660808741e-01  1.0007575422408550e-01  1.0008069027676642e-01  1.0010007164738760e-01  1.0006113629162136e-01  1.0009683135202362e-01  1.0005097537500102e-01  1.0006362116278493e-01  1.0004489178081664e-01  1.0006412442283072e-01  1.0003925962695061e-01  1.0004336333626580e-01  1.0004366747791936e-01  1.0003269329042763e-01  1.0003207428153746e-01  1.0003289542563321e-01  1.0002383129634604e-01  1.0002306797016625e-01  1.0002185774087741e-01  1.0001727298213933e-01  1.0001465545286170e-01  1.0001505592026955e-01  1.0000842904371827e-01  1.0001257109194638e-01  1.0000000000000003e-01  9.9980232857560761e-02  1.0000000000000003e-01  9.9988050580417917e-02  9.9981168512820337e-02  9.9979171907358708e-02  9.9976708524691274e-02  9.9976336767219690e-02  9.9968206884093747e-02  9.9969106365449700e-02  9.9968702604879181e-02  9.9957771658264263e-02  9.9960055731126291e-02  9.9959751249171558e-02  9.9943931334365049e-02  9.9950173479290014e-02  9.9950726633866130e-02  9.9927063672962557e-02  9.9942233546274059e-02  9.9937746213147743e-02  9.9915517557739184e-02  9.9924086847760135e-02  9.9956535444117492e-02  9.9849837600189811e-02  9.9920344618152537e-02  9.9888855996227252e-02  9.9869351856158015e-02  9.9875184871681094e-02  9.9941291835979329e-02  9.9735685670129193e-02  1.0009534079654524e-01  9.9475886754011353e-02  9.9819015422894425e-02  1.0065861135319838e-01  1.0026881213564892e-01  1.0003109981932452e-01  1.0013315292450167e-01  1.0010674289323108e-01  1.0009596995171077e-01  1.0008086929266019e-01  1.0010847647654220e-01  1.0006576038556722e-01  1.0007364656812352e-01  1.0007974626666408e-01  1.0008525175106192e-01  1.0003201203475362e-01  1.0007663636427143e-01  1.0003685258131848e-01  1.0005015618863286e-01  1.0004779508562862e-01  1.0003656755427086e-01  1.0003442627564996e-01  1.0003716907915487e-01  1.0002707595579707e-01  1.0002639844040666e-01  1.0002570162770417e-01  1.0001875859412920e-01  1.0001789247874382e-01  1.0001580814337159e-01  1.0001353611334608e-01  1.0000864691693501e-01  1.0001255678366806e-01  1.0000000000000003e-01  9.9980192956141023e-02  1.0000000000000003e-01  9.9988487213873711e-02  9.9979157130044433e-02  9.9980803171691973e-02  9.9977697755782496e-02  9.9972186537105046e-02  9.9971556990062854e-02  9.9970949510614915e-02  9.9961547750777632e-02  9.9963687610311089e-02  9.9962795625772816e-02  9.9948942107136840e-02  9.9953537724765867e-02  9.9954494679398903e-02  9.9934163700273929e-02  9.9943847628019930e-02  9.9944331568499092e-02  9.9917182953447606e-02  9.9932806932475360e-02  9.9940198899031329e-02  9.9887254539380993e-02  9.9955711689497143e-02  9.9885996717395328e-02  9