<?xml version="1.0"?>
<VTKFile type="UnstructuredGrid"  version="0.1"  >
<UnstructuredGrid>
<Piece  NumberOfPoints="1933" NumberOfCells="3640">
<Points>
<DataArray  type="Float64"  NumberOfComponents="3"  format="ascii">0.4754653924808993 3.127439816323998e-05 0  5.475465425082914 1.244740699415524e-05 0  5.475493700244357 7.500012549646836 0  0.4754936377821025 7.500031324828217 0  10.47546546741263 -6.472951988326266e-06 0  10.47549381382458 7.499993647277881 0  15.47546556921391 -2.553106719810675e-05 0  15.47549400566315 7.499974594218723 0  20.47546578483923 -4.472967721221282e-05 0  20.47549430228861 7.499955395967687 0  25.47546616505514 -6.40467195687955e-05 0  25.47549472993182 7.499936078080228 0  30.47546675516234 -8.344457867322176e-05 0  30.47549531388922 7.499916679685088 0  35.47546759550415 -0.0001028751643022509 0  35.47549607805819 7.499897249519707 0  40.47546872277361 -0.000122282464828253 0  40.47549704476894 7.499877843865854 0  45.47547017147818 -0.0001416034684157312 0  45.47549823481056 7.499858525852265 0  50.4754719753193 -0.0001607679503089388 0  50.4754996675211 7.499839365771026 0  55.47547416841135 -0.000179697387396636 0  55.47550136083044 7.499820442209675 0  60.47547678632372 -0.0001983031050249778 0  60.47550333116003 7.499801843921805 0  65.47547986694875 -0.0002164836454235152 0  65.47550559308144 7.499783672457277 0  70.47548345117818 -0.0002341212466602186 0  70.47550815862166 7.499766045663122 0  75.47548758334825 -0.000251077216203845 0  75.47551103606352 7.499749102259897 0  80.47549231134715 -0.0002671858548198627 0  80.47551422802265 7.499733007811442 0  85.47549768618896 -0.0002822464117039954 0  85.47551772849366 7.499717962550982 0  90.47550376067991 -0.0002960122985326543 0  90.47552151840941 7.499704211722092 0  95.47551058650248 -0.0003081764109653201 0  95.47552555906728 7.499692059355994 0  100.4755182084725 -0.0003183508287575254 0  100.4755297825346 7.499681886749465 0  105.4755266536879 -0.0003260382822735186 0  105.4755340778639 7.49967417732048 0  110.4755359112993 -0.0003305914309013628 0  110.4755382717861 7.499669549915256 0  115.4755458948849 -0.0003311540085695983 0  115.475542102822 7.499668802750873 0  120.4755563721781 -0.0003265751059691396 0  120.4755451893556 7.499672969266236 0  125.475566832963 -0.000315284490879306 0  125.475546997278 7.499683383450009 0  130.4755762388814 -0.0002951146385206217 0  130.4755468262003 7.499701741737728 0  135.4755825460144 -0.0002630615957511122 0  135.475543866034 7.499730123391888 0  140.4755817857519 -0.0002150233327373746 0  140.4755374532556 7.499770880231132 0  145.4755662680478 -0.0001457811279112598 0  145.4755278404756 7.499826242762888 0  150.4755209356718 -5.058649933680761e-05 0  150.4755182636501 7.499897660101989 0  160.4755282581472 8.55592151382336e-19 0  165.4754353747985 -0.0001408451892862869 0  165.4755122694695 7.499836105482642 0  160.475537478872 7.499945540898218 0  170.4753892235949 -0.0002542770557055873 0  170.4754865289635 7.499734214343231 0  175.475367196969 -0.0003482611412712736 0  175.47546613327 7.499645493633095 0  180.475358006618 -0.0004274515862848744 0  180.4754515544427 7.499569008583812 0  185.4753557363139 -0.0004952722900684076 0  185.4754418408459 7.499502664242955 0  190.475357195446 -0.0005543205932340545 0  190.4754358313851 7.499444450505222 0  195.4753606256331 -0.0006065535143027581 0  195.4754325132582 7.499392702625482 0  200.4753650389075 -0.0006534397303888765 0  200.475431094479 7.499346105933469 0  205.4753698702732 -0.0006960851899015388 0  205.4754309849558 7.499303638080936 0  210.4753747917893 -0.0007353302002872327 0  210.4754317551242 7.49926450508907 0  215.4753796112601 -0.0007718211140420829 0  215.4754330956537 7.499228086777848 0  220.4753842159375 -0.0008060620439580396 0  220.4754347847781 7.499193894129139 0  225.4753885405644 -0.0008384518749547456 0  225.4754366637186 7.499161537166565 0  230.4753925488253 -0.0008693108004360615 0  230.4754386188443 7.499130701090269 0  235.4753962223369 -0.0008988994995774862 0  235.4754405689525 7.499101128579199 0  240.4753995539796 -0.0009274331587374432 0  240.4754424562626 7.499072606603318 0  245.4754025438058 -0.0009550918642805391 0  245.4754442400626 7.499044956510688 0  250.4754051965168 -0.0009820284174645558 0  250.4754458922296 7.499018026496276 0  255.4754075199481 -0.001008374292710283 0  255.4754473940872 7.498991685817721 0  260.4754095242206 -0.001034244233022942 0  260.4754487342113 7.498965820311889 0  265.4754112213893 -0.001059739815700273 0  265.4754499069282 7.49894032890574 0  270.4754126254676 -0.001084952201545079 0  270.4754509113219 7.498915120921532 0  275.4754137528054 -0.001109964180821129 0  275.4754517506037 7.498890114065984 0  280.4754146227945 -0.001134851529627698 0  280.4754524317531 7.49886523307781 0  285.4754152589238 -0.001159683568480877 0  285.4754529653225 7.498840409102794 0  290.4754156901373 -0.001184522637446477 0  290.4754533653097 7.498815579982443 0  295.4754159524185 -0.001209421915371045 0  295.4754536490169 7.498790691795068 0  300.4754160901825 -0.001234420523347345 0  300.4754538368358 7.498765702181886 0  305.4754161564669 -0.001259534023237283 0  305.4754539521901 7.498740586210055 0  310.4754162093054 -0.001284737140038025 0  310.4754540225912 7.498715345757224 0  5.475521682111189 15.0000127838174 0  0.4755216140354703 15.00003144895408 0  10.4755217951825 14.99999391416343 0  15.47552197635756 14.99997486086073 0  20.47552224107907 14.99995565072934 0  25.47552260166663 14.99993631908032 0  30.47552306898185 14.9999169092008 0  35.47552365280402 14.9998974713372 0  40.47552436168526 14.99987806205769 0  45.47552520260001 14.99985874422706 0  50.47552618048756 14.99983958761677 0  55.47552729768716 14.9998206701315 0  60.47552855321786 14.99980207965527 0  65.47552994183589 14.99978391656342 0  70.4755314527802 14.99976629699782 0  75.47553306810994 14.99974935706198 0  80.47553476052079 14.99973325815544 0  85.47553649053469 14.99971819373383 0  90.47553820298189 14.99970439784314 0  95.47553982280122 14.99969215580603 0  100.4755412504014 14.99968181737887 0  105.4755423573424 14.999673812416 0  110.4755429840499 14.9996686683057 0  115.4755429431146 14.99966702663827 0  120.47554203493 14.99966965268099 0  125.4755400877119 14.99967742329782 0  130.4755370417628 14.9996912633748 0  135.4755331071602 14.99971197119494 0  140.4755290282301 14.99973981744731 0  145.4755264628384 14.99977368959899 0  150.4755283466802 14.99980924972584 0  165.4755487825816 14.99977295443376 0  160.4755514717185 14.99984484986927 0  170.4755396655763 14.99969683724407 0  175.4755283010676 14.99962350678565 0  180.4755173248599 14.99955595547124 0  185.4755079090623 14.99949480065173 0  190.4755003839655 14.99943963439602 0  195.4754946729277 14.99938970439782 0  200.4754905350671 14.99934421239533 0  205.4754876874171 14.99930242956045 0  210.475485860553 14.999263730333 0  215.4754848199594 14.99922759243932 0  220.4754843708687 14.99919358469562 0  225.4754843558403 14.99916135192848 0  230.4754846496941 14.99913060072064 0  235.475485153984 14.99910108719172 0  240.4754857919152 14.99907260697612 0  245.4754865040268 14.99904498716951 0  250.4754872446758 14.99901807991256 0  255.475487979238 14.99899175728984 0  260.4754886819178 14.99896590727569 0  265.4754893340368 14.99894043051759 0  270.4754899227075 14.99891523780783 0  275.4754904397924 14.99889024814609 0  280.4754908810646 14.99886538734416 0  285.4754912455443 14.99884058716304 0  290.4754915349503 14.99881578499568 0  295.4754917533719 14.99879092408223 0  300.4754919073263 14.99876595410228 0  305.475492006691 14.99874083154135 0  310.4754920674226 14.99871551802619 0  5.475549363455937 22.50001325297858 0  0.4755492968562669 22.50003182619268 0  10.4755494569018 22.49999440432629 0  15.47554959328434 22.49997533643929 0  20.475549781142 22.49995609773516 0  25.47555002460228 22.49993673534257 0  30.47555032521869 22.49991729831514 0  35.47555068275727 22.49989783917315 0  40.47555109531722 22.49987841480671 0  45.47555155906178 22.49985908729361 0  50.47555206771903 22.4998399249063 0  55.47555261192487 22.49982100344471 0  60.47555317843374 22.4998024079753 0  65.47555374919827 22.49978423504196 0  70.47555430031541 22.49976659541521 0  75.47555480085215 22.49974961745388 0  80.47555521160461 22.49973345114876 0  85.47555548391365 22.49971827289113 0  90.47555555879622 22.49970429092873 0  95.47555536686845 22.49969175129375 0  100.4755548298873 22.49968094362404 0  105.4755538652849 22.49967220561051 0  110.4755523958651 22.49966592354182 0  115.4755503678897 22.49966252420409 0  120.4755477819706 22.49966244965352 0  125.475544741988 22.49966610038561 0  130.4755415262588 22.49967372353601 0  135.4755386791973 22.49968521137999 0  140.4755371042709 22.49969976602891 0  145.4755380986846 22.49971539728676 0  150.4755431919867 22.49972832422365 0  165.475570523142 22.4997022319136 0  160.4755632086272 22.49975030767768 0  170.4755717583438 22.49964691744086 0  175.4755688580412 22.49958943228054 0  180.4755637373216 22.49953303728591 0  185.4755578213318 22.49947944463721 0  190.4755519956116 22.49942932180119 0  195.4755467317542 22.49938274114754 0  200.4755422301973 22.49933947953877 0  205.4755385310507 22.49929919229337 0  210.4755355884643 22.49926150541116 0  215.4755333165463 22.49922606016426 0  220.475531615948 22.49919253173429 0  225.4755303882505 22.49916063450344 0  230.4755295430391 22.49913012095666 0  235.4755290007943 22.49910077787352 0  240.4755286935024 22.49907242167197 0  245.4755285641108 22.49904489378939 0  250.4755285654622 22.49901805647944 0  255.4755286590641 22.49899178915082 0  260.4755288138555 22.49896598525678 0  265.4755290050709 22.49894054969509 0  270.4755292132141 22.49891539666378 0  275.4755294231587 22.49889044791784 0  280.4755296233662 22.49886563137074 0  285.4755298052365 22.49884087997271 0  290.4755299626244 22.49881613075134 0  295.47553009162
[...]
<PointData  Scalars="p"> 
<DataArray  type="Float64"  Name="p"  format="ascii">1.0000000000000001e-01  1.0000000000000003e-01  9.9999711939891364e-02  1.0000000000000003e-01  1.0000000000000003e-01  9.9998538295758027e-02  1.0000000000000003e-01  9.9997796994333712e-02  1.0000000000000003e-01  9.9996921209487208e-02  1.0000000000000003e-01  9.9996294282398909e-02  1.0000000000000003e-01  9.9996076051330762e-02  1.0000000000000003e-01  9.9995389329447362e-02  1.0000000000000003e-01  9.9995234396421245e-02  1.0000000000000003e-01  9.9995062031928525e-02  1.0000000000000003e-01  9.9993504922993789e-02  1.0000000000000003e-01  9.9995991657982883e-02  1.0000000000000003e-01  9.9994745966519444e-02  1.0000000000000003e-01  9.9995203048641984e-02  1.0000000000000003e-01  9.9994872970612977e-02  1.0000000000000003e-01  9.9996445484449706e-02  1.0000000000000003e-01  9.9996546411517881e-02  1.0000000000000003e-01  9.9998465507919146e-02  1.0000000000000003e-01  1.0000110299463802e-01  1.0000000000000003e-01  1.0000254799311395e-01  1.0000000000000003e-01  1.0000671914944628e-01  1.0000000000000003e-01  1.0000974703580580e-01  1.0000000000000003e-01  1.0001498914743093e-01  1.0000000000000003e-01  1.0001693743701008e-01  1.0000000000000003e-01  1.0002769267857130e-01  1.0000000000000003e-01  1.0002319395054353e-01  1.0000000000000003e-01  1.0004390251299328e-01  1.0000000000000003e-01  1.0002697196559768e-01  1.0000000000000003e-01  1.0006376033865587e-01  1.0000000000000003e-01  1.0002574273836669e-01  1.0000000000000001e-01  1.0009255143746988e-01  1.0000000000000001e-01  1.0000000000000003e-01  9.9978349037336101e-02  9.9895434344307796e-02  1.0000000000000003e-01  1.0001811608812231e-01  1.0000000000000003e-01  9.9987163863266129e-02  1.0000000000000003e-01  1.0000898586205245e-01  1.0000000000000003e-01  1.0000514167110791e-01  1.0000000000000003e-01  1.0001143245066346e-01  1.0000000000000003e-01  1.0001177993934769e-01  1.0000000000000003e-01  1.0001722427237153e-01  1.0000000000000003e-01  1.0001782917635943e-01  1.0000000000000003e-01  1.0002050590171201e-01  1.0000000000000003e-01  1.0002251683674114e-01  1.0000000000000003e-01  1.0002388216165814e-01  1.0000000000000003e-01  1.0002499204297711e-01  1.0000000000000003e-01  1.0002640074037665e-01  1.0000000000000003e-01  1.0002701343418309e-01  1.0000000000000003e-01  1.0002763527203987e-01  1.0000000000000003e-01  1.0002834493176622e-01  1.0000000000000003e-01  1.0002858370796137e-01  1.0000000000000003e-01  1.0002893152246195e-01  1.0000000000000003e-01  1.0002905238094587e-01  1.0000000000000003e-01  1.0002941309285927e-01  1.0000000000000003e-01  1.0002896117553570e-01  1.0000000000000003e-01  1.0002987216110890e-01  1.0000000000000003e-01  1.0002833916916302e-01  1.0000000000000003e-01  1.0003089146882664e-01  1.0000000000000003e-01  1.0002640161678447e-01  1.0000000000000003e-01  1.0003379900454283e-01  1.0000000000000003e-01  1.0002133288382827e-01  1.0000000000000003e-01  1.0004323711128495e-01  1.0000000000000001e-01  1.0000000000000003e-01  1.0000074917486583e-01  1.0000000000000003e-01  1.0000005236224611e-01  9.9999946176449708e-02  9.9999952909255230e-02  1.0000045309899785e-01  1.0000025753113860e-01  1.0000058026265171e-01  1.0000153848951272e-01  1.0000070978049998e-01  1.0000138503102876e-01  1.0000052072547903e-01  1.0000451683459874e-01  1.0000122797014914e-01  1.0000408207275302e-01  1.0000208528973924e-01  1.0000445557580233e-01  1.0000657146079608e-01  1.0000683982286317e-01  1.0000929966257603e-01  1.0001346500741809e-01  1.0001287372405482e-01  1.0001840280318630e-01  1.0001941587003706e-01  1.0002495038803971e-01  1.0002091212647031e-01  1.0003802215009898e-01  1.0001257534380539e-01  1.0006089718502456e-01  9.9986717106019418e-02  1.0009266975240767e-01  1.0006465695186989e-01  9.9879641981879722e-02  9.9934178014480637e-02  9.9999198049206428e-02  9.9985757190730579e-02  9.9988862852462501e-02  9.9985990736455810e-02  9.9995716925476055e-02  9.9992416702697998e-02  9.9996009884312786e-02  9.9998893673051009e-02  9.9999585270933999e-02  1.0000061208950521e-01  1.0000299768332965e-01  1.0000323221501939e-01  1.0000398581898301e-01  1.0000525363344470e-01  1.0000559439105955e-01  1.0000599587772886e-01  1.0000693549132579e-01  1.0000709261588327e-01  1.0000770558095982e-01  1.0000788680882346e-01  1.0000887848344510e-01  1.0000809618803977e-01  1.0001047577438317e-01  1.0000734586384206e-01  1.0001396069544537e-01  1.0000351220397141e-01  1.0002069178952597e-01  1.0000000000000003e-01  1.0000169668475360e-01  1.0000000000000003e-01  1.0000049743362856e-01  1.0000049474826209e-01  1.0000085297803965e-01  1.0000045597879330e-01  1.0000082709353184e-01  1.0000208534501963e-01  1.0000161641736040e-01  1.0000223917141611e-01  1.0000310622486384e-01  1.0000383635739907e-01  1.0000013596406755e-01  1.0000963529223346e-01  1.0000297698918545e-01  1.0000586890704127e-01  1.0000794845098536e-01  1.0000720358984219e-01  1.0001060363037254e-01  1.0001555479147912e-01  1.0001544533706788e-01  1.0002008431213567e-01  1.0002758063817990e-01  1.0002529714151465e-01  1.0003632761844203e-01  1.0003422508532356e-01  1.0004741433037283e-01  1.0003158161443827e-01  1.0007364001976608e-01  9.9996333864589310e-02  1.0014228456345722e-01  1.0000346815723409e-01  9.9948780181852284e-02  9.9945603183363055e-02  9.9996039273902645e-02  9.9983991544252221e-02  9.9977600518493553e-02  9.9999624092318384e-02  9.9987355939538114e-02  9.9995339797319727e-02  1.0000065973075904e-01  1.0000123822504721e-01  1.0000298235309085e-01  1.0000780458658041e-01  1.0000785960342766e-01  1.0000936325464733e-01  1.0001194914271008e-01  1.0001228783336152e-01  1.0001303646516191e-01  1.0001467210735801e-01  1.0001507270726187e-01  1.0001554487518889e-01  1.0001683721346460e-01  1.0001689693550805e-01  1.0001804735281905e-01  1.0001773012017082e-01  1.0001999399575212e-01  1.0001756644714321e-01  1.0002318290827684e-01  1.0001441120843554e-01  1.0003273045945217e-01  1.0000000000000003e-01  1.0000239244181666e-01  1.0000000000000003e-01  1.0000123578948422e-01  1.0000240610368295e-01  1.0000184540084567e-01  1.0000238776021890e-01  1.0000394226015974e-01  1.0000367519741526e-01  1.0000478346549282e-01  1.0000674894435969e-01  1.0000614385934040e-01  1.0000666186695534e-01  1.0001129929391400e-01  1.0000334169615940e-01  1.0001462424565342e-01  1.0001144688532305e-01  1.0001114352063421e-01  1.0001240238920514e-01  1.0001838385638019e-01  1.0001616978902610e-01  1.0002217062352295e-01  1.0002751000883535e-01  1.0002833056277373e-01  1.0003195447976507e-01  1.0004353654698039e-01  1.0003361097118990e-01  1.0005630068800062e-01  1.0003110061832791e-01  1.0007905215458460e-01  9.9994089818059323e-02  1.0014732378349500e-01  9.9982319313448489e-02  9.9919107505088020e-02  9.9977731027361433e-02  9.9986035959685401e-02  9.9939412001937095e-02  1.0000419023332384e-01  9.9966705256934463e-02  9.9982641323701993e-02  9.9986329675104263e-02  9.9987578755974735e-02  9.9988308656295516e-02  9.9996120043477618e-02  9.9995156103748914e-02  9.9997256840206383e-02  1.0000094167816698e-01  1.0000137003440311e-01  1.0000224923673338e-01  1.0000471129108443e-01  1.0000494803765292e-01  1.0000579164817060e-01  1.0000724897156803e-01  1.0000798727637192e-01  1.0000832914009727e-01  1.0001016195583837e-01  1.0000965632533108e-01  1.0001245585194843e-01  1.0000978460298920e-01  1.0001659420994949e-01  1.0000723569692498e-01  1.0002439566265105e-01  1.0000000000000003e-01  1.0000309606798188e-01  1.0000000000000003e-01  1.0000233967139520e-01  1.0000294727929647e-01  1.0000304815419422e-01  1.0000445277075398e-01  1.0000416749465522e-01  1.0000522178794818e-01  1.0000769833851270e-01  1.0000713661807202e-01  1.0000816202507987e-01  1.0001231079872723e-01  1.0000927401729749e-01  1.0001346229106782e-01  1.0000925236882563e-01  1.0001901093431208e-01  1.0001398683095919e-01  1.0002062580766666e-01  1.0001631381098802e-01  1.0002191097027394e-01  1.0002885554086838e-01  1.0002653366615896e-01  1.0003479942819340e-01  1.0004062320873922e-01  1.0004330983827327e-01  1.0004350276271010e-01  1.0006381994752461e-01  1.0003570654960461e-01  1.0009027783771932e-01  9.9997129026285991e-02  1.0016574285328488e-01  1.0000501941213469e-01  9.9919969653392074e-02  9.9953707425150098e-02  9.9963568299955716e-02  9.9987079253351818e-02  9.9957782374807930e-02  9.9978429933807969e-02  9.9981552336586815e-02  9.9983221598079028e-02  9.9980152633441732e-02  9.9993805221607376e-02  9.9990576996152908e-02  9.9993919310849971e-02  9.9999432335732080e-02  9.9999648427411603e-02  1.0000081948684103e-01  1.0000472108428048e-01  1.0000487851307978e-01  1.0000574604306220e-01  1.0000811565592607e-01  1.0000847893543416e-01  1.0000946363789627e-01  1.0001080937209686e-01  1.0001207345118143e-01  1.0001198408621716e-01  1.0001489055153856e-01  1.0001287781325643e-01  1.0001891652424937e-01  1.0001055809113669e-01  1.0002823785771567e-01  1.0000000000000003e-01  1.0000390256985209e-01  1.0000000000000003e-01  1.0000262588711477e-01  1.0000396370875791e-01  1.0000496346796296e-01  1.0000506733069085e-01  1.0000576280483961e-01  1.0000821301166439e-01  1.0000795140199964e-01  1.0000928383907230e-01  1.0001277937858043e-01  1.0001177066473069e-01  1.0001435406652477e-01  1.0001655412285665e-01  1.0001726295858471e-01  1.0001008974571575e-01  1.0003030683383729e-01  1.0001737215236563e-01  1.0002391736030690e-01  1.0002846602270399e-01  1.0002637702971275e-01  1.0003200498055806e-01  1.0004287843971034e-01  1.0003698276539559e-01  1.0005013932749376e-01  1.0005096361773932e-01  1.0006192921856688e-01  1.0004279183811794e-01  1.0009664216372327e-01  9.9994984267716011e-02  1.0017805375561058e-01  9.9975629275830147e-02  9.9946262830790791e-02  9.9938209954198526e-02  9.9987349244934839e-02  9.9959782676807843e-02  9.9966232825303730e-02  9.9963966472015692e-02  9.9983373525794353e-02  9.9963832920072965e-02  9.9989196474377762e-02  9.9978749212386225e-02  9.9984628532358635e-02  9.9991602787753084e-02  9.9991920120046651e-02  9.9992910437734700e-02  9.9998579374720675e-02  9.9998333643753240e-02  9.9999619924824867e-02  1.0000283495511869e-01  1.0000319655613689e-01  1.0000385613829881e-01  1.0000635515749721e-01  1.0000659490721293e-01  1.0000815331411152e-01  1.0000879048833017e-01  1.0001151146544805e-01  1.0000945366921457e-01  1.0001605347252442e-01  1.0000789794974273e-01  1.0002466516131447e-01  1.0000000000000003e-01  1.0000432609065545e-01  1.0000000000000003e-01  1.0000316166462195e-01  1.0000547542916613e-01  1.0000521518848626e-01  1.0000625481026480e-01  1.0000842653428421e-01  1.0000808681123315e-01  1.0000942664655905e-01  1.0001281395494846e-01  1.0001179425300255e-01  1.0001438474110791e-01  1.0001844478053079e-01  1.0001722935762646e-01  1.0001731935302106e-01  1.0002655492428363e-01  1.0001187445816587e-01  1.0003286061936129e-01  1.0002925787277642e-01  1.0002686390041975e-01  1.0003079878626517e-01  1.0004029227564092e-01  1.0003668445178589e-01  1.0004358137752380e-01  1.0005776626013986e-01  1.0004657683224656e-01  1.0006832798572596e-01  1.0005173727106302e-01  1.0009267879603558e-01  1.0000515844691470e-01  1.0018283101639397e-01  9.9962496191405709e-02  9.9933548019131513e-02  9.9961199814776192e-02  9.9963242196035182e-02  9.9949502788116956e-02  9.9978134341550562e-02  9.9972384081084040e-02  9.9949643041577788e-02  9.9991300689177484e-02  9.9970455324174798e-02  9.9979438675746171e-02  9.9985523618801822e-02  9.9987326381028030e-02  9.9987237160381132e-02  9.9995601136772500e-02  9.9994885580796264e-02  9.9996262061945201e-02  1.0000068562108970e-01  1.0000110909912578e-01  1.0000196854350299e-01  1.0000481832057984e-01  1.0000545286827617e-01  1.0000610686498540e-01  1.0000872415307990e-01  1.0000869433665896e-01  1.0001142579832671e-01  1.0001022056294340e-01  1.0001629304423994e-01  1.0000864096736808e-01  1.0002542031997767e-01  1.0000000000000003e-01  1.0000483291423010e-01  1.0000000000000003e-01  1.0000395730153135e-01  1.0000557150701199e-01  1.0000601496150789e-01  1.0000835558381981e-01  1.0000823385109751e-01  1.0000954951898174e-01  1.0001255263471878e-01  1.0001181762105400e-01  1.0001357378119904e-01  1.0001829993900058e-01  1.0001704645867683e-01  1.0001896117897918e-01  1.0002553985647035e-01  1.0001963425971344e-01  1.0002773588343006e-01  1.0002144556633899e-01  1.0003690583848068e-01  1.0002989963654649e-01  1.0004154393042237e-01  1.0003231481699106e-01  1.0004288419758284e-01  1.0005118869125618e-01  1.0004981684996370e-01  1.0005240596309309e-01  1.0007591548931755e-01  1.0004588086471519e-01  1.0009757984375700e-01  1.0001365745911514e-01  1.0017557948840382e-01  9.9978226586906818e-02  9.9923080876823486e-02  9.9944094487911167e-02  9.9949945943951554e-02  9.9963804089068825e-02  9.9964494246530242e-02  9.9955184595822241e-02  9.9982723689871739e-02  9.9956583849083833e-02  9.9978772733657822e-02  9.9976476542680520e-02  9.9982915877884937e-02  9.9977602815008434e-02  9.9990787670481085e-02  9.9988475349703843e-02  9.9990603401572536e-02  9.9996323322192784e-02  9.9996512319677239e-02  9.9997256281328578e-02  1.0000156681687619e-01  1.0000169830886935e-01  1.0000276661631331e-01  1.0000507425170009e-01  1.0000637611818670e-01  1.0000649145340185e-01  1.0001012608251499e-01  1.0000844727685541e-01  1.0001452506436363e-01  1.0000752120673556e-01  1.0002357467400753e-01  1.0000000000000003e-01  1.0000539475080630e-01  1.0000000000000003e-01  1.0000393697170677e-01  1.0000610670308653e-01  1.0000747377780833e-01  1.0000811100286472e-01  1.0000917296765723e-01  1.0001211535717373e-01  1.0001182293994282e-01  1.0001310943060060e-01  1.0001697083158595e-01  1.0001633098794721e-01  1.0001840833114081e-01  1.0002421927998321e-01  1.0002114764361032e-01  1.0002538938790535e-01  1.0002942202231338e-01  1.0003003607296128e-01  1.0002007414487941e-01  1.0005128906930240e-01  1.0003174002036176e-01  1.0004088415309723e-01  1.0005006638925711e-01  1.0004177199772651e-01  1.0005462788098310e-01  1.0006170497410946e-01  1.0006475810869370e-01  1.0005267034036304e-01  1.0010323426452167e-01  1.0001023693727906e-01  1.0017444502447759e-01  9.9968365411880380e-02  9.9935102497373890e-02  9.9933043952648057e-02  9.9964999502864638e-02  9.9951092296582889e-02  9.9949588085853344e-02  9.9971475897617582e-02  9.9967257191577605e-02  9.9968420702009730e-02  9.9966538409890435e-02  9.9985178196655033e-02  9.9968565938530207e-02  9.9988615199547173e-02  9.9982038028640891e-02  9.9985714095611758e-02  9.9992403884761660e-02  9.9993110464858648e-02  9.9993531309589379e-02  9.9998881179124782e-02  9.9999032951630942e-02  1.0000005276376088e-01  1.0000357876754624e-01  1.0000385306554327e-01  1.0000525125070206e-01  1.0000686377592753e-01  1.0000932192819591e-01  1.0000795098545390e-01  1.0001438919972000e-01  1.0000745881396395e-01  1.0002316500033442e-01  1.0000000000000003e-01  1.0000563696171715e-01  1.0000000000000003e-01  1.0000417165679741e-01  1.0000718985247098e-01  1.0000715823935317e-01  1.0000871533468961e-01  1.0001122685720054e-01  1.0001135892814891e-01  1.0001275352714149e-01  1.0001637017248738e-01  1.0001525605764536e-01  1.0001734108610394e-01  1.0002257771922111e-01  1.0002051869520849e-01  1.0002354363797616e-01  1.0002977394901884e-01  1.0002764283818526e-01  1.0002786844018116e-01  1.0004269881779401e-01  1.0001993299007293e-01  1.0005153882796211e-01  1.0004703789074912e-01  1.0004261297157552e-01  1.0004622088922771e-01  1.0006445068667884e-01  1.0004783396350282e-01  1.0006989441723782e-01  1.0006224433955062e-01  1.0008957911368255e-01  1.0001880740818475e-01  1.0017424414372544e-01  9.9958658407822726e-02  9.9924037227020646e-02  9.9945530058811821e-02  9.9955366707974211e-02  9.9938513533994605e-02  9.9963535471586595e-02  9.9958653269346984e-02  9.9958416214911250e-02  9.9974480409102368e-02  9.9978453295997194e-02  9.9956920876936625e-02  9.9991141530871464e-02  9.9974611156298590e-02  9.9981809134880861e-02  9.9986297283831266e-02  9.9989054252977341e-02  9.9988151222987917e-02  9.9995684043057531e-02  9.9995444480672074e-02  9.9996301132538046e-02  1.0000047668260574e-01  1.0000145035538373e-01  1.0000193176017072e-01  1.0000537421407207e-01  1.0000531503923915e-01  1.0000792647012376e-01  1.0000752220422923e-01  1.0001315631519711e-01  1.0000666792065210e-01  1.0002197440997321e-01  1.0000000000000003e-01  1.0000586948544064e-01  1.0000000000000003e-01  1.0000462002843007e-01  1.0000686084613578e-01  1.0000738006549934e-01  1.0001008395602767e-01  1.0001031856378587e-01  1.0001182964590144e-01  1.0001513880835888e-01  1.0001464813219975e-01  1.0001610638285305e-01  1.0002077601377922e-01  1.0001917582355459e-01  1.0002148107161261e-01  1.0002766739707740e-01  1.0002522700965531e-01  1.0002802858384663e-01  1.0003794302546409e-01  1.0002889093466176e-01  1.0004034225117711e-01  1.0003327060716551e-01  1.0005213400175794e-01  1.0004509126607670e-01  1.0005950351423785e-01  1.0004779246225065e-01  1.0005426639535213e-01  1.0007900298222160e-01  1.0004710624042119e-01  1.0009212260124337e-01  1.0003117820206563e-01  1.0015419801286170e-01  9.9974159631350659e-02  9.9900558815668491e-02  9.9939657169737142e-02  9.9944219934495565e-02  9.9951673117003856e-02  9.9955586355256379e-02  9.9948211551950439e-02  9.9967784842867044e-02  9.9969383649411533e-02  9.9965422189894709e-02  9.9985171324355956e-02  9.9966433654242987e-02  9.9983631089426442e-02  9.9980416211071371e-02  9.9987068640473270e-02  9.9981932891754305e-02  9.9992850100981787e-02  9.9991663990915899e-02  9.9992954033770370e-02  9.9998179726314557e-02  9.9998484898133941e-02  9.9999313584294675e-02  1.0000311120665953e-01  1.0000414183319191e-01  1.0000433474672253e-01  1.0000820559622624e-01  1.0000689203720822e-01  1.0001231624063590e-01  1.0000668409895483e-01  1.0002117809863229e-01  1.0000000000000003e-01  1.0000623001291510e-01  1.0000000000000003e-01  1.0000441252436955e-01  1.0000700800006024e-01  1.0000830016770999e-01  1.0000936364335566e-01  1.0001051763273729e-01  1.0001364423045300e-01  1.0001366977813675e-01  1.0001507180803378e-01  1.0001893825764475e-01  1.0001827404198126e-01  1.0001977521335308e-01  1.0002514474584613e-01  1.0002312171626740e-01  1.0002560225110567e-01  1.0003414017023060e-01  1.0002915215287619e-01  1.0003513745871317e-01  1.0004104403932061e-01  1.0004104889523577e-01  1.0002725354017211e-01  1.0007209458063446e-01  1.0004118670014898e-01  1.0005786019521205e-01  1.0006389359318296e-01  1.0006009294300659e-01  1.0005177090131397e-01  1.0010240416299053e-01  1.0001563711135061e-01  1.0015237204876302e-01  9.9982168088916759e-02  9.9892562178448024e-02  9.9924286605365786e-02  9.9956504714552544e-02  9.9947543489226104e-02  9.9944852225599831e-02  9.9959630229648627e-02  9.9962585939173024e-02  9.9957330917749734e-02  9.9977157537519817e-02  9.9975662105621407e-02  9.9977608743754526e-02  9.9972975228445116e-02  9.9990384804970023e-02  9.9975227606970113e-02  9.9991325021567518e-02  9.9986653493602237e-02  9.9989301411690101e-02  9.9994790029690139e-02  9.9995982488575663e-02  9.9996085572321453e-02  1.0000080117847225e-01  1.0000111921934245e-01  1.0000272895284676e-01  1.0000501157370206e-01  1.0000721521659757e-01  1.0000597511688170e-01  1.0001212064598901e-01  1.0000613462341520e-01  1.0002007282731289e-01  1.0000000000000003e-01  1.0000613099336027e-01  1.0000000000000003e-01  1.0000425679138775e-01  1.0000748378867200e-01  1.0000747172688657e-01  1.0000918684364435e-01  1.0001159763051097e-01  1.0001208331330343e-01  1.0001349149164193e-01  1.0001700754775363e-01  1.0001638843261729e-01  1.0001813772921242e-01  1.0002285855717745e-01  1.0002098663371564e-01  1.0002275754097749e-01  1.0002980749243449e-01  1.0002677916231995e-01  1.0003033505632204e-01  1.0003937517532889e-01  1.0003524621426688e-01  1.0003563519127423e-01  1.0005580161748931e-01  1.0002485394912984e-01  1.0006491074034889e-01  1