<?xml version="1.0"?>
<VTKFile type="UnstructuredGrid"  version="0.1"  >
<UnstructuredGrid>
<Piece  NumberOfPoints="1933" NumberOfCells="3640">
<Points>
<DataArray  type="Float64"  NumberOfComponents="3"  format="ascii">0.0003068158323827896 -0.00308419061946329 0  5.000306884487988 -0.003008154069677912 0  5.000192811929527 7.496992008777418 0  0.0001927179057045758 7.496915931628366 0  10.00030699970999 -0.002932239763401865 0  10.00019296680206 7.49706792933536 0  15.00030722667551 -0.002856440934401547 0  15.00019320685744 7.497143723990742 0  20.00030762095135 -0.002780708326812576 0  20.00019355195753 7.497219450200253 0  25.00030822472462 -0.002704970781144122 0  25.00019401756425 7.497295181882143 0  30.00030906796893 -0.002629144884099196 0  30.00019461400569 7.497371003214329 0  35.00031017067442 -0.00255313921876409 0  35.00019534592674 7.497447005647706 0  40.00031154486922 -0.002476855709762102 0  40.00019621190641 7.497523287042059 0  45.00031319607441 -0.002400189284059099 0  45.00019720405813 7.497599952183147 0  50.00031512413524 -0.002323026449845162 0  50.00019830743233 7.497677114257569 0  55.00031732345283 -0.002245243062892134 0  55.00019949907878 7.497754897085037 0  60.00031978262493 -0.002166701351292484 0  60.00020074662832 7.497833438060911 0  65.00032248346614 -0.002087246132807243 0  65.00020200623614 7.497912891877103 0  70.00032539929512 -0.002006700043275 0  70.00020321968567 7.497993435189199 0  75.00032849228522 -0.001924857471755746 0  75.00020431037376 7.498075272501566 0  80.000331709512 -0.001841476743648822 0  80.00020517777951 7.498158643665314 0  85.00033497710042 -0.001756269879044806 0  85.00020568986977 7.498243833538164 0  90.00033819146171 -0.00166888894327113 0  90.00020567266684 7.498331184551743 0  95.00034120593737 -0.001578907549010488 0  95.00020489593189 7.498421113166205 0  100.000343809949 -0.001485795395673727 0  100.0002030536267 7.498514131430659 0  105.0003456956109 -0.001388882760381817 0  105.0001997375782 7.498610874993467 0  110.000346402806 -0.001287310524598103 0  110.000194402951 7.498712138597681 0  115.0003452265078 -0.001179959708247888 0  115.0001863254751 7.498818918580511 0  120.0003410566394 -0.001065353161915479 0  120.0001745546773 7.49893245736939 0  125.0003320955963 -0.0009415231457811901 0  125.0001578787441 7.499054273456959 0  130.0003153513375 -0.0008058487251094563 0  130.0001348438715 7.49918613345148 0  135.0002857151467 -0.0006549074116713016 0  135.0001039329272 7.499329864345226 0  140.0002342643152 -0.0004845274707565715 0  140.0000641450328 7.499486790165568 0  145.0001450949959 -0.0002907407434186549 0  145.0000165190181 7.499656415692299 0  149.9999892311156 -7.439651664036546e-05 0  149.9999678468621 7.49983411745515 0  159.999999999998 8.965287092107272e-19 0  164.9999582790956 -0.0001195834115256144 0  164.9999950418961 7.499853831629352 0  159.9999972625235 7.499938881303483 0  169.9999588973113 -0.0001896503677026458 0  169.9999923746245 7.499797358262014 0  174.9999777064736 -0.0002251435748196153 0  174.9999941315586 7.499768158591197 0  180.000003411401 -0.0002354755516076925 0  180.0000001707416 7.499760997752077 0  185.0000306747884 -0.0002272295876282005 0  185.0000092207096 7.499770910637748 0  190.0000570357267 -0.0002051189169546134 0  190.0000200149547 7.499793919227876 0  195.0000814407484 -0.0001725438106960869 0  195.0000315734569 7.499826986583242 0  200.0001035229004 -0.0001319778135484516 0  200.0000432158681 7.499867826322057 0  205.0001232435234 -8.524069205565881e-05 0  205.0000545021846 7.499914717381399 0  210.0001407135846 -3.368927380798003e-05 0  210.000065166195 7.499966355904979 0  215.0001561048601 2.16501321927657e-05 0  215.0000750605881 7.500021744488948 0  220.000169606342 7.998984893146902e-05 0  220.0000841164968 7.500080111513519 0  225.0001814034938 0.0001407166614521114 0  225.0000923152825 7.50014085286339 0  230.000191669059 0.0002033465168563475 0  230.0000996694933 7.500203489759852 0  235.0002005596936 0.0002674921139108511 0  235.0001062102964 7.500267638039312 0  240.0002082155059 0.0003328393749604195 0  240.0001119793479 7.500332985551253 0  245.0002147610258 0.0003991301172441928 0  245.0001170236588 7.500399275348542 0  250.0002203068507 0.0004661491215464827 0  250.0001213924669 7.50046629305487 0  255.0002249516094 0.0005337143835591744 0  255.0001251354607 7.500533857294581 0  260.0002287840753 0.0006016697316809997 0  260.0001283019036 7.500601812421286 0  265.0002318853814 0.0006698792748412734 0  265.0001309403669 7.500670023035322 0  270.0002343313238 0.0007382233543712534 0  270.0001330988708 7.500738369972783 0  275.0002361947909 0.0008065958513824257 0  275.000134825265 7.500806747608791 0  280.0002375483343 0.0008749028771135425 0  280.0001361677278 7.500875062467018 0  285.000238466865 0.0009430630807291686 0  285.000137175255 7.500943233285299 0  290.0002390303005 0.001011010086379137 0  290.0001378979823 7.501011192866486 0  295.0002393257453 0.001078697965342095 0  295.0001383872418 7.501078892248358 0  300.0002394480817 0.0011461111919175 0  300.0001386953318 7.501146307940346 0  305.0002394965359 0.001213281106168668 0  305.0001388754744 7.501213453163604 0  310.0002395617655 0.001280310551256932 0  310.0001389837134 7.501280394351626 0  5.00007844984227 14.99699234892406 0  7.835691206914408e-05 14.99691622516942 0  10.00007857573918 14.99706825009151 0  15.0000787488408 14.99714400575154 0  20.00007897390217 14.99721969141558 0  25.00007925080649 14.9972953868652 0  30.00007957567078 14.99737117712977 0  35.0000799405898 14.99744715257137 0  40.00008033288375 14.99752340926734 0  45.00008073413417 14.99760004996632 0  50.00008111905257 14.99767718563568 0  55.0000814541313 14.99775493758134 0  60.0000816959913 14.9978334401533 0  65.00008178932676 14.99791284409729 0  70.00008166433796 14.99799332066442 0  75.00008123354687 14.99807506663823 0  80.0000803879031 14.99815831047911 0  85.00007899214539 14.9982433198037 0  90.00007687951282 14.99833041038454 0  95.00007384619576 14.9984199567007 0  100.0000696464756 14.99851240366061 0  105.0000639906184 14.99860827817648 0  110.0000565495566 14.99870819727655 0  115.000046973872 14.99881286542021 0  120.0000349402747 14.99892304587993 0  125.0000202474133 14.99903947649344 0  130.0000029941124 14.9991626741 0  134.9999838829345 14.99929252828464 0  139.9999646848405 14.99942751726817 0  144.9999488302963 14.99956327900411 0  149.9999418253857 14.99969006696355 0  164.9999830247865 14.99977971071134 0  159.9999773021326 14.99980897657219 0  169.9999818785203 14.99975665113274 0  174.999978964064 14.99974610067858 0  179.9999768439901 14.99974918178529 0  184.9999763882495 14.99976471084009 0  189.9999776322144 14.99979080512599 0  194.9999802769801 14.9998255697267 0  199.9999839377857 14.99986734019009 0  204.9999882527917 14.99991473577818 0  209.9999929217418 14.99996664028512 0  214.9999977122637 15.00002216075981 0  220.0000024529673 15.00008058436031 0  225.0000070224913 15.0001413404431 0  230.0000113385099 15.00020396953541 0  235.0000153482453 15.00026809876618 0  240.0000190208328 15.00033342270277 0  245.0000223414386 15.0003996884903 0  250.0000253068534 15.00046668434204 0  255.0000279222471 15.00053423062407 0  260.000030198829 15.00060217296537 0  265.0000321521588 15.00067037698041 0  270.0000338009545 15.00073872432509 0  275.0000351662204 15.0008071099141 0  280.0000362706156 15.00087544021983 0  285.0000371379974 15.00094363264194 0  290.0000377931555 15.00101161597189 0  295.0000382619365 15.00107933193282 0  300.0000385721698 15.00114673757113 0  305.0000387563421 15.00121380772241 0  310.0000388577074 15.00128053549674 0  4.999963965261291 22.49699295253897 0  -3.612097555583116e-05 22.49691687407795 0  9.999964056100353 22.49706877310991 0  14.99996415412088 22.49714443719462 0  19.99996425574695 22.49722003347874 0  24.99996435306102 22.49729564655341 0  29.99996443474583 22.49737136144217 0  34.99996448613994 22.49744726601482 0  39.99996448874737 22.49752345258778 0  44.99996441945239 22.49760001936894 0  49.99996424957419 22.49767707204647 0  54.99996394381265 22.4977547256551 0  59.99996345910949 22.49783310678206 0  64.99996274344349 22.49791235615167 0  69.99996173460758 22.49799263160876 0  74.99996035907688 22.49807411149733 0  79.99995853117659 22.49815699836862 0  84.99995615293351 22.49824152283214 0  89.99995311526628 22.49832794712384 0  94.99994930160294 22.49841656752713 0  99.99994459565833 22.49850771399548 0  104.9999388960428 22.49860174396219 0  109.99993214163 22.49869902501863 0  114.9999243530882 22.49879989739576 0  119.9999156972224 22.49890460139352 0  124.9999065805711 22.49901314666617 0  129.9998977742173 22.49912509033449 0  134.9998905574244 22.49923918373017 0  139.999886833707 22.49935285782213 0  144.9998891059437 22.49946158646965 0  149.9999000908891 22.49955841472238 0  164.9999380958763 22.49969488503162 0  159.9999309694076 22.4996862071248 0  169.9999389558575 22.49970125286444 0  174.9999361688077 22.49971124327949 0  179.9999319420884 22.49972783524412 0  184.9999276939373 22.49975197162011 0  189.9999241611124 22.49978345167692 0  194.9999216250458 22.49982154783804 0  199.9999201052418 22.49986535951925 0  204.9999194906059 22.49991399165347 0  209.9999196185664 22.49996663258949 0  214.9999203184967 22.50002257932407 0  219.9999214331117 22.5000812374513 0  224.9999228272108 22.50014211040182 0  229.9999243896379 22.5002047852845 0  234.9999260319124 22.50026891873964 0  239.9999276854651 22.50033422421538 0  244.9999292985029 22.50040046109836 0  249.9999308329943 22.50046742568995 0  254.999932262001 22.50053494384159 0  259.9999335673897 22.50060286502036 0  264.9999347379353 22.50067105758484 0  269.999935767753 22.50073940508582 0  274.9999366550274 22.50080780343799 0  279.9999374010231 22.50087615882887 0  284.9999380093904 22.50094438621826 0  289.9999384858783 22.50101240821332 0  294.999938838664 22.50108015393045 0  299.9999
[...]
<PointData  Scalars="p"> 
<DataArray  type="Float64"  Name="p"  format="ascii">1.0000000000000001e-01  1.0000000000000003e-01  9.9996101381778474e-02  1.0000000000000003e-01  1.0000000000000003e-01  9.9995467725304543e-02  1.0000000000000003e-01  9.9993155742565634e-02  1.0000000000000003e-01  9.9991981773690175e-02  1.0000000000000003e-01  9.9990315220516240e-02  1.0000000000000003e-01  9.9987577770246555e-02  1.0000000000000003e-01  9.9986353188091209e-02  1.0000000000000003e-01  9.9984476830421637e-02  1.0000000000000003e-01  9.9981389602979601e-02  1.0000000000000003e-01  9.9980933256621482e-02  1.0000000000000003e-01  9.9973275696405517e-02  1.0000000000000003e-01  9.9969049313175726e-02  1.0000000000000003e-01  9.9964528862859586e-02  1.0000000000000003e-01  9.9960885458214077e-02  1.0000000000000003e-01  9.9953508502549346e-02  1.0000000000000003e-01  9.9950525321271744e-02  1.0000000000000003e-01  9.9945098316488526e-02  1.0000000000000003e-01  9.9936770311845793e-02  1.0000000000000003e-01  9.9934304417932079e-02  1.0000000000000003e-01  9.9926007279335261e-02  1.0000000000000003e-01  9.9920952180098679e-02  1.0000000000000003e-01  9.9911891182278792e-02  1.0000000000000003e-01  9.9914022752026863e-02  1.0000000000000003e-01  9.9891348693021340e-02  1.0000000000000003e-01  9.9912113589627885e-02  1.0000000000000003e-01  9.9865841027043420e-02  1.0000000000000003e-01  9.9918416163744694e-02  1.0000000000000003e-01  9.9830592433996154e-02  1.0000000000000003e-01  9.9935654335267868e-02  1.0000000000000001e-01  9.9770846532063542e-02  1.0000000000000001e-01  1.0000000000000003e-01  1.0018602480041917e-01  1.0038242929328441e-01  1.0000000000000003e-01  1.0005421706941608e-01  1.0000000000000003e-01  1.0014695582383613e-01  1.0000000000000003e-01  1.0009711357468787e-01  1.0000000000000003e-01  1.0011209303977171e-01  1.0000000000000003e-01  1.0009924024313137e-01  1.0000000000000003e-01  1.0010533658370156e-01  1.0000000000000003e-01  1.0009447605848401e-01  1.0000000000000003e-01  1.0009611597792203e-01  1.0000000000000003e-01  1.0009245614761778e-01  1.0000000000000003e-01  1.0008928507131387e-01  1.0000000000000003e-01  1.0008695886634847e-01  1.0000000000000003e-01  1.0008541678615326e-01  1.0000000000000003e-01  1.0008220618841955e-01  1.0000000000000003e-01  1.0008069571074105e-01  1.0000000000000003e-01  1.0007904686275247e-01  1.0000000000000003e-01  1.0007700132934497e-01  1.0000000000000003e-01  1.0007550176683314e-01  1.0000000000000003e-01  1.0007451362762727e-01  1.0000000000000003e-01  1.0007257296602177e-01  1.0000000000000003e-01  1.0007216329874738e-01  1.0000000000000003e-01  1.0007006434813275e-01  1.0000000000000003e-01  1.0007086723003900e-01  1.0000000000000003e-01  1.0006667829542348e-01  1.0000000000000003e-01  1.0007171857568041e-01  1.0000000000000003e-01  1.0006097049752699e-01  1.0000000000000003e-01  1.0007699743504167e-01  1.0000000000000003e-01  1.0004862374548053e-01  1.0000000000000003e-01  1.0009713007380364e-01  1.0000000000000001e-01  1.0000000000000003e-01  9.9993581070436613e-02  1.0000000000000003e-01  9.9993639669387291e-02  9.9993181878062290e-02  9.9992295251766200e-02  9.9989980428777825e-02  9.9990150667024352e-02  9.9989715974385704e-02  9.9986366886103129e-02  9.9987916728835405e-02  9.9986576293015772e-02  9.9983518208837413e-02  9.9975620211701310e-02  9.9977906418474594e-02  9.9969368232766448e-02  9.9973110505318846e-02  9.9969817657113103e-02  9.9963104948772058e-02  9.9965013949330647e-02  9.9962808821892388e-02  9.9952753320157392e-02  9.9959058987247842e-02  9.9950228627165211e-02  9.9951020026629478e-02  9.9940779518046002e-02  9.9959907855312016e-02  9.9913955088424516e-02  9.9989027761604440e-02  9.9858252651780346e-02  1.0005779789067319e-01  9.9767487862437734e-02  9.9838391243048233e-02  1.0058601116675529e-01  1.0017588329542756e-01  1.0002789668165213e-01  1.0005170594578751e-01  1.0004157618560969e-01  1.0006177202519095e-01  1.0003805679626883e-01  1.0004976026101491e-01  1.0004680752945722e-01  1.0004209491881430e-01  1.0004186809796613e-01  1.0004245486430476e-01  1.0003756250799557e-01  1.0003746878085779e-01  1.0003692011754259e-01  1.0003407875289791e-01  1.0003352692706875e-01  1.0003298271307283e-01  1.0003121990301214e-01  1.0003034824624488e-01  1.0003035614879206e-01  1.0002814683124175e-01  1.0002911760922349e-01  1.0002604686997482e-01  1.0002953204138276e-01  1.0002127627717024e-01  1.0003484036032337e-01  1.0001012523798064e-01  1.0004736297663049e-01  1.0000000000000003e-01  9.9990520828900586e-02  1.0000000000000003e-01  9.9993590275117533e-02  9.9990459231384471e-02  9.9988071956774838e-02  9.9987617272612933e-02  9.9987139477862433e-02  9.9982258235943450e-02  9.9983413366113383e-02  9.9983146255957195e-02  9.9977577746977200e-02  9.9976395763081871e-02  9.9980068721722229e-02  9.9957164256901015e-02  9.9965008440928163e-02  9.9960221954158768e-02  9.9949823419081998e-02  9.9954581276592874e-02  9.9950283023933620e-02  9.9937156410811828e-02  9.9942209735028639e-02  9.9938997803730362e-02  9.9920562332462659e-02  9.9935912220143142e-02  9.9915448822882447e-02  9.9927632152206597e-02  9.9895837561413944e-02  9.9953476045291437e-02  9.9829381289218505e-02  1.0005351992218374e-01  9.9635164660167849e-02  9.9883274482366655e-02  1.0054234297919930e-01  1.0028229074930654e-01  1.0005869203024960e-01  1.0007392235403294e-01  1.0012043853389836e-01  1.0005707393614303e-01  1.0009274714540720e-01  1.0008495931089335e-01  1.0007549233099848e-01  1.0007669567149162e-01  1.0007943268351310e-01  1.0006939857146785e-01  1.0007065843234327e-01  1.0006998306854749e-01  1.0006435641588207e-01  1.0006369195995249e-01  1.0006332187125068e-01  1.0005939437473375e-01  1.0005885103691570e-01  1.0005795063147979e-01  1.0005590210855314e-01  1.0005433420169278e-01  1.0005502686833162e-01  1.0005091100739646e-01  1.0005423045750170e-01  1.0004686658147334e-01  1.0005714936658477e-01  1.0003570358067509e-01  1.0007496050666873e-01  1.0000000000000003e-01  9.9988639104331103e-02  1.0000000000000003e-01  9.9992724353863402e-02  9.9987365463579059e-02  9.9987915964303883e-02  9.9987379218939784e-02  9.9982308412348356e-02  9.9983653723013100e-02  9.9983665073596947e-02  9.9977405798228627e-02  9.9980008011699956e-02  9.9980289902182745e-02  9.9966884932234601e-02  9.9978880306982473e-02  9.9960328562266429e-02  9.9954319059339922e-02  9.9958113226109729e-02  9.9957991228583842e-02  9.9942153952133170e-02  9.9952787685727115e-02  9.9946202352370103e-02  9.9933687525438616e-02  9.9938875956606457e-02  9.9942619793499693e-02  9.9912021718013264e-02  9.9952380301039909e-02  9.9894472858357022e-02  9.9974973067383552e-02  9.9828799806493743e-02  1.0008919836803798e-01  9.9612647843657143e-02  9.9879336222653367e-02  1.0066895594260220e-01  1.0018755059910753e-01  1.0001773582010540e-01  1.0019065782287227e-01  9.9998607961663807e-02  1.0009209987355017e-01  1.0006762912546319e-01  1.0006261089364735e-01  1.0006186663336468e-01  1.0007127346144175e-01  1.0005485207920869e-01  1.0005970320099390e-01  1.0005958413641396e-01  1.0005220659015808e-01  1.0005194394467871e-01  1.0005209938306031e-01  1.0004680985355185e-01  1.0004635256075088e-01  1.0004612768004999e-01  1.0004253342678306e-01  1.0004237462130655e-01  1.0004095247491161e-01  1.0004024807527601e-01  1.0003692146083931e-01  1.0004082797414157e-01  1.0003136026512222e-01  1.0004439167377524e-01  1.0002094614332813e-01  1.0005701228581897e-01  1.0000000000000003e-01  9.9986706640208284e-02  1.0000000000000003e-01  9.9990728243087260e-02  9.9986997712854145e-02  9.9987844298672149e-02  9.9981743288552180e-02  9.9983277989722716e-02  9.9982533444549535e-02  9.9975735306570626e-02  9.9978696901858663e-02  9.9979251720121190e-02  9.9967591798278063e-02  9.9974093571232353e-02  9.9968853622633497e-02  9.9965477473629938e-02  9.9951667908898575e-02  9.9956426094255812e-02  9.9937302493046928e-02  9.9949937210612932e-02  9.9945923333833328e-02  9.9926196243048479e-02  9.9941773976483905e-02  9.9931456120793266e-02  9.9920558547707886e-02  9.9920266648743206e-02  9.9940808697690883e-02  9.9876958827121790e-02  9.9979731314948542e-02  9.9806707933873459e-02  1.0010440474168679e-01  9.9549555123644717e-02  9.9767135910824728e-02  1.0075800992392540e-01  1.0024218863392886e-01  1.0007886205286459e-01  1.0010828469501849e-01  1.0011106358908671e-01  1.0008154788219902e-01  1.0007712909455257e-01  1.0006798252462788e-01  1.0009413427963779e-01  1.0006366754198094e-01  1.0007493660565898e-01  1.0007525424092599e-01  1.0006476712305039e-01  1.0006533478076829e-01  1.0006691704059345e-01  1.0005849822478546e-01  1.0005853232187270e-01  1.0005835920997720e-01  1.0005352427372927e-01  1.0005264209248153e-01  1.0005274656380674e-01  1.0004872184334158e-01  1.0004929018839333e-01  1.0004642159988461e-01  1.0004806073007039e-01  1.0004078361893355e-01  1.0005163546561283e-01  1.0002923489477430e-01  1.0006639667469207e-01  1.0000000000000003e-01  9.9984414318825029e-02  1.0000000000000003e-01  9.9990648650524261e-02  9.9986438888022694e-02  9.9983717114051018e-02  9.9983175603544694e-02  9.9983082075667390e-02  9.9976098396845889e-02  9.9978074790846333e-02  9.9979114748227543e-02  9.9969178834771785e-02  9.9973356308480116e-02  9.9972264406201675e-02  9.9960979738874536e-02  9.9963763380914061e-02  9.9975696589829771e-02  9.9931750045625656e-02  9.9952880526642585e-02  9.9946153116330774e-02  9.9928248316658363e-02  9.9942374606274323e-02  9.9941238223310622e-02  9.9911600850794924e-02  9.9940985515997949e-02  9.9917765863295344e-02  9.9925844390857582e-02  9.9891773925877766e-02  9.9983680149859200e-02  9.9785963923050627e-02  1.0014150094001105e-01  9.9498331837790138e-02  9.9775190701314506e-02  1.0073461976247076e-01  1.0029544898878782e-01  9.9983026748552084e-02  1.0013193714265681e-01  1.0010549984435818e-01  1.0011434491719375e-01  1.0003636785171841e-01  1.0011095147137350e-01  1.0004785885160390e-01  1.0007677423632109e-01  1.0007478552362037e-01  1.0006202289836184e-01  1.0006286639535775e-01  1.0006772257242127e-01  1.0005560444821035e-01  1.0005703930856076e-01  1.0005751880963545e-01  1.0005026703683136e-01  1.0005005130557912e-01  1.0004999313344431e-01  1.0004575783656118e-01  1.0004445648398282e-01  1.0004543031788699e-01  1.0004010479467008e-01  1.0004354140894985e-01  1.0003573549941221e-01  1.0004604927366988e-01  1.0002445438615741e-01  1.0005925739875050e-01  1.0000000000000003e-01  9.9983159747729020e-02  1.0000000000000003e-01  9.9990487801285541e-02  9.9982611207151212e-02  9.9984642410819682e-02  9.9983175313289818e-02  9.9977203343335749e-02  9.9977867891608105e-02  9.9978907378121776e-02  9.9969030363798478e-02  9.9973428248968293e-02  9.9973178773486618e-02  9.9959681998954969e-02  9.9965572858730561e-02  9.9969472761854555e-02  9.9945521453809069e-02  9.9971714427952357e-02  9.9940974651024139e-02  9.9927477307961865e-02  9.9941221395159374e-02  9.9939352942700607e-02  9.9914842356177924e-02  9.9932657484855691e-02  9.9935170366258513e-02  9.9892278420362871e-02  9.9945711450226529e-02  9.9884991797301703e-02  9.9963833829903467e-02  9.9794935516436242e-02  1.0014894877349159e-01  9.9447203819426760e-02  9.9791985811044995e-02  1.0079319728207954e-01  1.0024112124094139e-01  1.0000666078115637e-01  1.0016925441978006e-01  1.0006107557112916e-01  1.0009972762113580e-01  1.0014369181301831e-01  1.0003759092609410e-01  1.0008849235254212e-01  1.0007785415724559e-01  1.0007016840107950e-01  1.0006698307082261e-01  1.0007759621714377e-01  1.0006024331230201e-01  1.0006369108902156e-01  1.0006519067061251e-01  1.0005627783617520e-01  1.0005566573672271e-01  1.0005648938396675e-01  1.0004996362045206e-01  1.0004991238892279e-01  1.0004900472373103e-01  1.0004642978743804e-01  1.0004356543384900e-01  1.0004662846254478e-01  1.0003785025503741e-01  1.0004841830392230e-01  1.0002731516201188e-01  1.0006153644112650e-01  1.0000000000000003e-01  9.9982064435922710e-02  1.0000000000000003e-01  9.9988468302913774e-02  9.9982948328290841e-02  9.9984859352681144e-02  9.9978100500895700e-02  9.9979361948232953e-02  9.9979255745522619e-02  9.9970213609046552e-02  9.9973760877239304e-02  9.9974373502171088e-02  9.9960997068797311e-02  9.9966613257246581e-02  9.9968036313138414e-02  9.9949301926486558e-02  9.9964716782528829e-02  9.9957496994276168e-02  9.9952236151380089e-02  9.9934375329899600e-02  9.9943730920650023e-02  9.9909902755731181e-02  9.9939599744654925e-02  9.9928788520329631e-02  9.9907543364887719e-02  9.9918896468180807e-02  9.9943429857937346e-02  9.9857058280140673e-02  9.9990862713679476e-02  9.9784647744953311e-02  1.0014465907171681e-01  9.9431675787327811e-02  9.9722656600357992e-02  1.0085578202288985e-01  1.0026958836141997e-01  1.0003409362341015e-01  1.0011731044625148e-01  1.0006209093766773e-01  1.0013491113969188e-01  1.0007143401839728e-01  1.0011906102177287e-01  1.0006246156683574e-01  1.0007862144819352e-01  1.0005818801584500e-01  1.0008554374829030e-01  1.0005754923959725e-01  1.0006526905874215e-01  1.0006744156319665e-01  1.0005646333792440e-01  1.0005664333886713e-01  1.0005894640411463e-01  1.0005016787147891e-01  1.0004971585355414e-01  1.0005040994005893e-01  1.0004447589667576e-01  1.0004505166430203e-01  1.0004266218157798e-01  1.0004315357926763e-01  1.0003601283369352e-01  1.0004640114134215e-01  1.0002500058631658e-01  1.0005821930262281e-01  1.0000000000000003e-01  9.9980406256659438e-02  1.0000000000000003e-01  9.9988773551671822e-02  9.9983000696457283e-02  9.9980997540616567e-02  9.9979549421412364e-02  9.9980613002985927e-02  9.9972107758521528e-02  9.9974306752392703e-02  9.9975157154431157e-02  9.9963853588365584e-02  9.9967161857501971e-02  9.9968732643311006e-02  9.9951582325714980e-02  9.9961719292138984e-02  9.9962206209932680e-02  9.9944290730618363e-02  9.9952465984604971e-02  9.9971378031356875e-02  9.9904310577109828e-02  9.9938698399457362e-02  9.9933120793902028e-02  9.9897640152370709e-02  9.9936839790027113e-02  9.9916480175431283e-02  9.9908187438687290e-02  9.9888752908307205e-02  9.9987995924105635e-02  9.9752159373516502e-02  1.0017702457228249e-01  9.9405491696849285e-02  9.9719150234855281e-02  1.0084213161421526e-01  1.0030845076849569e-01  9.9983277279038205e-02  1.0013186851439049e-01  1.0009675901937250e-01  1.0008566934988575e-01  1.0008519759477778e-01  1.0011446591441021e-01  1.0010469839463058e-01  1.0004372140682211e-01  1.0009960253936234e-01  1.0005218555654094e-01  1.0007105313626509e-01  1.0007142353052234e-01  1.0005959308637163e-01  1.0005883547063243e-01  1.0006415338296305e-01  1.0005279382499528e-01  1.0005357056938893e-01  1.0005410427855922e-01  1.0004740935900004e-01  1.0004612235769378e-01  1.0004751061637009e-01  1.0004108986621148e-01  1.0004395586994649e-01  1.0003735979699650e-01  1.0004558639900159e-01  1.0002586617150096e-01  1.0005815048567315e-01  1.0000000000000003e-01  9.9979759559221476e-02  1.0000000000000003e-01  9.9988952362723607e-02  9.9979732284961875e-02  9.9982143474977678e-02  9.9980420563556466e-02  9.9974511423054566e-02  9.9975152718761354e-02  9.9976219380236542e-02  9.9965921558870185e-02  9.9969086142548610e-02  9.9970367704005636e-02  9.9954053685268593e-02  9.9961314621576036e-02  9.9963782096908246e-02  9.9943763811667530e-02  9.9955268450478321e-02  9.9963523908011040e-02  9.9925560292476470e-02  9.9969566461858811e-02  9.9924883204069420e-02  9.9904552130998053e-02  9.9926361911655687e-02  9.9934567583160147e-02  9.9877092678478940e-02  9.9947083665871378e-02  9.9885888813580737e-02  9.9950182106569918e-02  9.9785669459764692e-02  1.0017868274494021e-01  9.9362078415940303e-02  9.9734455275002701e-02  1.0086630029363809e-01  1.0027490701364679e-01  9.9987878539928771e-02  1.0016458690095735e-01  1.0005175268012281e-01  1.0009442062181506e-01  1.0010299961790080e-01  1.0008507075940550e-01  1.0007971233890721e-01  1.0012916506693027e-01  1.0003567951447664e-01  1.0007887235679064e-01  1.0006736833345864e-01  1.0006339645940382e-01  1.0005760708531475e-01  1.0006777900370346e-01  1.0005269728099120e-01  1.0005454996629515e-01  1.0005693747125823e-01  1.0004848455714435e-01  1.0004777489966152e-01  1.0004791395846685e-01  1.0004327787973868e-01  1.0004068034056313e-01  1.0004379776569232e-01  1.0003479741771466e-01  1.0004429841702031e-01  1.0002518642577352e-01  1.0005571448643291e-01  1.0000000000000003e-01  9.9979253660702677e-02  1.0000000000000003e-01  9.9987428369336662e-02  9.9980409471494905e-02  9.9983011611125897e-02  9.9975900101141268e-02  9.9977046556955301e-02  9.9976965653755231e-02  9.9968567194018199e-02  9.9970755124457203e-02  9.9972496675703432e-02  9.9957936656950158e-02  9.9963025811209333e-02  9.9964737863112219e-02  9.9946042523250261e-02  9.9956638218927474e-02  9.9960942595466368e-02  9.9933069567049088e-02  9.9957718355767625e-02  9.9950214706980678e-02  9.9937494155466669e-02  9.9922542035996514e-02  9.9930486044065667e-02  9.9888950242094265e-02  9.9921254469181223e-02  9.9941773140194021e-02  9.9842444799102023e-02  9.9991874156975150e-02  9.9786505989666957e-02  1.0013730408583613e-01  9.9393797068556847e-02  9.9692598875159688e-02  1.0090859151314842e-01  1.0028169487434679e-01  1.0001339527249284e-01  1.0012912150049411e-01  1.0005713872283220e-01  1.0012170755706501e-01  1.0007042009577621e-01  1.0008099889069408e-01  1.0010594765714377e-01  1.0007490354522244e-01  1.0010234486469170e-01  1.0005597648101640e-01  1.0007123414858513e-01  1.0005169809295821e-01  1.0007450586276918e-01  1.0005193948228842e-01  1.0005666257420918e-01  1.0005924196834917e-01  1.0004994142917656e-01  1.0004943527402119e-01  1.0005210492133731e-01  1.0004358462179805e-01  1.0004401837342679e-01  1.0004237286174203e-01  1.0004121814259312e-01  1.0003485905674954e-01  1.0004428312034321e-01  1.0002445003002015e-01  1.0005460145963149e-01  1.0000000000000003e-01  9.9978101224797514e-02  1.0000000000000003e-01  9.9987807740522128e-02  9.9980872997280631e-02  9.9979734216889243e-02  9.9977469230756760e-02  9.9978734142781550e-02  9.9970641851158309e-02  9.9972137623860077e-02  9.9973751562301968e-02  9.9962325847837319e-02  9.9964945069324920e-02  9.9966879433993669e-02  9.9949977894283962e-02  9.9956800940183194e-02  9.9961706780126947e-02  9.9937245494912896e-02  9.9953712184300894e-02  9.9956134628731111e-02  9.9929737322324977e-02  9.9943604396629013e-02  9.9973768087489173e-02  9.9873731483826722e-02  9.9937769501052834e-02  9.9913805828810237e-02  9.9892027289309432e-02  9.9895301652488916e-02  9.9988777761308614e-02  9.9738098622741467e-02  1.0017953029803811e-01  9.9398626537203924e-02  9.9678392501119664e-02  1.0089154184677175e-01  1.0031235195220735e-01  9.9979929822610211e-02  1.0013052867202327e-01  1.0008345708611827e-01  1.0008992705388123e-01  1.0007028883397098e-01  1.0010645128999440e-01  1.0006941631336036e-01  1.0007976222668685e-01  1.0009278012432440e-01  1.0009418995579542e-01  1.0003622334914072e-01  1.0008389880928159e-01  1.0004557540506274e-01  1.0005954484323558e-01  1.0006000900509618e-01  1.0005072376736258e-01  1.0004919103964807e-01  1.0005379569699963e-01  1.0004509516115151e-01  1.0004451540085511e-01  1.0004599294762771e-01  1.0003845315615804e-01  1.0004061831269725e-01  1.0003524019581678e-01  1.0004150743921918e-01  1.0002391352161423e-01  1.0005278988580239e-01  1.0000000000000003e-01  9.9977876343275388e-02  1.0000000000000003e-01  9.9988261951371407e-02  9.9978389377450544e-02  9.9981032559668753e-02  9.9978783045874958e-02  9.9973768700609728e-02  9.9973535485093565e-02  9.9974830122141756e-02  9.9965310862196760e-02  9.9967769984250984e-02  9.9969155845829702e-02  9.9954385142522820e-02  9.9958789404719625e-02  9.9963200645510328e-02  9.9941721318425492e-02  9.9952485153015760e-02  9.9959018504675284e-02  9.9929732111114944e-02  9.9948323284355725e-02  9.9960905837815917e-02  9.9907897266630435e-02  9.9968555310708668e-02  9.9920594070546931e-02  9