<?xml version="1.0"?>
<VTKFile type="UnstructuredGrid"  version="0.1"  >
<UnstructuredGrid>
<Piece  NumberOfPoints="1933" NumberOfCells="3640">
<Points>
<DataArray  type="Float64"  NumberOfComponents="3"  format="ascii">-0.4752523275236639 -0.002661807708275545 0  4.52474772743612 -0.002593681191424309 0  4.524645516977913 7.497406445614071 0  -0.4753545556964776 7.497338291345002 0  9.524747821651491 -0.002525647590801515 0  9.524645635208957 7.497474481988637 0  14.52474800466936 -0.002457694353685813 0  14.52464581621496 7.497542430811202 0  19.52474831693964 -0.002389777993681016 0  19.52464607339 7.497610341506555 0  24.52474878773675 -0.002321839572651582 0  24.52464641631676 7.497678274903119 0  29.52474943645398 -0.002253811761503663 0  29.52464685021777 7.497746298772729 0  34.52475027447151 -0.002185621805800131 0  34.52464737554278 7.497814485803001 0  39.52475130672436 -0.002117192330962101 0  39.52464798765874 7.497882913139642 0  44.52475253275197 -0.002048440920922214 0  44.5246486764963 7.49795166292993 0  49.52475394721609 -0.001979278923029533 0  49.52464942601631 7.498020823549451 0  54.52475553991913 -0.001909609676580631 0  54.52465021338655 7.498090491365562 0  59.52475729533379 -0.001839326212527359 0  59.52465100776325 7.498160773006838 0  64.52475919161799 -0.001768308370136738 0  64.52465176855334 7.498231788193024 0  69.52476119902052 -0.001696419190724842 0  69.52465244300176 7.498303673253869 0  74.52476327750749 -0.001623500357743263 0  74.52465296288234 7.498376585540779 0  79.52476537330871 -0.001549366337808862 0  79.52465323998324 7.498450709025391 0  84.52476741389452 -0.001473796717999074 0  84.52465315995691 7.498526261491007 0  89.52476930056615 -0.001396526003754471 0  89.52465257393287 7.49860350386358 0  94.52477089730189 -0.001317229801970319 0  94.52465128708458 7.498682752392967 0  99.52477201353278 -0.001235505816416392 0  99.52464904312413 7.498764394550181 0  104.5247723768187 -0.001150847372900932 0  104.5246455035352 7.49884890955343 0  109.5247715882684 -0.001062606239014271 0  109.5246402205397 7.498936894108321 0  114.5247690478491 -0.0009699404021107892 0  114.5246326039129 7.499029092616073 0  119.5247638261228 -0.0008717417350770954 0  119.5246218852565 7.499126427314354 0  124.5247544392223 -0.0007665398970820383 0  124.5246070924534 7.499230014384326 0  129.5247384469981 -0.0006523879102902112 0  129.5245870686384 7.499341130284249 0  134.5247117252329 -0.0005267686376012758 0  134.5245606188664 7.499461045498246 0  139.5246671323939 -0.0003866758284930104 0  139.5245269746399 7.499590550870897 0  144.5245920352999 -0.0002294260917121838 0  144.5244869997601 7.499728866760165 0  149.5244635871723 -5.633602811928529e-05 0  149.5244460966242 7.499871694445472 0  159.5244717418519 1.277385345042012e-18 0  164.5244485693503 -8.383427037853745e-05 0  164.5244696894676 7.499896343519696 0  159.5244679257062 7.499954272922502 0  169.5244554926838 -0.0001286705913504244 0  169.5244710489433 7.499861712649321 0  174.5244747769917 -0.0001464115970929863 0  174.5244754614804 7.499848680167711 0  179.5244982418309 -0.0001445350014182388 0  179.5244827536512 7.499852915746771 0  184.5245221034714 -0.000128232012033789 0  184.524491964613 7.499870450109126 0  189.5245446798698 -0.0001011965902121489 0  189.5245021644275 7.499898143351588 0  194.5245653035508 -6.608246949754514e-05 0  194.5245126488091 7.499933614441702 0  199.5245837922815 -2.48146758214362e-05 0  199.524522940845 7.499975078168732 0  204.5246001886494 2.11933177772427e-05 0  204.5245327426533 7.500021194428537 0  209.5246146318616 7.088913467473152e-05 0  209.5245418838589 7.500070950015203 0  214.5246272951861 0.0001234777006631802 0  214.5245502799294 7.500123571110363 0  219.5246383561058 0.0001783494843097953 0  219.5245579018707 7.500178459918803 0  224.5246479827912 0.0002350304946194538 0  224.5245647553295 7.500235149055623 0  229.524656328683 0.0002931470278308232 0  229.5245708666548 7.500293268617411 0  234.52466353106 0.0003524004622976459 0  234.5245762738272 7.500352522225196 0  239.524669711523 0.0004125489672714837 0  239.5245810206904 7.500412669414667 0  244.5246749773642 0.0004733940344254525 0  244.5245851533994 7.500473512548001 0  249.5246794233097 0.0005347704308855831 0  249.5245887183366 7.500534886984937 0  254.5246831334085 0.0005965386311993595 0  254.5245917610114 7.500596653644451 0  259.5246861829551 0.0006585790962087433 0  259.5245943256028 7.500658693363637 0  264.5246886404468 0.0007207879850108461 0  264.5245964549358 7.500720902659147 0  269.5246905695589 0.0007830740506236645 0  269.5245981907356 7.500783190647272 0  274.5246920311924 0.0008453566090518396 0  274.5245995740435 7.500845477004302 0  279.5246930855951 0.0009075646097141581 0  279.5246006456966 7.500907690965814 0  284.5246937945482 0.0009696369974684139 0  284.5246014467729 7.500969771487153 0  289.5246942234636 0.001031524772210052 0  289.5246020188837 7.501031668826004 0  294.5246944430484 0.001093195453760262 0  294.5246024042394 7.501093347964271 0  299.5246945296067 0.001154641062402376 0  299.5246026454694 7.501154794444505 0  304.5246945620113 0.001215891106460814 0  304.5246027855901 7.501216023328917 0  309.5246946109571 0.001277031574175933 0  309.5246028694971 7.501277092233824 0  4.524543097242426 14.99740670770416 0  -0.4754569736414928 14.99733852912362 0  9.524543190238441 14.99747472222326 0  14.52454331435225 14.99754263694843 0  19.5245434714404 14.99761051390576 0  24.5245436595614 14.99767841759607 0  29.52454387369366 14.99774641591815 0  34.5245441054559 14.99781458038585 0  39.52454434247266 14.99788298654741 0  44.52454456758623 14.99795171481293 0  49.52454475793915 14.99802085170163 0  54.52454488388477 14.99809049149431 0  59.52454490765691 14.99816073830103 0  64.52454478172442 14.99823170858901 0  69.524544446747 14.99830353425202 0  74.52454382905738 14.99837636633584 0  79.5245428376052 14.99845037955936 0  84.52454136034929 14.99852577777651 0  89.52453926019139 14.99860280048703 0  94.52453637078634 14.99868173036516 0  99.52453249301324 14.99876290142988 0  104.5245273937867 14.99884670670553 0  109.5245208104435 14.99893360260985 0  114.5245124666873 14.99902410409011 0  119.5245021105077 14.99911875834578 0  124.5244895911889 14.9992180735367 0  129.5244750010881 14.99932235866172 0  134.524458914914 14.99943139731276 0  139.5244427522932 14.99954382755915 0  144.5244292317514 14.99965603109737 0  149.5244226728454 14.99976020890066 0  164.5244544670004 14.99984131637343 0  159.5244490580172 14.99985671980061 0  169.5244548646481 14.99983183817504 0  174.5244540320877 14.99983272269056 0  179.5244538140334 14.99984453782902 0  184.5244548021976 14.99986618966537 0  189.5244569845553 14.99989611919059 0  194.5244601162696 14.99993280167371 0  199.5244639004988 14.9999749155379 0  204.5244680654763 15.00002137289747 0  209.5244723902945 15.0000712987414 0  214.5244767074963 15.00012399563146 0  219.5244808965401 15.00017890839924 0  224.5244848747516 15.00023559369502 0  229.5244885885885 15.00029369531212 0  234.5244920062542 15.00035292476533 0  239.5244951118384 15.00041304620268 0  244.5244979008535 15.00047386473798 0  249.5245003769295 15.00053521743493 0  254.5245025494083 15.00059696633853 0  259.5245044316305 15.00065899310348 0  264.5245060397194 15.00072119489456 0  269.524507391732 15.00078348134075 0  274.5245085070582 15.00084577241017 0  279.5245094059822 15.00090799714469 0  284.5245101093892 15.00097009324796 0  289.5245106386039 15.00103200754682 0  294.5245110155486 15.00109369731184 0  299.5245112635391 15.00115513226458 0  304.5245114094773 15.0012162966808 0  309.5245114887853 15.00127719005774 0  4.524440615272264 22.4974071650338 0  -0.4755594499898481 22.49733903975315 0  9.524440680584858 22.49747510591821 0  14.52444074582549 22.49754294266966 0  19.52444080661429 22.49761074561582 0  24.52444085543102 22.49767858170742 0  29.52444088216559 22.49774651798674 0  34.52444087405072 22.49781462345917 0  39.5244408152173 22.49788297034828 0  44.52444068605094 22.49795163522609 0  49.52444046244221 22.49802070023986 0  54.5244401149675 22.49809025452983 0  59.52443960801438 22.49816039588088 0  64.52443889887026 22.4982312326309 0  69.52443793681472 22.49830288584356 0  74.52443666230701 22.49837549173047 0  79.52443500644497 22.49844920425519 0  84.52443289100434 22.4985241977505 0  89.5244302295915 22.49860066918503 0  94.52442693077879 22.49867883936236 0  99.52442290460014 22.49875895170757 0  104.5244180745156 22.49884126621903 0  109.5244123979212 22.49892604435402 0  114.5244058994016 22.4990135177035 0  119.5243987218171 22.49910382885297 0  124.5243912000169 22.49919692658918 0  129.5243839582193 22.49929239034302 0  134.5243780205427 22.49938915428836 0  139.5243748972952 22.4994851119424 0  144.524376557638 22.4995766408029 0  149.5243851192249 22.49965828718696 0  164.5244131812873 22.49977817287754 0  159.5244080080117 22.49976433262666 0  169.5244138188007 22.49979107627352 0  174.5244118925579 22.4998074225314 0  179.524409029749 22.49982931560849 0  184.5244062520907 22.49985732918305 0  189.5244040715671 22.4998911987493 0  194.5244026660405 22.49993028841782 0  199.5244020254111 22.49997385373237 0  204.5244020491789 22.50002117134785 0  209.5244026042506 22.50007159345963 0  214.5244035559906 22.50012456347305 0  219.524404782997 22.50017961347235 0  224.5244061826717 22.50023635429116 0  229.5244076719528 22.50029446352163 0  234.5244091857585 22.50035367389251 0  239.5244106745372 22.50041376297783 0  244.524412101654 22.50047454448891 0  249.5244134409508 22.50053586109154 0  254.5244146746236 22.50059757857332 0  259.5244157914256 22.50065958116391 0  264.524416785193 22.50072176782616 0  269.5244176536362 22.50078404936669 0  274.5244183973737 22.50084634624195 0  279.5244190191837 22.50090858695297 0  284.5244195235003 22.50097070691166 0  289.5244199162337 22.50103264760921 0  294.524420205094 22.50109435578053 0  299.
[...]
<PointData  Scalars="p"> 
<DataArray  type="Float64"  Name="p"  format="ascii">1.0000000000000001e-01  1.0000000000000003e-01  9.9997878430339138e-02  1.0000000000000003e-01  1.0000000000000003e-01  9.9998660730468217e-02  1.0000000000000003e-01  9.9997973129317796e-02  1.0000000000000003e-01  9.9998123591240093e-02  1.0000000000000003e-01  9.9997720733708259e-02  1.0000000000000003e-01  9.9996246972417047e-02  1.0000000000000003e-01  9.9996177205088313e-02  1.0000000000000003e-01  9.9995172675650265e-02  1.0000000000000003e-01  9.9993436933508498e-02  1.0000000000000003e-01  9.9994712955108769e-02  1.0000000000000003e-01  9.9987492358263250e-02  1.0000000000000003e-01  9.9986126224179447e-02  1.0000000000000003e-01  9.9982875296068988e-02  1.0000000000000003e-01  9.9980954111159551e-02  1.0000000000000003e-01  9.9974821567933497e-02  1.0000000000000003e-01  9.9972877710582650e-02  1.0000000000000003e-01  9.9967604461101436e-02  1.0000000000000003e-01  9.9959819346162826e-02  1.0000000000000003e-01  9.9956851014406184e-02  1.0000000000000003e-01  9.9947551903732168e-02  1.0000000000000003e-01  9.9941399052315374e-02  1.0000000000000003e-01  9.9930557601139086e-02  1.0000000000000003e-01  9.9929926720808415e-02  1.0000000000000003e-01  9.9905157334959041e-02  1.0000000000000003e-01  9.9922490183414994e-02  1.0000000000000003e-01  9.9873183665057305e-02  1.0000000000000003e-01  9.9922606656705174e-02  1.0000000000000003e-01  9.9831541399996379e-02  1.0000000000000003e-01  9.9934490017532060e-02  1.0000000000000001e-01  9.9765826207237826e-02  1.0000000000000001e-01  1.0000000000000003e-01  1.0013662406074479e-01  1.0034093798201302e-01  1.0000000000000003e-01  1.0001539191837203e-01  1.0000000000000003e-01  1.0010366356602575e-01  1.0000000000000003e-01  1.0005103585023785e-01  1.0000000000000003e-01  1.0006413876376269e-01  1.0000000000000003e-01  1.0004990408238514e-01  1.0000000000000003e-01  1.0005332479974788e-01  1.0000000000000003e-01  1.0004116815203272e-01  1.0000000000000003e-01  1.0004157685397565e-01  1.0000000000000003e-01  1.0003663829604630e-01  1.0000000000000003e-01  1.0003266759083358e-01  1.0000000000000003e-01  1.0002986452377809e-01  1.0000000000000003e-01  1.0002780165309007e-01  1.0000000000000003e-01  1.0002440869684315e-01  1.0000000000000003e-01  1.0002286243858804e-01  1.0000000000000003e-01  1.0002122158014576e-01  1.0000000000000003e-01  1.0001924771318568e-01  1.0000000000000003e-01  1.0001808211060739e-01  1.0000000000000003e-01  1.0001712361110832e-01  1.0000000000000003e-01  1.0001580332591375e-01  1.0000000000000003e-01  1.0001518942069224e-01  1.0000000000000003e-01  1.0001434405543608e-01  1.0000000000000003e-01  1.0001392933921520e-01  1.0000000000000003e-01  1.0001287324472220e-01  1.0000000000000003e-01  1.0001343624026453e-01  1.0000000000000003e-01  1.0001128294194322e-01  1.0000000000000003e-01  1.0001379144242178e-01  1.0000000000000003e-01  1.0000872039765929e-01  1.0000000000000003e-01  1.0001679685759823e-01  1.0000000000000001e-01  1.0000000000000003e-01  9.9995283208684629e-02  1.0000000000000003e-01  9.9996016325495693e-02  9.9995839700217817e-02  9.9995285116081856e-02  9.9993353864110998e-02  9.9993654976446855e-02  9.9993063772074176e-02  9.9990034976782091e-02  9.9991822349492651e-02  9.9990318691412269e-02  9.9989292921885117e-02  9.9980413801963361e-02  9.9985117564963394e-02  9.9976984513530168e-02  9.9981295974228085e-02  9.9976890292173187e-02  9.9970624247604972e-02  9.9971537108674804e-02  9.9967714397749582e-02  9.9957332411771196e-02  9.9961822633539199e-02  9.9950835834411944e-02  9.9950310104269163e-02  9.9938448074425867e-02  9.9954308611863441e-02  9.9908796149055110e-02  9.9980642407999115e-02  9.9851497237239184e-02  1.0004900162786218e-01  9.9763630693857311e-02  9.9835454420388922e-02  1.0048256580715251e-01  1.0017453161817749e-01  1.0001804495794886e-01  1.0004620216152253e-01  1.0003683530693294e-01  1.0005219000887854e-01  1.0002780635310089e-01  1.0003833977244046e-01  1.0003292166395841e-01  1.0002712529107927e-01  1.0002629325247972e-01  1.0002562914106175e-01  1.0002021979356242e-01  1.0001992713235187e-01  1.0001883444854305e-01  1.0001581050676883e-01  1.0001512852678940e-01  1.0001439067884378e-01  1.0001236151488214e-01  1.0001166552152467e-01  1.0001105741749856e-01  1.0000951062950632e-01  1.0000911888017643e-01  1.0000800317310242e-01  1.0000777764603916e-01  1.0000580477037195e-01  1.0000757354402220e-01  1.0000274609830702e-01  1.0000858227899333e-01  1.0000000000000003e-01  9.9992443890149232e-02  1.0000000000000003e-01  9.9995540689481924e-02  9.9993608356497038e-02  9.9991774215710677e-02  9.9991890576430972e-02  9.9991224465499809e-02  9.9986948443089224e-02  9.9988132021365111e-02  9.9987344597852620e-02  9.9983034972868784e-02  9.9981574580987956e-02  9.9987547544619179e-02  9.9963886324713869e-02  9.9975396723809312e-02  9.9969546098562706e-02  9.9961037820093801e-02  9.9964725413797639e-02  9.9958669004595435e-02  9.9945601813825224e-02  9.9948837408616847e-02  9.9942213173155117e-02  9.9923319470245769e-02  9.9935093137187070e-02  9.9911415053997227e-02  9.9921044593532654e-02  9.9888207330547582e-02  9.9939664031473668e-02  9.9820906577047036e-02  1.0003674286891644e-01  9.9632233372298998e-02  9.9924380290716638e-02  1.0038644817613120e-01  1.0022887713258308e-01  1.0004023770671129e-01  1.0006169950610154e-01  1.0009684115324151e-01  1.0003565430567413e-01  1.0006997027043493e-01  1.0005717319333904e-01  1.0004600227949859e-01  1.0004616693758657e-01  1.0004611461716773e-01  1.0003509083304710e-01  1.0003581403952572e-01  1.0003389302455076e-01  1.0002782957550468e-01  1.0002707988102570e-01  1.0002610254577955e-01  1.0002203945367935e-01  1.0002130279278505e-01  1.0002027408581980e-01  1.0001771558244124e-01  1.0001668658806873e-01  1.0001596423836621e-01  1.0001373748012887e-01  1.0001352514590364e-01  1.0001140115200617e-01  1.0001214017131453e-01  1.0000765657335506e-01  1.0001360108209818e-01  1.0000000000000003e-01  9.9990584907779984e-02  1.0000000000000003e-01  9.9994267086190539e-02  9.9989784022173636e-02  9.9990685372139468e-02  9.9989811553913566e-02  9.9985121985948958e-02  9.9986221184313384e-02  9.9985120292879870e-02  9.9979284848115940e-02  9.9981499292989690e-02  9.9981156250696757e-02  9.9968230627979299e-02  9.9983606737400130e-02  9.9960853604015340e-02  9.9960316809353481e-02  9.9962966854717228e-02  9.9961633497446648e-02  9.9945859867746206e-02  9.9954649637545315e-02  9.9944578364668954e-02  9.9931500279376403e-02  9.9933890011666943e-02  9.9932579954947851e-02  9.9902082304546086e-02  9.9936955740392186e-02  9.9878475654479090e-02  9.9953426281528937e-02  9.9815134845223363e-02  1.0006103794290852e-01  9.9613270453434974e-02  9.9943093184810622e-02  1.0049438318838889e-01  1.0013819817276709e-01  1.0002492728669075e-01  1.0017843217351532e-01  9.9994953742910953e-02  1.0009022236571204e-01  1.0005916196113744e-01  1.0005237236131226e-01  1.0005066224550276e-01  1.0005574655946360e-01  1.0003778581683408e-01  1.0004174736421735e-01  1.0003957316071020e-01  1.0003132855640724e-01  1.0003073731288580e-01  1.0002995420498903e-01  1.0002422285818958e-01  1.0002370309780276e-01  1.0002272045310219e-01  1.0001904156562724e-01  1.0001820481663379e-01  1.0001698386675811e-01  1.0001471558367574e-01  1.0001316487806693e-01  1.0001277976737423e-01  1.0000959909242503e-01  1.0001084375174284e-01  1.0000571093521787e-01  1.0001084255442844e-01  1.0000000000000003e-01  9.9988686708718341e-02  1.0000000000000003e-01  9.9991928986860323e-02  9.9989015624983815e-02  9.9989438357360974e-02  9.9984262046266523e-02  9.9985496447880226e-02  9.9983982303268118e-02  9.9977302568079698e-02  9.9979695858614603e-02  9.9979013998362357e-02  9.9967655951814741e-02  9.9974713734778661e-02  9.9967286037258421e-02  9.9969409907510992e-02  9.9951112772758255e-02  9.9959081347040665e-02  9.9940618036394133e-02  9.9952743559471036e-02  9.9944665128735302e-02  9.9925523516679313e-02  9.9937477703936545e-02  9.9922834577527542e-02  9.9910270395518017e-02  9.9907407810583868e-02  9.9919911565925112e-02  9.9860125500169108e-02  9.9951764400504517e-02  9.9790253043463631e-02  1.0006739435721097e-01  9.9555854655658055e-02  9.9851045462204455e-02  1.0054857296923947e-01  1.0019599346087595e-01  1.0008517594706427e-01  1.0007985612881633e-01  1.0011086644362659e-01  1.0007197752926245e-01  1.0006612455699593e-01  1.0005880071144528e-01  1.0007803344057138e-01  1.0004555058312528e-01  1.0005574281774575e-01  1.0005259690558364e-01  1.0004060226181073e-01  1.0004073632090922e-01  1.0004054320806095e-01  1.0003143818716030e-01  1.0003130127908164e-01  1.0003032671941796e-01  1.0002496873876590e-01  1.0002405978060369e-01  1.0002313956316058e-01  1.0001930613695771e-01  1.0001839302115140e-01  1.0001670922946940e-01  1.0001481573336303e-01  1.0001233038323633e-01  1.0001299882016879e-01  1.0000751173417975e-01  1.0001280072112428e-01  1.0000000000000003e-01  9.9986463035797904e-02  1.0000000000000003e-01  9.9991593636611489e-02  9.9987653832536064e-02  9.9984971177747073e-02  9.9984532996600303e-02  9.9983780183461268e-02  9.9977012102409848e-02  9.9978496082256230e-02  9.9977807060874127e-02  9.9968168196952562e-02  9.9971760384345479e-02  9.9968502378587745e-02  9.9959325344942965e-02  9.9960338057182491e-02  9.9974891713054792e-02  9.9927501133262556e-02  9.9953503711741817e-02  9.9942799616193942e-02  9.9927180200819810e-02  9.9938004793518734e-02  9.9931674578829718e-02  9.9902476598857926e-02  9.9926540175913528e-02  9.9899031596915197e-02  9.9903194501782450e-02  9.9871175995095679e-02  9.9947119475173429e-02  9.9771059229597336e-02  1.0009247185400598e-01  9.9511879077838955e-02  9.9885408409360721e-02  1.0050783669402746e-01  1.0024441385729903e-01  1.0000216496375104e-01  1.0012177146471800e-01  1.0009897939169832e-01  1.0010671444617220e-01  1.0003910976980349e-01  1.0010474890901354e-01  1.0004039015789591e-01  1.0006870755900439e-01  1.0006159920075543e-01  1.0004673703085400e-01  1.0004693984757283e-01  1.0004895103839248e-01  1.0003579245917721e-01  1.0003692414186401e-01  1.0003593415460112e-01  1.0002823702723515e-01  1.0002774145918747e-01  1.0002704585170401e-01  1.0002192902099379e-01  1.0002088446721585e-01  1.0001992782356854e-01  1.0001599890065715e-01  1.0001540167849461e-01  1.0001263460202896e-01  1.0001240935476333e-01  1.0000721722643570e-01  1.0001196089135045e-01  1.0000000000000003e-01  9.9985263990699125e-02  1.0000000000000003e-01  9.9990958477242875e-02  9.9983775501350958e-02  9.9985291602878917e-02  9.9983345490840342e-02  9.9977481402473450e-02  9.9978232591758989e-02  9.9977535776506227e-02  9.9968041642662611e-02  9.9971780981011546e-02  9.9969036714313730e-02  9.9956631743762334e-02  9.9961490017308613e-02  9.9963812259667231e-02  9.9939766993533616e-02  9.9970645167201860e-02  9.9930651730995690e-02  9.9925911134555803e-02  9.9936803818839501e-02  9.9931715125134477e-02  9.9907065258201352e-02  9.9921690507906002e-02  9.9916346414103810e-02  9.9875643351284168e-02  9.9919865991499962e-02  9.9860583977209622e-02  9.9925900414846253e-02  9.9780570224995854e-02  1.0008690304774330e-01  9.9475489002399484e-02  9.9908919605641203e-02  1.0055676450887782e-01  1.0018785261338974e-01  1.0004087731356953e-01  1.0015511878788785e-01  1.0005962345382624e-01  1.0008926209750695e-01  1.0013917550649723e-01  1.0003194150010980e-01  1.0008424530913809e-01  1.0006868706593064e-01  1.0005785220902226e-01  1.0005407907898978e-01  1.0006072804317308e-01  1.0004163892094935e-01  1.0004448430307844e-01  1.0004403476917099e-01  1.0003410242774087e-01  1.0003329973790340e-01  1.0003294930727158e-01  1.0002606604493763e-01  1.0002539924925842e-01  1.0002418409628780e-01  1.0001997515164450e-01  1.0001823411178098e-01  1.0001739565451784e-01  1.0001317502199251e-01  1.0001363413245290e-01  1.0000824250199039e-01  1.0001261447491568e-01  1.0000000000000003e-01  9.9984080075639387e-02  1.0000000000000003e-01  9.9988914185487221e-02  9.9983887968090129e-02  9.9984626070969543e-02  9.9978106861073474e-02  9.9979008794158358e-02  9.9977627931703561e-02  9.9969034284562622e-02  9.9971962906798953e-02  9.9970586010279791e-02  9.9957589206427777e-02  9.9962315744696870e-02  9.9961281510308336e-02  9.9943119044405559e-02  9.9958556682579233e-02  9.9945991104824744e-02  9.9949030146756476e-02  9.9922525834104506e-02  9.9935319734166736e-02  9.9902758805095249e-02  9.9930350797794484e-02  9.9913098171472939e-02  9.9891654932115839e-02  9.9900050811418811e-02  9.9912626021076881e-02  9.9835721525582705e-02  9.9948469161746545e-02  9.9769307944655009e-02  1.0007574742003197e-01  9.9473141024921857e-02  9.9850338872128852e-02  1.0060592681698129e-01  1.0022255332455905e-01  1.0007113018701981e-01  1.0010871729430139e-01  1.0007388977162424e-01  1.0012820944084125e-01  1.0006143770841766e-01  1.0011701164759479e-01  1.0005984056071156e-01  1.0007212558506354e-01  1.0005305485165925e-01  1.0007527579972737e-01  1.0004478861492799e-01  1.0005187081769856e-01  1.0005108553478413e-01  1.0003858036009533e-01  1.0003850164989604e-01  1.0003918103654130e-01  1.0002944459474322e-01  1.0002903295072468e-01  1.0002839350345658e-01  1.0002241804488571e-01  1.0002147147579683e-01  1.0001987904296533e-01  1.0001654792855996e-01  1.0001381273074726e-01  1.0001415553701891e-01  1.0000793180054687e-01  1.0001240997886980e-01  1.0000000000000003e-01  9.9982493087678398e-02  1.0000000000000003e-01  9.9989123284114620e-02  9.9983385268878802e-02  9.9980779431110653e-02  9.9979247376092636e-02  9.9978843258869840e-02  9.9970642314857014e-02  9.9972294670088807e-02  9.9971534575292759e-02  9.9960684153351007e-02  9.9963369989063619e-02  9.9962264424407435e-02  9.9945849303501630e-02  9.9955189269636313e-02  9.9951248874872944e-02  9.9936139077467484e-02  9.9940579906065558e-02  9.9962238004257409e-02  9.9889552333934095e-02  9.9930367759067246e-02  9.9917774946912633e-02  9.9886655016275916e-02  9.9919186312960873e-02  9.9893745483356083e-02  9.9881533934759445e-02  9.9866475680051400e-02  9.9939908112563633e-02  9.9743560803806947e-02  1.0009918207830464e-01  9.9458084181260009e-02  9.9858024306271845e-02  1.0058548606563945e-01  1.0025762893725038e-01  1.0002467230745468e-01  1.0013042579416361e-01  1.0011022518604949e-01  1.0008148715867694e-01  1.0008540951946418e-01  1.0010233681562955e-01  1.0009818257994707e-01  1.0004185230827112e-01  1.0009300333223199e-01  1.0004364757061450e-01  1.0006188419799374e-01  1.0005843708693335e-01  1.0004443545391931e-01  1.0004325913901253e-01  1.0004612510045380e-01  1.0003375436776164e-01  1.0003408156642421e-01  1.0003339141585527e-01  1.0002572737566967e-01  1.0002465683626310e-01  1.0002411654196743e-01  1.0001853528542920e-01  1.0001784801576950e-01  1.0001514177069068e-01  1.0001378804407171e-01  1.0000852925060207e-01  1.0001277725118815e-01  1.0000000000000003e-01  9.9981851113764661e-02  1.0000000000000003e-01  9.9988999188877103e-02  9.9980281245338753e-02  9.9981803529674090e-02  9.9979181738334311e-02  9.9973016606336285e-02  9.9973281426098126e-02  9.9972546684179125e-02  9.9962562992928605e-02  9.9965634299857137e-02  9.9964342077466808e-02  9.9949018527844116e-02  9.9955567499883879e-02  9.9954068637573376e-02  9.9935460702616094e-02  9.9944705486235769e-02  9.9949585108497205e-02  9.9911280454813428e-02  9.9961258547066334e-02  9.9902023462369011e-02  9.9893955399623577e-02  9.9911867121338968e-02  9.9913332508250421e-02  9.9859566144663889e-02  9.9919455649826766e-02  9.9859567467968924e-02  9.9906951100239783e-02  9.9777933979452449e-02  1.0009163961347353e-01  9.9431433951696985e-02  9.9877187490122213e-02  1.0061149783207224e-01  1.0022441933250320e-01  1.0003714479143681e-01  1.0016322999039251e-01  1.0006846491467199e-01  1.0009971693569057e-01  1.0010525542613455e-01  1.0007811185246360e-01  1.0007082343727890e-01  1.0012292124728790e-01  1.0003092087309250e-01  1.0007414510369500e-01  1.0005983689856240e-01  1.0005289417964372e-01  1.0004655709216903e-01  1.0005374707385267e-01  1.0003689273855533e-01  1.0003827606507375e-01  1.0003889511620376e-01  1.0002949489823568e-01  1.0002808155538488e-01  1.0002768593760304e-01  1.0002137784660019e-01  1.0001983086518469e-01  1.0001914602706229e-01  1.0001398705674004e-01  1.0001422490288402e-01  1.0000890013295159e-01  1.0001246234448725e-01  1.0000000000000003e-01  9.9981305892189731e-02  1.0000000000000003e-01  9.9987608514339271e-02  9.9981029021550788e-02  9.9982118519463287e-02  9.9975018026365645e-02  9.9975492386930723e-02  9.9973931699158705e-02  9.9965429783560114e-02  9.9967273618997862e-02  9.9966892582334752e-02  9.9953220665301573e-02  9.9957967918464355e-02  9.9956721751651600e-02  9.9938975862958787e-02  9.9947967955923075e-02  9.9947828257072477e-02  9.9920678959179651e-02  9.9944972635142640e-02  9.9928881325192467e-02  9.9928089619000238e-02  9.9899979526808097e-02  9.9911938580502818e-02  9.9871841622305238e-02  9.9903530647663011e-02  9.9909739625016508e-02  9.9823593151653997e-02  9.9947869734796066e-02  9.9775904814924626e-02  1.0005368482690474e-01  9.9471084977316687e-02  9.9835816409133304e-02  1.0066113097642010e-01  1.0023448688764697e-01  1.0006406375273436e-01  1.0012815637385504e-01  1.0007973984707304e-01  1.0012702629693314e-01  1.0007575408482793e-01  1.0008069005996303e-01  1.0010007137585422e-01  1.0006113616923666e-01  1.0009683112537927e-01  1.0005097514431591e-01  1.0006362096508351e-01  1.0004489158807718e-01  1.0006412417790446e-01  1.0003925946214645e-01  1.0004336313375554e-01  1.0004366726904193e-01  1.0003269311665620e-01  1.0003207409262406e-01  1.0003289522788465e-01  1.0002383112673439e-01  1.0002306778458404e-01  1.0002185756369264e-01  1.0001727280184380e-01  1.0001465529817652e-01  1.0001505571504719e-01  1.0000842893498160e-01  1.0001257082300792e-01  1.0000000000000003e-01  9.9980232876896530e-02  1.0000000000000003e-01  9.9988050590638339e-02  9.9981168526796685e-02  9.9979171924344801e-02  9.9976708543898674e-02  9.9976336779419736e-02  9.9968206908867277e-02  9.9969106389258724e-02  9.9968702618347088e-02  9.9957771691030470e-02  9.9960055760455246e-02  9.9959751261388591e-02  9.9943931375465506e-02  9.9950173514677998e-02  9.9950726645650745e-02  9.9927063724607121e-02  9.9942233585483639e-02  9.9937746218115978e-02  9.9915517623611005e-02  9.9924086890470568e-02  9.9956535454941695e-02  9.9849837664594002e-02  9.9920344656231064e-02  9.9888855997296036e-02  9.9869351921658286e-02  9.9875184946857848e-02  9.9941291769035046e-02  9.9735685833007404e-02  1.0009534066286833e-01  9.9475887050821971e-02  9.9819015383613999e-02  1.0065861118556517e-01  1.0026881174846261e-01  1.0003109971789224e-01  1.0013315267862510e-01  1.0010674261288896e-01  1.0009596980698326e-01  1.0008086908961844e-01  1.0010847620146018e-01  1.0006576025684824e-01  1.0007364637103384e-01  1.0007974604802887e-01  1.0008525159199305e-01  1.0003201185885448e-01  1.0007663610405829e-01  1.0003685244088364e-01  1.0005015598425188e-01  1.0004779488219455e-01  1.0003656739292587e-01  1.0003442609483974e-01  1.0003716888708175e-01  1.0002707579552932e-01  1.0002639826775067e-01  1.0002570144655691e-01  1.0001875844112196e-01  1.0001789230276020e-01  1.0001580799504640e-01  1.0001353592622618e-01  1.0000864681304197e-01  1.0001255653078889e-01  1.0000000000000003e-01  9.9980192976604168e-02  1.0000000000000003e-01  9.9988487222730349e-02  9.9979157149244047e-02  9.9980803188117168e-02  9.9977697770272531e-02  9.9972186559414089e-02  9.9971557013021281e-02  9.9970949525003100e-02  9.9961547781166615e-02  9.9963687639109303e-02  9.9962795640489821e-02  9.9948942145335479e-02  9.9953537758817129e-02  9.9954494692588047e-02  9.9934163748680124e-02  9.9943847669282729e-02  9.9944331576816703e-02  9.9917183012568161e-02  9.9932806974217595e-02  9.9940198903637853e-02  9.9887254610168549e-02  9.9955711747671885e-02  9.9885996692232221e-02  9