<?xml version="1.0"?>
<VTKFile type="UnstructuredGrid"  version="0.1"  >
<UnstructuredGrid>
<Piece  NumberOfPoints="1933" NumberOfCells="3640">
<Points>
<DataArray  type="Float64"  NumberOfComponents="3"  format="ascii">0.2935816941966821 0.001961568093383863 0  5.293581715696931 0.001877431375968901 0  5.293707998794921 7.501877531359558 0  0.2937079344747482 7.501961591750455 0  10.29358172817243 0.001793186536428229 0  10.29370812596689 7.501793317724398 0  15.29358178918714 0.001708743253622629 0  15.29370835413559 7.501708886775731 0  20.29358197102841 0.001624066626782292 0  20.29370872295038 7.50162421470546 0  25.29358234706152 0.001539156771527127 0  25.29370927414388 7.501539306764473 0  30.29358298739628 0.001454036637679702 0  30.29371005074557 7.501454188386179 0  35.29358395855737 0.001368744696833927 0  35.29371109652005 7.501368899281909 0  40.29358532483151 0.001283330798841145 0  40.29371245588138 7.501283489959489 0  45.29358715026275 0.001197854192898812 0  45.29371417419702 7.501198020072991 0  50.29358950085876 0.00111238310695422 0  50.29371629833446 7.501112558171813 0  55.29359244684975 0.001026995540618054 0  55.29371887732322 7.501027182585655 0  60.29359606496416 0.000941781112126202 0  60.29372196302827 7.500941983325613 0  65.29360044074627 0.000856843943539514 0  65.29372561073946 7.500857065004896 0  70.29360567095337 0.0007723066953887396 0  70.29372987958088 7.500772550898246 0  75.29361186607771 0.0006883159938859972 0  75.29373483260991 7.500688588381534 0  80.29361915301261 0.0006050496532935613 0  80.29374053642147 7.500605356141192 0  85.29362767784419 0.0005227263114514246 0  85.29374705998175 7.500523073736527 0  90.29363760865181 0.0004416184086390006 0  90.29375447226731 7.500442014366334 0  95.29364913802303 0.0003620699120963339 0  95.29376283806975 7.500362522070351 0  100.2936624846094 0.0002845209221650737 0  100.2937722110283 7.500285035133269 0  105.2936778923184 0.0002095424558915658 0  105.293782622536 7.500210118207168 0  110.2936956242319 0.0001378865576331985 0  110.2937940647244 7.500138506656832 0  115.2937159453717 7.05598605034612e-05 0  115.293806465438 7.500071167806019 0  120.2937390824 8.93347025649293e-06 0  120.2938196536094 7.500009384780454 0  125.2937651362249 -4.509054468858437e-05 0  125.2938333164558 7.499954868454233 0  130.2937938989003 -8.882495269698427e-05 0  130.2938469596214 7.499909898922045 0  135.2938244759825 -0.0001184120641982808 0  135.2938599081744 7.499877484289743 0  140.2938545103589 -0.0001282690943705613 0  140.2938714557734 7.49986149443412 0  145.2938785695168 -0.0001104635680812769 0  145.2938814495723 7.499866703911809 0  150.2938846573683 -5.50509448713689e-05 0  150.2938921023348 7.499898949355562 0  160.293892626147 1.016786990702785e-18 0  165.2937347663257 -0.0002056968194994183 0  165.2938649831987 7.499765086221251 0  160.2939131606584 7.499930526259119 0  170.2936434573305 -0.0003876752423249563 0  170.2938160775423 7.49959749556788 0  175.2935887645181 -0.0005522956016750489 0  175.2937750110847 7.499439425859669 0  180.2935552384446 -0.0007029695942081012 0  180.2937427980232 7.499292170036232 0  185.2935344200718 -0.0008424518236116774 0  185.2937183351147 7.49915459493727 0  190.2935214934366 -0.0009730131032258879 0  190.2937001015903 7.499025139443567 0  195.2935136218759 -0.001096459356931107 0  195.2936866945867 7.498902353973008 0  200.2935090766215 -0.001214194408033553 0  200.2936769649984 7.498785025495579 0  205.2935067666476 -0.001327301662165776 0  205.293670016469 7.498672176053759 0  210.2935059790823 -0.001436619950692202 0  210.2936651641982 7.498563026337855 0  215.2935062325453 -0.00154280485152446 0  215.2936618886771 7.498456955026625 0  220.2935071921506 -0.001646375206207826 0  220.2936597956838 7.498353463411776 0  225.2935086188429 -0.001747747409554369 0  225.2936585848245 7.498252147210579 0  230.2935103382709 -0.001847260440516361 0  230.2936580258308 7.49815267491983 0  235.2935122210563 -0.001945194159221323 0  235.2936579410426 7.498054771422284 0  240.2935141698988 -0.002041782792327552 0  240.2936581925476 7.497958205589399 0  245.2935161109107 -0.002137224998266669 0  245.2936586727469 7.497862780851151 0  250.2935179876501 -0.002231691496757963 0  250.2936592974103 7.49776832794677 0  255.293519756951 -0.002325330952494361 0  255.2936600005536 7.497674699277166 0  260.2935213859839 -0.002418274594683612 0  260.293660730646 7.497581764439741 0  265.2935228502325 -0.002510639906279237 0  265.293661447816 7.49748940664816 0  270.2935241321609 -0.00260253360724077 0  270.2936621218111 7.497397519833891 0  275.2935252204965 -0.00269405406617912 0  275.2936627305351 7.497306006305907 0  280.2935261100739 -0.002785293184853872 0  280.293663259036 7.497214774922197 0  285.2935268022815 -0.002876337685177047 0  285.2936636988348 7.497123739817518 0  290.2935273061394 -0.002967269547218119 0  290.2936640474771 7.497032819853542 0  295.2935276400842 -0.00305816502191798 0  295.293664308223 7.496941939133533 0  300.2935278343303 -0.003149091015277543 0  300.2936644897677 7.496851029174204 0  305.2935279332802 -0.003240096367096827 0  305.2936646061466 7.496760033642563 0  310.2935279961234 -0.003331192841315629 0  310.2936646776735 7.496668916828765 0  5.293833885546704 15.00187778139233 0  0.2938338096606183 15.00196165592649 0  10.29383402908352 15.00179364295933 0  15.29383427661534 15.0017092349868 0  20.29383465528574 15.00162456428003 0  25.29383518910729 15.0015396515333 0  30.29383590153941 15.00145452975256 0  35.29383681637609 15.00136924223993 0  40.29383795791888 15.00128384113858 0  45.29383935087716 15.00119838682646 0  50.29384102015992 15.00111294819309 0  55.2938429905879 15.00102760377614 0  60.293845286485 15.00094244375826 0  65.29384793107481 15.00085757288013 0  70.29385094557485 15.00077311439693 0  75.29385434785976 15.00068921529202 0  80.29385815052854 15.00060605306291 0  85.29386235818359 15.00052384451639 0  90.29386696370447 15.0004428571543 0  95.29387194332095 15.00036342388738 0  100.2938772503815 15.00028596195236 0  105.2938828080386 15.00021099693326 0  110.2938885017577 15.00013919249227 0  115.2938941740548 15.00007138532511 0  120.2938996267173 15.00000862196873 0  125.2939046409521 14.99995218733032 0  130.2939090345225 14.99990359992051 0  135.2939127874975 14.99986451687647 0  140.2939162812286 14.99983642268509 0  145.2939206889583 14.99981981140553 0  150.2939284483686 14.9998120878176 0  165.2939453836729 14.99968519060464 0  160.2939537608796 14.99980997022243 0  170.2939283837396 14.99954829614357 0  175.2939079752246 14.99940933709838 0  180.2938878164256 14.99927353260055 0  185.293869698259 14.99914281392246 0  190.2938542553522 14.99901751420898 0  195.2938415211044 14.99889729461382 0  200.2938312561428 14.99878158600967 0  205.2938231236469 14.9986697846105 0  210.2938167758626 14.998561330506 0  215.2938118925607 14.99845573275964 0  220.2938081948294 14.99835257146775 0  225.2938054469667 14.99825149092487 0  230.2938034531601 14.99815219023629 0  235.2938020523356 14.99805441403373 0  240.2938011127584 14.9979579442573 0  245.2938005270803 14.99786259322349 0  250.2938002080765 14.99776819790147 0  255.2938000850915 14.99767461522048 0  260.2938001011408 14.99758171822271 0  265.2938002105614 14.99748939289767 0  270.2938003771254 14.99739753557179 0  275.2938005725131 14.99730605076478 0  280.2938007750558 14.99721484946368 0  285.293800968697 14.99712384780185 0  290.2938011420859 14.99703296615269 0  295.2938012878585 14.99694212862445 0  300.2938014021962 14.99685126278476 0  305.2938014850578 14.9967602989028 0  310.2938015418424 14.99666916641284 0  5.293959261861965 22.50187833004957 0  0.2939591848412445 22.50196199892144 0  10.29395938821479 22.50179428077375 0  15.2939595935575 22.50170989954483 0  20.29395989656959 22.5016252272381 0  25.29396030997096 22.5015403046267 0  30.29396084352588 22.50145517592792 0  35.29396150553598 22.50136989036558 0  40.29396230336479 22.50128450298014 0  45.29396324338039 22.50119907536806 0  50.29396433054497 22.50111367670531 0  55.29396556776019 22.50102838524285 0  60.29396695500266 22.50094329039444 0  65.2939684882392 22.50085849552378 0  70.29397015808641 22.50077412155164 0  75.2939719481743 22.50069031153373 0  80.29397383318762 22.50060723638936 0  85.2939757765957 22.50052510198382 0  90.29397772817687 22.50044415775597 0  95.29397962160955 22.50036470700055 0  100.2939813727019 22.50028711868095 0  105.2939828793389 22.50021184012359 0  110.293984025029 22.50013940886338 0  115.293984689134 22.50007045982416 0  120.2939847684641 22.50000572015876 0  125.2939842166677 22.49994597722855 0  130.2939831086681 22.4998919936189 0  135.2939817344402 22.49984432477698 0  140.2939807128091 22.49980296955125 0  145.2939810770827 22.49976676240466 0  150.293984193913 22.49973246725131 0  165.2940166613141 22.49959678926176 0  160.2940061236373 22.49969741311697 0  170.294018906249 22.49948321709362 0  175.2940151332305 22.49936313842833 0  180.2940078032753 22.49924119918669 0  185.2939988808179 22.49912021203209 0  190.293989674455 22.4990016171676 0  195.2939809496768 22.49888599823479 0  200.2939730942292 22.49877345994014 0  205.2939662576599 22.49866386358097 0  210.2939604504097 22.4985569620742 0  215.2939556083102 22.49845247279044 0  220.2939516322153 22.4983501144192 0  225.2939484111835 22.49824962394081 0  230.2939458353111 22.4981507630246 0  235.2939438023075 22.49805331905943 0  240.2939422204 22.49795710364549 0  245.2939410091779 22.49786195003611 0  250.2939400993284 22.49776771028594 0  255.2939394318345 22.49767425246675 0  260.293938956936 22.49758145810799 0  265.2939386330435 22.49748921991505 0  270.293938425669 22.49739743977011 0  275.2939383064254 22.49730602699889 0  280.2939382520915 22.49721489687467 0  285.2939382437536 22.49712396931195 0  290.2939382660367 22.49703316765623 0  295.2939383064829 22.49694241736077 0  300.2939383551497 22.49685164408896 0
[...]
<PointData  Scalars="p"> 
<DataArray  type="Float64"  Name="p"  format="ascii">1.0000000000000001e-01  1.0000000000000003e-01  1.0000372062159302e-01  1.0000000000000003e-01  1.0000000000000003e-01  1.0000362866037023e-01  1.0000000000000003e-01  1.0000548242517993e-01  1.0000000000000003e-01  1.0000611489119350e-01  1.0000000000000003e-01  1.0000739376777261e-01  1.0000000000000003e-01  1.0000999636297524e-01  1.0000000000000003e-01  1.0001079621187152e-01  1.0000000000000003e-01  1.0001257662688616e-01  1.0000000000000003e-01  1.0001555728857656e-01  1.0000000000000003e-01  1.0001505051040298e-01  1.0000000000000003e-01  1.0002424574783800e-01  1.0000000000000003e-01  1.0002770180552595e-01  1.0000000000000003e-01  1.0003250463665753e-01  1.0000000000000003e-01  1.0003594350047391e-01  1.0000000000000003e-01  1.0004429269831225e-01  1.0000000000000003e-01  1.0004733755602536e-01  1.0000000000000003e-01  1.0005395053105381e-01  1.0000000000000003e-01  1.0006390883971462e-01  1.0000000000000003e-01  1.0006726717747265e-01  1.0000000000000003e-01  1.0007814215767705e-01  1.0000000000000003e-01  1.0008506886969265e-01  1.0000000000000003e-01  1.0009736919868657e-01  1.0000000000000003e-01  1.0009644149399641e-01  1.0000000000000003e-01  1.0012576325250688e-01  1.0000000000000003e-01  1.0010221724063872e-01  1.0000000000000003e-01  1.0016128847497384e-01  1.0000000000000003e-01  1.0009825008687215e-01  1.0000000000000003e-01  1.0020880907887690e-01  1.0000000000000003e-01  1.0008025239609468e-01  1.0000000000000001e-01  1.0028634636135388e-01  1.0000000000000001e-01  1.0000000000000003e-01  9.9800589862519412e-02  9.9552934092528397e-02  1.0000000000000003e-01  9.9956978284885672e-02  1.0000000000000003e-01  9.9845106686690555e-02  1.0000000000000003e-01  9.9908436949422988e-02  1.0000000000000003e-01  9.9891080946417021e-02  1.0000000000000003e-01  9.9907821976735769e-02  1.0000000000000003e-01  9.9901940146878879e-02  1.0000000000000003e-01  9.9916165644453811e-02  1.0000000000000003e-01  9.9914899596365889e-02  1.0000000000000003e-01  9.9920213772361113e-02  1.0000000000000003e-01  9.9924627738339281e-02  1.0000000000000003e-01  9.9927797884730357e-02  1.0000000000000003e-01  9.9930025938722244e-02  1.0000000000000003e-01  9.9934107242024853e-02  1.0000000000000003e-01  9.9935996473813488e-02  1.0000000000000003e-01  9.9938029680123983e-02  1.0000000000000003e-01  9.9940513866557196e-02  1.0000000000000003e-01  9.9942161080175215e-02  1.0000000000000003e-01  9.9943364207390278e-02  1.0000000000000003e-01  9.9945379630274139e-02  1.0000000000000003e-01  9.9946012260273914e-02  1.0000000000000003e-01  9.9947831985944841e-02  1.0000000000000003e-01  9.9947592093990720e-02  1.0000000000000003e-01  9.9950833753541399e-02  1.0000000000000003e-01  9.9947370698423840e-02  1.0000000000000003e-01  9.9955344298924262e-02  1.0000000000000003e-01  9.9943888620964927e-02  1.0000000000000003e-01  9.9964558882780344e-02  1.0000000000000003e-01  9.9929588341636427e-02  1.0000000000000001e-01  1.0000000000000003e-01  1.0000688224693993e-01  1.0000000000000003e-01  1.0000639288972488e-01  1.0000678496561119e-01  1.0000767565743601e-01  1.0001029987151906e-01  1.0001000852335649e-01  1.0001064255497136e-01  1.0001458431963597e-01  1.0001252174037058e-01  1.0001427949502831e-01  1.0001680330756442e-01  1.0002717237277754e-01  1.0002285198706473e-01  1.0003315546633032e-01  1.0002817779919845e-01  1.0003293580523157e-01  1.0004095707640133e-01  1.0003921300601278e-01  1.0004293839400782e-01  1.0005556949199461e-01  1.0004889711279821e-01  1.0006114490135995e-01  1.0006098056015049e-01  1.0007464081634573e-01  1.0005301614490096e-01  1.0010954519815586e-01  1.0001874356952746e-01  1.0017938333793090e-01  9.9933993071490493e-02  1.0028978197825278e-01  1.0020157116204158e-01  9.9339589252783800e-02  9.9783429830886700e-02  9.9971605519930298e-02  9.9939488092850595e-02  9.9951537703971180e-02  9.9929566346418502e-02  9.9959293243011754e-02  9.9945550097965227e-02  9.9950723646372724e-02  9.9957218657963393e-02  9.9957873108409742e-02  9.9957920955385193e-02  9.9964287843176181e-02  9.9964526685787897e-02  9.9965541123315460e-02  9.9969166144022889e-02  9.9969928715297002e-02  9.9970721099448434e-02  9.9973064714315094e-02  9.9974033609899704e-02  9.9974404572163791e-02  9.9976726017237838e-02  9.9976368167733962e-02  9.9978955579075324e-02  9.9976940991805388e-02  9.9983262734623532e-02  9.9973786393980538e-02  9.9992044956414422e-02  9.9965423477938797e-02  1.0000000000000003e-01  1.0001052840226367e-01  1.0000000000000003e-01  1.0000671739381307e-01  1.0000984669466646e-01  1.0001245564901769e-01  1.0001266468126475e-01  1.0001337162827315e-01  1.0001903112606837e-01  1.0001758565833684e-01  1.0001823738711405e-01  1.0002434236260623e-01  1.0002597547480785e-01  1.0002001360110005e-01  1.0004879323874799e-01  1.0003683087446934e-01  1.0004340503972363e-01  1.0005508999165481e-01  1.0004987030186410e-01  1.0005626982684213e-01  1.0007245848458651e-01  1.0006733551081924e-01  1.0007341456509314e-01  1.0009648534990032e-01  1.0007972177384557e-01  1.0010700295126011e-01  1.0009352148702540e-01  1.0013346659323222e-01  1.0006604103117665e-01  1.0021613335585355e-01  9.9944211723300966e-02  1.0045277166891296e-01  1.0011886756438795e-01  9.9425987301474214e-02  9.9684081144624528e-02  9.9938855521710210e-02  9.9916179302852001e-02  9.9865711798693468e-02  9.9942689091696874e-02  9.9899433257509815e-02  9.9912155603855676e-02  9.9924910673590009e-02  9.9924065259193479e-02  9.9922406089901356e-02  9.9935420722189749e-02  9.9934195187915340e-02  9.9935799883856202e-02  9.9943024870725747e-02  9.9943898923209720e-02  9.9944731708416695e-02  9.9949670248410991e-02  9.9950461380183819e-02  9.9951653671357318e-02  9.9954501027489262e-02  9.9956106049839316e-02  9.9956124409355140e-02  9.9960044432167897e-02  9.9958124121666922e-02  9.9963988038667823e-02  9.9957176114015348e-02  9.9973201578832854e-02  9.9945265210754544e-02  1.0000000000000003e-01  1.0001284030424537e-01  1.0000000000000003e-01  1.0000803971207954e-01  1.0001412240799039e-01  1.0001322504441944e-01  1.0001409682299407e-01  1.0002012908431218e-01  1.0001861823509967e-01  1.0001929163115671e-01  1.0002676660560128e-01  1.0002378968587128e-01  1.0002382746678767e-01  1.0004010086104130e-01  1.0002318378180708e-01  1.0004871226918807e-01  1.0005275760820719e-01  1.0004877486806450e-01  1.0004967425712143e-01  1.0006921101687941e-01  1.0005720644652841e-01  1.0006750093368534e-01  1.0008331821269909e-01  1.0007863462179030e-01  1.0007713036196479e-01  1.0011488992748704e-01  1.0006839339420734e-01  1.0014032553558444e-01  1.0004425055788589e-01  1.0022006089271669e-01  9.9907146142113462e-02  1.0047841064324860e-01  1.0010973413006394e-01  9.9281031861829516e-02  9.9798678268111257e-02  9.9973628955324176e-02  9.9771887938975484e-02  1.0000397769194629e-01  9.9887316644542645e-02  9.9921637165621635e-02  9.9928934914082987e-02  9.9930451885280297e-02  9.9921495910453628e-02  9.9942745420376747e-02  9.9937298948768585e-02  9.9938716292851448e-02  9.9948371450105253e-02  9.9948899246729991e-02  9.9949287188495065e-02  9.9956098562063070e-02  9.9956702465707217e-02  9.9957448781456557e-02  9.9961943906793735e-02  9.9962559234351711e-02  9.9964192793761023e-02  9.9966030053466506e-02  9.9969044466443849e-02  9.9966868104518394e-02  9.9974685353595300e-02  9.9965862162236754e-02  9.9983524793386652e-02  9.9958062871551748e-02  1.0000000000000003e-01  1.0001520780512917e-01  1.0000000000000003e-01  1.0001071843662704e-01  1.0001482458804276e-01  1.0001404008521364e-01  1.0002100986669489e-01  1.0001929840560958e-01  1.0002069436201275e-01  1.0002902419391610e-01  1.0002571461061593e-01  1.0002579312668258e-01  1.0004001915957936e-01  1.0003163868149312e-01  1.0003946795440068e-01  1.0004024140014818e-01  1.0006008508492095e-01  1.0005221894183568e-01  1.0007544914467620e-01  1.0006014618940828e-01  1.0006761982754285e-01  1.0009164209207135e-01  1.0007462624292106e-01  1.0009005318422171e-01  1.0010455329023978e-01  1.0010650294803952e-01  1.0008607918100931e-01  1.0016249122152708e-01  1.0004233680413939e-01  1.0024909291260892e-01  9.9893819352755334e-02  1.0055289045717562e-01  1.0023596446157472e-01  9.9192505717010465e-02  9.9729190788833980e-02  9.9898614455696047e-02  9.9883721709572049e-02  9.9862836565032864e-02  9.9905114499624317e-02  9.9911462441476903e-02  9.9921641864439900e-02  9.9893592713767465e-02  9.9932498001317038e-02  9.9919234204699725e-02  9.9920982231008940e-02  9.9934876909284792e-02  9.9934443277124918e-02  9.9933584764156230e-02  9.9944415236433631e-02  9.9944478829930530e-02  9.9945188151339043e-02  9.9951487818565457e-02  9.9952594859660307e-02  9.9953099040269250e-02  9.9957955726334924e-02  9.9958168839726039e-02  9.9960982417498206e-02  9.9961139645093677e-02  9.9967173277737048e-02  9.9960053276997488e-02  9.9977289030544342e-02  9.9951052706850965e-02  1.0000000000000003e-01  1.0001799887685402e-01  1.0000000000000003e-01  1.0001097488564807e-01  1.0001601163723985e-01  1.0001935176689658e-01  1.0001995722147132e-01  1.0002048028162117e-01  1.0002897939798877e-01  1.0002684070027140e-01  1.0002662383465294e-01  1.0003872179048609e-01  1.0003391978375151e-01  1.0003660829475454e-01  1.0004925430335759e-01  1.0004690814150614e-01  1.0003053775426834e-01  1.0008698831358835e-01  1.0005785752989471e-01  1.0006863112211570e-01  1.0008935018828694e-01  1.0007392964315054e-01  1.0007854435457704e-01  1.0011490686933418e-01  1.0008187369345768e-01  1.0011322590124008e-01  1.0010565998886801e-01  1.0014650573454591e-01  1.0004276766428294e-01  1.0027377673074792e-01  9.9855393745098830e-02  1.0061172849734266e-01  1.0020974671093764e-01  9.9232140728571699e-02  9.9666349265854826e-02  1.0000914743791491e-01  9.9843198292125984e-02  9.9873622023643055e-02  9.9863375694761378e-02  9.9953350567299939e-02  9.9866687771869536e-02  9.9945457599029924e-02  9.9910085668685103e-02  9.9915708075936416e-02  9.9932781351338734e-02  9.9932134771470296e-02  9.9927890512740730e-02  9.9943512541615584e-02  9.9941926401300535e-02  9.9942241914183175e-02  9.9951480967535158e-02  9.9951920630440866e-02  9.9952386506027904e-02  9.9958166532023524e-02  9.9959616441210486e-02  9.9959605830100634e-02  9.9965325486959328e-02  9.9963570653608613e-02  9.9970105215941851e-02  9.9963870107479036e-02  9.9980425616452193e-02  9.9955984151744753e-02  1.0000000000000003e-01  1.0001951531805385e-01  1.0000000000000003e-01  1.0001146687339443e-01  1.0002077428060079e-01  1.0001858186833280e-01  1.0002069138143301e-01  1.0002800652267575e-01  1.0002713147332207e-01  1.0002691973280485e-01  1.0003889184197622e-01  1.0003386263839180e-01  1.0003571298200006e-01  1.0005172122645060e-01  1.0004507783460402e-01  1.0004123230665907e-01  1.0007089626363916e-01  1.0003562337068042e-01  1.0007934021652419e-01  1.0009061115966106e-01  1.0007538478998453e-01  1.0007968459436735e-01  1.0011006767391331e-01  1.0009001826575736e-01  1.0009176819336683e-01  1.0014343314282280e-01  1.0008307803895433e-01  1.0015724402072849e-01  1.0006814803225936e-01  1.0026235400801523e-01  9.9854232912002364e-02  1.0066581866384294e-01  1.0018483448204046e-01  9.9165700173139082e-02  9.9734883270899161e-02  9.9970614310432471e-02  9.9799525147334880e-02  9.9925401202259886e-02  9.9883196058090637e-02  9.9825175424680918e-02  9.9957025297868346e-02  9.9893240247071663e-02  9.9909430806444322e-02  9.9920877355334448e-02  9.9925178052653371e-02  9.9914509448997033e-02  9.9937032105870016e-02  9.9933142792615337e-02  9.9932493811503223e-02  9.9944140940699991e-02  9.9945015407942678e-02  9.9944722941484640e-02  9.9953010295491571e-02  9.9953454112706744e-02  9.9954766114279961e-02  9.9958958859796235e-02  9.9961805223379926e-02  9.9960430362675989e-02  9.9968464209888364e-02  9.9961648998777575e-02  9.9978023878999941e-02  9.9954171685966001e-02  1.0000000000000003e-01  1.0002092399916318e-01  1.0000000000000003e-01  1.0001397847652241e-01  1.0002049643004983e-01  1.0001885916624091e-01  1.0002706554049298e-01  1.0002572844437141e-01  1.0002664754938838e-01  1.0003754714252071e-01  1.0003354473211175e-01  1.0003401712684964e-01  1.0005031682514942e-01  1.0004392455170162e-01  1.0004368432138470e-01  1.0006648808615223e-01  1.0004741986830912e-01  1.0005964843659053e-01  1.0006102080100260e-01  1.0008844115126055e-01  1.0007475120953467e-01  1.0011578237829030e-01  1.0008037538417093e-01  1.0009772028120650e-01  1.0012410323368461e-01  1.0011189770921325e-01  1.0008896327362779e-01  1.0018987426732252e-01  1.0003749524399180e-01  1.0027567324079191e-01  9.9863779355860285e-02  1.0067686692936048e-01  1.0026388677203658e-01  9.9096636751070125e-02  9.9695843557793609e-02  9.9934961820761392e-02  9.9860306402206778e-02  9.9915956321012397e-02  9.9837380388833066e-02  9.9917878664463569e-02  9.9854096613868945e-02  9.9924411483229073e-02  9.9906831420992173e-02  9.9931246612301697e-02  9.9900606367551395e-02  9.9936750424298920e-02  9.9927602310404720e-02  9.9926744955662783e-02  9.9941258711636921e-02  9.9941196164069990e-02  9.9939352906678283e-02  9.9950795957069946e-02  9.9951329784821630e-02  9.9951296019000824e-02  9.9958656610493718e-02  9.9958885824727881e-02  9.9961346828871867e-02  9.9963101922315459e-02  9.9969205697449423e-02  9.9962573451459327e-02  9.9979646420083418e-02  9.9956348231316938e-02  1.0000000000000003e-01  1.0002292967460569e-01  1.0000000000000003e-01  1.0001366060133271e-01  1.0002077480467271e-01  1.0002362333777412e-01  1.0002546518177699e-01  1.0002505763708887e-01  1.0003538273368956e-01  1.0003300240726888e-01  1.0003294663484807e-01  1.0004663866427817e-01  1.0004293401539451e-01  1.0004264657007483e-01  1.0006339133589121e-01  1.0005135374258130e-01  1.0005348837975647e-01  1.0007389915558713e-01  1.0006610219938836e-01  1.0004102761140073e-01  1.0012740161552154e-01  1.0008092208519910e-01  1.0009215254532525e-01  1.0013331406792859e-01  1.0008898169829171e-01  1.0011728841315733e-01  1.0012996080910538e-01  1.0015127873431497e-01  1.0004455876002778e-01  1.0031166515519076e-01  9.9829293413458725e-02  1.0070235536413007e-01  1.0026130380714668e-01  9.9117706619686122e-02  9.9650146729216682e-02  9.9995080705070891e-02  9.9837892394880140e-02  9.9872073088626750e-02  9.9896689909139025e-02  9.9894556722934555e-02  9.9866006342086117e-02  9.9874610243075618e-02  9.9947111252657345e-02  9.9880960966090546e-02  9.9940770473406063e-02  9.9917838747761251e-02  9.9919740284360903e-02  9.9935705629583566e-02  9.9936900966244815e-02  9.9931843021311806e-02  9.9946509326311286e-02  9.9945827132131820e-02  9.9945923825897037e-02  9.9954798278222678e-02  9.9956255386380144e-02  9.9955731314322949e-02  9.9963149082768085e-02  9.9961802580277079e-02  9.9967551814330133e-02  9.9963304134068717e-02  9.9978742214266225e-02  9.9956163798382486e-02  1.0000000000000003e-01  1.0002372616315912e-01  1.0000000000000003e-01  1.0001362682207354e-01  1.0002471327044679e-01  1.0002228219093449e-01  1.0002496743133944e-01  1.0003242981835003e-01  1.0003186977179894e-01  1.0003166469804442e-01  1.0004419949049728e-01  1.0004034537326763e-01  1.0004035207270148e-01  1.0005990532677107e-01  1.0005137016991342e-01  1.0005077170672677e-01  1.0007464420904197e-01  1.0006182030990436e-01  1.0005370238331629e-01  1.0010083952340917e-01  1.0004275254729517e-01  1.0010697977610220e-01  1.0012453039418462e-01  1.0009998121874956e-01  1.0009400422891447e-01  1.0016275573861182e-01  1.0008248460727658e-01  1.0015731891981534e-01  1.0008829821997201e-01  1.0026971082135469e-01  9.9832931164837740e-02  1.0074565688354090e-01  1.0024000027827330e-01  9.9086693199101863e-02  9.9691402872312290e-02  9.9984528601275685e-02  9.9797396474179512e-02  9.9925698136125243e-02  9.9880014638283082e-02  9.9871288601473804e-02  9.9899145729267946e-02  9.9906961929852017e-02  9.9844199449738782e-02  9.9958837495506492e-02  9.9905428311428388e-02  9.9921381278088833e-02  9.9928127069471698e-02  9.9935621813530745e-02  9.9924891475692862e-02  9.9944629303407001e-02  9.9942629426639396e-02  9.9940771223029981e-02  9.9951805247087439e-02  9.9953117420991416e-02  9.9953275977291464e-02  9.9960039957196350e-02  9.9962601487342706e-02  9.9961098066400342e-02  9.9969849139422945e-02  9.9963830185955588e-02  9.9978933110827214e-02  9.9957864002068492e-02  1.0000000000000003e-01  1.0002437584671774e-01  1.0000000000000003e-01  1.0001542823291489e-01  1.0002383261292395e-01  1.0002155103771360e-01  1.0003033465459217e-01  1.0002933289272015e-01  1.0003034751777234e-01  1.0004079264938709e-01  1.0003830081391349e-01  1.0003746003763979e-01  1.0005490850683341e-01  1.0004882913521816e-01  1.0004854132490007e-01  1.0007106345061487e-01  1.0005895738265584e-01  1.0005638364729065e-01  1.0009038973414813e-01  1.0006014114891366e-01  1.0007472447809315e-01  1.0008307442975858e-01  1.0010969010590512e-01  1.0009738838873630e-01  1.0014784079977891e-01  1.0010829031713374e-01  1.0009177217879311e-01  1.0020640256474699e-01  1.0003724202818361e-01  1.0027044828966519e-01  9.9881963010773581e-02  1.0070154707560157e-01  1.0029143851213719e-01  9.9029878029185850e-02  9.9680985902442051e-02  9.9952120516163825e-02  9.9840992351421853e-02  9.9915401215471586e-02  9.9846271587699167e-02  9.9909656994369586e-02  9.9900069010446457e-02  9.9872670893994292e-02  9.9915921137205918e-02  9.9876900264739027e-02  9.9933898846625027e-02  9.9916653345565931e-02  9.9940303061322955e-02  9.9914320434270343e-02  9.9943634849517113e-02  9.9938179673450353e-02  9.9936397514883424e-02  9.9948928182564234e-02  9.9949623637948584e-02  9.9947466202940746e-02  9.9958334139288854e-02  9.9958537884266049e-02  9.9960302847742669e-02  9.9963850122540332e-02  9.9969398063242301e-02  9.9963326170183525e-02  9.9979679463415697e-02  9.9958484884832069e-02  1.0000000000000003e-01  1.0002575132307363e-01  1.0000000000000003e-01  1.0001492056886485e-01  1.0002345998354419e-01  1.0002539776840257e-01  1.0002832009272479e-01  1.0002776812860946e-01  1.0003779410689093e-01  1.0003631371258964e-01  1.0003556586011735e-01  1.0004938317820991e-01  1.0004635270167729e-01  1.0004534547029688e-01  1.0006556863182577e-01  1.0005749374954231e-01  1.0005412007982872e-01  1.0008386280647538e-01  1.0006431006793891e-01  1.0006558671148170e-01  1.0009563922014737e-01  1.0008177312768828e-01  1.0004307542199915e-01  1.0017084707807337e-01  1.0008769173912661e-01  1.0012196412317972e-01  1.0014747814674717e-01  1.0014184951203460e-01  1.0004322178928608e-01  1.0032522279343098e-01  9.9830121345712647e-02  1.0069559419050510e-01  1.0031060380452927e-01  9.9041970966581030e-02  9.9640823059460509e-02  9.9993176713033413e-02  9.9837035164764484e-02  9.9882445988232052e-02  9.9885107402155712e-02  9.9906577075838110e-02  9.9867165089434259e-02  9.9916454432400048e-02  9.9905186637798640e-02  9.9893370969376519e-02  9.9889096932846741e-02  9.9957827339735891e-02  9.9900782206228694e-02  9.9949055641765705e-02  9.9932200001787694e-02  9.9933372345107380e-02  9.9946050144933449e-02  9.9948320929602513e-02  9.9943779911222552e-02  9.9955395171848926e-02  9.9956172311510230e-02  9.9955689801799974e-02  9.9964640796229118e-02  9.9963838003480313e-02  9.9968450089901711e-02  9.9965980969695709e-02  9.9979876406576171e-02  9.9959613375434464e-02  1.0000000000000003e-01  1.0002591501764611e-01  1.0000000000000003e-01  1.0001437002474492e-01  1.0002623812012605e-01  1.0002358717013322e-01  1.0002689679463538e-01  1.0003340202922117e-01  1.0003393523532950e-01  1.0003351061829854e-01  1.0004520459144700e-01  1.0004236218106542e-01  1.0004205707400904e-01  1.0005974799659031e-01  1.0005418561535076e-01  1.0005086804132281e-01  1.0007670849443991e-01  1.0006407087912375e-01  1.0005973424516480e-01  1.0009461327700307e-01  1.0007346705258738e-01  1.0006112218759423e-01  1.0012660573639443e-01  1.0004680608694907e-01  1.0011953711222532e-01  1