<?xml version="1.0"?>
<VTKFile type="UnstructuredGrid"  version="0.1"  >
<UnstructuredGrid>
<Piece  NumberOfPoints="1933" NumberOfCells="3640">
<Points>
<DataArray  type="Float64"  NumberOfComponents="3"  format="ascii">0.4752861164844295 0.001584208661905573 0  5.475286128726095 0.001519032939804854 0  5.475383950711377 7.501519098446859 0  0.4753839080833417 7.501584219775358 0  10.47528613210504 0.001453783234301899 0  10.47538403682514 7.501453871468904 0  15.47528616601127 0.001388392591686904 0  15.47538419341582 7.501388490115265 0  20.47528628114737 0.00132283295796827 0  20.47538444878764 7.501322934125049 0  25.47528652962657 0.001257101103050084 0  25.47538483297384 7.501257203925359 0  30.47528696170721 0.001191210085954525 0  30.47538537718432 7.501191314370622 0  35.47528762543122 0.001125184053054629 0  35.47538611341034 7.501125290519052 0  40.47528856751018 0.001059055233801777 0  40.47538707437286 7.501059165093732 0  45.47528983471518 0.0009928624510081559 0  45.47538829375873 7.500992977226817 0  50.47529147545162 0.000926650726437395 0  50.47538980664579 7.500926772187525 0  55.47529354139831 0.0008604717390157794 0  55.4753916500287 7.500860601908196 0  60.47529608918459 0.0007943850197495585 0  60.47539386337633 7.500794526220401 0  65.47529918212393 0.000728459866228006 0  65.47539648915793 7.500728614798276 0  70.4753028920363 0.0006627780468890244 0  70.47539957327723 7.500662949885666 0  75.47530730120249 0.000597437455405048 0  75.47540316533369 7.500597629967833 0  80.47531250447919 0.0005325569839492684 0  80.47540731859488 7.500532774650162 0  85.47531861159318 0.0004682830300079425 0  85.47541208950717 7.50046853113903 0  90.47532574957179 0.0004047982626323018 0  90.47541753647293 7.500405082904864 0  95.4753340651809 0.0003423335939062093 0  95.47542371748276 7.500342661370343 0  100.475343727014 0.0002811848001412779 0  100.4754306859845 7.500281561843523 0  105.4753549264531 0.0002217360302079807 0  105.475438484089 7.50022216545019 0  110.475367875819 0.000164493716228001 0  110.4754471318778 7.500164969547082 0  115.4753828002104 0.0001101364772727613 0  115.4754566113138 7.50011063001473 0  120.4753999158068 5.958998089679985e-05 0  120.4754668434171 7.500060019769168 0  125.4754193798118 1.414115284244105e-05 0  125.475477659029 7.500014308216327 0  130.4754411816398 -2.438550046506542e-05 0  130.4754887692601 7.499975064621618 0  135.4754649127914 -5.33555723464305e-05 0  135.4754997582521 7.499944381029374 0  140.4754892848798 -6.891791367390634e-05 0  140.4755101647416 7.499924992916474 0  145.4755111129188 -6.549142899958606e-05 0  145.4755198348875 7.499920361379 0  150.4755230897881 -3.570481144529654e-05 0  150.4755300567672 7.499934843733801 0  160.4755282581476 1.395016176953292e-18 0  165.4754147744978 -0.0001442145007810145 0  165.4755077986789 7.499835698730887 0  160.4755429915984 7.499951716782317 0  170.4753478038534 -0.0002734923266035859 0  170.4754720345132 7.499716332826653 0  175.4753066732266 -0.0003918780624107649 0  175.4754417789756 7.499602422803727 0  180.4752806765946 -0.0005014005512286438 0  180.4754177905036 7.499495233569538 0  185.4752639111246 -0.0006037268618454432 0  185.4753993288308 7.499394212645723 0  190.4752529848688 -0.0007002638712378895 0  190.4753853469739 7.499298435839571 0  195.4752458775252 -0.0007921480997897802 0  195.4753748690661 7.499207008269416 0  200.4752413419787 -0.0008802721761524727 0  200.475367089045 7.49911916681673 0  205.4752385799275 -0.0009653300883583132 0  205.4753613730225 7.49903428925955 0  210.4752370617742 -0.00104786231534813 0  210.4753572326896 7.498951875759898 0  215.4752364241962 -0.001128293436483647 0  215.4753542944101 7.498871525210897 0  220.4752364103413 -0.001206961107295114 0  220.4753522721317 7.4987929138028 0  225.4752368338785 -0.001284137606347806 0  225.4753509458881 7.498715777617882 0  230.4752375567069 -0.001360045646536322 0  230.4753501454802 7.498639899123277 0  235.4752384746844 -0.001434869971343558 0  235.4753497383291 7.498565096874146 0  240.4752395081954 -0.001508765922200245 0  240.4753496204981 7.498491217691297 0  245.4752405957422 -0.001581865847129565 0  245.4753497100561 7.498418130688525 0  250.4752416894704 -0.001654283971242819 0  250.4753499421554 7.498345722663856 0  255.4752427519994 -0.001726120166486452 0  255.4753502653714 7.498273894492796 0  260.4752437541449 -0.00179746292761753 0  260.4753506389657 7.498202558259266 0  265.4752446733096 -0.001868391768524246 0  265.4753510308477 7.49813163493534 0  270.4752454923776 -0.001938979184357708 0  270.4753514160714 7.498061052479233 0  275.4752461990556 -0.00200929226856121 0  275.4753517757374 7.497990744270797 0  280.4752467856208 -0.002079394017271194 0  280.4753520962236 7.497920647852408 0  285.4752472491073 -0.002149344279968275 0  285.4753523686633 7.497850704001498 0  290.4752475919607 -0.002219200196229656 0  290.4753525885981 7.497780856241428 0  295.4752478232364 -0.002289015739354708 0  295.4753527557432 7.497711051016203 0  300.4752479603105 -0.002358839553142494 0  300.4753528737937 7.497641238928352 0  305.4752480308261 -0.00242870935774842 0  305.4753529503501 7.497571377661684 0  310.4752480738028 -0.002498639184295079 0  310.4753529975101 7.497501437387956 0  5.47548149400971 15.0015192662589 0  0.4754814427948105 15.00158425264532 0  10.47548159359205 15.00145409567583 0  15.47548176769822 15.00138873306679 0  20.47548203613923 15.00132317989964 0  25.47548241663574 15.00125744771865 0  30.47548292666475 15.00119155692545 0  35.47548358412487 15.00112553527778 0  40.47548440749836 15.00105941678612 0  45.47548541582267 15.00099324120714 0  50.47548662859073 15.00092705415776 0  55.47548806560435 15.00086090783234 0  60.47548974675448 15.00079486232115 0  65.47549169167989 15.00072898756626 0  70.47549391923052 15.00066336604064 0  75.47549644664834 15.00059809629671 0  80.47549928834903 15.00053329760202 0  85.47550245416834 15.00046911596724 0  90.47550594691107 15.00040573197747 0  95.47550975904241 15.0003433709579 0  100.4755138684045 15.00028231612293 0  105.4755182330195 15.00022292542013 0  110.4755227854482 15.00016565265828 0  115.4755274280901 15.0001110729057 0  120.475532032607 15.00005991041725 0  125.4755364499889 15.00001306312941 0  130.4755405434708 14.99997160818903 0  135.4755442650672 14.99993675190798 0  140.4755478060398 14.99990964064723 0  145.4755518499372 14.99989083568034 0  150.4755578901832 14.99987892008807 0  165.4755668646975 14.99978128967573 0  160.4755734694843 14.99987085521509 0  170.4755543742974 14.99968254207606 0  175.4755394997662 14.99958159991292 0  180.4755247777325 14.99948223191568 0  185.4755114720083 14.99938592166269 0  190.4755000444633 14.99929301756791 0  195.4754905345507 14.99920337538796 0  200.4754827866035 14.99911666915863 0  205.4754765724134 14.9990325317679 0  210.4754716525096 14.99895061359387 0  215.4754678039827 14.99887060318383 0  220.4754648309592 14.99879223115643 0  225.4754625665804 14.99871526730081 0  230.4754608711661 14.99863951542497 0  235.4754596289558 14.99856480792144 0  240.4754587445653 14.99849100081297 0  245.4754581396757 14.99841796950015 0  250.4754577501458 14.99834560520714 0  255.4754575235821 14.99827381203749 0  260.4754574173366 14.99820250453652 0  265.4754573968746 14.99813160566315 0  270.4754574344539 14.99806104509489 0  275.4754575080488 14.99799075781163 0  280.4754576004595 14.99792068292706 0  285.4754576985721 14.99785076276071 0  290.4754577927054 14.99778094215674 0  295.4754578760741 14.99771116804158 0  300.4754579444158 14.99764138910566 0  305.4754579960242 14.99757155512412 0  310.4754580326575 14.99750161432755 0  5.475578666437296 22.50151964193659 0  0.4755786140564459 22.50158447435732 0  10.47557875505598 22.50145454092779 0  15.47557890171689 22.50138920225546 0  20.47557912041091 22.50132365190485 0  25.47557942093157 22.50125791601225 0  30.47557981104768 22.50119202325488 0  35.47558029760425 22.50112600587776 0  40.47558088693587 22.50105990020366 0  45.47558158486509 22.50099374709668 0  50.4755823964502 22.50092759262618 0  55.4755833255585 22.50086148906214 0  60.47558437429171 22.50079549628658 0  65.47558554225472 22.50072968369638 0  70.47558682563903 22.50066413268346 0  75.47558821609005 22.50059893980094 0  80.47558969932345 22.50053422074878 0  85.4755912534864 22.50047011533325 0  90.47559284730534 22.50040679355862 0  95.47559443816796 22.50034446297055 0  100.4755959704694 22.50028337723741 0  105.475597374879 22.50022384564154 0  110.4755985697002 22.50016624247691 0  115.4755994662986 22.50011101401796 0  120.4755999816621 22.50005867820542 0  125.4756000624256 22.50000980763579 0  130.4755997254798 22.49996497854529 0  135.4755991187902 22.49992465562726 0  140.4755985977727 22.49988896392257 0  145.4755987876248 22.49985728079114 0  150.4756005420084 22.49982760769771 0  165.4756210555925 22.49972126573494 0  160.4756139217387 22.49979529590879 0  170.4756225085259 22.49963793531731 0  175.4756197874731 22.49954967429089 0  180.4756145626582 22.49945971179498 0  185.4756081894336 22.49937005307342 0  190.4756015825293 22.49928176269958 0  195.4755952848394 22.4991953071007 0  200.4755895774579 22.49911081143209 0  205.4755845745053 22.49902822224396 0  210.4755802912812 22.49894740210178 0  215.4755766890692 22.4988681815501 0  220.4755737029537 22.49879038612251 0  225.4755712582929 22.49871384937165 0  230.475569279994 22.49863841834172 0  235.4755676973873 22.4985639551087 0  240.4755664464958 22.49849033638103 0  245.4755654708158 22.49841745222811 0  250.475564721281 22.49834520449011 0  255.4755641558161 22.498273505145 0  260.4755637386942 22.49820227476051 0  265.4755634398408 22.49813144108196 0  270.4755632341311 22.49806093777076 0  275.4755631007237 22.49799070328968 0  280.4755630224245 22.49792067992182 0  285.4755629850924 22.49785081289666 0  290.4755629770892 22.49778104956516 0  295.4755629888078 22.49771133849126 0  300.4755630123
[...]
<PointData  Scalars="p"> 
<DataArray  type="Float64"  Name="p"  format="ascii">1.0000000000000001e-01  1.0000000000000003e-01  1.0000212144920172e-01  1.0000000000000003e-01  1.0000000000000003e-01  1.0000133933884825e-01  1.0000000000000003e-01  1.0000202693393616e-01  1.0000000000000003e-01  1.0000187661772519e-01  1.0000000000000003e-01  1.0000227961060840e-01  1.0000000000000003e-01  1.0000375328439869e-01  1.0000000000000003e-01  1.0000382326884524e-01  1.0000000000000003e-01  1.0000482795124804e-01  1.0000000000000003e-01  1.0000656363451563e-01  1.0000000000000003e-01  1.0000528813582228e-01  1.0000000000000003e-01  1.0001250804362669e-01  1.0000000000000003e-01  1.0001387409439184e-01  1.0000000000000003e-01  1.0001712495085090e-01  1.0000000000000003e-01  1.0001904631581347e-01  1.0000000000000003e-01  1.0002517829781954e-01  1.0000000000000003e-01  1.0002712253441762e-01  1.0000000000000003e-01  1.0003239568695090e-01  1.0000000000000003e-01  1.0004018031658916e-01  1.0000000000000003e-01  1.0004314896717685e-01  1.0000000000000003e-01  1.0005244801987850e-01  1.0000000000000003e-01  1.0005860027270089e-01  1.0000000000000003e-01  1.0006944213218863e-01  1.0000000000000003e-01  1.0007007286273160e-01  1.0000000000000003e-01  1.0009484186346691e-01  1.0000000000000003e-01  1.0007750913453496e-01  1.0000000000000003e-01  1.0012681600362668e-01  1.0000000000000003e-01  1.0007739211469861e-01  1.0000000000000003e-01  1.0016845827201890e-01  1.0000000000000003e-01  1.0006550902097552e-01  1.0000000000000001e-01  1.0023417288689095e-01  1.0000000000000001e-01  1.0000000000000003e-01  9.9863376589338956e-02  9.9659073863026720e-02  1.0000000000000003e-01  9.9984607380706608e-02  1.0000000000000003e-01  9.9896337197142235e-02  1.0000000000000003e-01  9.9948964325870041e-02  1.0000000000000003e-01  9.9935861847462060e-02  1.0000000000000003e-01  9.9950096327355964e-02  1.0000000000000003e-01  9.9946675918348243e-02  1.0000000000000003e-01  9.9958832603288222e-02  1.0000000000000003e-01  9.9958423990624407e-02  1.0000000000000003e-01  9.9963362677360126e-02  1.0000000000000003e-01  9.9967333514525275e-02  1.0000000000000003e-01  9.9970136606914395e-02  1.0000000000000003e-01  9.9972199586655666e-02  1.0000000000000003e-01  9.9975592619776302e-02  1.0000000000000003e-01  9.9977138908598481e-02  1.0000000000000003e-01  9.9978779835776826e-02  1.0000000000000003e-01  9.9980753760924940e-02  1.0000000000000003e-01  9.9981919379259113e-02  1.0000000000000003e-01  9.9982877929230857e-02  1.0000000000000003e-01  9.9984198236814897e-02  1.0000000000000003e-01  9.9984812167076248e-02  1.0000000000000003e-01  9.9985657526091870e-02  1.0000000000000003e-01  9.9986072298240247e-02  1.0000000000000003e-01  9.9987128310107060e-02  1.0000000000000003e-01  9.9986565452321347e-02  1.0000000000000003e-01  9.9988718505150356e-02  1.0000000000000003e-01  9.9986210389697613e-02  1.0000000000000003e-01  9.9991280755276246e-02  1.0000000000000003e-01  9.9983205462644442e-02  1.0000000000000001e-01  1.0000000000000003e-01  1.0000471642932472e-01  1.0000000000000003e-01  1.0000398340497546e-01  1.0000416011129033e-01  1.0000471479117019e-01  1.0000664579538185e-01  1.0000634490248896e-01  1.0000693626099263e-01  1.0000996464198621e-01  1.0000817777428643e-01  1.0000968151062281e-01  1.0001070709436786e-01  1.0001958529033259e-01  1.0001488247244898e-01  1.0002301432695739e-01  1.0001870391119402e-01  1.0002310950420969e-01  1.0002937457082639e-01  1.0002846257812952e-01  1.0003228529079987e-01  1.0004266602004502e-01  1.0003817685729022e-01  1.0004916362233418e-01  1.0004968809519328e-01  1.0006155120917580e-01  1.0004569062480839e-01  1.0009120221476575e-01  1.0001935645288147e-01  1.0014850240909168e-01  9.9950996183342536e-02  1.0023636880532016e-01  1.0016453813100795e-01  9.9517460737053934e-02  9.9825471711744565e-02  9.9981955406081513e-02  9.9953798857484288e-02  9.9963165319465197e-02  9.9947811216023225e-02  9.9972194682150267e-02  9.9961661239045291e-02  9.9967079423334812e-02  9.9972875873269335e-02  9.9973707765621034e-02  9.9974371961382189e-02  9.9979781318963609e-02  9.9980073871088510e-02  9.9981166595171603e-02  9.9984190551523133e-02  9.9984872446753359e-02  9.9985610310089956e-02  9.9987639470509412e-02  9.9988335390186811e-02  9.9988943499639354e-02  9.9990490242047883e-02  9.9990881973498466e-02  9.9991997594505694e-02  9.9992223191737506e-02  9.9994195834752164e-02  9.9992427362947237e-02  9.9997254192813162e-02  9.9991418880357230e-02  1.0000000000000003e-01  1.0000755541843243e-01  1.0000000000000003e-01  1.0000445901425532e-01  1.0000639140471083e-01  1.0000822526108716e-01  1.0000810913150833e-01  1.0000877548072458e-01  1.0001305089967331e-01  1.0001186780115391e-01  1.0001265556507176e-01  1.0001696451239354e-01  1.0001842515785675e-01  1.0001245354418722e-01  1.0003611122065729e-01  1.0002460295479118e-01  1.0003045344121683e-01  1.0003896030673996e-01  1.0003527410709902e-01  1.0004133063811396e-01  1.0005439568880743e-01  1.0005116193339579e-01  1.0005778610275134e-01  1.0007667752940032e-01  1.0006490584265401e-01  1.0008858386234662e-01  1.0007895228533305e-01  1.0011179128417184e-01  1.0006033475421781e-01  1.0017909067773595e-01  9.9963255292986039e-02  1.0036776626752694e-01  1.0007560648664288e-01  9.9613589161936147e-02  9.9771132552628233e-02  9.9959762764733326e-02  9.9938301849111372e-02  9.9903161442368771e-02  9.9964347579532473e-02  9.9930031696362734e-02  9.9942828947824705e-02  9.9953999973224475e-02  9.9953834967047780e-02  9.9953887504447947e-02  9.9964911347528121e-02  9.9964187899394624e-02  9.9966108985928046e-02  9.9972172468378445e-02  9.9972921973475654e-02  9.9973899358907978e-02  9.9977962449271457e-02  9.9978698976797231e-02  9.9979727679925870e-02  9.9982286166334533e-02  9.9983315031749273e-02  9.9984037385514729e-02  9.9986264032421168e-02  9.9986476377490960e-02  9.9988600155532792e-02  9.9987861349124227e-02  9.9992344369496944e-02  9.9986400764473821e-02  1.0000000000000003e-01  1.0000941420814027e-01  1.0000000000000003e-01  1.0000573256797540e-01  1.0001021515767448e-01  1.0000931408358714e-01  1.0001018811513690e-01  1.0001487699564998e-01  1.0001377823042847e-01  1.0001487944009867e-01  1.0002071395041269e-01  1.0001850021782291e-01  1.0001884378086263e-01  1.0003176735717222e-01  1.0001639393202409e-01  1.0003914450607762e-01  1.0003968072693321e-01  1.0003703190782380e-01  1.0003836586051033e-01  1.0005413693692719e-01  1.0004534940601349e-01  1.0005542055764502e-01  1.0006849597461499e-01  1.0006610857518815e-01  1.0006741867514329e-01  1.0009791339847772e-01  1.0006304266923785e-01  1.0012152240000392e-01  1.0004657004466165e-01  1.0018486279279321e-01  9.9938960839873345e-02  1.0038672593571796e-01  1.0005689068132097e-01  9.9505663046027815e-02  9.9861814270934463e-02  9.9975071227657683e-02  9.9821573294950769e-02  1.0000504804196245e-01  9.9909780267708789e-02  9.9940840756370455e-02  9.9947630610759369e-02  9.9949340070275713e-02  9.9944256103007709e-02  9.9962216807158027e-02  9.9958254897620946e-02  9.9960429221565714e-02  9.9968673829559582e-02  9.9969264737448146e-02  9.9970047887288749e-02  9.9975779207330320e-02  9.9976298744280115e-02  9.9977281385994515e-02  9.9980960217688569e-02  9.9981796804633302e-02  9.9983017688056952e-02  9.9985285932209900e-02  9.9986836435467963e-02  9.9987221588003217e-02  9.9990401973558879e-02  9.9989157544468951e-02  9.9994289714907703e-02  9.9989158915757478e-02  1.0000000000000003e-01  1.0001131223235563e-01  1.0000000000000003e-01  1.0000807031403679e-01  1.0001098356525787e-01  1.0001056114755906e-01  1.0001573681016328e-01  1.0001450280650696e-01  1.0001601720978222e-01  1.0002269591672576e-01  1.0002030338564336e-01  1.0002098573093623e-01  1.0003234195885638e-01  1.0002528575012831e-01  1.0003271313528661e-01  1.0003058910098368e-01  1.0004888440572024e-01  1.0004091770412332e-01  1.0005937784751451e-01  1.0004725523101794e-01  1.0005533357005217e-01  1.0007447198631868e-01  1.0006252072967037e-01  1.0007716372496447e-01  1.0008972443132151e-01  1.0009258992990226e-01  1.0008008671777532e-01  1.0013986852995797e-01  1.0004823407352449e-01  1.0020974347644417e-01  9.9932602803979198e-02  1.0044414043203437e-01  1.0014893499910742e-01  9.9451484443815241e-02  9.9804020882101135e-02  9.9914823695361255e-02  9.9920151043424416e-02  9.9889136072067633e-02  9.9928026284185498e-02  9.9933879464713313e-02  9.9941202271578253e-02  9.9921970240755678e-02  9.9954452942258701e-02  9.9944260210651351e-02  9.9947406260569999e-02  9.9959400938454915e-02  9.9959266449315770e-02  9.9959459632794193e-02  9.9968564589397360e-02  9.9968701158905604e-02  9.9969675720640902e-02  9.9975033654775142e-02  9.9975942351360356e-02  9.9976862543170800e-02  9.9980695862393013e-02  9.9981608815620265e-02  9.9983292471290119e-02  9.9985185954333450e-02  9.9987670984635263e-02  9.9987002743641737e-02  9.9992489176961463e-02  9.9987201028603673e-02  1.0000000000000003e-01  1.0001353561342097e-01  1.0000000000000003e-01  1.0000840568540871e-01  1.0001234537965735e-01  1.0001502762292133e-01  1.0001546602985817e-01  1.0001621920989626e-01  1.0002298623870880e-01  1.0002150281782236e-01  1.0002219237283340e-01  1.0003182964530229e-01  1.0002823847282735e-01  1.0003149680525833e-01  1.0004067208378821e-01  1.0003966029980001e-01  1.0002510955204269e-01  1.0007249267501012e-01  1.0004649466633293e-01  1.0005719848884592e-01  1.0007281463395570e-01  1.0006199332204874e-01  1.0006832375979897e-01  1.0009751701146175e-01  1.0007345781005662e-01  1.0010096587675435e-01  1.0009679915905563e-01  1.0012882044552285e-01  1.0005287949932964e-01  1.0022893191002362e-01  9.9907529268124143e-02  1.0048811255617646e-01  1.0011456662560435e-01  9.9492231371414885e-02  9.9755604822347160e-02  9.9997834615795825e-02  9.9878235501349250e-02  9.9901024725406212e-02  9.9893291658399580e-02  9.9960893091731451e-02  9.9895255830052349e-02  9.9959614064708407e-02  9.9931296058799371e-02  9.9938404606220679e-02  9.9953266875541666e-02  9.9953063321162453e-02  9.9951052300162754e-02  9.9964210902146869e-02  9.9963078696083521e-02  9.9964068676450399e-02  9.9971765752040781e-02  9.9972260935605808e-02  9.9972956518188147e-02  9.9978073273847085e-02  9.9979117526430197e-02  9.9980074129511029e-02  9.9984002872460412e-02  9.9984599988613171e-02  9.9987366767742614e-02  9.9987592199243094e-02  9.9992783620416581e-02  9.9988040764340508e-02  1.0000000000000003e-01  1.0001473454566648e-01  1.0000000000000003e-01  1.0000904087708611e-01  1.0001622310036822e-01  1.0001470735475891e-01  1.0001665367573274e-01  1.0002251688611200e-01  1.0002176615727509e-01  1.0002246344621323e-01  1.0003195604797938e-01  1.0002821767417117e-01  1.0003096236609250e-01  1.0004336515170610e-01  1.0003850823323276e-01  1.0003618730660746e-01  1.0006022848919857e-01  1.0002935557891268e-01  1.0006934440985520e-01  1.0007408318828089e-01  1.0006319345149264e-01  1.0006828290748754e-01  1.0009292783580620e-01  1.0007830701542121e-01  1.0008365124367773e-01  1.0012434842392660e-01  1.0008013172295507e-01  1.0013941182749531e-01  1.0007409385499970e-01  1.0021942275794865e-01  9.9913100272631658e-02  1.0052449385391210e-01  1.0009105301653423e-01  9.9443310940799265e-02  9.9812170253731666e-02  9.9959120327211493e-02  9.9844890681451831e-02  9.9940381729870700e-02  9.9910743654718553e-02  9.9860829942760437e-02  9.9968063720210457e-02  9.9915759038085167e-02  9.9931317497620631e-02  9.9942152656310082e-02  9.9945924727422128e-02  9.9939276046121142e-02  9.9958365122936904e-02  9.9955519092728054e-02  9.9955968739313839e-02  9.9965901016752234e-02  9.9966703152929728e-02  9.9967053572904183e-02  9.9973936725645279e-02  9.9974603173626095e-02  9.9975818237195216e-02  9.9980027090512194e-02  9.9981767799118285e-02  9.9982606242196667e-02  9.9986826547469029e-02  9.9986367545283825e-02  9.9991758483249496e-02  9.9987387324504878e-02  1.0000000000000003e-01  1.0001591837139931e-01  1.0000000000000003e-01  1.0001108484000057e-01  1.0001611074164597e-01  1.0001537303111210e-01  1.0002189141144154e-01  1.0002098985829420e-01  1.0002237109991237e-01  1.0003096342788759e-01  1.0002803558271454e-01  1.0002941300050110e-01  1.0004240761743913e-01  1.0003768234231085e-01  1.0003871734805879e-01  1.0005687661730653e-01  1.0004144204346202e-01  1.0005400702053693e-01  1.0005096723578930e-01  1.0007746909061151e-01  1.0006467803097531e-01  1.0009723314797156e-01  1.0006964669070575e-01  1.0008689888762722e-01  1.0010833666924573e-01  1.0009994558784252e-01  1.0008737175479961e-01  1.0016426744012173e-01  1.0005153015657947e-01  1.0023068351870836e-01  9.9924253015985801e-02  1.0052683989172255e-01  1.0014963190304287e-01  9.9394159050495409e-02  9.9777470459888259e-02  9.9928868229740911e-02  9.9891294589466287e-02  9.9926114063829410e-02  9.9871797990745470e-02  9.9938569114424877e-02  9.9882993934351655e-02  9.9940164368342965e-02  9.9927880347681450e-02  9.9946949428006873e-02  9.9924729061140971e-02  9.9955216148013268e-02  9.9948133109187209e-02  9.9948918479440277e-02  9.9961423643456310e-02  9.9961501747535250e-02  9.9960822362028912e-02  9.9970558651072794e-02  9.9970969803448620e-02  9.9971609197395686e-02  9.9977584511279582e-02  9.9978530762492995e-02  9.9980123031019622e-02  9.9983454088364163e-02  9.9986188848076654e-02  9.9985846212517798e-02  9.9992069216355506e-02  9.9987591827885053e-02  1.0000000000000003e-01  1.0001750515454422e-01  1.0000000000000003e-01  1.0001087581054179e-01  1.0001661356029709e-01  1.0001921900545557e-01  1.0002075116445197e-01  1.0002115570864634e-01  1.0002935543685508e-01  1.0002770364358916e-01  1.0002846437526837e-01  1.0003931292212459e-01  1.0003662791690962e-01  1.0003773424722283e-01  1.0005414647927968e-01  1.0004480854079549e-01  1.0004874956162131e-01  1.0006385625042855e-01  1.0005941718329181e-01  1.0003776343255354e-01  1.0011043719844516e-01  1.0006962913558887e-01  1.0008222164765429e-01  1.0011333549705459e-01  1.0008081070218744e-01  1.0010625074718175e-01  1.0011845641006863e-01  1.0013351861778817e-01  1.0006009203488830e-01  1.0025642191670886e-01  9.9900826006769500e-02  1.0054189106348398e-01  1.0014194026682735e-01  9.9414611685537113e-02  9.9742398817030953e-02  9.9975327563168861e-02  9.9869585353001888e-02  9.9889780132075529e-02  9.9918522126236808e-02  9.9914596148804782e-02  9.9897670325489268e-02  9.9901824519925367e-02  9.9958152405697734e-02  9.9907002366181774e-02  9.9956358017828192e-02  9.9938120367835725e-02  9.9941567576742982e-02  9.9955569298883523e-02  9.9956744684038840e-02  9.9953878822071740e-02  9.9966249558824827e-02  9.9965921696113708e-02  9.9966611746254583e-02  9.9974275675760296e-02  9.9975345715813679e-02  9.9975885960795471e-02  9.9981467005483021e-02  9.9982154044799945e-02  9.9984859969498838e-02  9.9986213838031079e-02  9.9991471826497924e-02  9.9987224657138815e-02  1.0000000000000003e-01  1.0001814709070904e-01  1.0000000000000003e-01  1.0001099998307991e-01  1.0001971705205999e-01  1.0001819511228870e-01  1.0002081705677940e-01  1.0002698127628802e-01  1.0002671680187077e-01  1.0002745206925731e-01  1.0003743416582417e-01  1.0003436367758271e-01  1.0003565653756355e-01  1.0005097741543449e-01  1.0004442991080569e-01  1.0004592972994653e-01  1.0006453414088604e-01  1.0005529158697735e-01  1.0005041404823758e-01  1.0008871195503712e-01  1.0003874214116321e-01  1.0009797050013688e-01  1.0010603498680180e-01  1.0008812836930535e-01  1.0008666444475783e-01  1.0014042153716798e-01  1.0008054197202958e-01  1.0014042624208951e-01  1.0009304123718248e-01  1.0022205349794901e-01  9.9908371543937224e-02  1.0056852786653642e-01  1.0012277430021933e-01  9.9388605969527283e-02  9.9775613767062052e-02  9.9962852170393551e-02  9.9836783400596901e-02  9.9931542437494830e-02  9.9900291116314530e-02  9.9894751576540222e-02  9.9921896776125604e-02  9.9929182752721613e-02  9.9877085478899466e-02  9.9969085333125846e-02  9.9925860174457273e-02  9.9940168335997948e-02  9.9947111379318998e-02  9.9953447225862982e-02  9.9946257421322501e-02  9.9963111690836243e-02  9.9961727587605811e-02  9.9961108617359309e-02  9.9970508694740959e-02  9.9971921390686461e-02  9.9972316908642112e-02  9.9978624859429252e-02  9.9980171377940755e-02  9.9980856188181116e-02  9.9986014797535411e-02  9.9985776983340519e-02  9.9991101007886329e-02  9.9987539618950808e-02  1.0000000000000003e-01  1.0001869231590117e-01  1.0000000000000003e-01  1.0001239040762569e-01  1.0001896942976785e-01  1.0001788034757747e-01  1.0002497998859503e-01  1.0002450591039108e-01  1.0002606695346919e-01  1.0003456755314587e-01  1.0003272430087823e-01  1.0003310603243626e-01  1.0004677569041685e-01  1.0004202948717419e-01  1.0004327646256786e-01  1.0006101913499303e-01  1.0005202903542228e-01  1.0005217003504632e-01  1.0007931426264005e-01  1.0005502524212107e-01  1.0007111586489915e-01  1.0007190539898252e-01  1.0010001330717541e-01  1.0008805760680727e-01  1.0012814597591704e-01  1.0009646486198831e-01  1.0009025766877482e-01  1.0017639053939366e-01  1.0005213123989466e-01  1.0022408137978783e-01  9.9946320273440109e-02  1.0052887712691219e-01  1.0016414500108753e-01  9.9338982350971120e-02  9.9765545930620231e-02  9.9935933653619108e-02  9.9871860488664532e-02  9.9920265451659523e-02  9.9872983414719979e-02  9.9924254862683470e-02  9.9919317176620823e-02  9.9899935913035504e-02  9.9938872003651077e-02  9.9903174932127900e-02  9.9949030554440585e-02  9.9936385487547644e-02  9.9955113196571826e-02  9.9935880978861608e-02  9.9960745608945897e-02  9.9956640988684745e-02  9.9956336873590193e-02  9.9967310970123388e-02  9.9967929352671736e-02  9.9967108156383128e-02  9.9976171999572330e-02  9.9976934852359770e-02  9.9978144889223006e-02  9.9982729572636930e-02  9.9985346541939829e-02  9.9984946291139673e-02  9.9991572283480587e-02  9.9987431202030311e-02  1.0000000000000003e-01  1.0001976521381181e-01  1.0000000000000003e-01  1.0001194840878933e-01  1.0001883009145915e-01  1.0002082638098136e-01  1.0002328974003220e-01  1.0002366190212543e-01  1.0003179060982099e-01  1.0003089150772834e-01  1.0003129591298048e-01  1.0004222502518137e-01  1.0003994161603481e-01  1.0004024701240148e-01  1.0005606404050689e-01  1.0004982324273791e-01  1.0004927144473301e-01  1.0007293002813372e-01  1.0005776311272707e-01  1.0006225153522483e-01  1.0008447518906530e-01  1.0007590877267915e-01  1.0004346632136983e-01  1.0015014654348911e-01  1.0007965148269407e-01  1.0011113816141289e-01  1.0013063521015007e-01  1.0012480783316660e-01  1.0005871009659051e-01  1.0026428771870707e-01  9.9904675891542116e-02  1.0052406946422685e-01  1.0018093870111740e-01  9.9341514597391573e-02  9.9731224484193234e-02  9.9968900292993199e-02  9.9866862312192578e-02  9.9893263888177722e-02  9.9904042624069558e-02  9.9919138022709714e-02  9.9891532381629899e-02  9.9934248623692504e-02  9.9926360383505233e-02  9.9920261124572210e-02  9.9914755959448889e-02  9.9967993206949726e-02  9.9923369740295892e-02  9.9963153284967202e-02  9.9949848649319536e-02  9.9952209747983856e-02  9.9963437279441347e-02  9.9965577634646308e-02  9.9962834861943489e-02  9.9972927946618509e-02  9.9973604770758645e-02  9.9974301444721747e-02  9.9981244212763054e-02  9.9982109978676570e-02  9.9984193972976601e-02  9.9986466171145108e-02  9.9991354401440954e-02  9.9987445556064328e-02  1.0000000000000003e-01  1.0001980517739094e-01  1.0000000000000003e-01  1.0001151191092875e-01  1.0002084109832669e-01  1.0001919535949354e-01  1.0002230084618936e-01  1.0002781126205848e-01  1.0002844099014647e-01  1.0002904895743252e-01  1.0003844923284005e-01  1.0003630992743408e-01  1.0003720259610445e-01  1.0005105372712307e-01  1.0004645911633533e-01  1.0004550337879754e-01  1.0006583061588985e-01  1.0005614860883300e-01  1.0005566633905887e-01  1.0008280962678004e-01  1.0006718889823329e-01  1.0005980002956687e-01  1.0011273439232948e-01  1.0004428877961508e-01  1.0011399595523861e-01  1