<?xml version="1.0"?>
<VTKFile type="UnstructuredGrid"  version="0.1"  >
<UnstructuredGrid>
<Piece  NumberOfPoints="1933" NumberOfCells="3640">
<Points>
<DataArray  type="Float64"  NumberOfComponents="3"  format="ascii">0.4752891553267574 0.001479237558803472 0  5.475289173859315 0.001414536344509179 0  5.4753862873996 7.501414619384745 0  0.4753862342248869 7.501479258943137 0  10.47528918623239 0.001349746368583056 0  10.47538639194338 7.501349854388598 0  15.47528923970897 0.001284795881249677 0  15.47538657875776 7.50128491362377 0  20.47528939305867 0.001219658200781238 0  20.47538687983807 7.501219779417467 0  25.47528970560378 0.001154335020772004 0  25.47538732873061 7.501154457611218 0  30.4752902337866 0.001088846498411526 0  30.47538795988577 7.501088970355475 0  35.47529103094727 0.001023225335454282 0  35.47538880819383 7.501023351338714 0  40.47529214843237 0.0009575134438878281 0  40.47538990890365 7.500957642990452 0  45.47529363720589 0.000891760370156796 0  45.47539129785022 7.500891895170906 0  50.47529554961396 0.0008260229818010877 0  50.47539301187183 7.500826164993703 0  55.47529794117611 0.0007603661354767566 0  55.47539508931033 7.50076051756698 0  60.47530087237478 0.0006948641968621573 0  60.47539757050978 7.500695027555427 0  65.47530441046145 0.0006296033998495921 0  65.47540049823425 7.500629781566031 0  70.47530863130551 0.0005646851354952409 0  70.47540391792319 7.500564881454062 0  75.47531362131799 0.000500230368043606 0  75.4754078776764 7.500500448744491 0  80.47531947945434 0.0004363855044516296 0  80.47541242781318 7.500436630483575 0  85.47532631926934 0.0003733302181294232 0  85.47541761977601 7.500373606991083 0  90.47533427090616 0.0003112879801003087 0  90.47542350402821 7.500311602198685 0  95.47534348274995 0.0002505404322140555 0  95.47543012641741 7.500250897563226 0  100.4753541221453 0.0001914473288193093 0  100.475437522237 7.50019185097066 0  105.4753663739545 0.0001344747065952759 0  105.4754457068868 7.500134922636049 0  110.4753804344564 8.02354286274571e-05 0  110.4754546616905 7.50008071077237 0  115.4753964955797 2.954862157656589e-05 0  115.4754643132332 7.500030000684012 0  120.4754147094072 -1.647171618174265e-05 0  120.4754745050815 7.499983831626514 0  125.4754351127683 -5.628285835687684e-05 0  125.4754849633884 7.499943585339609 0  130.4754574713091 -8.770988212667249e-05 0  130.4754952661779 7.49991109627825 0  135.4754809608856 -0.0001076393642893016 0  135.4755048486403 7.499888771343818 0  140.4755035176412 -0.0001115834925035872 0  140.4755131345665 7.499879679969403 0  145.4755204971066 -9.320319744478186e-05 0  145.4755200325795 7.499887550307719 0  150.4755217972876 -4.463386001890619e-05 0  150.4755274461509 7.499916808345829 0  160.4755282581477 9.663433767847822e-19 0  165.4754025505767 -0.0001648796970100859 0  165.4755059322286 7.499811441212305 0  160.4755441356087 7.49994349004317 0  170.4753302975151 -0.0003099158579381901 0  170.4754671155793 7.499678104111226 0  175.4752873427946 -0.0004405413322107345 0  175.4754345903668 7.499552788145055 0  180.4752612577478 -0.0005596576187141724 0  180.4754091592867 7.499436435167833 0  185.4752452564125 -0.0006695717291835073 0  185.4753899246614 7.499328059636346 0  190.4752354862756 -0.0007721678855569413 0  190.475375658672 7.49922635400815 0  195.4752296850126 -0.0008689370175410266 0  195.475365232433 7.499130116166499 0  200.4752264784081 -0.00096103471768145 0  200.4753577235249 7.499038344849146 0  205.4752250022663 -0.001049351198842857 0  205.4753524139796 7.49895023500467 0  210.4752246940409 -0.001134574865070044 0  210.4753487564214 7.498865146235602 0  215.4752251753351 -0.001217243242820381 0  215.4753463364485 7.498782568611785 0  220.4752261839493 -0.001297781436834551 0  220.4753448402499 7.498702093229159 0  225.4752275334642 -0.001376530402969244 0  225.4753440292091 7.498623388867679 0  230.4752290884715 -0.001453767554491538 0  230.4753437208094 7.498546184117056 0  235.4752307489133 -0.001529721810075544 0  235.4753437745502 7.49847025386359 0  240.475232439874 -0.001604584677224975 0  240.4753440816248 7.498395409083343 0  245.475234104742 -0.001678518520432984 0  245.4753445573619 7.498321489085185 0  250.4752357005148 -0.001751662825098645 0  250.4753451356722 7.498248355552772 0  255.4752371945329 -0.001824139024574914 0  255.475345764961 7.498175887907346 0  260.4752385621886 -0.001896054285798579 0  260.4753464051082 7.498103979646121 0  265.475239785362 -0.001967504526904068 0  265.4753470252502 7.49803253541217 0  270.4752408514063 -0.00203857684977426 0  270.4753476021665 7.497961468629675 0  275.4752417526236 -0.002109351495956129 0  275.4753481191268 7.497890699604459 0  280.4752424861892 -0.002179903359851795 0  280.475348565098 7.497820154053659 0  285.4752430545581 -0.002250302998048272 0  285.4753489342216 7.497749762103458 0  290.4752434663699 -0.002320616924428704 0  290.4753492254627 7.497679457893765 0  295.475243737909 -0.002390906714964385 0  295.4753494423642 7.497609180072694 0  300.4752438949955 -0.002461225937007683 0  300.4753495928211 7.497538873666804 0  305.4752439748327 -0.002531612893520492 0  305.4753496890023 7.497468494067284 0  310.4752440262413 -0.002602075025626013 0  310.4753497481303 7.497398014087679 0  5.475483079070742 15.00141482577088 0  0.4754830167124479 15.00147931633322 0  10.47548319601779 15.00135012021166 0  15.47548339680936 15.00128519684724 0  20.47548370316436 15.00122006276963 0  25.47548413419476 15.00115473624306 0  30.47548470847989 15.00108924546462 0  35.47548544476603 15.00102362695569 0  40.47548636208629 15.00095792440506 0  45.4754874796593 15.000892188199 0  50.47548881669818 15.00082647566568 0  55.4754903921521 15.00076085201385 0  60.47549222434595 15.00069539196599 0  65.47549433045801 15.00063018212982 0  70.47549672574755 15.0005653242103 0  75.47549942242968 15.00050093923331 0  80.47550242806477 15.00043717303224 0  85.47550574331092 15.00037420334569 0  90.47550935887178 15.00031224898646 0  95.47551325149452 15.00025158166079 0  100.4755173789604 15.00019254111516 0  105.475521674291 15.00013555428464 0  110.4755260399777 15.0000811588367 0  115.4755303443027 15.00003003055006 0  120.4755344241906 14.99998301151265 0  125.4755381033023 14.99994113046229 0  130.4755412411102 14.99990559427274 0  135.4755438387431 14.99987770347998 0  140.4755462373154 14.99985858880953 0  145.47554943761 14.99984853479996 0  150.4755554781957 14.99984527487522 0  165.4755688985344 14.99974692662708 0  160.4755755593045 14.99984594787092 0  170.4755553309784 14.99963846031085 0  175.4755390507682 14.99952859519943 0  180.4755229955902 14.99942148255747 0  185.4755085966315 14.99931862952131 0  190.4754963550724 14.99922026519692 0  195.4754862904487 14.99912608665331 0  200.4754782051218 14.9990356130069 0  205.4754718249607 14.99894834114849 0  210.4754668684569 14.99886380748579 0  215.4754630772338 14.99878160702299 0  220.4754602268103 14.99870139419674 0  225.4754581278829 14.99862287678174 0  230.4754566234886 14.99854580790685 0  235.4754555847493 14.99846997827168 0  240.475454906456 14.99839520930455 0  245.4754545030385 14.99832134741492 0  250.4754543051083 14.99824825926113 0  255.4754542565838 14.99817582787973 0  260.4754543123505 14.99810394951922 0  265.4754544363698 14.99803253104132 0  270.47545460016 14.99796148778523 0  275.4754547815717 14.99789074182187 0  280.4754549637756 14.99782022055862 0  285.4754551344331 14.99774985568451 0  290.4754552849696 14.99767958246477 0  295.475455410006 14.99760933937377 0  300.4754555070255 14.99753906792607 0  305.4754555766097 14.99746871212435 0  310.4754556238755 14.99739821565812 0  5.475579461660875 22.50141527568642 0  0.4755793985396863 22.50147960346676 0  10.47557956419196 22.50135063931962 0  15.4755797298285 22.50128573514946 0  20.47557997338812 22.50122059768092 0  25.47558030484494 22.50115526127039 0  30.47558073174201 22.50108976304062 0  35.47558126038236 22.50102414417048 0  40.47558189623766 22.50095845056779 0  45.47558264388765 22.50089273348127 0  50.47558350667632 22.50082705034062 0  55.47558448617191 22.50076146597584 0  60.47558558146 22.50069605431243 0  65.47558678826161 22.50063090062742 0  70.47558809784996 22.50056610446084 0  75.47558949573781 22.50050178330104 0  80.47559096011723 22.50043807718332 0  85.47559246007228 22.50037515435642 0  90.47559395366125 22.50031321815682 0  95.47559538610889 22.50025251515603 0  100.4755966885982 22.50019334444352 0  105.4755977785716 22.50013606746349 0  110.4755985631125 22.50008111691965 0  115.4755989479523 22.50002900153622 0  120.475598855934 22.49998030029554 0  125.4755982601191 22.49993563420767 0  130.4755972372624 22.49989559434687 0  135.4755960446867 22.49986059037956 0  140.4755952120876 22.49983056429782 0  145.4755956076945 22.49980449916563 0  150.4755983649461 22.49977969955069 0  165.475624008638 22.49967550116057 0  160.4756157005525 22.49975476114027 0  170.4756256778396 22.49958599159503 0  175.4756225458331 22.49949142274042 0  180.4756165922614 22.49939551735207 0  185.4756093927251 22.49930051503787 0  190.4756019930622 22.49920755014318 0  195.4755950019025 22.49911707023401 0  200.4755887247257 22.49902914104456 0  205.4755832765174 22.49894363596092 0  210.4755786615205 22.49886034420625 0  215.4755748249924 22.49877902888505 0  220.4755716849052 22.49869945612682 0  225.4755691504139 22.49862140830818 0  230.4755671320229 22.49854468885461 0  235.4755655467461 22.49846912279973 0  240.4755643203435 22.49839455536339 0  245.4755633879227 22.49832084973331 0  250.475562693668 22.49824788464753 0  255.4755621901519 22.49817555205985 0  260.475561837467 22.49810375500869 0  265.4755616023274 22.49803240572681 0  270.4755614571924 22.49796142399299 0  275.4755613794467 22.49789073570948 0  280.4755613506408 22.49782027168042 0  285.4755613557963 22.49774996655134 0  290.4755613827895 22.49767975783041 0  295.4755614218659 22.49760958481945 0  300.4755614653431
[...]
<PointData  Scalars="p"> 
<DataArray  type="Float64"  Name="p"  format="ascii">1.0000000000000001e-01  1.0000000000000003e-01  1.0000212144752739e-01  1.0000000000000003e-01  1.0000000000000003e-01  1.0000133933647841e-01  1.0000000000000003e-01  1.0000202692963626e-01  1.0000000000000003e-01  1.0000187661250773e-01  1.0000000000000003e-01  1.0000227960471639e-01  1.0000000000000003e-01  1.0000375327637186e-01  1.0000000000000003e-01  1.0000382325988953e-01  1.0000000000000003e-01  1.0000482794173733e-01  1.0000000000000003e-01  1.0000656362178365e-01  1.0000000000000003e-01  1.0000528812219005e-01  1.0000000000000003e-01  1.0001250803135753e-01  1.0000000000000003e-01  1.0001387407835949e-01  1.0000000000000003e-01  1.0001712493544150e-01  1.0000000000000003e-01  1.0001904630028491e-01  1.0000000000000003e-01  1.0002517827958750e-01  1.0000000000000003e-01  1.0002712251710012e-01  1.0000000000000003e-01  1.0003239567180493e-01  1.0000000000000003e-01  1.0004018029865167e-01  1.0000000000000003e-01  1.0004314895409747e-01  1.0000000000000003e-01  1.0005244800834169e-01  1.0000000000000003e-01  1.0005860026454547e-01  1.0000000000000003e-01  1.0006944212502260e-01  1.0000000000000003e-01  1.0007007286872784e-01  1.0000000000000003e-01  1.0009484185892856e-01  1.0000000000000003e-01  1.0007750915707404e-01  1.0000000000000003e-01  1.0012681600422302e-01  1.0000000000000003e-01  1.0007739215448025e-01  1.0000000000000003e-01  1.0016845829596834e-01  1.0000000000000003e-01  1.0006550909250773e-01  1.0000000000000001e-01  1.0023417303826965e-01  1.0000000000000001e-01  1.0000000000000003e-01  9.9863376935447626e-02  9.9659073953231550e-02  1.0000000000000003e-01  9.9984607586983132e-02  1.0000000000000003e-01  9.9896337560287651e-02  1.0000000000000003e-01  9.9948964642846694e-02  1.0000000000000003e-01  9.9935862193913760e-02  1.0000000000000003e-01  9.9950096670598398e-02  1.0000000000000003e-01  9.9946676277437210e-02  1.0000000000000003e-01  9.9958832945095791e-02  1.0000000000000003e-01  9.9958424341508686e-02  1.0000000000000003e-01  9.9963363022216645e-02  1.0000000000000003e-01  9.9967333852267887e-02  1.0000000000000003e-01  9.9970136941681345e-02  1.0000000000000003e-01  9.9972199916936996e-02  1.0000000000000003e-01  9.9975592941528468e-02  1.0000000000000003e-01  9.9977139226364087e-02  1.0000000000000003e-01  9.9978780147619850e-02  1.0000000000000003e-01  9.9980754065814928e-02  1.0000000000000003e-01  9.9981919678689385e-02  1.0000000000000003e-01  9.9982878224045710e-02  1.0000000000000003e-01  9.9984198523843409e-02  1.0000000000000003e-01  9.9984812451847344e-02  1.0000000000000003e-01  9.9985657801564959e-02  1.0000000000000003e-01  9.9986072575958984e-02  1.0000000000000003e-01  9.9987128570607472e-02  1.0000000000000003e-01  9.9986565731326846e-02  1.0000000000000003e-01  9.9988718741645458e-02  1.0000000000000003e-01  9.9986210687932064e-02  1.0000000000000003e-01  9.9991280943164298e-02  1.0000000000000003e-01  9.9983205839283634e-02  1.0000000000000001e-01  1.0000000000000003e-01  1.0000471642739256e-01  1.0000000000000003e-01  1.0000398340215921e-01  1.0000416010808190e-01  1.0000471478832239e-01  1.0000664579002054e-01  1.0000634489741396e-01  1.0000693625694673e-01  1.0000996463412645e-01  1.0000817776671095e-01  1.0000968150436171e-01  1.0001070708299206e-01  1.0001958528333393e-01  1.0001488246548867e-01  1.0002301431458085e-01  1.0001870390075643e-01  1.0002310949693352e-01  1.0002937455676458e-01  1.0002846256782773e-01  1.0003228528509923e-01  1.0004266600554237e-01  1.0003817685119090e-01  1.0004916361352133e-01  1.0004968808802230e-01  1.0006155119465343e-01  1.0004569062846590e-01  1.0009120219465135e-01  1.0001935646591559e-01  1.0014850244562358e-01  9.9950996153686578e-02  1.0023636914756048e-01  1.0016453807084136e-01  9.9517460656461651e-02  9.9825471879105065e-02  9.9981955546505741e-02  9.9953798962197193e-02  9.9963165444718546e-02  9.9947811365884917e-02  9.9972194781629456e-02  9.9961661367967150e-02  9.9967079545741661e-02  9.9972875982470552e-02  9.9973707880919263e-02  9.9974372077500984e-02  9.9979781424638189e-02  9.9980073980696110e-02  9.9981166703952642e-02  9.9984190653982549e-02  9.9984872550648682e-02  9.9985610412696033e-02  9.9987639569545192e-02  9.9988335488277721e-02  9.9988943598767310e-02  9.9990490334935719e-02  9.9990882072019560e-02  9.9991997682373976e-02  9.9992223294899291e-02  9.9994195907726693e-02  9.9992427490117511e-02  9.9997254226377119e-02  9.9991419061040976e-02  1.0000000000000003e-01  1.0000755541501634e-01  1.0000000000000003e-01  1.0000445901116180e-01  1.0000639140125445e-01  1.0000822525452906e-01  1.0000810912453167e-01  1.0000877547544135e-01  1.0001305088895708e-01  1.0001186779126359e-01  1.0001265555724563e-01  1.0001696449644761e-01  1.0001842514446527e-01  1.0001245353266539e-01  1.0003611120417934e-01  1.0002460293871243e-01  1.0003045343059785e-01  1.0003896028346121e-01  1.0003527409022282e-01  1.0004133062646903e-01  1.0005439566618156e-01  1.0005116191720272e-01  1.0005778609619725e-01  1.0007667750646004e-01  1.0006490583838723e-01  1.0008858384842034e-01  1.0007895228839959e-01  1.0011179126683438e-01  1.0006033478889301e-01  1.0017909067840446e-01  9.9963255321610503e-02  1.0036776648287665e-01  1.0007560671561455e-01  9.9613588891750829e-02  9.9771132871699975e-02  9.9959762873306796e-02  9.9938302082552360e-02  9.9903161729712392e-02  9.9964347750258614e-02  9.9930031951048243e-02  9.9942829183559762e-02  9.9954000183232583e-02  9.9953835193917220e-02  9.9953887734324148e-02  9.9964911555135233e-02  9.9964188118246575e-02  9.9966109203450851e-02  9.9972172673367013e-02  9.9972922182409427e-02  9.9973899566821553e-02  9.9977962648059970e-02  9.9978699177531369e-02  9.9979727877975072e-02  9.9982286360255301e-02  9.9983315222535230e-02  9.9984037580038293e-02  9.9986264213792933e-02  9.9986476573798944e-02  9.9988600325174051e-02  9.9987861560545524e-02  9.9992344501067060e-02  9.9986401050512638e-02  1.0000000000000003e-01  1.0000941420399466e-01  1.0000000000000003e-01  1.0000573256522813e-01  1.0001021515134743e-01  1.0000931407740284e-01  1.0001018811045093e-01  1.0001487698584426e-01  1.0001377822124866e-01  1.0001487943396865e-01  1.0002071393644281e-01  1.0001850020549602e-01  1.0001884377258961e-01  1.0003176733894494e-01  1.0001639391459642e-01  1.0003914450085315e-01  1.0003968070419396e-01  1.0003703189182864e-01  1.0003836584969863e-01  1.0005413691129900e-01  1.0004534938889234e-01  1.0005542054627473e-01  1.0006849595075311e-01  1.0006610855482703e-01  1.0006741867056662e-01  1.0009791336394895e-01  1.0006304267054565e-01  1.0012152236982082e-01  1.0004657005803391e-01  1.0018486278423183e-01  9.9938960841645386e-02  1.0038672610741403e-01  1.0005689086610109e-01  9.9505663097914934e-02  9.9861814317828729e-02  9.9975071384099848e-02  9.9821573537962519e-02  1.0000504811388175e-01  9.9909780477492424e-02  9.9940840926356619e-02  9.9947630749297578e-02  9.9949340228846328e-02  9.9944256270878606e-02  9.9962216938829618e-02  9.9958255050642417e-02  9.9960429373396512e-02  9.9968673964824242e-02  9.9969264881258443e-02  9.9970048031615411e-02  9.9975779340681678e-02  9.9976298881817041e-02  9.9977281523753625e-02  9.9980960347401629e-02  9.9981796938191592e-02  9.9983017817612901e-02  9.9985286063165243e-02  9.9986836557082792e-02  9.9987221726486650e-02  9.9990402079047858e-02  9.9989157702696785e-02  9.9994289786541679e-02  9.9989159128966554e-02  1.0000000000000003e-01  1.0001131222764595e-01  1.0000000000000003e-01  1.0000807030937379e-01  1.0001098355874770e-01  1.0001056114305079e-01  1.0001573680036108e-01  1.0001450279753719e-01  1.0001601720343478e-01  1.0002269590264144e-01  1.0002030337315840e-01  1.0002098572283663e-01  1.0003234194027966e-01  1.0002528573409707e-01  1.0003271312567730e-01  1.0003058907263253e-01  1.0004888439324373e-01  1.0004091769280875e-01  1.0005937782022588e-01  1.0004725520966855e-01  1.0005533355922397e-01  1.0007447195373879e-01  1.0006252071075068e-01  1.0007716370942521e-01  1.0008972440666386e-01  1.0009258989961881e-01  1.0008008672365724e-01  1.0013986847810569e-01  1.0004823410981750e-01  1.0020974342375343e-01  9.9932602860674277e-02  1.0044414049526729e-01  1.0014893494015066e-01  9.9451484607812599e-02  9.9804021149136737e-02  9.9914823950764217e-02  9.9920151139869628e-02  9.9889136288096980e-02  9.9928026510727574e-02  9.9933879635479658e-02  9.9941202462370149e-02  9.9921970465479779e-02  9.9954453099125415e-02  9.9944260404735266e-02  9.9947406453338980e-02  9.9959401105583684e-02  9.9959266629835106e-02  9.9959459816240867e-02  9.9968564754820605e-02  9.9968701332666068e-02  9.9969675894362564e-02  9.9975033818194295e-02  9.9975942517471245e-02  9.9976862710496578e-02  9.9980696019927470e-02  9.9981608979478484e-02  9.9983292625879683e-02  9.9985186118893260e-02  9.9987671124995348e-02  9.9987002927163074e-02  9.9992489279509517e-02  9.9987201275435672e-02  1.0000000000000003e-01  1.0001353560700836e-01  1.0000000000000003e-01  1.0000840568080045e-01  1.0001234537465706e-01  1.0001502761414569e-01  1.0001546602102826e-01  1.0001621920458495e-01  1.0002298622554547e-01  1.0002150280607465e-01  1.0002219236589883e-01  1.0003182962698209e-01  1.0002823845845937e-01  1.0003149679806181e-01  1.0004067205932807e-01  1.0003966028189003e-01  1.0002510953731701e-01  1.0007249265359394e-01  1.0004649464558525e-01  1.0005719848068820e-01  1.0007281460006484e-01  1.0006199329867489e-01  1.0006832375067282e-01  1.0009751697213320e-01  1.0007345779186419e-01  1.0010096585417308e-01  1.0009679914286480e-01  1.0012882039818116e-01  1.0005287953638031e-01  1.0022893183036849e-01  9.9907529360489883e-02  1.0048811250808359e-01  1.0011456668840284e-01  9.9492231421972846e-02  9.9755605140578102e-02  9.9997834652001003e-02  9.9878235708208071e-02  9.9901024937266159e-02  9.9893291774386703e-02  9.9960893257037484e-02  9.9895256061704643e-02  9.9959614177876285e-02  9.9931296243194384e-02  9.9938404781217252e-02  9.9953267014117594e-02  9.9953063480075183e-02  9.9951052465857476e-02  9.9964211039966777e-02  9.9963078848708753e-02  9.9964068830651009e-02  9.9971765890083095e-02  9.9972261081466923e-02  9.9972956663689841e-02  9.9978073410933024e-02  9.9979117664132588e-02  9.9980074271956876e-02  9.9984002999773253e-02  9.9984600132801152e-02  9.9987366884606813e-02  9.9987592358235108e-02  9.9992783702474830e-02  9.9988040979662629e-02  1.0000000000000003e-01  1.0001473453836331e-01  1.0000000000000003e-01  1.0000904087344666e-01  1.0001622309148028e-01  1.0001470734674196e-01  1.0001665366962098e-01  1.0002251687388573e-01  1.0002176614587206e-01  1.0002246343970339e-01  1.0003195603047428e-01  1.0002821765906968e-01  1.0003096235891885e-01  1.0004336512959612e-01  1.0003850821591261e-01  1.0003618729664306e-01  1.0006022846082918e-01  1.0002935555030609e-01  1.0006934441056564e-01  1.0007408315359410e-01  1.0006319343084667e-01  1.0006828289589854e-01  1.0009292779949794e-01  1.0007830698606225e-01  1.0008365123826123e-01  1.0012434837517246e-01  1.0008013171550517e-01  1.0013941178812868e-01  1.0007409387792898e-01  1.0021942266966448e-01  9.9913100397201665e-02  1.0052449371090233e-01  1.0009105310279676e-01  9.9443311149257668e-02  9.9812170413466031e-02  9.9959120494067966e-02  9.9844890952903706e-02  9.9940381824180399e-02  9.9910743830061738e-02  9.9860830173533255e-02  9.9968063832655496e-02  9.9915759247202876e-02  9.9931317684684023e-02  9.9942152807828658e-02  9.9945924896397170e-02  9.9939276228947466e-02  9.9958365266352128e-02  9.9955519257682160e-02  9.9955968905972581e-02  9.9965901163163062e-02  9.9966703308960264e-02  9.9967053731148725e-02  9.9973936869585264e-02  9.9974603324539377e-02  9.9975818385378890e-02  9.9980027235168537e-02  9.9981767938050026e-02  9.9982606393855880e-02  9.9986826670778114e-02  9.9986367711058774e-02  9.9991758574200632e-02  9.9987387545194997e-02  1.0000000000000003e-01  1.0001591836352601e-01  1.0000000000000003e-01  1.0001108483420597e-01  1.0001611073302345e-01  1.0001537302547985e-01  1.0002189139969900e-01  1.0002098984748899e-01  1.0002237109327509e-01  1.0003096341205653e-01  1.0002803556856495e-01  1.0002941299282485e-01  1.0004240759616533e-01  1.0003768232561745e-01  1.0003871734065123e-01  1.0005687659040542e-01  1.0004144202135293e-01  1.0005400701301104e-01  1.0005096719291232e-01  1.0007746907904067e-01  1.0006467802325070e-01  1.0009723311046934e-01  1.0006964666594306e-01  1.0008689887612143e-01  1.0010833663186770e-01  1.0009994555120892e-01  1.0008737176163308e-01  1.0016426737592374e-01  1.0005153018536522e-01  1.0023068343501002e-01  9.9924253137525371e-02  1.0052683969312048e-01  1.0014963183635787e-01  9.9394159309210917e-02  9.9777470729887699e-02  9.9928868429473711e-02  9.9891294706727377e-02  9.9926114230973681e-02  9.9871798218289176e-02  9.9938569198689320e-02  9.9882994113597412e-02  9.9940164551866065e-02  9.9927880494787236e-02  9.9946949579280728e-02  9.9924729250102151e-02  9.9955216273166406e-02  9.9948133266367145e-02  9.9948918639846548e-02  9.9961423776372238e-02  9.9961501893976748e-02  9.9960822512840830e-02  9.9970558783297914e-02  9.9970969943418406e-02  9.9971609340165399e-02  9.9977584640068187e-02  9.9978530899860557e-02  9.9980123160265597e-02  9.9983454224541815e-02  9.9986188962208539e-02  9.9985846366285810e-02  9.9992069296532066e-02  9.9987592031913181e-02  1.0000000000000003e-01  1.0001750514484617e-01  1.0000000000000003e-01  1.0001087580489874e-01  1.0001661355337819e-01  1.0001921899535379e-01  1.0002075115364224e-01  1.0002115570230184e-01  1.0002935542166455e-01  1.0002770363013805e-01  1.0002846436821713e-01  1.0003931290174110e-01  1.0003662790015083e-01  1.0003773424004635e-01  1.0005414645347628e-01  1.0004480852090021e-01  1.0004874955528283e-01  1.0006385621530450e-01  1.0005941716160500e-01  1.0003776341559621e-01  1.0011043717235339e-01  1.0006962910948659e-01  1.0008222164607207e-01  1.0011333544901456e-01  1.0008081067928554e-01  1.0010625073241518e-01  1.0011845638166236e-01  1.0013351856539371e-01  1.0006009207935686e-01  1.0025642180693480e-01  9.9900826136124138e-02  1.0054189084373602e-01  1.0014194029373055e-01  9.9414611815487386e-02  9.9742399124684383e-02  9.9975327621297627e-02  9.9869585557701757e-02  9.9889780351458249e-02  9.9918522229737197e-02  9.9914596311516654e-02  9.9897670513651698e-02  9.9901824638996009e-02  9.9958152554364216e-02  9.9907002575790299e-02  9.9956358129585962e-02  9.9938120534529065e-02  9.9941567741195392e-02  9.9955569428903712e-02  9.9956744830969502e-02  9.9953878977847535e-02  9.9966249687245504e-02  9.9965921838371094e-02  9.9966611890192666e-02  9.9974275805449139e-02  9.9975345849768860e-02  9.9975886099755426e-02  9.9981467127577633e-02  9.9982154182437374e-02  9.9984860084501012e-02  9.9986213986453548e-02  9.9991471908459140e-02  9.9987224856905019e-02  1.0000000000000003e-01  1.0001814708012756e-01  1.0000000000000003e-01  1.0001099997838318e-01  1.0001971704120820e-01  1.0001819510289477e-01  1.0002081704925152e-01  1.0002698126249385e-01  1.0002671678863324e-01  1.0002745206166476e-01  1.0003743414686699e-01  1.0003436366102318e-01  1.0003565653005680e-01  1.0005097739102872e-01  1.0004442989075804e-01  1.0004592972282893e-01  1.0006453411001022e-01  1.0005529156492683e-01  1.0005041403982060e-01  1.0008871191827520e-01  1.0003874210550205e-01  1.0009797050813149e-01  1.0010603494383322e-01  1.0008812834178311e-01  1.0008666444496390e-01  1.0014042148220023e-01  1.0008054195620986e-01  1.0014042621748762e-01  1.0009304124058339e-01  1.0022205340132041e-01  9.9908371684869268e-02  1.0056852761128164e-01  1.0012277438027854e-01  9.9388606149517930e-02  9.9775613938319685e-02  9.9962852302732524e-02  9.9836783643822105e-02  9.9931542523289230e-02  9.9900291283609485e-02  9.9894751772824961e-02  9.9921896875540331e-02  9.9929182884919657e-02  9.9877085669568058e-02  9.9969085429498505e-02  9.9925860345823431e-02  9.9940168491724990e-02  9.9947111506822839e-02  9.9953447364338852e-02  9.9946257575129843e-02  9.9963111809463392e-02  9.9961727723682670e-02  9.9961108757401038e-02  9.9970508814956976e-02  9.9971921520771764e-02  9.9972317038542161e-02  9.9978624981283362e-02  9.9980171497174752e-02  9.9980856319308337e-02  9.9986014901238984e-02  9.9985777124734040e-02  9.9991101084403844e-02  9.9987539805733536e-02  1.0000000000000003e-01  1.0001869230480388e-01  1.0000000000000003e-01  1.0001239040089291e-01  1.0001896941905004e-01  1.0001788034064467e-01  1.0002497997536837e-01  1.0002450589807958e-01  1.0002606694522774e-01  1.0003456753579422e-01  1.0003272428466002e-01  1.0003310602394766e-01  1.0004677566791982e-01  1.0004202946800528e-01  1.0004327645450838e-01  1.0006101910532177e-01  1.0005202901314054e-01  1.0005217002851939e-01  1.0007931422749362e-01  1.0005502521467624e-01  1.0007111586260804e-01  1.0007190534400953e-01  1.0010001329449730e-01  1.0008805760298176e-01  1.0012814593266305e-01  1.0009646482511909e-01  1.0009025768290666e-01  1.0017639047037001e-01  1.0005213125143252e-01  1.0022408131719440e-01  9.9946320363570693e-02  1.0052887688856119e-01  1.0016414498275247e-01  9.9338982565801329e-02  9.9765546149081522e-02  9.9935933831859128e-02  9.9871860606712104e-02  9.9920265597964714e-02  9.9872983622448772e-02  9.9924254955028075e-02  9.9919317319959317e-02  9.9899936093587091e-02  9.9938872086030792e-02  9.9903175079810128e-02  9.9949030709457279e-02  9.9936385618405316e-02  9.9955113324664502e-02  9.9935881141908878e-02  9.9960745718661467e-02  9.9956641123068429e-02  9.9956337012819890e-02  9.9967311085716215e-02  9.9967929478209927e-02  9.9967108288123760e-02  9.9976172112448497e-02  9.9976934975793297e-02  9.9978145007261154e-02  9.9982729692679170e-02  9.9985346644893225e-02  9.9984946427858032e-02  9.9991572355902975e-02  9.9987431381195660e-02  1.0000000000000003e-01  1.0001976520111228e-01  1.0000000000000003e-01  1.0001194840210094e-01  1.0001883008230107e-01  1.0002082636974195e-01  1.0002328972756695e-01  1.0002366189415766e-01  1.0003179059339877e-01  1.0003089149237226e-01  1.0003129590417872e-01  1.0004222500342484e-01  1.0003994159724794e-01  1.0004024700442400e-01  1.0005606401301637e-01  1.0004982321996266e-01  1.0004927143719583e-01  1.0007292999387342e-01  1.0005776308775052e-01  1.0006225153219923e-01  1.0008447514513345e-01  1.0007590874605700e-01  1.0004346631318220e-01  1.0015014650294846e-01  1.0007965145766803e-01  1.0011113816148841e-01  1.0013063516648171e-01  1.0012480778502156e-01  1.0005871014029200e-01  1.0026428761287565e-01  9.9904675978287755e-02  1.0052406927317191e-01  1.0018093873101823e-01  9.9341514695671859e-02  9.9731224740758712e-02  9.9968900361115068e-02  9.9866862473195789e-02  9.9893264076351101e-02  9.9904042719584973e-02  9.9919138156596157e-02  9.9891532565179728e-02  9.9934248709313056e-02  9.9926360513031359e-02  9.9920261271559757e-02  9.9914756062873811e-02  9.9967993324418580e-02  9.9923369913200749e-02  9.9963153378631986e-02  9.9949848784680120e-02  9.9952209883702167e-02  9.9963437386681273e-02  9.9965577754716387e-02  9.9962834989925836e-02  9.9972928053242135e-02  9.9973604885495254e-02  9.9974301565411400e-02  9.9981244314589116e-02  9.9982110095769988e-02  9.9984194071784008e-02  9.9986466295758705e-02  9.9991354470611624e-02  9.9987445724539159e-02  1.0000000000000003e-01  1.0001980516398562e-01  1.0000000000000003e-01  1.0001151190510423e-01  1.0002084108566298e-01  1.0001919534881219e-01  1.0002230083671199e-01  1.0002781124729257e-01  1.0002844097529386e-01  1.0002904894804344e-01  1.0003844921268669e-01  1.0003630990887306e-01  1.0003720258654217e-01  1.0005105370178705e-01  1.0004645909448490e-01  1.0004550337001090e-01  1.0006583058355555e-01  1.0005614858266186e-01  1.0005566633369441e-01  1.0008280958749374e-01  1.0006718887201682e-01  1.0005980002631301e-01  1.0011273434593525e-01  1.0004428874132540e-01  1.0011399597412272e-01  1