<?xml version="1.0"?>
<VTKFile type="UnstructuredGrid"  version="0.1"  >
<UnstructuredGrid>
<Piece  NumberOfPoints="1933" NumberOfCells="3640">
<Points>
<DataArray  type="Float64"  NumberOfComponents="3"  format="ascii">-0.0002605145266958431 0.001626852007846615 0  4.999739506019605 0.00155577221868753 0  4.999846192441568 7.501555863072002 0  -0.0001538657090977558 7.501626875959099 0  9.999739520086727 0.001484595855276401 0  9.999846306447726 7.501484713770219 0  14.99973957909333 0.001413245278477543 0  14.99984650985719 7.501413373701713 0  19.99973974687425 0.001341691792283869 0  19.99984683738727 7.501341823957587 0  24.99974008781483 0.001269937486307118 0  24.99984732542468 7.501270071129595 0  29.99974066314757 0.001198004466522425 0  29.99984801132706 7.501198139485306 0  34.99974153072877 0.001125928431982589 0  34.99984893292345 7.501126065793164 0  39.99974274625507 0.001053755062453772 0  39.99985012843031 7.501053896294044 0  44.99974436502291 0.0009815383174248712 0  44.99985163670295 7.50098168528851 0  49.99974644385314 0.0009093401070181963 0  49.99985349769187 7.500909494955507 0  54.99974904304488 0.0008372310298274354 0  54.99985575298952 7.500837396169614 0  59.99975222832825 0.0007652920378321964 0  59.99985844637499 7.500765470211905 0  64.99975607283767 0.0006936170159851425 0  64.99986162427072 7.500693811378673 0  69.99976065913509 0.0006223163765578315 0  69.99986533602259 7.500622530594742 0  74.99976608131854 0.0005515218851559235 0  74.99986963388599 7.500551760245943 0  79.99977244722315 0.0004813930766630386 0  79.99987457254741 7.500481660576387 0  84.99977988068567 0.0004121258104162224 0  84.99988020793245 7.500412428166787 0  89.99978852374736 0.0003439637908237974 0  89.9998865949149 7.500344307246351 0  94.99979853850255 0.0002772142981603823 0  94.99989378334999 7.500277604923768 0  99.99981010794205 0.0002122700237878361 0  99.99990181159133 7.500212711892321 0  104.9998234344615 0.0001496399287559915 0  104.9999106962856 7.500150130813246 0  109.9998387333091 8.999367732422854e-05 0  109.999920416862 7.500090515427797 0  114.999856215515 3.422680443100628e-05 0  114.9999308929136 7.500034724426252 0  119.9998760493124 -1.644209013276314e-05 0  119.9999419532024 7.499983894873181 0  124.9998982780074 -6.032444484153e-05 0  124.9999532978895 7.499939539550242 0  129.9999226498994 -9.503832837752635e-05 0  129.9999644646243 7.499903668402012 0  134.9999482703974 -0.0001171719416379097 0  134.9999748337372 7.49987892105648 0  139.9999728917228 -0.0001218046617898029 0  139.9999837709648 7.49986866836245 0  144.9999914459607 -0.0001019843325224069 0  144.9999911688178 7.499877015208547 0  149.9999928928893 -4.909834319783927e-05 0  149.9999990983177 7.4999088656972 0  160.0000000000008 5.967103343377604e-19 0  164.9998623610632 -0.000181041222170507 0  164.9999760339343 7.49979299203887 0  160.0000176706756 7.499938150578202 0  169.9997833666199 -0.0003403250707016571 0  169.9999337106669 7.499646524143722 0  174.9997365073724 -0.0004837672109654897 0  174.9998982653188 7.499508907816483 0  179.9997081377478 -0.0006145485209195797 0  179.9998705792044 7.499381160979653 0  184.9996908074206 -0.000735205964344821 0  184.999849668963 7.499262193648072 0  189.9996802880324 -0.0008478134115878826 0  189.9998341888361 7.499150564514282 0  194.9996740979763 -0.0009540123561843904 0  194.9998229015735 7.499044949195755 0  199.9996707311017 -0.001055075272206688 0  199.9998147965269 7.498944244751219 0  204.9996692413019 -0.001151982482500175 0  204.9998090874468 7.498847564429908 0  209.9996690135722 -0.001245492081823534 0  209.9998051752935 7.498754202891087 0  214.9996696349207 -0.001336195980429 0  214.9998026069163 7.498663598551858 0  219.9996708197233 -0.001424562232447079 0  219.999801039481 7.498575301162798 0  224.9996723653409 -0.001510966164673556 0  224.9998002125782 7.498488946097153 0  229.9996741249272 -0.001595713071212595 0  229.9997999272563 7.498404234658436 0  234.9996759902467 -0.001679054791672802 0  234.9998000305592 7.498320919188928 0  239.9996778804836 -0.001761201925315702 0  239.9998004041998 7.498238791818913 0  244.9996797347501 -0.00184233294506925 0  244.9998009562697 7.498157675914505 0  249.9996815069522 -0.001922601103413228 0  249.9998016151508 7.498077419507953 0  254.9996831622203 -0.002002139754215052 0  254.9998023250383 7.497997890184463 0  259.9996846744126 -0.002081066525485478 0  259.999803042636 7.497918971045666 0  264.9996860244144 -0.002159486643711548 0  264.9998037347294 7.497840557481334 0  269.9996871990405 -0.002237495610805555 0  269.9998043764259 7.497762554566642 0  274.9996881904739 -0.002315181352582968 0  274.9998049498953 7.497684874975172 0  279.9996889961948 -0.002392625875546154 0  279.9998054435083 7.497607437368217 0  284.9996896194365 -0.002469906364125547 0  284.9998058512638 7.497530165303512 0  289.9996900701812 -0.002547095486621361 0  289.999806172411 7.497452986816383 0  294.9996903667591 -0.002624260386933521 0  294.9998064111778 7.49737583498374 0  299.999690537897 -0.002701459283015393 0  299.99980657652 7.497298650003441 0  304.9996906246982 -0.002778733477692699 0  304.9998066820373 7.497221383598507 0  309.9996906807951 -0.002856090261597697 0  309.9998067468299 7.497144006791706 0  4.99995252926773 15.00155608816053 0  -4.75388201625071e-05 15.00162693959328 0  9.999952656575921 15.00148500311312 0  14.99995287482316 15.00141368174035 0  19.99995320753416 15.00134213201792 0  24.99995367539816 15.00127037401062 0  29.99995429852137 15.00119843853693 0  34.99995509718539 15.00112636543118 0  39.99995609197612 15.00105420229601 0  44.99995730367225 15.00098200400196 0  49.99995875303609 15.00090983296336 0  54.99996046053045 15.00083776016998 0  59.99996244592372 15.00076586697477 0  64.99996472771709 15.00069424768716 0  69.99996732229795 15.00062301308428 0  74.99997024270682 15.00055229502825 0  79.99997349687139 15.00048225246607 0  84.99997708514347 15.00041307919429 0  89.99998099695085 15.00034501389487 0  94.99998520640689 15.0002783530793 0  99.99998966680857 15.00021346768773 0  104.999994304265 15.0001508240897 0  109.9999990113326 15.00009100993065 0  115.0000036429112 15.00003476423161 0  120.0000080192505 14.99998300847102 0  125.0000119455948 14.99993686919477 0  130.0000152657014 14.99989766922375 0  135.0000179775246 14.99986683593587 0  140.0000204503567 14.99984561374508 0  145.0000237755459 14.99983432398874 0  150.0000301829714 14.99983049415565 0  165.0000454950989 14.99972211999478 0  160.0000525263948 14.99983090919398 0  170.0000308386482 14.99960298443765 0  175.000013177208 14.99948234315456 0  179.9999957396772 14.9993647477238 0  184.999980099446 14.9992518471053 0  189.9999668085961 14.99914388814256 0  194.9999558902804 14.99904053436582 0  199.999947129101 14.99894125461325 0  204.9999402255802 14.99884549392293 0  209.9999348720503 14.99875274124419 0  214.9999307861538 14.99866255030805 0  219.9999277226594 14.99857454047112 0  224.99992547487 14.99848838995761 0  229.999923871506 14.99840382703554 0  234.9999227720363 14.99832062142189 0  239.9999220618298 14.99823857672965 0  244.9999216477371 14.99815752412395 0  249.9999214542973 14.99807731709952 0  254.9999214205881 14.99799782720973 0  259.9999214976625 14.99791894057432 0  264.9999216464764 14.99784055501472 0  269.9999218362275 14.99776257770209 0  274.999922043015 14.99768492323774 0  279.999922248733 14.99760751212245 0  284.999922440164 14.99753026960369 0  289.9999226081865 14.99745312491067 0  294.9999227471572 14.99737601086469 0  299.9999228545553 14.99729886371115 0  304.9999229312553 14.99722162253681 0  309.9999229831311 14.99714422623232 0  5.00005842281717 22.5015565779217 0  5.835393543268674e-05 22.50162725338941 0  10.00005853435172 22.50148556743877 0  15.00005871417596 22.50141426652429 0  20.00005897829335 22.50134271288467 0  25.00005933744962 22.50127094402573 0  30.00005979974815 22.50119900043169 0  35.00006037193869 22.50112692697542 0  40.00006105985643 22.50105477365778 0  45.00006186835144 22.500982596281 0  50.00006280090964 22.50091045737046 0  55.00006385906002 22.50083842750998 0  60.00006504159899 22.50076658719614 0  65.00006634362254 22.5006950293048 0  70.00006775533714 22.50062386227411 0  75.00006926061705 22.50055321413406 0  80.00007083528968 22.50048323753647 0  85.00007244516802 22.50041411595571 0  90.00007404393628 22.50034607121555 0  95.00007557115015 22.50027937241605 0  100.0000769508851 22.50021434611414 0  105.0000780920276 22.50015138712633 0  110.0000788919269 22.50009096833366 0  115.0000792461949 22.50003364598006 0  120.0000790688548 22.49998005348566 0  125.0000783285341 22.49993087069329 0  130.0000771070084 22.49988674523165 0  135.0000756834912 22.49984812671171 0  140.0000746355138 22.49981495291027 0  145.0000749120948 22.49978611031342 0  150.0000777544496 22.4997586418372 0  165.0001064169196 22.49964366321677 0  160.0000970763396 22.49973071569179 0  170.0001084366906 22.499545369888 0  175.0001051599045 22.49944153859269 0  180.0000987653361 22.49933625649365 0  185.0000909861474 22.49923197991122 0  190.0000829728186 22.49912995114849 0  195.0000753952624 22.49903065863703 0  200.0000685902367 22.49893417194915 0  205.0000626851448 22.49884034988164 0  210.0000576856598 22.49874895922237 0  215.0000535325871 22.4986597384417 0  220.0000501366915 22.498572429644 0  225.0000473989863 22.49848679303702 0  230.0000452219044 22.49840261215902 0  235.0000435149686 22.4983196944525 0  240.0000421972511 22.49823786966827 0  245.0000411980365 22.49815698740043 0  250.0000404565276 22.49807691440781 0  255.0000399210926 22.49799753203136 0  260.0000395483128 22.49791873383889 0  265.0000393020007 22.49784042353838 0  270.0000391522385 22.49776251316022 0  275.0000390744823 22.49768492149056 0  280.0000390487306 22.49760757272818 0  285.000039058766 22.4975303953205 0  290.0000390914846 22.49745332089154 0  295.000039136371 22.49737628307198 0  300.0000391
[...]
<PointData  Scalars="p"> 
<DataArray  type="Float64"  Name="p"  format="ascii">1.0000000000000001e-01  1.0000000000000003e-01  1.0000389868914315e-01  1.0000000000000003e-01  1.0000000000000003e-01  1.0000453205067204e-01  1.0000000000000003e-01  1.0000684394935115e-01  1.0000000000000003e-01  1.0000801766672825e-01  1.0000000000000003e-01  1.0000968398803650e-01  1.0000000000000003e-01  1.0001242142711371e-01  1.0000000000000003e-01  1.0001364568338018e-01  1.0000000000000003e-01  1.0001552181710323e-01  1.0000000000000003e-01  1.0001860898482645e-01  1.0000000000000003e-01  1.0001906462730668e-01  1.0000000000000003e-01  1.0002672288936411e-01  1.0000000000000003e-01  1.0003094895735114e-01  1.0000000000000003e-01  1.0003546931503156e-01  1.0000000000000003e-01  1.0003911225834745e-01  1.0000000000000003e-01  1.0004648958792231e-01  1.0000000000000003e-01  1.0004947216090050e-01  1.0000000000000003e-01  1.0005489908818450e-01  1.0000000000000003e-01  1.0006322737542837e-01  1.0000000000000003e-01  1.0006569273805963e-01  1.0000000000000003e-01  1.0007398983000250e-01  1.0000000000000003e-01  1.0007904524634352e-01  1.0000000000000003e-01  1.0008810583329530e-01  1.0000000000000003e-01  1.0008597409037015e-01  1.0000000000000003e-01  1.0010864870351444e-01  1.0000000000000003e-01  1.0008788320686793e-01  1.0000000000000003e-01  1.0013415580424655e-01  1.0000000000000003e-01  1.0008158109150686e-01  1.0000000000000003e-01  1.0016940376336732e-01  1.0000000000000003e-01  1.0006434299337506e-01  1.0000000000000001e-01  1.0022914751744538e-01  1.0000000000000001e-01  1.0000000000000003e-01  9.9813970864879822e-02  9.9617560939901054e-02  1.0000000000000003e-01  9.9945781419961896e-02  1.0000000000000003e-01  9.9853039877584912e-02  1.0000000000000003e-01  9.9902883090352224e-02  1.0000000000000003e-01  9.9887903029873187e-02  1.0000000000000003e-01  9.9900756048599632e-02  1.0000000000000003e-01  9.9894659477667305e-02  1.0000000000000003e-01  9.9905520125788461e-02  1.0000000000000003e-01  9.9903880212861881e-02  1.0000000000000003e-01  9.9907540050099039e-02  1.0000000000000003e-01  9.9910711162172386e-02  1.0000000000000003e-01  9.9913037461646481e-02  1.0000000000000003e-01  9.9914579554639824e-02  1.0000000000000003e-01  9.9917790210628868e-02  1.0000000000000003e-01  9.9919300757404725e-02  1.0000000000000003e-01  9.9920949632750014e-02  1.0000000000000003e-01  9.9922995208206203e-02  1.0000000000000003e-01  9.9924494836787101e-02  1.0000000000000003e-01  9.9925482991580133e-02  1.0000000000000003e-01  9.9927423713157396e-02  1.0000000000000003e-01  9.9927833397417801e-02  1.0000000000000003e-01  9.9929932429287383e-02  1.0000000000000003e-01  9.9929129496696037e-02  1.0000000000000003e-01  9.9933318625394923e-02  1.0000000000000003e-01  9.9928278110516633e-02  1.0000000000000003e-01  9.9939026681861803e-02  1.0000000000000003e-01  9.9922999017645536e-02  1.0000000000000003e-01  9.9951374015017067e-02  1.0000000000000003e-01  9.9902865473030164e-02  1.0000000000000001e-01  1.0000000000000003e-01  1.0000641931089391e-01  1.0000000000000003e-01  1.0000636054326258e-01  1.0000681824599368e-01  1.0000770475250050e-01  1.0001001979789782e-01  1.0000984930800917e-01  1.0001028384274815e-01  1.0001363333367778e-01  1.0001208294107528e-01  1.0001342331554881e-01  1.0001648140055210e-01  1.0002438059790934e-01  1.0002209306425047e-01  1.0003063248657007e-01  1.0002688901200427e-01  1.0003018201287359e-01  1.0003689557130531e-01  1.0003498570089785e-01  1.0003719079387219e-01  1.0004724750629600e-01  1.0004094065794397e-01  1.0004977121610731e-01  1.0004898072958947e-01  1.0005922045958464e-01  1.0004009165243048e-01  1.0008604578402076e-01  1.0001097160447985e-01  1.0014174628152055e-01  9.9942202437068930e-02  1.0023250844401821e-01  1.0016160987879670e-01  9.9413976592300196e-02  9.9824111346006911e-02  9.9972101235064836e-02  9.9948291035129963e-02  9.9958421115003221e-02  9.9938224883485693e-02  9.9961940531777996e-02  9.9950237059078129e-02  9.9953189857031263e-02  9.9957902558123965e-02  9.9958129548169336e-02  9.9957542776991010e-02  9.9962435253092424e-02  9.9962529126264493e-02  9.9963077797767808e-02  9.9965919240591436e-02  9.9966471186898304e-02  9.9967015425131880e-02  9.9968778302062675e-02  9.9969650071450256e-02  9.9969642181808469e-02  9.9971851612206938e-02  9.9970880844067078e-02  9.9973951750410461e-02  9.9970466444617170e-02  9.9978722632775352e-02  9.9965157962305262e-02  9.9989874247795818e-02  9.9952634845736715e-02  1.0000000000000003e-01  1.0000947991836395e-01  1.0000000000000003e-01  1.0000640998882757e-01  1.0000954096362147e-01  1.0001192846322543e-01  1.0001238286490542e-01  1.0001286040426918e-01  1.0001774220296404e-01  1.0001658654710878e-01  1.0001685332700332e-01  1.0002242240965277e-01  1.0002360423503490e-01  1.0001992956969015e-01  1.0004283795482978e-01  1.0003499107368324e-01  1.0003977779445454e-01  1.0005017750658234e-01  1.0004541823589540e-01  1.0004971636486248e-01  1.0006284494371026e-01  1.0005778976816267e-01  1.0006100170441574e-01  1.0007943938702515e-01  1.0006408726078606e-01  1.0008455108958778e-01  1.0007236901260699e-01  1.0010416265225114e-01  1.0004652261859077e-01  1.0017062047636244e-01  9.9946478387830384e-02  1.0036483382829058e-01  1.0011672385691353e-01  9.9457643027535195e-02  9.9717701228271283e-02  9.9941303640509516e-02  9.9926073422979086e-02  9.9879555908921738e-02  9.9942921565093268e-02  9.9907247978940308e-02  9.9915035936266161e-02  9.9924503047150393e-02  9.9923300053270950e-02  9.9920562947559355e-02  9.9930597214609909e-02  9.9929337642103544e-02  9.9930013015429003e-02  9.9935639797733899e-02  9.9936304493630973e-02  9.9936674584238980e-02  9.9940602206771659e-02  9.9941145721770763e-02  9.9942046181980840e-02  9.9944094797717056e-02  9.9945662892171938e-02  9.9944970226605367e-02  9.9949086311290847e-02  9.9945766793739232e-02  9.9953131061106579e-02  9.9942847855408648e-02  9.9964294693588099e-02  9.9925036032002673e-02  1.0000000000000003e-01  1.0001136186793642e-01  1.0000000000000003e-01  1.0000727599507846e-01  1.0001263539781957e-01  1.0001208454587932e-01  1.0001262110398143e-01  1.0001769257253182e-01  1.0001634678786880e-01  1.0001633516737606e-01  1.0002259533891869e-01  1.0001999239642222e-01  1.0001971001243619e-01  1.0003311715022072e-01  1.0002111858826881e-01  1.0003967360708578e-01  1.0004568300164585e-01  1.0004188774424959e-01  1.0004200908776135e-01  1.0005784891031211e-01  1.0004721288072835e-01  1.0005379850352283e-01  1.0006631574157829e-01  1.0006112516266071e-01  1.0005738110057386e-01  1.0008798230963994e-01  1.0004762038961552e-01  1.0010552916134452e-01  1.0002502896171137e-01  1.0017120293507711e-01  9.9910799668973149e-02  1.0038735702676477e-01  1.0012066223856328e-01  9.9331025100086276e-02  9.9812441608587613e-02  9.9982259534401055e-02  9.9809334673877662e-02  1.0000138815054499e-01  9.9907894599133337e-02  9.9932365847763799e-02  9.9937384036014529e-02  9.9938128936340631e-02  9.9928721885722063e-02  9.9945143591092925e-02  9.9940292834677480e-02  9.9940411841137569e-02  9.9947789590004263e-02  9.9948052605356497e-02  9.9947897165240870e-02  9.9953186862574789e-02  9.9953644414341222e-02  9.9953869330327502e-02  9.9957463746939285e-02  9.9957622739425545e-02  9.9959045004061428e-02  9.9959749479914206e-02  9.9963076386330937e-02  9.9959169761927355e-02  9.9968637981146288e-02  9.9955606077390333e-02  9.9979052765046997e-02  9.9942985053474154e-02  1.0000000000000003e-01  1.0001329454652151e-01  1.0000000000000003e-01  1.0000927249008663e-01  1.0001300316648247e-01  1.0001215624442064e-01  1.0001825789578556e-01  1.0001672274504998e-01  1.0001746706872318e-01  1.0002426622152144e-01  1.0002130382400591e-01  1.0002074854928038e-01  1.0003241035639293e-01  1.0002590687828936e-01  1.0003114744345211e-01  1.0003452311457550e-01  1.0004833528668783e-01  1.0004357462725680e-01  1.0006270145448287e-01  1.0005006370628790e-01  1.0005407788654465e-01  1.0007380802584356e-01  1.0005822735640511e-01  1.0006854560704005e-01  1.0007944622457737e-01  1.0007973562621311e-01  1.0005919252739059e-01  1.0012304744175009e-01  1.0002026870423331e-01  1.0019329696306276e-01  9.9895594304810459e-02  1.0045045320757894e-01  1.0023286364137496e-01  9.9241965046720407e-02  9.9757801281470965e-02  9.9921131315034009e-02  9.9891707706048397e-02  9.9888929374415777e-02  9.9918446094194799e-02  9.9922864261493161e-02  9.9932011865047646e-02  9.9905859516594295e-02  9.9936326859911953e-02  9.9925058198583661e-02  9.9924740537269921e-02  9.9935227906586321e-02  9.9934660671620504e-02  9.9933078395768940e-02  9.9941497489878503e-02  9.9941463749704529e-02  9.9941636896256791e-02  9.9946472017474738e-02  9.9947354500745406e-02  9.9947250078498084e-02  9.9951275024005012e-02  9.9950706848574600e-02  9.9953575654973356e-02  9.9951936526517182e-02  9.9959214128021640e-02  9.9948361875188726e-02  9.9970763581520392e-02  9.9933600205440731e-02  1.0000000000000003e-01  1.0001558720623076e-01  1.0000000000000003e-01  1.0000935207735243e-01  1.0001356204560460e-01  1.0001628419458973e-01  1.0001682547790527e-01  1.0001691865700305e-01  1.0002390339559220e-01  1.0002192640467823e-01  1.0002088598003953e-01  1.0003082347027353e-01  1.0002664495486221e-01  1.0002773671258733e-01  1.0003902299549990e-01  1.0003623869019378e-01  1.0002430202017400e-01  1.0006825694977237e-01  1.0004712105038689e-01  1.0005384915475636e-01  1.0007175690495879e-01  1.0005762756072303e-01  1.0005876382279415e-01  1.0008840589141117e-01  1.0005901672987229e-01  1.0008223746278579e-01  1.0007416188777671e-01  1.0010823064871303e-01  1.0001632028243976e-01  1.0021404705615145e-01  9.9858494266346284e-02  1.0050168243463610e-01  1.0022481075443344e-01  9.9265348652459465e-02  9.9704537848376254e-02  1.0001696690979132e-01  9.9868054562586461e-02  9.9894492161033882e-02  9.9885646656411711e-02  9.9963626724522331e-02  9.9889041070845327e-02  9.9952134964779504e-02  9.9923219847740594e-02  9.9925208584493524e-02  9.9937971452255317e-02  9.9937128669191633e-02  9.9932272367027369e-02  9.9944390725048349e-02  9.9942956399773131e-02  9.9942476937025501e-02  9.9949728946763086e-02  9.9949945080872904e-02  9.9950003301775822e-02  9.9954238798226722e-02  9.9955540499215581e-02  9.9954566705243483e-02  9.9959892550613605e-02  9.9956455989650611e-02  9.9964262376438046e-02  9.9953948230259798e-02  9.9975544278239736e-02  9.9940739772744938e-02  1.0000000000000003e-01  1.0001684193668250e-01  1.0000000000000003e-01  1.0000951294252956e-01  1.0001739040012633e-01  1.0001535877114703e-01  1.0001682573864328e-01  1.0002279858883494e-01  1.0002213353621740e-01  1.0002109365980374e-01  1.0003097220732765e-01  1.0002657328033497e-01  1.0002682250517746e-01  1.0004032141969565e-01  1.0003442925455094e-01  1.0003052809653137e-01  1.0005448378022708e-01  1.0002828471654374e-01  1.0005903049307636e-01  1.0007252858969340e-01  1.0005878183566787e-01  1.0006064962874130e-01  1.0008516505684591e-01  1.0006734570156270e-01  1.0006483279900297e-01  1.0010773068756053e-01  1.0005429135954769e-01  1.0011501404563082e-01  1.0003617160731824e-01  1.0020507418267939e-01  9.9851044935843833e-02  1.0055282012059956e-01  1.0020801621106779e-01  9.9206765179177703e-02  9.9758862996268655e-02  9.9993333047770805e-02  9.9830735002670118e-02  9.9938915755867358e-02  9.9900264285296733e-02  9.9856298933354848e-02  9.9962402272557899e-02  9.9911500523908237e-02  9.9922138964345236e-02  9.9929824739121306e-02  9.9933011134303376e-02  9.9922397710133573e-02  9.9939751027495208e-02  9.9936303887296393e-02  9.9934804193458654e-02  9.9943717339941535e-02  9.9944330024785047e-02  9.9943506390673786e-02  9.9950032435793659e-02  9.9950084031929246e-02  9.9950991826229393e-02  9.9953566942794406e-02  9.9956431708986132e-02  9.9953368653760019e-02  9.9962147394860396e-02  9.9951579050277559e-02  9.9972683316976257e-02  9.9938460578414171e-02  1.0000000000000003e-01  1.0001793740831857e-01  1.0000000000000003e-01  1.0001153281259892e-01  1.0001705321371117e-01  1.0001514178049221e-01  1.0002190153160077e-01  1.0002063966183605e-01  1.0002074558036091e-01  1.0002978905198445e-01  1.0002624095755852e-01  1.0002562791378419e-01  1.0003900656711730e-01  1.0003338907971553e-01  1.0003196540190973e-01  1.0005070308862549e-01  1.0003528500511853e-01  1.0004250605837291e-01  1.0004776659338201e-01  1.0006563132423878e-01  1.0005627205904385e-01  1.0009010620659101e-01  1.0006040354281334e-01  1.0007121577225624e-01  1.0009246596335111e-01  1.0008110857408103e-01  1.0005657367811689e-01  1.0014295455193882e-01  1.0000913848531219e-01  1.0021536419932052e-01  9.9855338017468001e-02  1.0056835076894419e-01  1.0027734714270664e-01  9.9144170409021487e-02  9.9730394753579185e-02  9.9965898693457261e-02  9.9882677559540459e-02  9.9937901015739239e-02  9.9865078825623385e-02  9.9928556822070316e-02  9.9880930305453641e-02  9.9937531328655835e-02  9.9921370478804700e-02  9.9941805668623443e-02  9.9914449196932251e-02  9.9942444377236594e-02  9.9934725296609489e-02  9.9932552721222520e-02  9.9943531284007903e-02  9.9943351861251653e-02  9.9941048802440230e-02  9.9949827724058152e-02  9.9950280242953896e-02  9.9949586210968416e-02  9.9955520561347572e-02  9.9954945116987798e-02  9.9957334833057021e-02  9.9956843522974903e-02  9.9963984868426184e-02  9.9953596215971177e-02  9.9974997934599893e-02  9.9941777831759795e-02  1.0000000000000003e-01  1.0001959586838770e-01  1.0000000000000003e-01  1.0001122752241123e-01  1.0001700082288545e-01  1.0001900433766606e-01  1.0002045238634469e-01  1.0001938843332246e-01  1.0002789495446528e-01  1.0002569536627676e-01  1.0002484443324224e-01  1.0003614988675992e-01  1.0003284076110826e-01  1.0003126936584693e-01  1.0004842260749980e-01  1.0003828354435228e-01  1.0003779638914415e-01  1.0005571479292721e-01  1.0004753824003909e-01  1.0002862106516605e-01  1.0009570193976684e-01  1.0006130561877390e-01  1.0006688417426289e-01  1.0010237054744893e-01  1.0006316465408586e-01  1.0008352561333239e-01  1.0009182367060018e-01  1.0011125507288682e-01  1.0001200547892584e-01  1.0024786113758036e-01  9.9822966117978765e-02  1.0059454058351076e-01  1.0028085901199671e-01  9.9157810058818283e-02  9.9691527826912527e-02  1.0001671419636642e-01  9.9868119822985407e-02  9.9903230788521841e-02  9.9914319755648309e-02  9.9914793742878566e-02  9.9885524361570791e-02  9.9895291758196919e-02  9.9956272177021799e-02  9.9900389148413940e-02  9.9947807222625043e-02  9.9928940371993707e-02  9.9928569945551549e-02  9.9940400683269148e-02  9.9941159221101972e-02  9.9935841182309970e-02  9.9947201006898523e-02  9.9946424936053394e-02  9.9945891340476559e-02  9.9952586549527614e-02  9.9953874084519528e-02  9.9952485859728754e-02  9.9958906995743182e-02  9.9956041190704628e-02  9.9962637732099305e-02  9.9954410879056682e-02  9.9974132289953430e-02  9.9941846598276568e-02  1.0000000000000003e-01  1.0002024268349745e-01  1.0000000000000003e-01  1.0001104869613497e-01  1.0002026985646421e-01  1.0001785823900745e-01  1.0001958112471426e-01  1.0002549120570217e-01  1.0002484956047684e-01  1.0002378249167333e-01  1.0003408196696151e-01  1.0003091648346013e-01  1.0002963447806933e-01  1.0004595119910537e-01  1.0003868871689675e-01  1.0003622057306902e-01  1.0005624235910174e-01  1.0004473562123405e-01  1.0003647822056233e-01  1.0007444907877339e-01  1.0003043336604470e-01  1.0007512569484389e-01  1.0009545874988666e-01  1.0007364446502760e-01  1.0006543741309619e-01  1.0012292168577105e-01  1.0005292076150749e-01  1.0011412045245766e-01  1.0004982737003264e-01  1.0021434662109613e-01  9.9821306482177616e-02  1.0063796621946569e-01  1.0026555553547171e-01  9.9133634818391686e-02  9.9725067215083715e-02  1.0001211553344751e-01  9.9835398447002635e-02  9.9948236007355501e-02  9.9905569335197383e-02  9.9896990020483370e-02  9.9914918692430923e-02  9.9920279284710325e-02  9.9870825033260793e-02  9.9964312990537624e-02  9.9921120222699861e-02  9.9932624493311570e-02  9.9936596395061042e-02  9.9942387070435609e-02  9.9932214872072184e-02  9.9947297039729918e-02  9.9945445132081298e-02  9.9943057487020148e-02  9.9951510799053123e-02  9.9952221135302041e-02  9.9952082171489473e-02  9.9956718532029060e-02  9.9959316598545400e-02  9.9956199164711684e-02  9.9965200084323608e-02  9.9955698918123906e-02  9.9974812007201028e-02  9.9944282650105867e-02  1.0000000000000003e-01  1.0002074867247431e-01  1.0000000000000003e-01  1.0001257299239834e-01  1.0001959256988434e-01  1.0001698998107975e-01  1.0002410247005973e-01  1.0002295569434022e-01  1.0002303636537131e-01  1.0003143621221156e-01  1.0002924767023265e-01  1.0002750556166716e-01  1.0004206792348837e-01  1.0003697764086894e-01  1.0003526500460382e-01  1.0005396360347785e-01  1.0004336589143213e-01  1.0003906052018025e-01  1.0006693878294738e-01  1.0004228510841150e-01  1.0004979048351398e-01  1.0006251164938454e-01  1.0007746822937046e-01  1.0006951987551296e-01  1.0011106436829106e-01  1.0007875233399682e-01  1.0005823245393254e-01  1.0015757423412733e-01  1.0000812758911448e-01  1.0021351176440137e-01  9.9862692128691574e-02  1.0060624632581616e-01  1.0030741390799999e-01  9.9091330652154128e-02  9.9718279665328244e-02  9.9986597130762453e-02  9.9870861394661822e-02  9.9942851866767587e-02  9.9878280025691449e-02  9.9929568407841243e-02  9.9918991905247848e-02  9.9894042242979333e-02  9.9925086650881387e-02  9.9897646441103563e-02  9.9944016125066898e-02  9.9928757603992752e-02  9.9948295606603066e-02  9.9925487145129804e-02  9.9948054184382962e-02  9.9943331975270458e-02  9.9940752511543662e-02  9.9950053425930788e-02  9.9950560199557767e-02  9.9947890587498367e-02  9.9956411393458497e-02  9.9955978118897268e-02  9.9957623852445790e-02  9.9958778727991512e-02  9.9965138482836835e-02  9.9955714124397008e-02  9.9975548367691916e-02  9.9945395691685715e-02  1.0000000000000003e-01  1.0002190133299536e-01  1.0000000000000003e-01  1.0001219358364910e-01  1.0001912898818445e-01  1.0002026803354340e-01  1.0002253312488601e-01  1.0002126787320208e-01  1.0002936143443926e-01  1.0002786525903562e-01  1.0002625082932384e-01  1.0003767843793898e-01  1.0003505853040669e-01  1.0003312344939794e-01  1.0005002792480072e-01  1.0004320346654526e-01  1.0003829658933057e-01  1.0006276232382959e-01  1.0004629257178405e-01  1.0004386971562203e-01  1.0007027165149908e-01  1.0005640245417528e-01  1.0002623150896713e-01  1.0012628806395382e-01  1.0006223656788656e-01  1.0008620333084449e-01  1.0010798818696717e-01  1.0010470888383698e-01  1.0001122407402552e-01  1.0026193126935680e-01  9.9820456003877622e-02  1.0060142162411548e-01  1.0032162936253036e-01  9.9108366560907948e-02  9.9687616974163493e-02  1.0002006122743984e-01  9.9869456288443487e-02  9.9916531191540092e-02  9.9910058836902613e-02  9.9929701512888075e-02  9.9893537392196932e-02  9.9930572996075329e-02  9.9920229157604248e-02  9.9907210480626119e-02  9.9905800278813003e-02  9.9963770443419586e-02  9.9916093238648293e-02  9.9954417658762854e-02  9.9940449110316618e-02  9.9939984918214972e-02  9.9949270476400565e-02  9.9950804157061743e-02  9.9946199421085000e-02  9.9954900196182792e-02  9.9955480694354962e-02  9.9954003283137985e-02  9.9961543505740463e-02  9.9959378701794027e-02  9.9964757230350504e-02  9.9958489823086027e-02  9.9976084914802463e-02  9.9947207296415791e-02  1.0000000000000003e-01  1.0002212624337038e-01  1.0000000000000003e-01  1.0001173929193213e-01  1.0002161306963733e-01  1.0001896947949569e-01  1.0002121909271930e-01  1.0002623427734450e-01  1.0002646733570048e-01  1.0002517233639614e-01  1.0003469316911298e-01  1.0003223344016549e-01  1.0003084711772740e-01  1.0004562028628367e-01  1.0004121493108413e-01  1.0003680276172784e-01  1.0005828590916986e-01  1.0004752005617784e-01  1.0004098551971057e-01  1.0007027719508423e-01  1.0005168292612947e-01  1.0003909757165870e-01  1.0009211674566459e-01  1.0003144542102578e-01  1.0007941800930968e-01  1