<?xml version="1.0"?>
<VTKFile type="UnstructuredGrid"  version="0.1"  >
<UnstructuredGrid>
<Piece  NumberOfPoints="1933" NumberOfCells="3640">
<Points>
<DataArray  type="Float64"  NumberOfComponents="3"  format="ascii">-0.4752528341883276 -0.002644313574750746 0  4.524747219725092 -0.002576266109089419 0  4.524645127290899 7.497423857777371 0  -0.4753549436278575 7.497355783769901 0  9.524747312443502 -0.002508309096640043 0  9.524645242452335 7.497491817188346 0  14.52474749220165 -0.002440429185352391 0  14.52464541842302 7.497559692612779 0  19.52474779810493 -0.002372583117557159 0  19.52464566798187 7.497627533044113 0  24.52474825822628 -0.002304712775746964 0  24.52464600012605 7.49769539840837 0  29.52474889092835 -0.002236752013864958 0  29.52464641953807 7.49776335526138 0  34.52474970670833 -0.002168629503376055 0  34.5246469261845 7.497831474852391 0  39.52475070972875 -0.002100269483459697 0  39.52464751501105 7.497899832709376 0  44.52475189883028 -0.002031591325319746 0  44.52464817559035 7.497968509191618 0  49.52475326801793 -0.001962508350598044 0  49.52464889158989 7.498037590700641 0  54.524754806454 -0.001892926094874355 0  54.52464963995297 7.498107171407854 0  59.52475649796904 -0.001822740061538022 0  59.52465038968995 7.498177355469671 0  64.52475832006472 -0.001751832912563952 0  64.52465110015869 7.498248259783715 0  69.5247602423149 -0.001680070959693617 0  69.5246517186816 7.498320017411195 0  74.52476222399741 -0.001607299731460992 0  74.52465217728245 7.498392781863607 0  79.52476421065897 -0.00153333828026535 0  79.52465238824087 7.498466732539153 0  84.52476612913196 -0.001457971739155547 0  84.52465223804339 7.498542081702281 0  89.52476788019835 -0.001380941413884282 0  89.52465157914281 7.498619083535472 0  94.52476932756659 -0.001301931366292591 0  94.5246502187365 7.498698045949614 0  99.52477028087594 -0.001220549963144074 0  99.52464790356254 7.498779345986147 0  104.524770468773 -0.001136304178209421 0  104.5246442995566 7.498863449681807 0  109.5247694950403 -0.001048563517578737 0  109.5246389654007 7.498950936932887 0  114.5247667651735 -0.0009565093865568719 0  114.5246313201 7.499042530569989 0  119.5247613604177 -0.0008590650465228119 0  119.524620608166 7.499139125107502 0  124.5247518169688 -0.0007548027900504924 0  124.5246058749302 7.499241801337464 0  129.5247357319727 -0.0006418340418360954 0  129.5245859857094 7.49935179151954 0  134.5247090504879 -0.0005177215001542891 0  134.5245597703839 7.49947031366106 0  139.5246647602282 -0.0003795650232139635 0  139.524526479613 7.499598102946356 0  144.5245904712563 -0.0002248075455291988 0  144.5244869667831 7.499734335223327 0  149.5244638025808 -5.484788600538147e-05 0  149.5244465317153 7.499874700328677 0  159.5244717418519 1.117815908002558e-18 0  164.5244506066385 -8.039007681156149e-05 0  164.5244700005352 7.499900386403731 0  159.5244677350369 7.499955644012263 0  169.5244584103579 -0.000122599994523358 0  169.5244718687314 7.499868084074351 0  174.5244779986708 -0.0001383010200699355 0  174.5244766595197 7.49985695260481 0  179.5245014782378 -0.0001348254291371576 0  179.5244841921011 7.49986271550464 0  184.5245252125154 -0.000117257774576172 0  184.5244935318686 7.499881475669991 0  189.5245475962203 -8.921246148694146e-05 0  189.5245037790227 7.499910157086766 0  194.5245680022141 -5.328415598810531e-05 0  194.5245142547799 7.49994642992689 0  199.5245862694476 -1.13540571688424e-05 0  199.5245245016195 7.499988548669466 0  204.5246024514906 3.519706580110133e-05 0  204.5245342356726 7.500035203681543 0  209.5246166930418 8.534149034196458e-05 0  209.5245432964079 7.500085405183635 0  214.5246291698816 0.0001383029667002078 0  214.5245516060874 7.500138397494556 0  219.5246400603841 0.0001934865382964027 0  219.5245591403428 7.500193597001499 0  224.5246495327346 0.0002504296603616323 0  224.5245659079293 7.500250547536679 0  229.5246577399252 0.0003087677458875565 0  229.5245719372487 7.500308888176317 0  234.5246648185538 0.000368209535790279 0  234.5245772676017 7.500368329819658 0  239.5246708894378 0.0004285192270324489 0  239.5245819436437 7.500428637976576 0  244.5246760590551 0.0004895033140634026 0  244.5245860119862 7.500489619976795 0  249.5246804213234 0.0005510007740867536 0  249.5245895192185 7.500551115365834 0  254.5246840595042 0.0006128756752446512 0  254.5245925108785 7.500612988638428 0  259.5246870481296 0.0006750115904331146 0  259.5245950310419 7.500675123729494 0  264.5246894549507 0.000737307412811643 0  264.5245971223291 7.500737419877216 0  269.5246913428977 0.0007996743298715749 0  269.524598826178 7.500799788620256 0  274.5246927721057 0.0008620338489832504 0  274.5246001832683 7.500862151813934 0  279.524693802006 0.0009243169026209247 0  279.5246012340049 7.500924440664719 0  284.5246944934767 0.0009864642201667839 0  284.5246020189653 7.500986595903187 0  289.5246949108969 0.001048428363901986 0  289.5246025791897 7.501048569350939 0  294.5246951237689 0.00111017812075535 0  294.5246029562506 7.501110327289203 0  299.5246952069896 0.00117170633159029 0  299.5246031920772 7.501171856189869 0  304.5246952378383 0.001233042601843954 0  304.5246033289248 7.501233171497254 0  309.5246952853766 0.001294271821390746 0  309.5246034108349 7.501294330387365 0  4.524542832776561 14.99742411344181 0  -0.4754572362523279 14.99735601746523 0  9.524542922880523 14.9974920504903 0  14.52454304254871 14.99755989204137 0  19.5245431933197 14.99762769918377 0  24.52454337302015 14.99769553529833 0  29.52454357644478 14.99776346698461 0  34.52454379507106 14.99783156429586 0  39.52454401643175 14.9978999011673 0  44.52454422333901 14.99796855623743 0  49.52454439298202 14.99803761407362 0  54.5245444958563 14.99810716678764 0  59.52454449445672 14.99817731605086 0  64.52454434166226 14.99824817555293 0  69.52454397873119 14.99831987398233 0  74.52454333283407 14.99839255863931 0  79.5245423140632 14.99846639981515 0  84.52454081190713 14.99854159607587 0  89.52453869128463 14.99861838054997 0  94.52453578847043 14.99869702818154 0  99.5245319076873 14.99877786356763 0  104.5245268200169 14.99886126823463 0  109.5245202678083 14.99894768462379 0  114.5245119804513 14.99903761089718 0  119.5245017117257 14.99913157461513 0  124.5244893154713 14.99923006213679 0  129.5244748846722 14.9993333608391 0  134.5244589858511 14.99944123860899 0  139.5244430136574 14.9995523361207 0  144.5244296337407 14.99966308119287 0  149.5244230747946 14.99976581640964 0  164.5244541279838 14.99984704347429 0  159.5244487096738 14.99986087092417 0  169.5244547051384 14.99983918508612 0  174.5244541068319 14.99984155678644 0  179.5244541109419 14.99985466273016 0  184.5244552812879 14.99987740506521 0  189.5244575992944 14.99990824466593 0  194.5244608234436 14.99994568324811 0  199.5244646638888 14.99998842505399 0  204.5244688565166 15.00003540486359 0  209.5244731874253 15.00008576666064 0  214.5244774950685 15.00013882859732 0  219.5244816636722 15.00019404820215 0  224.5244856143028 15.00025099246118 0  229.5244892962981 15.00030931361432 0  234.5244926800478 15.0003687301252 0  239.5244957512786 15.00042901190767 0  244.5244985067118 15.00048996890745 0  249.5245009508516 15.00055144228259 0  254.5245030936546 15.00061329758933 0  259.5245049488724 15.00067541953189 0  264.5245065328788 15.00073770795792 0  269.5245078638542 15.0008000748862 0  274.5245089612091 15.00086244243635 0  279.5245098451655 15.00092474160134 0  284.5245105364798 15.00098691185656 0  289.5245110562919 15.0010489016254 0  294.5245114262899 15.00111066958711 0  299.5245116694986 15.00117218665924 0  304.5245118124386 15.00123343807964 0  309.5245118899721 15.00129442410242 0  4.524440482396153 22.49742455840201 0  -0.4755595810781405 22.49735651719474 0  9.524440545392064 22.49749242187942 0  14.52444060747201 22.4975601862472 0  19.52444066411834 22.49762792041304 0  24.52444070778077 22.49769568995767 0  29.52444072838686 22.49776356051581 0  34.5244407132597 22.49783159960389 0  39.52444064667408 22.49789987784798 0  44.5244405092227 22.49796847008936 0  49.52444027708197 22.49803745658191 0  54.52443992121145 22.49810692437259 0  59.52443940650151 22.49817696890568 0  64.5244386908869 22.49824769587245 0  69.52443772446705 22.4983192233119 0  74.52443644872335 22.49839168394647 0  79.52443479600774 22.49846522768387 0  84.52443268960658 22.49854002411649 0  89.52443004490448 22.49861626465763 0  94.52442677250114 22.49869416360651 0  99.52442278463273 22.49877395681804 0  104.5244180069641 22.49885589559685 0  109.5244123987616 22.49894023166508 0  114.5244059855491 22.49902718620514 0  119.5243989092116 22.49911689162852 0  124.5243915001935 22.49920928865249 0  129.5243843727359 22.49930395423424 0  134.5243785327299 22.49939983171806 0  139.5243754614352 22.49949484512887 0  144.5243770875053 22.49958543768069 0  149.5243854819611 22.49966627184144 0  164.5244126890107 22.49978580020957 0  159.5244077114476 22.49977108828647 0  169.5244132904641 22.49979973349751 0  174.5244114326929 22.49981713109244 0  179.5244086913209 22.49984001468463 0  184.5244060513591 22.49986891889265 0  189.5244040029417 22.49990356758202 0  194.5244027129757 22.49994332800641 0  199.524402167297 22.4999874656126 0  204.5244022652614 22.50003526924905 0  209.5244028756179 22.50008610333455 0  214.5244038664016 22.50013942251422 0  219.5244051190624 22.50019476877288 0  224.5244065337027 22.50025176147345 0  229.5244080296604 22.50031008547787 0  234.5244095439066 22.50036947968862 0  239.5244110285999 22.50042972692788 0  244.5244124485034 22.50049064538728 0  249.5244137785839 22.50055208158302 0  254.5244150019294 22.50061390464012 0  259.5244161079893 22.50067600170982 0  264.5244170911357 22.50073827434043 0  269.5244179494812 22.50080063565238 0  274.5244186839398 22.50086300819562 0  279.5244192974989 22.50092532238432 0  284.5244197947325 22.50098751539441 0  289.5244201816312 22.50104953035761 0  294.5244204659298 22.50111131555252 0  299.5
[...]
<PointData  Scalars="p"> 
<DataArray  type="Float64"  Name="p"  format="ascii">1.0000000000000001e-01  1.0000000000000003e-01  9.9997878430054601e-02  1.0000000000000003e-01  1.0000000000000003e-01  9.9998660730076572e-02  1.0000000000000003e-01  9.9997973128602938e-02  1.0000000000000003e-01  9.9998123590357077e-02  1.0000000000000003e-01  9.9997720732720494e-02  1.0000000000000003e-01  9.9996246971069250e-02  1.0000000000000003e-01  9.9996177203575107e-02  1.0000000000000003e-01  9.9995172674049462e-02  1.0000000000000003e-01  9.9993436931373261e-02  1.0000000000000003e-01  9.9994712952811912e-02  1.0000000000000003e-01  9.9987492356167676e-02  1.0000000000000003e-01  9.9986126221492555e-02  1.0000000000000003e-01  9.9982875293447251e-02  1.0000000000000003e-01  9.9980954108549180e-02  1.0000000000000003e-01  9.9974821564853475e-02  1.0000000000000003e-01  9.9972877707658045e-02  1.0000000000000003e-01  9.9967604458540110e-02  1.0000000000000003e-01  9.9959819343137343e-02  1.0000000000000003e-01  9.9956851012180548e-02  1.0000000000000003e-01  9.9947551901772805e-02  1.0000000000000003e-01  9.9941399050916299e-02  1.0000000000000003e-01  9.9930557599896885e-02  1.0000000000000003e-01  9.9929926721771631e-02  1.0000000000000003e-01  9.9905157334154726e-02  1.0000000000000003e-01  9.9922490187133783e-02  1.0000000000000003e-01  9.9873183665101617e-02  1.0000000000000003e-01  9.9922606663310459e-02  1.0000000000000003e-01  9.9831541403926083e-02  1.0000000000000003e-01  9.9934490029416720e-02  1.0000000000000001e-01  9.9765826232408567e-02  1.0000000000000001e-01  1.0000000000000003e-01  1.0013662411888101e-01  1.0034093799865089e-01  1.0000000000000003e-01  1.0001539195225684e-01  1.0000000000000003e-01  1.0010366362690749e-01  1.0000000000000003e-01  1.0005103590294655e-01  1.0000000000000003e-01  1.0006413882158254e-01  1.0000000000000003e-01  1.0004990413960717e-01  1.0000000000000003e-01  1.0005332485963968e-01  1.0000000000000003e-01  1.0004116820901049e-01  1.0000000000000003e-01  1.0004157691250423e-01  1.0000000000000003e-01  1.0003663835354391e-01  1.0000000000000003e-01  1.0003266764715360e-01  1.0000000000000003e-01  1.0002986457960746e-01  1.0000000000000003e-01  1.0002780170816551e-01  1.0000000000000003e-01  1.0002440875049798e-01  1.0000000000000003e-01  1.0002286249158374e-01  1.0000000000000003e-01  1.0002122163214924e-01  1.0000000000000003e-01  1.0001924776403219e-01  1.0000000000000003e-01  1.0001808216054617e-01  1.0000000000000003e-01  1.0001712366027524e-01  1.0000000000000003e-01  1.0001580337378371e-01  1.0000000000000003e-01  1.0001518946818731e-01  1.0000000000000003e-01  1.0001434410137976e-01  1.0000000000000003e-01  1.0001392938553400e-01  1.0000000000000003e-01  1.0001287328817039e-01  1.0000000000000003e-01  1.0001343628679890e-01  1.0000000000000003e-01  1.0001128298138703e-01  1.0000000000000003e-01  1.0001379149216488e-01  1.0000000000000003e-01  1.0000872042899558e-01  1.0000000000000003e-01  1.0001679692041764e-01  1.0000000000000001e-01  1.0000000000000003e-01  9.9995283208356461e-02  1.0000000000000003e-01  9.9996016325029038e-02  9.9995839699674807e-02  9.9995285115606347e-02  9.9993353863207568e-02  9.9993654975579646e-02  9.9993063771390514e-02  9.9990034975462008e-02  9.9991822348202447e-02  9.9990318690353963e-02  9.9989292919988107e-02  9.9980413800706006e-02  9.9985117563825096e-02  9.9976984511426850e-02  9.9981295972465675e-02  9.9976890290938467e-02  9.9970624245245998e-02  9.9971537106915795e-02  9.9967714396785021e-02  9.9957332409328317e-02  9.9961822632483197e-02  9.9950835832921706e-02  9.9950310103048584e-02  9.9938448071959438e-02  9.9954308612458298e-02  9.9908796145657300e-02  9.9980642410159540e-02  9.9851497243257467e-02  1.0004900162294869e-01  9.9763630750802995e-02  9.9835454408662982e-02  1.0048256579572845e-01  1.0017453164730721e-01  1.0001804498100147e-01  1.0004620217902985e-01  1.0003683532784755e-01  1.0005219003390516e-01  1.0002780636964168e-01  1.0003833979400058e-01  1.0003292168435608e-01  1.0002712530929211e-01  1.0002629327172893e-01  1.0002562916042471e-01  1.0002021981118657e-01  1.0001992715064667e-01  1.0001883446668346e-01  1.0001581052386027e-01  1.0001512854412639e-01  1.0001439069595661e-01  1.0001236153140280e-01  1.0001166553789119e-01  1.0001105743403217e-01  1.0000951064500146e-01  1.0000911889661179e-01  1.0000800318775897e-01  1.0000777766324671e-01  1.0000580478254500e-01  1.0000757356523350e-01  1.0000274610390428e-01  1.0000858230912933e-01  1.0000000000000003e-01  9.9992443889572083e-02  1.0000000000000003e-01  9.9995540688957552e-02  9.9993608355917696e-02  9.9991774214622506e-02  9.9991890575248432e-02  9.9991224464602846e-02  9.9986948441294868e-02  9.9988132019675324e-02  9.9987344596533967e-02  9.9983034970200765e-02  9.9981574578683369e-02  9.9987547542716770e-02  9.9963886321862067e-02  9.9975396721112816e-02  9.9969546096750073e-02  9.9961037816201317e-02  9.9964725410914071e-02  9.9958669002639833e-02  9.9945601810018506e-02  9.9948837405854044e-02  9.9942213172038413e-02  9.9923319466381152e-02  9.9935093136412828e-02  9.9911415051639529e-02  9.9921044594010522e-02  9.9888207327574127e-02  9.9939664037245912e-02  9.9820906577071558e-02  1.0003674287369094e-01  9.9632233408053009e-02  9.9924380328639179e-02  1.0038644813207818e-01  1.0022887718614855e-01  1.0004023772482519e-01  1.0006169954507518e-01  1.0009684120128606e-01  1.0003565433397682e-01  1.0006997031307013e-01  1.0005717323260682e-01  1.0004600231451770e-01  1.0004616697546778e-01  1.0004611465549709e-01  1.0003509086766668e-01  1.0003581407605833e-01  1.0003389306082003e-01  1.0002782960969611e-01  1.0002707991589010e-01  1.0002610258045216e-01  1.0002203948683787e-01  1.0002130282627615e-01  1.0002027411885013e-01  1.0001771561478776e-01  1.0001668661989661e-01  1.0001596427080990e-01  1.0001373751038192e-01  1.0001352517864831e-01  1.0001140118030037e-01  1.0001214020657787e-01  1.0000765659529859e-01  1.0001360112980491e-01  1.0000000000000003e-01  9.9990584907074326e-02  1.0000000000000003e-01  9.9994267085731517e-02  9.9989784021114331e-02  9.9990685371085852e-02  9.9989811553133814e-02  9.9985121984316527e-02  9.9986221182732191e-02  9.9985120291846474e-02  9.9979284845776478e-02  9.9981499290873285e-02  9.9981156249306716e-02  9.9968230624897361e-02  9.9983606734479327e-02  9.9960853603021912e-02  9.9960316805597194e-02  9.9962966851949220e-02  9.9961633495650473e-02  9.9945859863434766e-02  9.9954649634628412e-02  9.9944578362750988e-02  9.9931500275365584e-02  9.9933890008197176e-02  9.9932579954165171e-02  9.9902082298737566e-02  9.9936955740552072e-02  9.9878475649390425e-02  9.9953426283753519e-02  9.9815134843659142e-02  1.0006103794327016e-01  9.9613270481852076e-02  9.9943093214859904e-02  1.0049438319920197e-01  1.0013819818076969e-01  1.0002492731256175e-01  1.0017843221478695e-01  9.9994953754402191e-02  1.0009022240104452e-01  1.0005916198938776e-01  1.0005237238442734e-01  1.0005066227201341e-01  1.0005574658746290e-01  1.0003778583878077e-01  1.0004174738979466e-01  1.0003957318602344e-01  1.0003132857897391e-01  1.0003073733690183e-01  1.0002995422905811e-01  1.0002422288043718e-01  1.0002370312076300e-01  1.0002272047607798e-01  1.0001904158726846e-01  1.0001820483892253e-01  1.0001698388836795e-01  1.0001471560552139e-01  1.0001316489835856e-01  1.0001277979047267e-01  1.0000959911002150e-01  1.0001084377813611e-01  1.0000571094716490e-01  1.0001084258998821e-01  1.0000000000000003e-01  9.9988686707918842e-02  1.0000000000000003e-01  9.9991928986082640e-02  9.9989015623873564e-02  9.9989438356599819e-02  9.9984262044628749e-02  9.9985496446355446e-02  9.9983982302207036e-02  9.9977302565708484e-02  9.9979695856474024e-02  9.9979013996997310e-02  9.9967655948681775e-02  9.9974713732040865e-02  9.9967286035609518e-02  9.9969409902820966e-02  9.9951112770460593e-02  9.9959081345206979e-02  9.9940618031775563e-02  9.9952743555847351e-02  9.9944665126900589e-02  9.9925523511215544e-02  9.9937477700690641e-02  9.9922834574911412e-02  9.9910270391361397e-02  9.9907407805435583e-02  9.9919911566888203e-02  9.9860125491438745e-02  9.9951764406515556e-02  9.9790253034554313e-02  1.0006739436674476e-01  9.9555854665887705e-02  9.9851045451244735e-02  1.0054857299835399e-01  1.0019599350610399e-01  1.0008517598966912e-01  1.0007985614456485e-01  1.0011086648031690e-01  1.0007197756684744e-01  1.0006612458551571e-01  1.0005880074332639e-01  1.0007803347808744e-01  1.0004555060924421e-01  1.0005574285020753e-01  1.0005259693771673e-01  1.0004060228969178e-01  1.0004073635106245e-01  1.0004054323865316e-01  1.0003143821475817e-01  1.0003130130809397e-01  1.0003032674838978e-01  1.0002496876603133e-01  1.0002405980832875e-01  1.0002313959106829e-01  1.0001930616323985e-01  1.0001839304849235e-01  1.0001670925525473e-01  1.0001481576081318e-01  1.0001233040665185e-01  1.0001299885077837e-01  1.0000751175128314e-01  1.0001280076229176e-01  1.0000000000000003e-01  9.9986463034713188e-02  1.0000000000000003e-01  9.9991593635829129e-02  9.9987653831691753e-02  9.9984971176279178e-02  9.9984532995085570e-02  9.9983780182565624e-02  9.9977012100222321e-02  9.9978496080248475e-02  9.9977807059690879e-02  9.9968168193881879e-02  9.9971760381864005e-02  9.9968502377355550e-02  9.9959325340857316e-02  9.9960338054063361e-02  9.9974891710664718e-02  9.9927501129501758e-02  9.9953503708262725e-02  9.9942799614774341e-02  9.9927180195161974e-02  9.9938004789502224e-02  9.9931674577300705e-02  9.9902476592246783e-02  9.9926540172782422e-02  9.9899031593110796e-02  9.9903194499045042e-02  9.9871175987059843e-02  9.9947119481377591e-02  9.9771059216146513e-02  1.0009247186948650e-01  9.9511879069470691e-02  9.9885408419237945e-02  1.0050783670419509e-01  1.0024441391089249e-01  1.0000216496929519e-01  1.0012177149972440e-01  1.0009897942678322e-01  1.0010671446593014e-01  1.0003910979728822e-01  1.0010474894779559e-01  1.0004039017664654e-01  1.0006870758992704e-01  1.0006159922990285e-01  1.0004673705397685e-01  1.0004693987414527e-01  1.0004895106602127e-01  1.0003579248217126e-01  1.0003692416737033e-01  1.0003593418031340e-01  1.0002823705027149e-01  1.0002774148354608e-01  1.0002704587597035e-01  1.0002192904386889e-01  1.0002088449020249e-01  1.0001992784732706e-01  1.0001599892189816e-01  1.0001540170255291e-01  1.0001263462152161e-01  1.0001240938128381e-01  1.0000721724012332e-01  1.0001196092726203e-01  1.0000000000000003e-01  9.9985263989457687e-02  1.0000000000000003e-01  9.9990958476631558e-02  9.9983775499859012e-02  9.9985291601508999e-02  9.9983345489807279e-02  9.9977481400427490e-02  9.9978232589802804e-02  9.9977535775422899e-02  9.9968041639747193e-02  9.9971780978398414e-02  9.9969036713091125e-02  9.9956631740054702e-02  9.9961490014302518e-02  9.9963812258006102e-02  9.9939766988733580e-02  9.9970645162411692e-02  9.9930651730910258e-02  9.9925911128831951e-02  9.9936803815227016e-02  9.9931715123214138e-02  9.9907065252088437e-02  9.9921690502896607e-02  9.9916346413177690e-02  9.9875643343082660e-02  9.9919865990160631e-02  9.9860583970568004e-02  9.9925900418672317e-02  9.9780570210027827e-02  1.0008690306869808e-01  9.9475488978086349e-02  9.9908919619022318e-02  1.0055676454585917e-01  1.0018785264036782e-01  1.0004087734148032e-01  1.0015511883324943e-01  1.0005962346951627e-01  1.0008926212677118e-01  1.0013917554545657e-01  1.0003194151858461e-01  1.0008424534429010e-01  1.0006868709704833e-01  1.0005785223432712e-01  1.0005407910725006e-01  1.0006072807366620e-01  1.0004163894487181e-01  1.0004448433065927e-01  1.0004403479695877e-01  1.0003410245217649e-01  1.0003329976396931e-01  1.0003294933366393e-01  1.0002606606895746e-01  1.0002539927445624e-01  1.0002418412100386e-01  1.0001997517578023e-01  1.0001823413496931e-01  1.0001739567981423e-01  1.0001317504256360e-01  1.0001363416010810e-01  1.0000824251715945e-01  1.0001261451172298e-01  1.0000000000000003e-01  9.9984080074304246e-02  1.0000000000000003e-01  9.9988914184517080e-02  9.9983887966618695e-02  9.9984626070015820e-02  9.9978106859105409e-02  9.9979008792301802e-02  9.9977627930574922e-02  9.9969034281914892e-02  9.9971962904382650e-02  9.9970586008994930e-02  9.9957589202838870e-02  9.9962315741803046e-02  9.9961281509052494e-02  9.9943119039872852e-02  9.9958556678792235e-02  9.9945991103500553e-02  9.9949030139682093e-02  9.9922525831822304e-02  9.9935319732969777e-02  9.9902758798737293e-02  9.9930350793562203e-02  9.9913098169511966e-02  9.9891654925840290e-02  9.9900050805152754e-02  9.9912626022214332e-02  9.9835721514746359e-02  9.9948469166503170e-02  9.9769307930493822e-02  1.0007574744049869e-01  9.9473140991181014e-02  9.9850338860011240e-02  1.0060592686192754e-01  1.0022255337040542e-01  1.0007113022001585e-01  1.0010871731395211e-01  1.0007388979963559e-01  1.0012820947894503e-01  1.0006143772220211e-01  1.0011701167813129e-01  1.0005984059108146e-01  1.0007212560971475e-01  1.0005305487694131e-01  1.0007527583127561e-01  1.0004478863578921e-01  1.0005187084401000e-01  1.0005108556152323e-01  1.0003858038228454e-01  1.0003850167437507e-01  1.0003918106169443e-01  1.0002944461681243e-01  1.0002903297410756e-01  1.0002839352726874e-01  1.0002241806637954e-01  1.0002147149873064e-01  1.0001987906452370e-01  1.0001654795128036e-01  1.0001381274979373e-01  1.0001415556266664e-01  1.0000793181392063e-01  1.0001241001289930e-01  1.0000000000000003e-01  9.9982493086037613e-02  1.0000000000000003e-01  9.9989123283155568e-02  9.9983385267706518e-02  9.9980779429417757e-02  9.9979247374239036e-02  9.9978843257794131e-02  9.9970642312313229e-02  9.9972294667768399e-02  9.9971534574100851e-02  9.9960684149963230e-02  9.9963369986177900e-02  9.9962264423166983e-02  9.9945849299173425e-02  9.9955189266189071e-02  9.9951248873775253e-02  9.9936139071608587e-02  9.9940579902242005e-02  9.9962238001537529e-02  9.9889552329301065e-02  9.9930367754672511e-02  9.9917774946569921e-02  9.9886655008240940e-02  9.9919186308974783e-02  9.9893745480860302e-02  9.9881533929972482e-02  9.9866475671102989e-02  9.9939908120048507e-02  9.9743560785218552e-02  1.0009918210007210e-01  9.9458084143954170e-02  9.9858024310112981e-02  1.0058548608932302e-01  1.0025762898892250e-01  1.0002467231690065e-01  1.0013042582871180e-01  1.0011022522256403e-01  1.0008148717590436e-01  1.0008540954692507e-01  1.0010233684679801e-01  1.0009818260023069e-01  1.0004185233301094e-01  1.0009300336729167e-01  1.0004364758919813e-01  1.0006188422594786e-01  1.0005843711432763e-01  1.0004443547563548e-01  1.0004325916358971e-01  1.0004612512643046e-01  1.0003375438920008e-01  1.0003408159020437e-01  1.0003339143985984e-01  1.0002572739731821e-01  1.0002465685863735e-01  1.0002411656514490e-01  1.0001853530580504e-01  1.0001784803874318e-01  1.0001514178987343e-01  1.0001378806883189e-01  1.0000852926427661e-01  1.0001277728450589e-01  1.0000000000000003e-01  9.9981851111968487e-02  1.0000000000000003e-01  9.9988999188084959e-02  9.9980281243514074e-02  9.9981803528066918e-02  9.9979181737057873e-02  9.9973016604023496e-02  9.9973281423822669e-02  9.9972546682888908e-02  9.9962562989752979e-02  9.9965634297003683e-02  9.9964342076211021e-02  9.9949018523774483e-02  9.9955567496389203e-02  9.9954068636356835e-02  9.9935460697446202e-02  9.9944705482377008e-02  9.9949585107107275e-02  9.9911280448582218e-02  9.9961258541084647e-02  9.9902023463413259e-02  9.9893955392540645e-02  9.9911867116494690e-02  9.9913332508312108e-02  9.9859566135382938e-02  9.9919455647068001e-02  9.9859567463755933e-02  9.9906951100837110e-02  9.9777933962943516e-02  1.0009163963734422e-01  9.9431433908283642e-02  9.9877187502285941e-02  1.0061149786438277e-01  1.0022441936164476e-01  1.0003714481356667e-01  1.0016323003099231e-01  1.0006846492893172e-01  1.0009971696391158e-01  1.0010525545876595e-01  1.0007811186918227e-01  1.0007082345931578e-01  1.0012292127947880e-01  1.0003092088897901e-01  1.0007414513252393e-01  1.0005983692445447e-01  1.0005289420097239e-01  1.0004655711533977e-01  1.0005374709950610e-01  1.0003689275836057e-01  1.0003827608783725e-01  1.0003889513955587e-01  1.0002949491831030e-01  1.0002808157712349e-01  1.0002768595927054e-01  1.0002137786693883e-01  1.0001983088509762e-01  1.0001914604893473e-01  1.0001398707404502e-01  1.0001422492647799e-01  1.0000890014571412e-01  1.0001246237564122e-01  1.0000000000000003e-01  9.9981305890308514e-02  1.0000000000000003e-01  9.9987608513209703e-02  9.9981029019722639e-02  9.9982118518286922e-02  9.9975018024144255e-02  9.9975492384816164e-02  9.9973931697755911e-02  9.9965429780653453e-02  9.9967273616203639e-02  9.9966892580887229e-02  9.9953220661534600e-02  9.9957967915171475e-02  9.9956721750299751e-02  9.9938975857965434e-02  9.9947967952044026e-02  9.9947828255964863e-02  9.9920678953261260e-02  9.9944972630413742e-02  9.9928881324724078e-02  9.9928089609937626e-02  9.9899979524197532e-02  9.9911938579984372e-02  9.9871841614955797e-02  9.9903530641338265e-02  9.9909739627363853e-02  9.9823593139976088e-02  9.9947869736678033e-02  9.9775904804183482e-02  1.0005368484230800e-01  9.9471084936509080e-02  9.9835816405259944e-02  1.0066113101388129e-01  1.0023448692492636e-01  1.0006406378202357e-01  1.0012815639376331e-01  1.0007973987170943e-01  1.0012702633150870e-01  1.0007575410030070e-01  1.0008069008404949e-01  1.0010007140602696e-01  1.0006113618283478e-01  1.0009683115055731e-01  1.0005097516995233e-01  1.0006362098705081e-01  1.0004489160949183e-01  1.0006412420512138e-01  1.0003925948045998e-01  1.0004336315625632e-01  1.0004366729225350e-01  1.0003269313596566e-01  1.0003207411361477e-01  1.0003289524985975e-01  1.0002383114558115e-01  1.0002306780520553e-01  1.0002185758338208e-01  1.0001727282187808e-01  1.0001465531536548e-01  1.0001505573785208e-01  1.0000842894706466e-01  1.0001257085289313e-01  1.0000000000000003e-01  9.9980232874747374e-02  1.0000000000000003e-01  9.9988050589502150e-02  9.9981168525243469e-02  9.9979171922457352e-02  9.9976708541764214e-02  9.9976336778064057e-02  9.9968206906114451e-02  9.9969106386613465e-02  9.9968702616850355e-02  9.9957771687389230e-02  9.9960055757198227e-02  9.9959751260030122e-02  9.9943931370898048e-02  9.9950173510747059e-02  9.9950726644342139e-02  9.9927063718867448e-02  9.9942233581129941e-02  9.9937746217564322e-02  9.9915517616290153e-02  9.9924086885729582e-02  9.9956535453736117e-02  9.9849837657443014e-02  9.9920344651999699e-02  9.9888855997178394e-02  9.9869351914379137e-02  9.9875184938509984e-02  9.9941291776467309e-02  9.9735685814921163e-02  1.0009534067770555e-01  9.9475887017874576e-02  9.9819015388018711e-02  1.0065861120410008e-01  1.0026881179146861e-01  1.0003109972917210e-01  1.0013315270593488e-01  1.0010674264404620e-01  1.0009596982306164e-01  1.0008086911217558e-01  1.0010847623202794e-01  1.0006576027114925e-01  1.0007364639292878e-01  1.0007974607232481e-01  1.0008525160966464e-01  1.0003201187839909e-01  1.0007663613297355e-01  1.0003685245648979e-01  1.0005015600695938e-01  1.0004779490480113e-01  1.0003656741085462e-01  1.0003442611492881e-01  1.0003716890842582e-01  1.0002707581333775e-01  1.0002639828693520e-01  1.0002570146668625e-01  1.0001875845812408e-01  1.0001789232231521e-01  1.0001580801152889e-01  1.0001353594701883e-01  1.0000864682458688e-01  1.0001255655888985e-01  1.0000000000000003e-01  9.9980192974329488e-02  1.0000000000000003e-01  9.9988487221746261e-02  9.9979157147110531e-02  9.9980803186291808e-02  9.9977697768662416e-02  9.9972186556935072e-02  9.9971557010470641e-02  9.9970949523404393e-02  9.9961547777789511e-02  9.9963687635911250e-02  9.9962795638853491e-02  9.9948942141091179e-02  9.9953537755035279e-02  9.9954494691122345e-02  9.9934163743299664e-02  9.9943847664702073e-02  9.9944331575892248e-02  9.9917183005997792e-02  9.9932806969583773e-02  9.9940198903126679e-02  9.9887254602302480e-02  9.9955711741209249e-02  9.9885996695032453e-02  9