<?xml version="1.0"?>
<VTKFile type="UnstructuredGrid"  version="0.1"  >
<UnstructuredGrid>
<Piece  NumberOfPoints="1933" NumberOfCells="3640">
<Points>
<DataArray  type="Float64"  NumberOfComponents="3"  format="ascii">0.293564509016044 0.002556138168485598 0  5.293564494858677 0.002469321367140496 0  5.293694779282219 7.502469321980867 0  0.2936947747373712 7.502556103611363 0  10.29356445636113 0.002382480188002301 0  10.29369480200601 7.502382499242088 0  15.29356440647349 0.002295551493506739 0  15.29369485889401 7.502295580424398 0  20.29356437176806 0.00220849261119118 0  20.29369496867773 7.502208527057836 0  25.29356438475608 0.002121275759106973 0  25.2936951531805 7.502121313714648 0  30.29356448050211 0.002033883666634448 0  30.29369543706677 7.502033924486358 0  35.29356469550428 0.001946306326784559 0  35.29369584767073 7.501946350181314 0  40.29356506778056 0.001858538723217388 0  40.29369641507901 7.50185858630565 0  45.29356563761182 0.001770579339144043 0  45.29369717248251 7.501770631722201 0  50.29356644867052 0.001682429277536538 0  50.29369815676928 7.501682487863117 0  55.29356754941817 0.001594091865185127 0  55.29369940933085 7.501594158396049 0  60.2935689947434 0.001505572658087466 0  60.29370097706749 7.501505649278593 0  65.29357084786923 0.001416879806743741 0  65.29370291359307 7.501416969171771 0  70.29357318259855 0.001328024777575169 0  70.29370528065576 7.501328130219432 0  75.29357608600961 0.001239023464122666 0  75.29370814980329 7.501239149239502 0  80.29357966176063 0.001149897763899288 0  80.29371160432906 7.501150049420071 0  85.29358403423149 0.001060677751203115 0  85.29371574154277 7.501060862677462 0  90.29358935383058 0.0009714046546959764 0  90.29372067539694 7.500971632929078 0  95.29359580395031 0.0008821349718257639 0  95.29372653947689 7.500882420685648 0  100.293603610295 0.000792946258642776 0  100.2937334902792 7.500793309620481 0  105.293613053689 0.0007039454978076092 0  105.2937417105359 7.50070441620772 0  110.2936244880782 0.0006152816193532586 0  110.2937514119796 7.500615904285087 0  115.2936383663969 0.0005271650379688998 0  115.2937628362284 7.500528007761435 0  120.2936552784534 0.0004398996373088787 0  120.2937762510806 7.500441067151256 0  125.2936760071784 0.0003539379255577281 0  125.2937919369407 7.500355590069965 0  130.2937016125069 0.0002699813989397154 0  130.2938101535666 7.500272353814966 0  135.29373355511 0.0001891732396243725 0  135.2938310700471 7.500192582203567 0  140.293773871904 0.0001134883159188462 0  140.2938546314035 7.500118252516096 0  145.2938254003741 4.65636067484317e-05 0  145.2938803309135 7.500052625651936 0  150.2938919816535 -4.452334741440822e-06 0  150.2939068943797 7.500001148430441 0  160.2938926261462 6.178960482531356e-19 0  165.293804043338 -8.858583841892892e-05 0  165.2938755610587 7.499902554559385 0  160.2939066763634 7.499977146695455 0  170.2937426737695 -0.0001812585373541805 0  170.2938439557883 7.499814142122877 0  175.2936983217411 -0.0002765116042627777 0  175.2938157535432 7.499720714726485 0  180.293665299946 -0.0003728117829277033 0  180.2937917176297 7.49962539567124 0  185.2936401540339 -0.0004692874084245349 0  185.2937716368031 7.499529505709131 0  190.2936206780958 -0.0005655043878362066 0  190.2937550150634 7.499433655973717 0  195.2936054070539 -0.0006612603563589985 0  195.2937413166962 7.499338137846375 0  200.2935933324629 -0.0007564690284122123 0  200.2937300519957 7.499243087756509 0  205.2935837367603 -0.0008511018819729989 0  205.2937208010966 7.499148563766263 0  210.2935760938312 -0.0009451595148816851 0  210.2937132139394 7.499054583060437 0  215.2935700077512 -0.00103865747739104 0  215.2937070020474 7.498961140976652 0  220.2935651739665 -0.001131619069451721 0  220.293701928519 7.498868221003388 0  225.2935613539442 -0.001224071517117274 0  225.293697798665 7.498775800234906 0  230.2935583580942 -0.00131604383214144 0  230.2936944520287 7.498683852471502 0  235.2935560339068 -0.001407565549453229 0  235.2936917558551 7.498592350051725 0  240.2935542574639 -0.001498665955014703 0  240.2936895998379 7.498501264966702 0  245.2935529271975 -0.001589373613956904 0  245.2936878919148 7.498410569540764 0  250.2935519591823 -0.001679716104144954 0  250.2936865549006 7.498320236828026 0  255.2935512835059 -0.00176971990857569 0  255.2936855237804 7.498230240803863 0  260.2935508414113 -0.001859410446916278 0  260.2936847435233 7.49814055639077 0  265.2935505830151 -0.001948812244096688 0  265.2936841673138 7.498051159333941 0  270.2935504654611 -0.002037949247863839 0  270.2936837551238 7.497962025925058 0  275.2935504514404 -0.002126845320039563 0  275.2936834725701 7.497873132560107 0  280.2935505080357 -0.002215524937812402 0  280.2936832900298 7.497784455107666 0  285.2935506059233 -0.002304014148130796 0  285.2936831819841 7.497695968060937 0  290.2935507190246 -0.002392341808181323 0  290.2936831265812 7.49760764345607 0  295.2935508248145 -0.002480541084624983 0  295.293683105394 7.497519449575297 0  300.2935509056602 -0.002568650979929245 0  300.2936831033155 7.497431349535574 0  305.2935509517961 -0.002656717026738397 0  305.2936831084998 7.497343299999402 0  310.2935509668704 -0.002744788326533704 0  310.2936831122215 7.497255250292267 0  5.29382491206877 15.00246935340986 0  0.2938248993405004 15.00255602883182 0  10.29382495719186 15.00238258862972 0  15.29382505348925 15.00229570040199 0  20.2938252172915 15.00220866366498 0  25.2938254647255 15.00212146103551 0  30.29382581300239 15.00203408134703 0  35.29382628111087 15.00194651824262 0  40.29382689022852 15.00185876902286 0  45.29382766403538 15.00177083383216 0  50.29382862902357 15.00168271519737 0  55.29382981484206 15.0015944179084 0  60.29383125468522 15.00150594923274 0  65.29383298571497 15.00141731947289 0  70.29383504949134 15.00132854290282 0  75.29383749236874 15.00123963915636 0  80.29384036578701 15.00115063519065 0  85.29384372634755 15.00106156801968 0  90.29384763549447 15.00097248851987 0  95.29385215851786 15.00088346677266 0  100.2938573624338 15.00079459966134 0  105.2938633120548 15.00070602183283 0  110.2938700632279 15.00061792173832 0  115.2938776517906 15.0005305653636 0  120.2938860763684 15.00044433149711 0  125.293895273033 15.00035976379635 0  130.2939050808846 15.00027764558637 0  135.2939152017135 15.0001990999633 0  140.2939251677803 15.00012569985164 0  145.2939343547855 15.00005950722823 0  150.2939421114178 15.00000274126041 0  165.2939338543817 14.99987992579073 0  160.293941913718 14.99995111697296 0  170.2939229593286 14.99979811145623 0  175.2939105175237 14.99970972394908 0  180.2938979144498 14.99961781436772 0  185.2938859924714 14.99952418030057 0  190.2938751634116 14.99942983086528 0  195.2938655735136 14.99933532638447 0  200.293857221241 14.99924097557099 0  205.2938500300079 14.99914694526702 0  210.2938438902819 14.99905332138007 0  215.2938386828253 14.9989601430417 0  220.293834290846 14.99886742204021 0  225.2938306058393 14.998775154081 0  230.2938275299388 14.99868332544847 0  235.2938249764101 14.99859191703252 0  240.2938228691996 14.99850090680719 0  245.2938211420561 14.9984102713718 0  250.2938197374974 14.99831998690138 0  255.2938186057692 14.99823002970511 0  260.2938177038678 14.99814037650739 0  265.2938169946593 14.99805100451538 0  270.2938164461065 14.99796189130687 0  275.293816030597 14.99787301455266 0  280.2938157243611 14.99778435157674 0  285.2938155069536 14.99769587875277 0  290.2938153607549 14.99760757073612 0  295.2938152704349 14.99751939953178 0  300.2938152222841 14.997431333373 0  305.2938152032979 14.99734333524261 0  310.2938151998453 14.99725536031146 0  5.29395475096772 22.502469481362 0  0.2939547348213866 22.50255600109498 0  10.29395479846933 22.50238280789373 0  15.29395489626557 22.50229597327769 0  20.2939550583495 22.5022089701121 0  25.29395529641642 22.50212179259106 0  30.2939556215085 22.50203443707495 0  35.29395604499747 22.50194690216334 0  40.29395657913494 22.5018591885824 0  45.29395723733022 22.50177129908283 0  50.29395803425768 22.50168323846596 0  55.29395898584494 22.50159501380993 0  60.29396010915821 22.50150663494882 0  65.29396142216952 22.50141811525906 0  70.29396294336436 22.50132947282159 0  75.29396469112019 22.5012407320588 0  80.29396668275288 22.50115192598833 0  85.29396893308623 22.50106309929938 0  90.29397145234891 22.50097431254536 0  95.29397424313906 22.5008856478693 0  100.2939772961334 22.50079721684147 0  105.2939805841673 22.50070917119412 0  110.2939840543337 22.50062171745829 0  115.2939876179263 22.50053513665416 0  120.2939911385913 22.50044981000047 0  125.2939944202456 22.50036625046964 0  130.2939971986187 22.5002851364999 0  135.2939991440427 22.5002073352665 0  140.2939998878213 22.50013388277192 0  145.2939990861595 22.50006584767207 0  150.2939965203756 22.50000394281594 0  165.2939999167853 22.49985613501853 0  160.2939960334485 22.49992711696669 0  170.2940009360824 22.49977758521812 0  175.2939994919285 22.49969325876178 0  180.2939962919064 22.49960500421428 0  185.2939920523066 22.49951430602181 0  190.2939873387211 22.49942220890473 0  195.2939825440982 22.49932940331323 0  200.2939779179703 22.49923633062586 0  205.293973604969 22.49914326670553 0  210.2939696781808 22.49905038005476 0  215.293966164248 22.49895777019064 0  220.2939630609936 22.49886549241623 0  225.2939603492988 22.49877357370278 0  230.2939580008758 22.4986820228883 0  235.2939559832299 22.49859083726521 0  240.2939542627483 22.49850000686737 0  245.2939528065593 22.49840951727613 0  250.2939515836015 22.49831935145789 0  255.2939505651871 22.49822949095432 0  260.2939497252499 22.49813991662736 0  265.293949040398 22.49805060908708 0  270.2939484898415 22.49796154888423 0  275.2939480552425 22.49787271652133 0  280.2939477204949 22.49778409231941 0  285.2939474714322 22.49769565616963 0  290.2939472954334 22.49760738719392 0  295.2939471808772 22.49751926333203 0  300.2939471163606 22.49743126084215 
[...]
<PointData  Scalars="p"> 
<DataArray  type="Float64"  Name="p"  format="ascii">1.0000000000000001e-01  1.0000000000000003e-01  1.0000372089695155e-01  1.0000000000000003e-01  1.0000000000000003e-01  1.0000362823654124e-01  1.0000000000000003e-01  1.0000548151282417e-01  1.0000000000000003e-01  1.0000611350768061e-01  1.0000000000000003e-01  1.0000739201640847e-01  1.0000000000000003e-01  1.0000999414277537e-01  1.0000000000000003e-01  1.0001079367950365e-01  1.0000000000000003e-01  1.0001257380161505e-01  1.0000000000000003e-01  1.0001555408234165e-01  1.0000000000000003e-01  1.0001504711033457e-01  1.0000000000000003e-01  1.0002424197957960e-01  1.0000000000000003e-01  1.0002769769625321e-01  1.0000000000000003e-01  1.0003250034452907e-01  1.0000000000000003e-01  1.0003593905023855e-01  1.0000000000000003e-01  1.0004428790050832e-01  1.0000000000000003e-01  1.0004733274103163e-01  1.0000000000000003e-01  1.0005394561673665e-01  1.0000000000000003e-01  1.0006390359427454e-01  1.0000000000000003e-01  1.0006726208388889e-01  1.0000000000000003e-01  1.0007813687259552e-01  1.0000000000000003e-01  1.0008506351106083e-01  1.0000000000000003e-01  1.0009736366990239e-01  1.0000000000000003e-01  1.0009643640212341e-01  1.0000000000000003e-01  1.0012575714817229e-01  1.0000000000000003e-01  1.0010221253408998e-01  1.0000000000000003e-01  1.0016128177705273e-01  1.0000000000000003e-01  1.0009824604052764e-01  1.0000000000000003e-01  1.0020880117260220e-01  1.0000000000000003e-01  1.0008024942925638e-01  1.0000000000000001e-01  1.0028633556373465e-01  1.0000000000000001e-01  1.0000000000000003e-01  9.9800629288940054e-02  9.9552969114384049e-02  1.0000000000000003e-01  9.9957003906548603e-02  1.0000000000000003e-01  9.9845138522734495e-02  1.0000000000000003e-01  9.9908465961078385e-02  1.0000000000000003e-01  9.9891110873717243e-02  1.0000000000000003e-01  9.9907850760441744e-02  1.0000000000000003e-01  9.9901969407532432e-02  1.0000000000000003e-01  9.9916194180378143e-02  1.0000000000000003e-01  9.9914928078391696e-02  1.0000000000000003e-01  9.9920241938145360e-02  1.0000000000000003e-01  9.9924655664577769e-02  1.0000000000000003e-01  9.9927825506303192e-02  1.0000000000000003e-01  9.9930053338579558e-02  1.0000000000000003e-01  9.9934134339658601e-02  1.0000000000000003e-01  9.9936023311290617e-02  1.0000000000000003e-01  9.9938056230358743e-02  1.0000000000000003e-01  9.9940540160630642e-02  1.0000000000000003e-01  9.9942187042787942e-02  1.0000000000000003e-01  9.9943389971134708e-02  1.0000000000000003e-01  9.9945404968448531e-02  1.0000000000000003e-01  9.9946037550006001e-02  1.0000000000000003e-01  9.9947856602731436e-02  1.0000000000000003e-01  9.9947617117194534e-02  1.0000000000000003e-01  9.9950857328497678e-02  1.0000000000000003e-01  9.9947396097880808e-02  1.0000000000000003e-01  9.9955365920308084e-02  1.0000000000000003e-01  9.9943915969747943e-02  1.0000000000000003e-01  9.9964576148731055e-02  1.0000000000000003e-01  9.9929622912751051e-02  1.0000000000000001e-01  1.0000000000000003e-01  1.0000688343285213e-01  1.0000000000000003e-01  1.0000639318603520e-01  1.0000678523523786e-01  1.0000767577810878e-01  1.0001029970712570e-01  1.0001000826730491e-01  1.0001064221227592e-01  1.0001458364931104e-01  1.0001252106400624e-01  1.0001427872528694e-01  1.0001680218049867e-01  1.0002717103233141e-01  1.0002285070880289e-01  1.0003315366237167e-01  1.0002817624076456e-01  1.0003293417493758e-01  1.0004095498872624e-01  1.0003921120771021e-01  1.0004293662810652e-01  1.0005556708304575e-01  1.0004889531790741e-01  1.0006114274606698e-01  1.0006097840408723e-01  1.0007463821950920e-01  1.0005301492952511e-01  1.0010954100443686e-01  1.0001874400204042e-01  1.0017937608541841e-01  9.9933997297539295e-02  1.0028976818477588e-01  1.0020157457857158e-01  9.9339655810902622e-02  9.9783444870811380e-02  9.9971616648046643e-02  9.9939499748232907e-02  9.9951547289709980e-02  9.9929577871877451e-02  9.9959303189692705e-02  9.9945560403495518e-02  9.9950733831327479e-02  9.9957228722298924e-02  9.9957883023885807e-02  9.9957930960007060e-02  9.9964297736855265e-02  9.9964536559218165e-02  9.9965551009209647e-02  9.9969175989073580e-02  9.9969938544831188e-02  9.9970730876423150e-02  9.9973074498874118e-02  9.9974043225996179e-02  9.9974414308780790e-02  9.9976735335220876e-02  9.9976377931161653e-02  9.9978964333223411e-02  9.9976951170495515e-02  9.9983270040436584e-02  9.9973798581805148e-02  9.9992048432666153e-02  9.9965440269024944e-02  1.0000000000000003e-01  1.0001053030828838e-01  1.0000000000000003e-01  1.0000671786576390e-01  1.0000984740213559e-01  1.0001245568956729e-01  1.0001266459905450e-01  1.0001337138369702e-01  1.0001903043546846e-01  1.0001758485450939e-01  1.0001823652995923e-01  1.0002434094714542e-01  1.0002597399551844e-01  1.0002001220147536e-01  1.0004879071670454e-01  1.0003682873120377e-01  1.0004340280623596e-01  1.0005508696143896e-01  1.0004986778366790e-01  1.0005626726031613e-01  1.0007245505740701e-01  1.0006733271188510e-01  1.0007341188506948e-01  1.0009648139567708e-01  1.0007971917409572e-01  1.0010699931301122e-01  1.0009351849728275e-01  1.0013346169432623e-01  1.0006604038110961e-01  1.0021612394151107e-01  9.9944217424937185e-02  1.0045275041234428e-01  1.0011886467957143e-01  9.9426072877293700e-02  9.9684119746729832e-02  9.9938877485935010e-02  9.9916196811940999e-02  9.9865735367421576e-02  9.9942707946975906e-02  9.9899453301232843e-02  9.9912175449439186e-02  9.9924930134354675e-02  9.9924084366845120e-02  9.9922425450361452e-02  9.9935439740701654e-02  9.9934214179218273e-02  9.9935818883218550e-02  9.9943043798289388e-02  9.9943917778889613e-02  9.9944750575916688e-02  9.9949689007719236e-02  9.9950480112758075e-02  9.9951672232957950e-02  9.9954519620087875e-02  9.9956124226311574e-02  9.9956142940264850e-02  9.9960061909141945e-02  9.9958142867348124e-02  9.9964004254284367e-02  9.9957196162129253e-02  9.9973214083106166e-02  9.9945291768960026e-02  1.0000000000000003e-01  1.0001284288636575e-01  1.0000000000000003e-01  1.0000804055239348e-01  1.0001412354304486e-01  1.0001322567707661e-01  1.0001409753655964e-01  1.0002012932083570e-01  1.0001861843434202e-01  1.0001929188327735e-01  1.0002676629962513e-01  1.0002378943007174e-01  1.0002382727501945e-01  1.0004009978943766e-01  1.0002318315270570e-01  1.0004871115590055e-01  1.0005275577727700e-01  1.0004877345984940e-01  1.0004967296874408e-01  1.0006920861589397e-01  1.0005720496869447e-01  1.0006749930451110e-01  1.0008331565563439e-01  1.0007863269708428e-01  1.0007712903132983e-01  1.0011488622409383e-01  1.0006839280537422e-01  1.0014032103320504e-01  1.0004425152126636e-01  1.0022005125902106e-01  9.9907155997394331e-02  1.0047838493602983e-01  1.0010972100259505e-01  9.9281141429747352e-02  9.9798714108936065e-02  9.9973638348003033e-02  9.9771910840563152e-02  1.0000398850885280e-01  9.9887331107480409e-02  9.9921650540039167e-02  9.9928948254832825e-02  9.9930464310718323e-02  9.9921509096163624e-02  9.9942757948095179e-02  9.9937311583726998e-02  9.9938729028089271e-02  9.9948384167602003e-02  9.9948911988975389e-02  9.9949300070113795e-02  9.9956111487211646e-02  9.9956715400831578e-02  9.9957461835363387e-02  9.9961956845130831e-02  9.9962572322143881e-02  9.9964205533199152e-02  9.9966043209813574e-02  9.9969056593746164e-02  9.9966881740446989e-02  9.9974695957240289e-02  9.9965877495889144e-02  9.9983531923650684e-02  9.9958082966492681e-02  1.0000000000000003e-01  1.0001521103497917e-01  1.0000000000000003e-01  1.0001071945465281e-01  1.0001482620532397e-01  1.0001404109314607e-01  1.0002101067936139e-01  1.0001929898445698e-01  1.0002069502511649e-01  1.0002902426500858e-01  1.0002571479516943e-01  1.0002579335998615e-01  1.0004001856223617e-01  1.0003163836246616e-01  1.0003946755299359e-01  1.0004024024319280e-01  1.0006008379439060e-01  1.0005221792186642e-01  1.0007544683565725e-01  1.0006014480560124e-01  1.0006761852000702e-01  1.0009163928902690e-01  1.0007462487977623e-01  1.0009005140725616e-01  1.0010455066796055e-01  1.0010650045894792e-01  1.0008607875653298e-01  1.0016248536697443e-01  1.0004233932742849e-01  1.0024908195295930e-01  9.9893831460052554e-02  1.0055285926618122e-01  1.0023593539340724e-01  9.9192640167136081e-02  9.9729233879254697e-02  9.9898629651352835e-02  9.9883746750509581e-02  9.9862854353782921e-02  9.9905130731203537e-02  9.9911479728315322e-02  9.9921656421486205e-02  9.9893609192590230e-02  9.9932513045867963e-02  9.9919249416632133e-02  9.9920997529088965e-02  9.9934892154937630e-02  9.9934458454282046e-02  9.9933600201830869e-02  9.9944430687454497e-02  9.9944494377457074e-02  9.9945203802759938e-02  9.9951503575681319e-02  9.9952610541916218e-02  9.9953114899622317e-02  9.9957971259707776e-02  9.9958184751983661e-02  9.9960997449287561e-02  9.9961155825936746e-02  9.9967187015921263e-02  9.9960070969279280e-02  9.9977299063403052e-02  9.9951076045351875e-02  1.0000000000000003e-01  1.0001800263344228e-01  1.0000000000000003e-01  1.0001097616813574e-01  1.0001601379012674e-01  1.0001935293199600e-01  1.0001995849664271e-01  1.0002048146267256e-01  1.0002898012232167e-01  1.0002684141332861e-01  1.0002662472622545e-01  1.0003872197766812e-01  1.0003392012321734e-01  1.0003660875699062e-01  1.0004925379875947e-01  1.0004690792835984e-01  1.0003053805702895e-01  1.0008698643517958e-01  1.0005785686901505e-01  1.0006863043184021e-01  1.0008934800916872e-01  1.0007392871882441e-01  1.0007854374917177e-01  1.0011490391433979e-01  1.0008187331535785e-01  1.0011322399162918e-01  1.0010565872795801e-01  1.0014650144996309e-01  1.0004277182147260e-01  1.0027376329467441e-01  9.9855410848087356e-02  1.0061169163771723e-01  1.0020970560403658e-01  9.9232288332149615e-02  9.9666399658120672e-02  1.0000915397394797e-01  9.9843222282446686e-02  9.9873638970670586e-02  9.9863394657981414e-02  9.9953360969187263e-02  9.9866703402995499e-02  9.9945469747146340e-02  9.9910098550552842e-02  9.9915720810714426e-02  9.9932794047238552e-02  9.9932147193927262e-02  9.9927903373538449e-02  9.9943525354147897e-02  9.9941939348738115e-02  9.9942255102906427e-02  9.9951494264220467e-02  9.9951934070759918e-02  9.9952399988967003e-02  9.9958180215096198e-02  9.9959629842123768e-02  9.9959619692333176e-02  9.9965338395701001e-02  9.9963584912473230e-02  9.9970116839077791e-02  9.9963885800048793e-02  9.9980433823937023e-02  9.9956004821561778e-02  1.0000000000000003e-01  1.0001951959375502e-01  1.0000000000000003e-01  1.0001146844591512e-01  1.0002077667588939e-01  1.0001858337647961e-01  1.0002069317915012e-01  1.0002800762465022e-01  1.0002713263542552e-01  1.0002692099791745e-01  1.0003889247233778e-01  1.0003386337909173e-01  1.0003571400219036e-01  1.0005172121937296e-01  1.0004507814452795e-01  1.0004123299587447e-01  1.0007089538803246e-01  1.0003562365756663e-01  1.0007933983227529e-01  1.0009060932502706e-01  1.0007538424850232e-01  1.0007968414773488e-01  1.0011006541269425e-01  1.0009001747281027e-01  1.0009176821721022e-01  1.0014342936718486e-01  1.0008307920566517e-01  1.0015723980400298e-01  1.0006815132573123e-01  1.0026234106717280e-01  9.9854253405617155e-02  1.0066577462848365e-01  1.0018478670558084e-01  9.9165858570111010e-02  9.9734935119168297e-02  9.9970617955063248e-02  9.9799553629442095e-02  9.9925417881525785e-02  9.9883214946827961e-02  9.9825193616158603e-02  9.9957037759616243e-02  9.9893254681072408e-02  9.9909443906006132e-02  9.9920890940943127e-02  9.9925190756475185e-02  9.9914522838567194e-02  9.9937045218612547e-02  9.9933156074220084e-02  9.9932507327541581e-02  9.9944154656163575e-02  9.9945029212286110e-02  9.9944737028885358e-02  9.9953024413016386e-02  9.9953468442662965e-02  9.9954780252428807e-02  9.9958973399009929e-02  9.9961818948202816e-02  9.9960445276782953e-02  9.9968476686415272e-02  9.9961665325647514e-02  9.9978032949765247e-02  9.9954193082275558e-02  1.0000000000000003e-01  1.0002092876357360e-01  1.0000000000000003e-01  1.0001398016969147e-01  1.0002049923684704e-01  1.0001886110791587e-01  1.0002706740443502e-01  1.0002572997861704e-01  1.0002664926945094e-01  1.0003754822878545e-01  1.0003354593399946e-01  1.0003401856280592e-01  1.0005031737068334e-01  1.0004392543025806e-01  1.0004368550145934e-01  1.0006648793198709e-01  1.0004742052724960e-01  1.0005964915249314e-01  1.0006102029380884e-01  1.0008844075992641e-01  1.0007475149540505e-01  1.0011578021673849e-01  1.0008037552877444e-01  1.0009771999670705e-01  1.0012410135341472e-01  1.0011189657270587e-01  1.0008896525468744e-01  1.0018986764680068e-01  1.0003750200758729e-01  1.0027565928007413e-01  9.9863801646279907e-02  1.0067681861863853e-01  1.0026383166907392e-01  9.9096799699365107e-02  9.9695896758284011e-02  9.9934963385235318e-02  9.9860333246791874e-02  9.9915970043653421e-02  9.9837401233939915e-02  9.9917894704150301e-02  9.9854113010909240e-02  9.9924422518409592e-02  9.9906845204400255e-02  9.9931257676553226e-02  9.9900618885022621e-02  9.9936762179043029e-02  9.9927614241023796e-02  9.9926757048600712e-02  9.9941271051178046e-02  9.9941208562039252e-02  9.9939365621779963e-02  9.9950808902814450e-02  9.9951342773718255e-02  9.9951309308117908e-02  9.9958669725884935e-02  9.9958899364384388e-02  9.9961359584606169e-02  9.9963115868031222e-02  9.9969217272483091e-02  9.9962588764817006e-02  9.9979654696050843e-02  9.9956368308731711e-02  1.0000000000000003e-01  1.0002293482671397e-01  1.0000000000000003e-01  1.0001366250628987e-01  1.0002077808113391e-01  1.0002362535846938e-01  1.0002546744123414e-01  1.0002505969238670e-01  1.0003538436413227e-01  1.0003300391758059e-01  1.0003294846197426e-01  1.0004663970868224e-01  1.0004293520832430e-01  1.0004264814516131e-01  1.0006339181760987e-01  1.0005135469400146e-01  1.0005348975205666e-01  1.0007389900221868e-01  1.0006610282914213e-01  1.0004102916802417e-01  1.0012739979553721e-01  1.0008092235365092e-01  1.0009215318545882e-01  1.0013331153610654e-01  1.0008898275548546e-01  1.0011728776975209e-01  1.0012996029672393e-01  1.0015127496223462e-01  1.0004456687330174e-01  1.0031164740325678e-01  9.9829321484399672e-02  1.0070230151839320e-01  1.0026124619705774e-01  9.9117869029002451e-02  9.9650200204194891e-02  9.9995079332437384e-02  9.9837918758897165e-02  9.9872087118362346e-02  9.9896710110932499e-02  9.9894572993912703e-02  9.9866023483381847e-02  9.9874626312738496e-02  9.9947121656153035e-02  9.9880974456915420e-02  9.9940781860126601e-02  9.9917850727094415e-02  9.9919752021897873e-02  9.9935717736433061e-02  9.9936912901504471e-02  9.9931855406710332e-02  9.9946521865654614e-02  9.9945839886740967e-02  9.9945936728433951e-02  9.9954811493647558e-02  9.9956268417184857e-02  9.9955744804930538e-02  9.9963161851794990e-02  9.9961816469948020e-02  9.9967563461164977e-02  9.9963319329431352e-02  9.9978750666441282e-02  9.9956183689044242e-02  1.0000000000000003e-01  1.0002373170033686e-01  1.0000000000000003e-01  1.0001362897487383e-01  1.0002471672825664e-01  1.0002228451636083e-01  1.0002497019881651e-01  1.0003243183127371e-01  1.0003187180580572e-01  1.0003166684262804e-01  1.0004420099662563e-01  1.0004034692728177e-01  1.0004035402984290e-01  1.0005990625592613e-01  1.0005137141217874e-01  1.0005077358593789e-01  1.0007464459127549e-01  1.0006182136954860e-01  1.0005370428578975e-01  1.0010083892346226e-01  1.0004275415036964e-01  1.0010698039679630e-01  1.0012452889710237e-01  1.0009998158915305e-01  1.0009400588192927e-01  1.0016275208906197e-01  1.0008248794619383e-01  1.0015731544004816e-01  1.0008830396511290e-01  1.0026969521639077e-01  9.9832962841219133e-02  1.0074559476884558e-01  1.0023994080237530e-01  9.9086850685279448e-02  9.9691455195136197e-02  9.9984525400848970e-02  9.9797421714117318e-02  9.9925710183097260e-02  9.9880033609910365e-02  9.9871304316154597e-02  9.9899163282875778e-02  9.9906976674233552e-02  9.9844214831683695e-02  9.9958847595925160e-02  9.9905440685452304e-02  9.9921391952879163e-02  9.9928138715412965e-02  9.9935632774891620e-02  9.9924902986918349e-02  9.9944640892536560e-02  9.9942641188991890e-02  9.9940783263301664e-02  9.9951817488107456e-02  9.9953129876760527e-02  9.9953288363219803e-02  9.9960052801499610e-02  9.9962613623060304e-02  9.9961111313092155e-02  9.9969860231049021e-02  9.9963844700945909e-02  9.9978941122876544e-02  9.9957882975753476e-02  1.0000000000000003e-01  1.0002438175376596e-01  1.0000000000000003e-01  1.0001543048239854e-01  1.0002383640922452e-01  1.0002155376322669e-01  1.0003033749098897e-01  1.0002933526888386e-01  1.0003035013732299e-01  1.0004079460880104e-01  1.0003830279619064e-01  1.0003746228067947e-01  1.0005490993262237e-01  1.0004883072700746e-01  1.0004854343076071e-01  1.0007106431163132e-01  1.0005895886788731e-01  1.0005638581392391e-01  1.0009038994550952e-01  1.0006014272308847e-01  1.0007472647731942e-01  1.0008307422254295e-01  1.0010969096962372e-01  1.0009738962668883e-01  1.0014783930477676e-01  1.0010829055522011e-01  1.0009177606995294e-01  1.0020639526268701e-01  1.0003725244548674e-01  1.0027043235230547e-01  9.9881993912741704e-02  1.0070148325308617e-01  1.0029138257525554e-01  9.9030023287188448e-02  9.9681036396908909e-02  9.9952114930814573e-02  9.9841016707922559e-02  9.9915411894203832e-02  9.9846289408894021e-02  9.9909672271893374e-02  9.9900085536745092e-02  9.9872686558247215e-02  9.9915936307865244e-02  9.9876914631716579e-02  9.9933908587525141e-02  9.9916665742099675e-02  9.9940313347102697e-02  9.9914331741559684e-02  9.9943645892771382e-02  9.9938190934477172e-02  9.9936408871407353e-02  9.9948939971668233e-02  9.9949635394067315e-02  9.9947478324718744e-02  9.9958346213020730e-02  9.9958550343107758e-02  9.9960314685923451e-02  9.9963863038206716e-02  9.9969408914111282e-02  9.9963340283450566e-02  9.9979687361821001e-02  9.9958503326582612e-02  1.0000000000000003e-01  1.0002575751630521e-01  1.0000000000000003e-01  1.0001492298579244e-01  1.0002346418293459e-01  1.0002540057769722e-01  1.0002832326700155e-01  1.0002777102712972e-01  1.0003779667973128e-01  1.0003631606881830e-01  1.0003556851495052e-01  1.0004938511064862e-01  1.0004635461908405e-01  1.0004534787330076e-01  1.0006557002607830e-01  1.0005749538794928e-01  1.0005412251829982e-01  1.0008386371087304e-01  1.0006431177359443e-01  1.0006558924685841e-01  1.0009563955868940e-01  1.0008177471249600e-01  1.0004307877747164e-01  1.0017084485397758e-01  1.0008769419962317e-01  1.0012196480145005e-01  1.0014747815974999e-01  1.0014184693521032e-01  1.0004323329527993e-01  1.0032520172816489e-01  9.9830158784069867e-02  1.0069552682285424e-01  1.0031055271812003e-01  9.9042107058859269e-02  9.9640867282608361e-02  9.9993172089612462e-02  9.9837058079226437e-02  9.9882454018792519e-02  9.9885124556733318e-02  9.9906590752251986e-02  9.9867180573308151e-02  9.9916469700889757e-02  9.9905201918899317e-02  9.9893384762195739e-02  9.9889111213807086e-02  9.9957836561927110e-02  9.9900793878944696e-02  9.9949065901331083e-02  9.9932210866270466e-02  9.9933382917561014e-02  9.9946061250920551e-02  9.9948331952068287e-02  9.9943791174339075e-02  9.9955406765102492e-02  9.9956183773606863e-02  9.9955701689125639e-02  9.9964652150517821e-02  9.9963850321520886e-02  9.9968460473413484e-02  9.9965994484686918e-02  9.9979883965574931e-02  9.9959631012452005e-02  1.0000000000000003e-01  1.0002592149896840e-01  1.0000000000000003e-01  1.0001437264830340e-01  1.0002624248347078e-01  1.0002359024079500e-01  1.0002690044089933e-01  1.0003340493808921e-01  1.0003393816940592e-01  1.0003351359979031e-01  1.0004520705740341e-01  1.0004236452731542e-01  1.0004205981296388e-01  1.0005974984622885e-01  1.0005418754904523e-01  1.0005087071743053e-01  1.0007670986703225e-01  1.0006407266591180e-01  1.0005973722622537e-01  1.0009461412553251e-01  1.0007346901281836e-01  1.0006112548787829e-01  1.0012660559475256e-01  1.0004680878728539e-01  1.0011953989991773e-01  1