<?xml version="1.0"?>
<VTKFile type="UnstructuredGrid"  version="0.1"  >
<UnstructuredGrid>
<Piece  NumberOfPoints="1933" NumberOfCells="3640">
<Points>
<DataArray  type="Float64"  NumberOfComponents="3"  format="ascii">0.4752830776934091 0.001689179707424717 0  5.475283083644117 0.001623529482729879 0  5.475381614066574 7.501623577456487 0  0.4753815819852867 7.501689180549893 0  10.47528307802886 0.001557820052882451 0  10.47538168175022 7.501557888501951 0  15.47528309236466 0.001491989260245751 0  15.47538180811713 7.501492066564763 0  20.47528316928705 0.001426007678563174 0  20.47538201778033 7.501426088795926 0  25.47528335370019 0.001359867154041221 0  25.47538233726006 7.501359950208105 0  30.47528368967849 0.001293573647523759 0  30.47538279452572 7.501293658359684 0  35.47528421996564 0.001227142749988894 0  35.47538341866951 7.501227229678598 0  40.47528498663814 0.001160597008335746 0  40.47538423988453 7.50116068718151 0  45.47528603227426 0.001093964521729716 0  45.47538528970944 7.501094059272462 0  50.4752874013387 0.001027278466139492 0  50.47538660146164 7.501027379376268 0  55.47528914166949 0.0009605773427418237 0  55.47538821078869 7.500960686249429 0  60.47529130604285 0.0008939058478507315 0  60.47539015628413 7.500894024890388 0  65.47529395383432 0.0008273163427301348 0  65.47539248012247 7.500827448040402 0  70.47529715281445 0.000760870973177363 0  70.47539522867183 7.500761018331858 0  75.47530098113357 0.0006946445622685889 0  75.47539845303106 7.500694811210296 0  80.47530552955003 0.0006287284873684473 0  80.47540220941636 7.500628918840173 0  85.47531090396227 0.0005632358700149645 0  85.47540655927773 7.500563455314444 0  90.47531722828209 0.0004983085772645008 0  90.47541156895686 7.500498563642266 0  95.47532464765585 0.0004341267914149739 0  95.47541730858705 7.50043442521209 0  100.475333331926 0.0003709223107291094 0  100.4754238497707 7.500371272754037 0  105.4753434789948 0.0003089973962724058 0  105.4754312613296 7.500309408304549 0  110.4753553172244 0.0002487520492339449 0  110.4754396021033 7.500249228364082 0  115.4753691048836 0.0001907243811679332 0  115.475448909432 7.500191259389255 0  120.475385122249 0.0001356517289458428 0  120.4754591817894 7.500136207956563 0  125.4754036468975 8.456521797759061e-05 0  125.4754703547041 7.500085031138101 0  130.4754248920112 3.893893857060207e-05 0  130.4754822723733 7.500039033009743 0  135.4754488647341 9.282811498968361e-07 0  135.4754946678887 7.49999999075871 0  140.4754750521461 -2.625226803958732e-05 0  140.4755071949331 7.499970305905273 0  145.4755017287447 -3.77795849333442e-05 0  145.4755196372021 7.49995317248624 0  150.4755243823044 -2.677565369114111e-05 0  150.4755326673851 7.499952879133937 0  160.4755282581476 1.336592344374091e-18 0  165.4754269984392 -0.0001235491031308989 0  165.4755096651035 7.499859956485369 0  160.4755418475679 7.499959943661432 0  170.4753653101951 -0.0002370685005997638 0  170.4754769534105 7.49975456183461 0  175.4753260036419 -0.0003432144559252635 0  175.4754489675404 7.499652057787033 0  180.4753000954097 -0.0004431431297419369 0  180.4754264216722 7.499554032312654 0  185.4752825657953 -0.0005378816349798009 0  185.4754087329498 7.4994603660042 0  190.475270483415 -0.0006283594972888443 0  190.475395035225 7.499370518022682 0  195.4752620699883 -0.0007153588245720708 0  195.4753845056487 7.499283900723968 0  200.4752562054996 -0.0007995092800189105 0  200.4753764545158 7.49919998913469 0  205.4752521575401 -0.000881308626059736 0  205.4753703320178 7.499118343863182 0  210.4752494294609 -0.0009611494161694046 0  210.4753657089123 7.499038605631437 0  215.475247673013 -0.001039343282463979 0  215.4753622523284 7.498960482156082 0  220.4752466366917 -0.001116140431223676 0  220.4753597039723 7.498883734721788 0  225.4752461342539 -0.001191744463737982 0  225.4753578625283 7.498808166713191 0  230.4752460249063 -0.001266323392574305 0  230.4753565701143 7.498733614474841 0  235.4752462004219 -0.001340017786083722 0  235.4753557020734 7.498659940230723 0  240.4752465764857 -0.001412946819690005 0  240.4753551593387 7.498587026646349 0  245.4752470867131 -0.001485212825012748 0  245.4753548627192 7.498514772640369 0  250.4752476783986 -0.001556904766939293 0  250.475354748609 7.498443090125138 0  255.4752483094402 -0.001628100956073388 0  255.4753547657539 7.498371901430367 0  260.4752489460769 -0.001698871215052395 0  260.4753548727962 7.498301137226628 0  265.4752495612343 -0.001769278653574942 0  265.475355036419 7.498230734814935 0  270.4752501333268 -0.001839381160112427 0  270.475355229951 7.498160636687492 0  275.4752506454661 -0.001909232680053604 0  275.4753554323234 7.498090789298137 0  280.4752510850312 -0.00197888431131409 0  280.475355627325 7.498021142014431 0  285.4752514436358 -0.002048385196306825 0  285.4753558030808 7.497951646265032 0  290.475251717531 -0.002117783100334721 0  290.4753559517097 7.497882254956701 0  295.4752519085434 -0.00218712439404754 0  295.475356069099 7.497812922329327 0  300.4752520256047 -0.002256452797697546 0  300.4753561547429 7.497743604561398 0  305.4752520867988 -0.002325805448619746 0  305.4753562116743 7.497674261629341 0  310.4752521213438 -0.002395202967890126 0  310.4753562468666 7.49760486106317 0  5.475479908984322 15.00162370669426 0  0.4754798689128983 15.00168918889959 0  10.47547999120188 15.00155807109259 0  15.47548013862256 15.00149226924419 0  20.47548036914948 15.00142629699279 0  25.47548069911199 15.0013601591627 0  30.47548114488475 15.00129386836005 0  35.47548172351872 15.00122744357895 0  40.47548245294531 15.00116090915154 0  45.47548335202068 15.00109429420487 0  50.47548444051775 15.0010276326446 0  55.47548573909087 15.00096096365066 0  60.47548726919709 15.00089433268111 0  65.47548905293563 15.00082779301234 0  70.47549111274709 15.00076140788529 0  75.47549347090037 15.0006952533789 0  80.47549614866652 15.00062942219483 0  85.47549916505879 15.00056402861576 0  90.47550253498304 15.00049921499908 0  95.47550626662272 15.00043516028889 0  100.4755103578806 15.00037209116744 0  105.4755147917796 15.00031029659474 0  110.4755195309496 15.00025014652082 0  115.475524511907 15.00019211530364 0  120.475529641051 15.0001368093649 0  125.4755347966999 15.00008499583982 0  130.4755398458515 15.0000376221484 0  135.4755446914054 14.99999580037835 0  140.4755493747714 14.99996069252571 0  145.4755542622657 14.99993313659735 0  150.4755603021708 14.99991256532644 0  165.4755648308362 14.99981565307554 0  160.4755713796713 14.99989576296079 0  170.4755534175779 14.9997266241821 0  175.4755399487191 14.99963460496827 0  180.4755265598266 14.99954298161884 0  185.475514347336 14.99945321415123 0  190.4755037338053 14.99936577028689 0  195.4754947786049 14.99928066447037 0  200.4754873680386 14.99919772565729 0  205.4754813198211 14.99911672273323 0  210.4754764365192 14.99903742004692 0  215.4754725306903 14.99895959968893 0  220.4754694350683 14.99888306846008 0  225.4754670052399 14.99880765816391 0  230.4754651188073 14.9987332232876 0  235.4754636731276 14.99865963791659 0  240.4754625826413 14.99858679266797 0  245.4754617762809 14.99851459193351 0  250.4754611951527 14.99844295150304 0  255.4754607905508 14.99837179654715 0  260.4754605222938 14.99830105990787 0  265.4754603573513 14.99823068064125 0  270.4754602687204 14.99816060276316 0  275.4754602344993 14.9980907741623 0  280.475460237117 14.99802114565874 0  285.4754602626848 14.99795167020239 0  290.475460300415 14.99788230221633 0  295.4754603421163 14.99781299707901 0  300.4754603817804 14.99774371065673 0  305.475460415413 14.99767439849712 0  310.4754604414137 14.99760501337178 0  5.475577871241637 22.50162400813392 0  0.4755778296012059 22.50168934518988 0  10.47557794594784 22.50155844248835 0  15.47557807363305 22.50149266931912 0  20.47557826746137 22.50142670609173 0  25.4755785370458 22.50136057072237 0  30.47557889038083 22.50129428344274 0  35.47557933485353 22.50122786756397 0  40.47557987766134 22.50116134982376 0  45.47558052586972 22.50109476070155 0  50.47558128625112 22.50102813490636 0  55.47558216497197 22.50096151214815 0  60.47558316715021 22.5008949382654 0  65.47558429627435 22.50082846677486 0  70.47558555345459 22.50076216092024 0  75.47558693646866 22.5006960963195 0  80.47558843855577 22.50063036433717 0  85.4755900469263 22.50056507633697 0  90.47559174097503 22.50050036899104 0  95.47559349025209 22.50043641081902 0  100.4755952523652 22.50037341006825 0  105.4755969712101 22.50031162385916 0  110.4755985763104 22.50025136807595 0  115.4755999846654 22.50019302654331 0  120.4756011074083 22.50013705616038 0  125.4756018647468 22.50008398111018 0  130.4756022137078 22.50003436279094 0  135.4756021928996 22.49998872092286 0  140.475601983459 22.49994736359513 0  145.475601967553 22.49991006246231 0  150.4756027190683 22.49987551588358 0  165.4756181025353 22.49976703074207 0  160.4756121429248 22.49983583120725 0  170.4756193391897 22.49968987942758 0  175.4756170290825 22.4996079262085 0  180.4756125330191 22.49952390659507 0  185.475606986103 22.49943959146105 0  190.4756011719557 22.49935597560501 0  195.4755955677352 22.49927354431435 0  200.4755904301489 22.49919248216498 0  205.4755858724528 22.49911280887112 0  210.4755819210025 22.49903446034056 0  215.4755785531076 22.49895733455794 0  220.4755757209644 22.49888131646091 0  225.4755733661354 22.49880629077811 0  230.4755714279298 22.49873214817253 0  235.4755698479943 22.49865878776238 0  240.4755685726147 22.49858611774476 0  245.4755675536763 22.49851405507061 0  250.4755667488625 22.49844252468228 0  255.4755661214495 22.49837145858184 0  260.4755656398916 22.49830079486625 0  265.4755652773242 22.49823047679333 0  270.4755650110409 22.49816045190712 0  275.4755648219724 22.49809067123084 0  280.4755646941801 22.49802108852651 0  285.4755646143604 22.49795165960756 0  290.4755645713611 22.49788234166767 0  295.4755645557221 22.49781309253289 0  300.4755645592454 22
[...]
<PointData  Scalars="p"> 
<DataArray  type="Float64"  Name="p"  format="ascii">1.0000000000000001e-01  1.0000000000000003e-01  1.0000212145092771e-01  1.0000000000000003e-01  1.0000000000000003e-01  1.0000133934115042e-01  1.0000000000000003e-01  1.0000202693808805e-01  1.0000000000000003e-01  1.0000187662269795e-01  1.0000000000000003e-01  1.0000227961619369e-01  1.0000000000000003e-01  1.0000375329202950e-01  1.0000000000000003e-01  1.0000382327732364e-01  1.0000000000000003e-01  1.0000482796022765e-01  1.0000000000000003e-01  1.0000656364663661e-01  1.0000000000000003e-01  1.0000528814876307e-01  1.0000000000000003e-01  1.0001250805520046e-01  1.0000000000000003e-01  1.0001387410965773e-01  1.0000000000000003e-01  1.0001712496546829e-01  1.0000000000000003e-01  1.0001904633053230e-01  1.0000000000000003e-01  1.0002517831519325e-01  1.0000000000000003e-01  1.0002712255086371e-01  1.0000000000000003e-01  1.0003239570123040e-01  1.0000000000000003e-01  1.0004018033360132e-01  1.0000000000000003e-01  1.0004314897935539e-01  1.0000000000000003e-01  1.0005244803049976e-01  1.0000000000000003e-01  1.0005860027992329e-01  1.0000000000000003e-01  1.0006944213839422e-01  1.0000000000000003e-01  1.0007007285586716e-01  1.0000000000000003e-01  1.0009484186695636e-01  1.0000000000000003e-01  1.0007750911119179e-01  1.0000000000000003e-01  1.0012681600189452e-01  1.0000000000000003e-01  1.0007739207423950e-01  1.0000000000000003e-01  1.0016845824674185e-01  1.0000000000000003e-01  1.0006550894899448e-01  1.0000000000000001e-01  1.0023417273380492e-01  1.0000000000000001e-01  1.0000000000000003e-01  9.9863376239996457e-02  9.9659073787709343e-02  1.0000000000000003e-01  9.9984607169067846e-02  1.0000000000000003e-01  9.9896336831807556e-02  1.0000000000000003e-01  9.9948964004955246e-02  1.0000000000000003e-01  9.9935861497817163e-02  1.0000000000000003e-01  9.9950095980780876e-02  1.0000000000000003e-01  9.9946675556077266e-02  1.0000000000000003e-01  9.9958832258197405e-02  1.0000000000000003e-01  9.9958423636683849e-02  1.0000000000000003e-01  9.9963362329368560e-02  1.0000000000000003e-01  9.9967333173728037e-02  1.0000000000000003e-01  9.9970136269167245e-02  1.0000000000000003e-01  9.9972199253396204e-02  1.0000000000000003e-01  9.9975592295089524e-02  1.0000000000000003e-01  9.9977138587961201e-02  1.0000000000000003e-01  9.9978779521065167e-02  1.0000000000000003e-01  9.9980753453203952e-02  1.0000000000000003e-01  9.9981919077043610e-02  1.0000000000000003e-01  9.9982877631630593e-02  1.0000000000000003e-01  9.9984197947045605e-02  1.0000000000000003e-01  9.9984811879566510e-02  1.0000000000000003e-01  9.9985657247934873e-02  1.0000000000000003e-01  9.9986072017782313e-02  1.0000000000000003e-01  9.9987128047020424e-02  1.0000000000000003e-01  9.9986565170507885e-02  1.0000000000000003e-01  9.9988718266261392e-02  1.0000000000000003e-01  9.9986210088416114e-02  1.0000000000000003e-01  9.9991280565463581e-02  1.0000000000000003e-01  9.9983205082132834e-02  1.0000000000000001e-01  1.0000000000000003e-01  1.0000471643147302e-01  1.0000000000000003e-01  1.0000398340785520e-01  1.0000416011454200e-01  1.0000471479404258e-01  1.0000664580072156e-01  1.0000634490749495e-01  1.0000693626496078e-01  1.0000996464971620e-01  1.0000817778168829e-01  1.0000968151672186e-01  1.0001070710550312e-01  1.0001958529713120e-01  1.0001488247921743e-01  1.0002301433908456e-01  1.0001870392138497e-01  1.0002310951127727e-01  1.0002937458459370e-01  1.0002846258816939e-01  1.0003228529628165e-01  1.0004266603420260e-01  1.0003817686313798e-01  1.0004916363086994e-01  1.0004968810206039e-01  1.0006155122331915e-01  1.0004569062102793e-01  1.0009120223425952e-01  1.0001935643996271e-01  1.0014850237154278e-01  9.9950996213674648e-02  1.0023636846131434e-01  1.0016453817839988e-01  9.9517460843639494e-02  9.9825471549530476e-02  9.9981955263023933e-02  9.9953798751435050e-02  9.9963165193046086e-02  9.9947811065043579e-02  9.9972194581125731e-02  9.9961661109129699e-02  9.9967079299598957e-02  9.9972875762816382e-02  9.9973707649209431e-02  9.9974371844039664e-02  9.9979781212096969e-02  9.9980073760393695e-02  9.9981166485221082e-02  9.9984190447942836e-02  9.9984872341792416e-02  9.9985610206381692e-02  9.9987639370399506e-02  9.9988335291070207e-02  9.9988943399444627e-02  9.9990490148155128e-02  9.9990881873930265e-02  9.9991997505686533e-02  9.9992223087463389e-02  9.9994195760986435e-02  9.9992427234419631e-02  9.9997254158869911e-02  9.9991418697781817e-02  1.0000000000000003e-01  1.0000755542220435e-01  1.0000000000000003e-01  1.0000445901743388e-01  1.0000639140830619e-01  1.0000822526768040e-01  1.0000810913845455e-01  1.0000877548596253e-01  1.0001305091028058e-01  1.0001186781084306e-01  1.0001265557271442e-01  1.0001696452805950e-01  1.0001842517093078e-01  1.0001245355538985e-01  1.0003611123680041e-01  1.0002460297049902e-01  1.0003045345154422e-01  1.0003896032958223e-01  1.0003527412358901e-01  1.0004133064943271e-01  1.0005439571094321e-01  1.0005116194917500e-01  1.0005778610898147e-01  1.0007667755175828e-01  1.0006490584656019e-01  1.0008858387579511e-01  1.0007895228186081e-01  1.0011179130079086e-01  1.0006033471955875e-01  1.0017909067570413e-01  9.9963255265265324e-02  1.0036776604920353e-01  1.0007560624298710e-01  9.9613589464290719e-02  9.9771132239900459e-02  9.9959762651828279e-02  9.9938301613997624e-02  9.9903161153141018e-02  9.9964347405610707e-02  9.9930031440009295e-02  9.9942828709554260e-02  9.9953999760825668e-02  9.9953834738111702e-02  9.9953887272247979e-02  9.9964911137629606e-02  9.9964187678492397e-02  9.9966108766158746e-02  9.9972172261226497e-02  9.9972921762507008e-02  9.9973899148850284e-02  9.9977962248407187e-02  9.9978698774060820e-02  9.9979727479825017e-02  9.9982285970392729e-02  9.9983314839018178e-02  9.9984037188961455e-02  9.9986263849148715e-02  9.9986476179138140e-02  9.9988599984105753e-02  9.9987861135471645e-02  9.9992344236542033e-02  9.9986400475435375e-02  1.0000000000000003e-01  1.0000941421276292e-01  1.0000000000000003e-01  1.0000573257088982e-01  1.0001021516424217e-01  1.0000931408987757e-01  1.0001018811996806e-01  1.0001487700553247e-01  1.0001377823960259e-01  1.0001487944627088e-01  1.0002071396433251e-01  1.0001850023002268e-01  1.0001884378907946e-01  1.0003176737526295e-01  1.0001639394921474e-01  1.0003914451127402e-01  1.0003968074947657e-01  1.0003703192366199e-01  1.0003836587125897e-01  1.0005413696230193e-01  1.0004534942298540e-01  1.0005542056892953e-01  1.0006849599819041e-01  1.0006610859534412e-01  1.0006741867969943e-01  1.0009791343252038e-01  1.0006304266796884e-01  1.0012152242964817e-01  1.0004657003157609e-01  1.0018486280000806e-01  9.9938960839720731e-02  1.0038672576044404e-01  1.0005689047654676e-01  9.9505663037404324e-02  9.9861814231190213e-02  9.9975071067602256e-02  9.9821573054459253e-02  1.0000504796607326e-01  9.9909780057661601e-02  9.9940840584322621e-02  9.9947630470506629e-02  9.9949339910348572e-02  9.9944255933471046e-02  9.9962216673751339e-02  9.9958254743259423e-02  9.9960429068060075e-02  9.9968673692720583e-02  9.9969264592241217e-02  9.9970047741391885e-02  9.9975779072477830e-02  9.9976298605362168e-02  9.9977281246740712e-02  9.9980960086552467e-02  9.9981796669696255e-02  9.9983017557101511e-02  9.9985285799831833e-02  9.9986836312568092e-02  9.9987221448020469e-02  9.9990401866915393e-02  9.9989157384536356e-02  9.9994289642482498e-02  9.9989158700252295e-02  1.0000000000000003e-01  1.0001131223767573e-01  1.0000000000000003e-01  1.0000807031891469e-01  1.0001098357207142e-01  1.0001056115227301e-01  1.0001573682016079e-01  1.0001450281556280e-01  1.0001601721626324e-01  1.0002269593085819e-01  1.0002030339810197e-01  1.0002098573905434e-01  1.0003234197735641e-01  1.0002528576601712e-01  1.0003271314488421e-01  1.0003058912909056e-01  1.0004888441809855e-01  1.0004091771542631e-01  1.0005937787460985e-01  1.0004725525223707e-01  1.0005533358088915e-01  1.0007447201861042e-01  1.0006252074850555e-01  1.0007716374044880e-01  1.0008972445572081e-01  1.0009258995991767e-01  1.0008008671209398e-01  1.0013986858100246e-01  1.0004823403782899e-01  1.0020974352762060e-01  9.9932602749325625e-02  1.0044414036424924e-01  1.0014893503278881e-01  9.9451484328007184e-02  9.9804020626215115e-02  9.9914823434566147e-02  9.9920150947637495e-02  9.9889135855725841e-02  9.9928026055411484e-02  9.9933879291886879e-02  9.9941202079102828e-02  9.9921970014181460e-02  9.9954452783178535e-02  9.9944260015052494e-02  9.9947406065745759e-02  9.9959400769402809e-02  9.9959266267133709e-02  9.9959459447415189e-02  9.9968564422134212e-02  9.9968700983478334e-02  9.9969675545078199e-02  9.9975033489595549e-02  9.9975942183595484e-02  9.9976862374075381e-02  9.9980695703177580e-02  9.9981608650077214e-02  9.9983292315054539e-02  9.9985185788005082e-02  9.9987670842788492e-02  9.9987002558131310e-02  9.9992489073297747e-02  9.9987200779090610e-02  1.0000000000000003e-01  1.0001353562056083e-01  1.0000000000000003e-01  1.0000840569026292e-01  1.0001234538508667e-01  1.0001502763197317e-01  1.0001546603891878e-01  1.0001621921544830e-01  1.0002298625207524e-01  1.0002150282966027e-01  1.0002219237993670e-01  1.0003182966371384e-01  1.0002823848717587e-01  1.0003149681256572e-01  1.0004067210821675e-01  1.0003966031766333e-01  1.0002510956677638e-01  1.0007249269640039e-01  1.0004649468706200e-01  1.0005719849716636e-01  1.0007281466771449e-01  1.0006199334543110e-01  1.0006832376912686e-01  1.0009751705051999e-01  1.0007345782838178e-01  1.0010096589932585e-01  1.0009679917527188e-01  1.0012882049233343e-01  1.0005287946331901e-01  1.0022893198768111e-01  9.9907529178719631e-02  1.0048811259875955e-01  1.0011456653683308e-01  9.9492231373825415e-02  9.9755604515596466e-02  9.9997834572057437e-02  9.9878235297973392e-02  9.9901024511749495e-02  9.9893291542692608e-02  9.9960892924420883e-02  9.9895255597272914e-02  9.9959613949235124e-02  9.9931295873471188e-02  9.9938404429310790e-02  9.9953266735269108e-02  9.9953063160931138e-02  9.9951052132735779e-02  9.9964210762685732e-02  9.9963078542105135e-02  9.9964068520590546e-02  9.9971765612461391e-02  9.9972260788353626e-02  9.9972956371131710e-02  9.9978073135267978e-02  9.9979117387351324e-02  9.9980073985533296e-02  9.9984002743762221e-02  9.9984599842900493e-02  9.9987366649595635e-02  9.9987592038483911e-02  9.9992783537449587e-02  9.9988040546604651e-02  1.0000000000000003e-01  1.0001473455379729e-01  1.0000000000000003e-01  1.0000904088104322e-01  1.0001622310976928e-01  1.0001470736306546e-01  1.0001665368222135e-01  1.0002251689862213e-01  1.0002176616887140e-01  1.0002246345299197e-01  1.0003195606568815e-01  1.0002821768933921e-01  1.0003096237349295e-01  1.0004336517390432e-01  1.0003850825054923e-01  1.0003618731673980e-01  1.0006022851758682e-01  1.0002935560739103e-01  1.0006934440943449e-01  1.0007408322291571e-01  1.0006319347223430e-01  1.0006828291932832e-01  1.0009292787202342e-01  1.0007830704485143e-01  1.0008365124948432e-01  1.0012434847228367e-01  1.0008013173087120e-01  1.0013941186650026e-01  1.0007409383293459e-01  1.0021942284426737e-01  9.9913100151862069e-02  1.0052449398995071e-01  1.0009105289978049e-01  9.9443310791167819e-02  9.9812170106146431e-02  9.9959120154032174e-02  9.9844890412217530e-02  9.9940381633072173e-02  9.9910743480389044e-02  9.9860829711607466e-02  9.9968063605164414e-02  9.9915758828313175e-02  9.9931317308410844e-02  9.9942152503116222e-02  9.9945924557102148e-02  9.9939275861498159e-02  9.9958364977770317e-02  9.9955518926425693e-02  9.9955968570883610e-02  9.9965900868713750e-02  9.9966702995480092e-02  9.9967053412992196e-02  9.9973936580144834e-02  9.9974603021257880e-02  9.9975818087439244e-02  9.9980026944294004e-02  9.9981767658768456e-02  9.9982606088885956e-02  9.9986826422799907e-02  9.9986367377682683e-02  9.9991758391274402e-02  9.9987387101292666e-02  1.0000000000000003e-01  1.0001591838021247e-01  1.0000000000000003e-01  1.0001108484615907e-01  1.0001611075082240e-01  1.0001537303715012e-01  1.0002189142362533e-01  1.0002098986938875e-01  1.0002237110691224e-01  1.0003096344402207e-01  1.0002803559705509e-01  1.0002941300848078e-01  1.0004240763893056e-01  1.0003768235912190e-01  1.0003871735574127e-01  1.0005687664432728e-01  1.0004144206560783e-01  1.0005400702837226e-01  1.0005096727856960e-01  1.0007746910235871e-01  1.0006467803908255e-01  1.0009723318545706e-01  1.0006964671570820e-01  1.0008689889949533e-01  1.0010833670662876e-01  1.0009994562452323e-01  1.0008737174879019e-01  1.0016426750342977e-01  1.0005153012930734e-01  1.0023068360037861e-01  9.9924252898615687e-02  1.0052684008236912e-01  1.0014963193793197e-01  9.9394158850179395e-02  9.9777470205074228e-02  9.9928868021039702e-02  9.9891294474529407e-02  9.9926113895488416e-02  9.9871797763393416e-02  9.9938569028975965e-02  9.9882993756289812e-02  9.9940164182246258e-02  9.9927880199377456e-02  9.9946949275444147e-02  9.9924728870621732e-02  9.9955216021165014e-02  9.9948132950913704e-02  9.9948918317332783e-02  9.9961423509043815e-02  9.9961501599847027e-02  9.9960822209645084e-02  9.9970558517393684e-02  9.9970969662201342e-02  9.9971609053114932e-02  9.9977584381100118e-02  9.9978530623760706e-02  9.9980122900375210e-02  9.9983453950675913e-02  9.9986188732721026e-02  9.9985846056991859e-02  9.9992069135247094e-02  9.9987591621456651e-02  1.0000000000000003e-01  1.0001750516528113e-01  1.0000000000000003e-01  1.0001087581656629e-01  1.0001661356788755e-01  1.0001921901602903e-01  1.0002075117570879e-01  1.0002115571542737e-01  1.0002935545247799e-01  1.0002770365730555e-01  1.0002846438270563e-01  1.0003931294284595e-01  1.0003662793385312e-01  1.0003773425476307e-01  1.0005414650536261e-01  1.0004480856079893e-01  1.0004874956832743e-01  1.0006385628568185e-01  1.0005941720511523e-01  1.0003776344976846e-01  1.0011043722470420e-01  1.0006962916190616e-01  1.0008222164981498e-01  1.0011333554500969e-01  1.0008081072556688e-01  1.0010625076229444e-01  1.0011845643877945e-01  1.0013351866975405e-01  1.0006009199246087e-01  1.0025642202357425e-01  9.9900825882773367e-02  1.0054189127417434e-01  1.0014194020942024e-01  9.9414611615937343e-02  9.9742398522317297e-02  9.9975327495928232e-02  9.9869585152558893e-02  9.9889779909463572e-02  9.9918522022739542e-02  9.9914595986385524e-02  9.9897670136683478e-02  9.9901824400754694e-02  9.9958152255664540e-02  9.9907002155221580e-02  9.9956357904237098e-02  9.9938120200341721e-02  9.9941567410507581e-02  9.9955569167410954e-02  9.9956744535977804e-02  9.9953878664705786e-02  9.9966249428963871e-02  9.9965921552661083e-02  9.9966611600805652e-02  9.9974275544670754e-02  9.9975345580607999e-02  9.9975885820346846e-02  9.9981466882048342e-02  9.9982153905721349e-02  9.9984859853205127e-02  9.9986213687877537e-02  9.9991471743596946e-02  9.9987224454954726e-02  1.0000000000000003e-01  1.0001814710240928e-01  1.0000000000000003e-01  1.0001099998822201e-01  1.0001971706366412e-01  1.0001819512215369e-01  1.0002081706489528e-01  1.0002698129058900e-01  1.0002671681550190e-01  1.0002745207731857e-01  1.0003743418521580e-01  1.0003436369439873e-01  1.0003565654552245e-01  1.0005097744022304e-01  1.0004442993104413e-01  1.0004592973754504e-01  1.0006453417204680e-01  1.0005529160917193e-01  1.0005041405712141e-01  1.0008871199199673e-01  1.0003874217686327e-01  1.0009797049279966e-01  1.0010603502991200e-01  1.0008812839715991e-01  1.0008666444537258e-01  1.0014042159185167e-01  1.0008054198882969e-01  1.0014042626654637e-01  1.0009304123531614e-01  1.0022205359192754e-01  9.9908371409468080e-02  1.0056852811074060e-01  1.0012277418600210e-01  9.9388605851948850e-02  9.9775613609963593e-02  9.9962852030685709e-02  9.9836783159198042e-02  9.9931542348707270e-02  9.9900290950619364e-02  9.9894751378632254e-02  9.9921896676579858e-02  9.9929182620935073e-02  9.9877085288121725e-02  9.9969085234668631e-02  9.9925860002807690e-02  9.9940168178376657e-02  9.9947111250602183e-02  9.9953447086394226e-02  9.9946257266023117e-02  9.9963111570855467e-02  9.9961727450513113e-02  9.9961108475861302e-02  9.9970508573241537e-02  9.9971921259464927e-02  9.9972316777379305e-02  9.9978624736248287e-02  9.9980171257539580e-02  9.9980856055589748e-02  9.9986014692643024e-02  9.9985776840322754e-02  9.9991100930446913e-02  9.9987539429829200e-02  1.0000000000000003e-01  1.0001869232820909e-01  1.0000000000000003e-01  1.0001239041484700e-01  1.0001896944126167e-01  1.0001788035508540e-01  1.0002498000248508e-01  1.0002450592318095e-01  1.0002606696227391e-01  1.0003456757102491e-01  1.0003272431747064e-01  1.0003310604140972e-01  1.0004677571338241e-01  1.0004202950663112e-01  1.0004327647114580e-01  1.0006101916508064e-01  1.0005202905795231e-01  1.0005217004211335e-01  1.0007931429809867e-01  1.0005502526973883e-01  1.0007111586784752e-01  1.0007190545392511e-01  1.0010001332033898e-01  1.0008805761132489e-01  1.0012814601940913e-01  1.0009646489914807e-01  1.0009025765602812e-01  1.0017639060735684e-01  1.0005213123080924e-01  1.0022408143980202e-01  9.9946320189732901e-02  1.0052887735338477e-01  1.0016414498734441e-01  9.9338982193019246e-02  9.9765545728398755e-02  9.9935933464645285e-02  9.9871860373394516e-02  9.9920265303977657e-02  9.9872983206225480e-02  9.9924254769188550e-02  9.9919317034167732e-02  9.9899935731590742e-02  9.9938871920973837e-02  9.9903174785442958e-02  9.9949030397203625e-02  9.9936385355832144e-02  9.9955113067519932e-02  9.9935880814451317e-02  9.9960745497924663e-02  9.9956640853458539e-02  9.9956336732927628e-02  9.9967310853329980e-02  9.9967929226127711e-02  9.9967108023294476e-02  9.9976171885494139e-02  9.9976934727785058e-02  9.9978144769908656e-02  9.9982729451236596e-02  9.9985346437886286e-02  9.9984946152775492e-02  9.9991572210163457e-02  9.9987431020568437e-02  1.0000000000000003e-01  1.0001976522780412e-01  1.0000000000000003e-01  1.0001194841597653e-01  1.0001883010149448e-01  1.0002082639286630e-01  1.0002328975315035e-01  1.0002366191071260e-01  1.0003179062689484e-01  1.0003089152355074e-01  1.0003129592235639e-01  1.0004222504750963e-01  1.0003994163517341e-01  1.0004024702093423e-01  1.0005606406855164e-01  1.0004982326580819e-01  1.0004927145287672e-01  1.0007293006290312e-01  1.0005776313793550e-01  1.0006225153891639e-01  1.0008447523331668e-01  1.0007590879959262e-01  1.0004346633017856e-01  1.0015014658424701e-01  1.0007965150842063e-01  1.0011113816202569e-01  1.0013063525436769e-01  1.0012480788103817e-01  1.0005871005596326e-01  1.0026428782061113e-01  9.9904675812735044e-02  1.0052406964244531e-01  1.0018093864250659e-01  9.9341514556340729e-02  9.9731224239346536e-02  9.9968900215906903e-02  9.9866862155867750e-02  9.9893263695560328e-02  9.9904042528748391e-02  9.9919137888984502e-02  9.9891532196966240e-02  9.9934248537573017e-02  9.9926360254903868e-02  9.9920260976760836e-02  9.9914755856362419e-02  9.9967993088471443e-02  9.9923369566292317e-02  9.9963153189973813e-02  9.9949848513450429e-02  9.9952209610828374e-02  9.9963437171145739e-02  9.9965577513742701e-02  9.9962834732699554e-02  9.9972927838872599e-02  9.9973604655090254e-02  9.9974301322756101e-02  9.9981244109825493e-02  9.9982109860389357e-02  9.9984193873031896e-02  9.9986466044989689e-02  9.9991354331439616e-02  9.9987445385346083e-02  1.0000000000000003e-01  1.0001980519215076e-01  1.0000000000000003e-01  1.0001151191730215e-01  1.0002084111194388e-01  1.0001919537080994e-01  1.0002230085644037e-01  1.0002781127752594e-01  1.0002844100559713e-01  1.0002904896746703e-01  1.0003844925365939e-01  1.0003630994644476e-01  1.0003720260628778e-01  1.0005105375307906e-01  1.0004645913854536e-01  1.0004550338824521e-01  1.0006583064884582e-01  1.0005614863529412e-01  1.0005566634518900e-01  1.0008280966657107e-01  1.0006718892471504e-01  1.0005980003360221e-01  1.0011273443912444e-01  1.0004428881800359e-01  1.0011399593763240e-01  1