<?xml version="1.0"?>
<VTKFile type="UnstructuredGrid"  version="0.1"  >
<UnstructuredGrid>
<Piece  NumberOfPoints="1933" NumberOfCells="3640">
<Points>
<DataArray  type="Float64"  NumberOfComponents="3"  format="ascii">0.2940263077673413 -0.001269582038240242 0  5.294026332686357 -0.00123646098504753 0  5.293976641045254 7.498763596813057 0  0.2939766080630598 7.498730463157314 0  10.29402637600642 -0.0012033828432306 0  10.29397669500813 7.498796676098373 0  15.29402646062 -0.001170341286290978 0  15.2939767778141 7.498829715513891 0  20.29402660508398 -0.001137315758464254 0  20.29397689551501 7.498862738332757 0  25.29402682269296 -0.001104278606826228 0  25.29397705234207 7.498895773064918 0  30.29402712208293 -0.001071198328872754 0  30.29397725044086 7.49892885140647 0  35.29402750808438 -0.001038040936674889 0  35.2939774896692 7.498962007305985 0  40.29402798242715 -0.001004770331698731 0  40.29397776744095 7.498995276748385 0  45.29402854419872 -0.0009713481215538989 0  45.29397807854734 7.499028697993317 0  50.29402919005106 -0.0009377330881866975 0  50.29397841489302 7.499062312120627 0  55.29402991416936 -0.0009038803998949823 0  55.29397876509575 7.499096163813838 0  60.29403070800779 -0.0008697405914301384 0  60.29397911390156 7.499130302364894 0  65.29403155977791 -0.0008352582908037303 0  65.29397944135852 7.499164782921703 0  70.2940324536436 -0.0008003706336159751 0  70.29397972167773 7.499199668032166 0  75.29403336854247 -0.0007650052662071332 0  75.29397992168117 7.499235029571127 0  80.29403427649113 -0.0007290777894640899 0  80.29397999869749 7.499270951174636 0  85.29403514014572 -0.0006924884267025356 0  85.29397989771076 7.49930753135299 0  90.29403590923718 -0.0006551176002355058 0  90.29397954749398 7.499344887511595 0  95.29403651525374 -0.0006168199564920935 0  95.29397885536831 7.499383161173743 0  100.2940368632993 -0.0005774161690720891 0  100.2939777001342 7.49942252475511 0  105.2940368192783 -0.0005366815523572796 0  105.2939759226634 7.499463190237639 0  110.2940361891393 -0.0004943301289351822 0  110.2939733137351 7.499505419904076 0  115.2940346843231 -0.0004499923687968316 0  115.2939695992475 7.49954953862945 0  120.2940318627669 -0.0004031846158163652 0  120.2939644245631 7.499595945406712 0  125.2940270259276 -0.0003532690881117208 0  125.2939573439524 7.499645117338973 0  130.2940190357261 -0.0002994078332046405 0  130.2939478309919 7.499697589159056 0  135.2940059844805 -0.000240529742679832 0  135.2939353479517 7.499753869351195 0  140.2939845931683 -0.0001753807532579869 0  140.2939195603751 7.499814210243954 0  145.2939491022173 -0.0001028990558401197 0  145.2939008865377 7.499878079491361 0  150.2938891811891 -2.379924449068585e-05 0  150.2938818019533 7.499943165062926 0  160.2938926261462 1.021572047127729e-18 0  165.2938843031628 -3.503487352125343e-05 0  165.2938913284088 7.49995617168618 0  160.2938898270141 7.499978959858572 0  170.2938887363434 -5.226535658874272e-05 0  170.2938925374296 7.499943563253641 0  175.2938982279728 -5.737088192391044e-05 0  175.2938950221186 7.499940530478984 0  180.2939092979859 -5.3770183922529e-05 0  180.2938987032251 7.499945152410755 0  185.2939203662819 -4.378908798014977e-05 0  185.2939031596327 7.499955661023563 0  190.293930747783 -2.906722594663469e-05 0  190.29390798955 7.499970662504821 0  195.2939401840464 -1.077718373619912e-05 0  195.2939128923742 7.499989103217778 0  200.2939486177559 1.023228818560634e-05 0  200.293917667158 7.500010194771531 0  205.2939560828328 3.333851657256109e-05 0  205.2939221904578 7.500033345947653 0  210.293962650892 5.807791347049864e-05 0  210.2939263935108 7.500058109862333 0  215.2939684054468 8.410004827263099e-05 0  215.2939302440445 7.500084145107749 0  220.2939734298395 0.0001111360126160682 0  220.2939337331709 7.500111187735744 0  225.2939778019516 0.0001389764266022153 0  225.2939368664161 7.500139031146251 0  230.2939815922448 0.0001674559531560245 0  230.2939396577782 7.500167511594375 0  235.2939848634103 0.0001964422342259909 0  235.2939421258877 7.500196497657655 0  240.2939876707691 0.0002258278643824133 0  240.2939442915897 7.50022588249878 0  245.2939900630079 0.0002555244810039953 0  245.2939461764713 7.500255578116671 0  250.2939920830388 0.0002854583554597447 0  250.2939478020144 7.500285511029718 0  255.2939937689012 0.0003155670720226372 0  255.2939491891676 7.500315619009365 0  260.2939951546639 0.0003457970180569612 0  260.2939503581854 7.500345848604006 0  265.2939962713309 0.0003761015052123803 0  265.2939513286522 7.50037615328093 0  270.2939971477475 0.0004064394140267319 0  270.2939521196236 7.500406492080769 0  275.2939978115405 0.0004367743161373406 0  275.293952749829 7.500436828734736 0  280.2939982900807 0.0004670740901619049 0  280.2939532379034 7.500467131247232 0  285.2939986114785 0.0004973111203358921 0  285.2939536025904 7.500497372001637 0  290.2939988055331 0.0005274632643565587 0  290.2939538628838 7.500527528509873 0  295.2939989044762 0.0005575159130826706 0  295.2939540380518 7.500557584996232 0  300.2939989430924 0.0005874656457287954 0  300.2939541475567 7.500587535076884 0  305.2939989573077 0.0006173261522170669 0  305.2939542110309 7.5006173858553 0  310.293998979254 0.0006471368548662431 0  310.2939542489534 7.500647163863694 0  5.293926853558939 14.99876371712058 0  0.2939268214672129 14.99873057297635 0  10.29392689567991 14.99879678580089 0  15.29392695188881 14.99882980906565 0  20.29392702293638 14.99886281592373 0  25.29392710779384 14.99889583652699 0  30.29392720397077 14.99892890259438 0  35.29392730737668 14.99896204750563 0  40.29392741202143 14.99899530648445 0  45.293927509646 14.9990287169642 0  50.29392758929535 14.99906231914056 0  55.29392763681318 14.99909615670227 0  60.29392763422815 14.99913027774172 0  65.29392755899855 14.99916473586271 0  70.29392738307834 14.99919959151741 0  75.29392707177466 14.99923491361846 0  80.29392658236813 14.99927078148079 0  85.29392586249884 14.99930728714676 0  90.29392484836546 14.99934453812642 0  95.29392346290113 14.99938266051468 0  100.2939216142984 14.99942180227974 0  105.2939191956629 14.99946213615273 0  110.293916087286 14.99950386079888 0  115.2939121642655 14.9995471974719 0  120.2939073141973 14.99959237653472 0  125.2939014726214 14.99963960305432 0  130.293894687636 14.99968898161921 0  135.293887227903 14.99974036573655 0  140.293879744334 14.99979307559924 0  145.2938734681506 14.99984540153858 0  150.2938703307055 14.99989377511492 0  165.2938824059194 14.99993259087537 0  160.2938800870781 14.99993725629877 0  170.293882679813 14.99993083211421 0  175.2938824722545 14.99993378862101 0  180.2938825590918 14.99994165414584 0  185.2938831811001 14.99995391312187 0  190.2938843218496 14.99996985812187 0  195.2938858679499 14.99998880528419 0  200.293887686512 15.00001016534497 0  205.2938896575946 15.00003345485969 0  210.2938916846097 15.00005828570342 0  215.2938936949132 15.0000843487791 0  220.2938956366304 15.00011139807097 0  225.2938974745243 15.00013923702679 0  230.2938991860854 15.00016770758571 0  235.2939007582619 15.00019668157324 0  240.2939021848823 15.00022605403163 0  245.2939034647027 15.00025573807009 0  250.2939045999684 15.00028566088942 0  255.2939055953718 15.00031576071168 0  260.2939064573115 15.00034598441562 0  265.2939071933711 15.00037628573457 0  270.2939078119565 15.00040662392125 0  275.2939083220393 15.0004369628225 0  280.2939087329699 15.00046727033815 0  285.2939090543558 15.00049751826358 0  290.2939092959924 15.00052768252623 0  295.2939094679437 15.00055774381078 0  300.2939095809075 15.00058768849573 0  305.2939096472206 15.00061750963428 0  310.2939096831081 15.0006472072889 0  5.293877039380996 22.49876392727423 0  0.293877009902329 22.49873080892739 0  10.29387706873715 22.49879696104286 0  15.29387709784555 22.49882994748761 0  20.29387712463538 22.49886291933772 0  25.29387714558663 22.49889590780085 0  30.29387715597406 22.49892894414598 0  35.29387714983189 22.49896206055094 0  40.29387711974854 22.49899529066442 0  45.29387705657255 22.49902867010746 0  50.29387694907345 22.49906223701437 0  55.29387678357364 22.49909603265422 0  60.29387654355939 22.49913010215027 0  65.29387620928074 22.49916449530472 0  70.29387575735994 22.49919926752743 0  75.29387516045375 22.49923448085709 0  80.29387438705068 22.4992702050368 0  85.29387340154946 22.49930651855799 0  90.29387216486437 22.49934350949619 0  95.29387063595445 22.49938127579779 0  100.2938687749068 22.49941992439101 0  105.2938665485252 22.49945956800375 0  110.2938639398064 22.49950031775686 0  115.2938609631714 22.49954226829942 0  120.29385768768 22.49958547028281 0  125.2938542702529 22.49962988226326 0  130.2938509991168 22.49967529109486 0  135.2938483423187 22.49972118842492 0  140.293846983936 22.49976659684521 0  145.2938478074738 22.49980986827064 0  150.2938517518484 22.49984857156428 0  165.293861873092 22.49990553559732 0  160.2938600266994 22.49989749900108 0  170.2938618826781 22.49991344393912 0  175.2938608830767 22.49992306335522 0  180.293859552316 22.49993525634814 0  185.2938583125816 22.4999502344297 0  190.2938573698001 22.49996785419165 0  195.293856788791 22.4999878178512 0  200.2938565559987 22.50000978584082 0  205.2938566211789 22.50003343179057 0  210.2938569218791 22.50005846507421 0  215.2938573964068 22.50008463678543 0  220.29385798984 22.50011173804032 0  225.2938586561488 22.50013959524406 0  230.2938593582971 22.50016806458942 0  235.2938600674141 22.5001970268037 0  240.2938607616239 22.5002263825337 0  245.293861424836 22.50025604845921 0  250.2938620456338 22.50028595409729 0  255.2938626163168 22.50031603921298 0  260.2938631320938 22.50034625174553 0  265.2938635904254 22.50037654616769 0  270.2938639904853 22.50040688221015 0  275.2938643327311 22.50043722389647 0  280.2938646185738 22.50046753884061 0  285.2938648501564 22.50049779775553 0  290.2938650302791 22.50052797409601 0  295.2938651625573 22.50055804369827 0  
[...]
<PointData  Scalars="p"> 
<DataArray  type="Float64"  Name="p"  format="ascii">1.0000000000000001e-01  1.0000000000000003e-01  9.9997412513066403e-02  1.0000000000000003e-01  1.0000000000000003e-01  9.9996295482955022e-02  1.0000000000000003e-01  9.9994408432909548e-02  1.0000000000000003e-01  9.9993141572174288e-02  1.0000000000000003e-01  9.9991724079475375e-02  1.0000000000000003e-01  9.9989897360270627e-02  1.0000000000000003e-01  9.9988716053073787e-02  1.0000000000000003e-01  9.9987460591285993e-02  1.0000000000000003e-01  9.9985446042113582e-02  1.0000000000000003e-01  9.9984201586366478e-02  1.0000000000000003e-01  9.9981005925519700e-02  1.0000000000000003e-01  9.9977624063907117e-02  1.0000000000000003e-01  9.9975112773358618e-02  1.0000000000000003e-01  9.9972657016937930e-02  1.0000000000000003e-01  9.9969069764946836e-02  1.0000000000000003e-01  9.9967288389454220e-02  1.0000000000000003e-01  9.9965120394853960e-02  1.0000000000000003e-01  9.9961603551259048e-02  1.0000000000000003e-01  9.9960972562995909e-02  1.0000000000000003e-01  9.9958422566304592e-02  1.0000000000000003e-01  9.9957169793213091e-02  1.0000000000000003e-01  9.9954809510614612e-02  1.0000000000000003e-01  9.9957331037086580e-02  1.0000000000000003e-01  9.9949964814903869e-02  1.0000000000000003e-01  9.9960017899278289e-02  1.0000000000000003e-01  9.9944218276158667e-02  1.0000000000000003e-01  9.9966248150120521e-02  1.0000000000000003e-01  9.9934706219099209e-02  1.0000000000000003e-01  9.9976142273131272e-02  1.0000000000000001e-01  9.9915575417259525e-02  1.0000000000000001e-01  1.0000000000000003e-01  1.0010158769417823e-01  1.0017172999796710e-01  1.0000000000000003e-01  1.0004470250724642e-01  1.0000000000000003e-01  1.0008289007055438e-01  1.0000000000000003e-01  1.0006557189156652e-01  1.0000000000000003e-01  1.0007245418520161e-01  1.0000000000000003e-01  1.0006839860207253e-01  1.0000000000000003e-01  1.0007238118796652e-01  1.0000000000000003e-01  1.0006903369443061e-01  1.0000000000000003e-01  1.0007042118187269e-01  1.0000000000000003e-01  1.0006981354991232e-01  1.0000000000000003e-01  1.0006909653070006e-01  1.0000000000000003e-01  1.0006850270587649e-01  1.0000000000000003e-01  1.0006823559102780e-01  1.0000000000000003e-01  1.0006712194093971e-01  1.0000000000000003e-01  1.0006656710588342e-01  1.0000000000000003e-01  1.0006593237771569e-01  1.0000000000000003e-01  1.0006510675729369e-01  1.0000000000000003e-01  1.0006432756636556e-01  1.0000000000000003e-01  1.0006393182445497e-01  1.0000000000000003e-01  1.0006280712907556e-01  1.0000000000000003e-01  1.0006277687948337e-01  1.0000000000000003e-01  1.0006120037364490e-01  1.0000000000000003e-01  1.0006225958829876e-01  1.0000000000000003e-01  1.0005872328971073e-01  1.0000000000000003e-01  1.0006341570994420e-01  1.0000000000000003e-01  1.0005399826649314e-01  1.0000000000000003e-01  1.0006847512670174e-01  1.0000000000000003e-01  1.0004323504619315e-01  1.0000000000000003e-01  1.0008675062851795e-01  1.0000000000000001e-01  1.0000000000000003e-01  9.9996495984543049e-02  1.0000000000000003e-01  9.9996101502673213e-02  9.9995752928292617e-02  9.9995209091910564e-02  9.9994087614634922e-02  9.9994071911752760e-02  9.9994002667693357e-02  9.9992525081171860e-02  9.9992970675190238e-02  9.9992559527055491e-02  9.9990135442052916e-02  9.9987724060894803e-02  9.9987104308739999e-02  9.9983591508817637e-02  9.9984670127843914e-02  9.9984099921776481e-02  9.9981259094454544e-02  9.9982604627816274e-02  9.9982762027064867e-02  9.9979121907996946e-02  9.9982653426221937e-02  9.9980613074980004e-02  9.9981728525583555e-02  9.9978819845216380e-02  9.9988146041445181e-02  9.9970320359939774e-02  1.0000099084689962e-01  9.9950031808404588e-02  1.0002751207544446e-01  9.9913573373743195e-02  9.9940078351618486e-02  1.0028778654086115e-01  1.0006802344842995e-01  1.0001674470859462e-01  1.0002315325968421e-01  1.0001881225299855e-01  1.0002951892005808e-01  1.0002087290211445e-01  1.0002606668776302e-01  1.0002646237628662e-01  1.0002533203076681e-01  1.0002561936834160e-01  1.0002661659284634e-01  1.0002506726761257e-01  1.0002515435709754e-01  1.0002528099692125e-01  1.0002430845634845e-01  1.0002417804445241e-01  1.0002408982448861e-01  1.0002358104009222e-01  1.0002313945968840e-01  1.0002352316693371e-01  1.0002226973998228e-01  1.0002348260001691e-01  1.0002110131956218e-01  1.0002472589473883e-01  1.0001768924833529e-01  1.0003016036084075e-01  1.0000842830801587e-01  1.0004205966673366e-01  1.0000000000000003e-01  9.9995190316972279e-02  1.0000000000000003e-01  9.9996346051201196e-02  9.9994409280942442e-02  9.9993155285505939e-02  9.9992628869324376e-02  9.9992562865073020e-02  9.9990323811631837e-02  9.9990747810433447e-02  9.9990967508398226e-02  9.9988061957007504e-02  9.9987782626909341e-02  9.9987765529712197e-02  9.9979481211676838e-02  9.9980213914656210e-02  9.9979042953310379e-02  9.9973901781568328e-02  9.9976381700395120e-02  9.9975826514578078e-02  9.9970774159215195e-02  9.9973829337980075e-02  9.9974711270290839e-02  9.9967950876033135e-02  9.9976026051935632e-02  9.9970196101831749e-02  9.9976426800224255e-02  9.9964927714790097e-02  9.9990765117417363e-02  9.9940064159575598e-02  1.0003081143948482e-01  9.9862456360311949e-02  9.9930005299762509e-02  1.0030352190136758e-01  1.0014084520838343e-01  1.0003382464650093e-01  1.0003579241359080e-01  1.0006059099030599e-01  1.0003504013128837e-01  1.0004950607147765e-01  1.0004962686980542e-01  1.0004706373998566e-01  1.0004816520858489e-01  1.0005093464873924e-01  1.0004771339614216e-01  1.0004852620385199e-01  1.0004903807775878e-01  1.0004715872070795e-01  1.0004695748306765e-01  1.0004719142002853e-01  1.0004577494037982e-01  1.0004568678166342e-01  1.0004542211371328e-01  1.0004495474677617e-01  1.0004402268325069e-01  1.0004516176130382e-01  1.0004242198425088e-01  1.0004587265374031e-01  1.0003982129712599e-01  1.0004964746833422e-01  1.0003097226221620e-01  1.0006655589682527e-01  1.0000000000000003e-01  9.9994457400707448e-02  1.0000000000000003e-01  9.9996267221460641e-02  9.9993678618907900e-02  9.9993672248711404e-02  9.9993675661303030e-02  9.9991502559050413e-02  9.9992168870294010e-02  9.9992860735500122e-02  9.9990207158662206e-02  9.9991441317967417e-02  9.9991935576347904e-02  9.9986517238744368e-02  9.9989012423685866e-02  9.9984520092749080e-02  9.9978842559415179e-02  9.9980999736846363e-02  9.9981702230468469e-02  9.9975611385633323e-02  9.9980814665884044e-02  9.9980453367783037e-02  9.9976019157062113e-02  9.9979732509352617e-02  9.9984285989206154e-02  9.9972533902362409e-02  9.9991342155656707e-02  9.9969576324344070e-02  1.0000375410647552e-01  9.9943049546526344e-02  1.0005147469331967e-01  9.9851655344662324e-02  9.9914501713045986e-02  1.0036343378588830e-01  1.0010214651199165e-01  1.0000233131792637e-01  1.0008038803573124e-01  1.0000172776962557e-01  1.0003634372941282e-01  1.0003106821225938e-01  1.0003024621807627e-01  1.0003055851830026e-01  1.0003682330466120e-01  1.0003150180032969e-01  1.0003390448129312e-01  1.0003512913928025e-01  1.0003284682620306e-01  1.0003294938758767e-01  1.0003358880954027e-01  1.0003184127528739e-01  1.0003170506218949e-01  1.0003208744394543e-01  1.0003076672371254e-01  1.0003112492452125e-01  1.0003045728139799e-01  1.0003115465953839e-01  1.0002878626408490e-01  1.0003293078653200e-01  1.0002542858772419e-01  1.0003769089552185e-01  1.0001741712289416e-01  1.0005031231447105e-01  1.0000000000000003e-01  9.9993697981344429e-02  1.0000000000000003e-01  9.9995715859390030e-02  9.9993785814648142e-02  9.9994371285449135e-02  9.9991468850116380e-02  9.9992240958166043e-02  9.9992432316631047e-02  9.9989761572012656e-02  9.9991244635151216e-02  9.9992221148618970e-02  9.9987579273202884e-02  9.9989720531642623e-02  9.9989070518557294e-02  9.9984382255259546e-02  9.9981878777366417e-02  9.9981714271702590e-02  9.9973998803099998e-02  9.9979142069236610e-02  9.9980120495898689e-02  9.9972220989741567e-02  9.9980413075704294e-02  9.9979144737597697e-02  9.9976009573655655e-02  9.9977489071433751e-02  9.9990303886500237e-02  9.9963399847087339e-02  1.0000954109294506e-01  9.9936333828832796e-02  1.0006275140694426e-01  9.9824045487845611e-02  9.9859187201641650e-02  1.0041900181946251e-01  1.0012106803868125e-01  1.0002622395993291e-01  1.0005893589098695e-01  1.0004254961617184e-01  1.0003706745318178e-01  1.0003626609897499e-01  1.0003164529590354e-01  1.0004591127499229e-01  1.0003551910448345e-01  1.0004048908866560e-01  1.0004275093121338e-01  1.0003967661854943e-01  1.0004016121555562e-01  1.0004186283023282e-01  1.0003907094243607e-01  1.0003918946329769e-01  1.0003961862240217e-01  1.0003809491852643e-01  1.0003777431206529e-01  1.0003844745096510e-01  1.0003679173546726e-01  1.0003792428007890e-01  1.0003609619441821e-01  1.0003890549444155e-01  1.0003316415260220e-01  1.0004360299460993e-01  1.0002459310902644e-01  1.0005848670373180e-01  1.0000000000000003e-01  9.9992779758195816e-02  1.0000000000000003e-01  9.9995843565275661e-02  9.9994068629564239e-02  9.9993004397484958e-02  9.9992733877489304e-02  9.9993105801092622e-02  9.9990304118529244e-02  9.9991363811901920e-02  9.9992829894585217e-02  9.9988849765772297e-02  9.9990808007611648e-02  9.9991729685756564e-02  9.9986115401514655e-02  9.9988273659278287e-02  9.9991215148568791e-02  9.9976550600602329e-02  9.9981615387870579e-02  9.9981502661854904e-02  9.9973248681993476e-02  9.9980687545341215e-02  9.9983463363686020e-02  9.9971867384477622e-02  9.9986383683132576e-02  9.9980164279923261e-02  9.9985667253286878e-02  9.9971387090871430e-02  1.0001636032133618e-01  9.9927447541147824e-02  1.0008435189409690e-01  9.9799996605288530e-02  9.9846004177136072e-02  1.0042079223078390e-01  1.0014440598550958e-01  9.9981690699755835e-02  1.0005668528991696e-01  1.0004433274578153e-01  1.0004839827131110e-01  1.0001220015327610e-01  1.0004621897159258e-01  1.0002290019018273e-01  1.0003431500186984e-01  1.0003671924269698e-01  1.0003314161872590e-01  1.0003385937692573e-01  1.0003747265852589e-01  1.0003348665582013e-01  1.0003422181640044e-01  1.0003531310043216e-01  1.0003281817601502e-01  1.0003290847122986e-01  1.0003328015468337e-01  1.0003220702784377e-01  1.0003155101829159e-01  1.0003311601677266e-01  1.0003021847194987e-01  1.0003402408676648e-01  1.0002792806542780e-01  1.0003838112600749e-01  1.0001999459742111e-01  1.0005186643140822e-01  1.0000000000000003e-01  9.9992266174254787e-02  1.0000000000000003e-01  9.9996075278921556e-02  9.9992637398258949e-02  9.9993731824056353e-02  9.9993467570446595e-02  9.9991119007634049e-02  9.9991319681813171e-02  9.9992790056870715e-02  9.9988779431722394e-02  9.9990867106231660e-02  9.9992313800370672e-02  9.9986481942048969e-02  9.9989371282541081e-02  9.9991836919849253e-02  9.9982742678889541e-02  9.9989857166424112e-02  9.9983829581601236e-02  9.9973261732676788e-02  9.9980275923974946e-02  9.9981552838744298e-02  9.9972272535010454e-02  9.9981052379732108e-02  9.9986867831967280e-02  9.9969126829484348e-02  9.9995233885990187e-02  9.9971150116596241e-02  1.0000962399017500e-01  9.9930542372752049e-02  1.0009524244950962e-01  9.9771351559265919e-02  9.9848268310738383e-02  1.0044913612266228e-01  1.0012503598766889e-01  9.9981400147467758e-02  1.0007339478365371e-01  1.0002423174320074e-01  1.0004456661132634e-01  1.0005768421990539e-01  1.0001785430451500e-01  1.0003643135131982e-01  1.0003540812420977e-01  1.0003441856383929e-01  1.0003356445789682e-01  1.0004006858133407e-01  1.0003451284949912e-01  1.0003620177615051e-01  1.0003797921265324e-01  1.0003520457156390e-01  1.0003508819627202e-01  1.0003612839218469e-01  1.0003385644890689e-01  1.0003421707583550e-01  1.0003406030397831e-01  1.0003408644321393e-01  1.0003229784355508e-01  1.0003587900923008e-01  1.0002970897198887e-01  1.0003999332136911e-01  1.0002222183362802e-01  1.0005374164836960e-01  1.0000000000000003e-01  9.9991902491869261e-02  1.0000000000000003e-01  9.9995318948947087e-02  9.9992905127163495e-02  9.9994360158631473e-02  9.9991629669174797e-02  9.9992333973042746e-02  9.9993081362184474e-02  9.9989349234850450e-02  9.9991087174724061e-02  9.9992551029445806e-02  9.9987205213152158e-02  9.9989901315226781e-02  9.9991963990474095e-02  9.9984451831303972e-02  9.9990328414984508e-02  9.9990873329550659e-02  9.9983734700605273e-02  9.9982251264159688e-02  9.9983703022534162e-02  9.9969993496596479e-02  9.9982642462468380e-02  9.9982492854674337e-02  9.9974496023379017e-02  9.9980663908669609e-02  9.9997426241831139e-02  9.9958576718559775e-02  1.0002270842074060e-01  9.9927213255762412e-02  1.0009784448660959e-01  9.9757273120328824e-02  9.9815142220777683e-02  1.0048134433136387e-01  1.0013205881127088e-01  9.9990137149829572e-02  1.0005012901572849e-01  1.0001643034603537e-01  1.0005568156877787e-01  1.0003346960015468e-01  1.0004675112625426e-01  1.0002548326109813e-01  1.0003405142059443e-01  1.0002540289433998e-01  1.0003902615319354e-01  1.0002987281159148e-01  1.0003321530726961e-01  1.0003587310483676e-01  1.0003262311764273e-01  1.0003285140790411e-01  1.0003473455859090e-01  1.0003197308811504e-01  1.0003177517113561e-01  1.0003286438159999e-01  1.0003062310051106e-01  1.0003178363211418e-01  1.0003037815938849e-01  1.0003292813816593e-01  1.0002747748119750e-01  1.0003765399813314e-01  1.0002009931203390e-01  1.0005055091555459e-01  1.0000000000000003e-01  9.9991224956674202e-02  1.0000000000000003e-01  9.9995495034077647e-02  9.9993268239434815e-02  9.9992875139763640e-02  9.9992373964559414e-02  9.9993687507863901e-02  9.9990249655078495e-02  9.9991427882849343e-02  9.9992748398761683e-02  9.9988149183590530e-02  9.9989798237682559e-02  9.9992052723575087e-02  9.9985045065553987e-02  9.9989411363122657e-02  9.9992333601694225e-02  9.9983754073088210e-02  9.9989185774378375e-02  9.9994716711539477e-02  9.9972560335614372e-02  9.9981730362966925e-02  9.9983934408222536e-02  9.9967682129118954e-02  9.9986781495187887e-02  9.9982143856999856e-02  9.9981393582259090e-02  9.9971268532837748e-02  1.0002513247573525e-01  9.9910630400347644e-02  1.0011573218677061e-01  9.9740389990783704e-02  9.9806882944468212e-02  1.0048033439209249e-01  1.0014924680509767e-01  9.9968033541647516e-02  1.0005127107466663e-01  1.0002864393033745e-01  1.0003531577211404e-01  1.0003241837466069e-01  1.0005122577666774e-01  1.0004402595233308e-01  1.0001786001000447e-01  1.0004212996342304e-01  1.0002521497220328e-01  1.0003281161972159e-01  1.0003531228740302e-01  1.0003213496466719e-01  1.0003210374749388e-01  1.0003565046769375e-01  1.0003193609090914e-01  1.0003251018806934e-01  1.0003347031212581e-01  1.0003151173850222e-01  1.0003088601284998e-01  1.0003260811854847e-01  1.0002963646121790e-01  1.0003292702453054e-01  1.0002800321095964e-01  1.0003706646736682e-01  1.0002059571557818e-01  1.0005025519148479e-01  1.0000000000000003e-01  9.9990974982906961e-02  1.0000000000000003e-01  9.9995750571921407e-02  9.9991917764711349e-02  9.9993388329430749e-02  9.9993285803929272e-02  9.9991186079680189e-02  9.9991663987921253e-02  9.9993184989547429e-02  9.9989056035673041e-02  9.9990323168973452e-02  9.9992403676597133e-02  9.9985557914172185e-02  9.9988772649468566e-02  9.9992166892823767e-02  9.9983646029848855e-02  9.9989438786608320e-02  9.9994679956783572e-02  9.9980383812490053e-02  9.9993510047162712e-02  9.9985428413318159e-02  9.9970082407381672e-02  9.9980825867595463e-02  9.9988126716883327e-02  9.9963873327427427e-02  9.9996858836095645e-02  9.9972672781320812e-02  1.0000768062710967e-01  9.9922900586766450e-02  1.0012205318929382e-01  9.9713437119761217e-02  9.9810343703303578e-02  1.0048843203395061e-01  1.0013623072044846e-01  9.9964925338304297e-02  1.0006371785198744e-01  1.0000944732810391e-01  1.0003280060630440e-01  1.0003795644289937e-01  1.0003680309814175e-01  1.0003594743858175e-01  1.0005320389791132e-01  1.0001657474799386e-01  1.0003305418831182e-01  1.0003039255080169e-01  1.0003071145987359e-01  1.0002883765259866e-01  1.0003456615881297e-01  1.0002990043115310e-01  1.0003089769699315e-01  1.0003290264553850e-01  1.0003025898638429e-01  1.0003042235139667e-01  1.0003080583122939e-01  1.0003006807320083e-01  1.0002842627098106e-01  1.0003196687092264e-01  1.0002615455185411e-01  1.0003550852845688e-01  1.0001968681699337e-01  1.0004801385139007e-01  1.0000000000000003e-01  9.9990806029400192e-02  1.0000000000000003e-01  9.9995085843116421e-02  9.9992132936554179e-02  9.9994061917242083e-02  9.9991337990251727e-02  9.9992191471601113e-02  9.9993075273992524e-02  9.9989930102892657e-02  9.9990978966148489e-02  9.9992956383948103e-02  9.9986844147808687e-02  9.9989000299860686e-02  9.9991482926456085e-02  9.9983752443385268e-02  9.9988792370904953e-02  9.9993183770534413e-02  9.9982085529102635e-02  9.9991724117408143e-02  9.9994163746234724e-02  9.9981932223528039e-02  9.9984349548699350e-02  9.9984906277655133e-02  9.9968144324540487e-02  9.9980870286180912e-02  9.9997552118025954e-02  9.9951454033074455e-02  1.0002409042867264e-01  9.9924989602429709e-02  1.0010412637782357e-01  9.9720651018485457e-02  9.9794055017580791e-02  1.0050005735722566e-01  1.0013679685002391e-01  9.9973806695851777e-02  1.0004993077092432e-01  1.0000786438893799e-01  1.0004321139447525e-01  1.0002361042579119e-01  1.0003113727834559e-01  1.0004410833990544e-01  1.0003712663082050e-01  1.0004250730983555e-01  1.0002447783696809e-01  1.0003192069848928e-01  1.0002395841129544e-01  1.0003488048210574e-01  1.0002768050121824e-01  1.0002986688999178e-01  1.0003225827770687e-01  1.0002973972526129e-01  1.0002961572451140e-01  1.0003177780971240e-01  1.0002885897183426e-01  1.0002976415959830e-01  1.0002886643387202e-01  1.0003054503623482e-01  1.0002580322578067e-01  1.0003497987718155e-01  1.0001924168230163e-01  1.0004683382676548e-01  1.0000000000000003e-01  9.9990316622073819e-02  1.0000000000000003e-01  9.9995192052235532e-02  9.9992510322008982e-02  9.9992605121437483e-02  9.9991862555085853e-02  9.9993357405981170e-02  9.9990288611260997e-02  9.9991228768014875e-02  9.9993092582795429e-02  9.9988420978091713e-02  9.9989629142993863e-02  9.9991752218145533e-02  9.9984625507497066e-02  9.9987591880148524e-02  9.9992156589101613e-02  9.9982316084904738e-02  9.9989409838973933e-02  9.9994605744407258e-02  9.9981942653457237e-02  9.9990515372396560e-02  1.0000063078734946e-01  9.9966520544699358e-02  9.9986994644828867e-02  9.9982489002788222e-02  9.9972759246634610e-02  9.9972432838665581e-02  1.0002505937584952e-01  9.9901428696246145e-02  1.0012061678640050e-01  9.9722508026950887e-02  9.9790226447337427e-02  1.0048457518470719e-01  1.0014624407185185e-01  9.9960715354623558e-02  1.0004824914366055e-01  1.0001749600979894e-01  1.0003062601085959e-01  1.0002031709333485e-01  1.0003941876926375e-01  1.0002878263554998e-01  1.0003425343179025e-01  1.0004350174986042e-01  1.0004150956297996e-01  1.0001644381105541e-01  1.0003654162812686e-01  1.0002280455664760e-01  1.0002855161217174e-01  1.0003047485766965e-01  1.0002812823478942e-01  1.0002791821120363e-01  1.0003082774879085e-01  1.0002836476566071e-01  1.0002820323144136e-01  1.0003011127754813e-01  1.0002686214231682e-01  1.0002956230620727e-01  1.0002547209146660e-01  1.0003314350344004e-01  1.0001857053251306e-01  1.0004503112684399e-01  1.0000000000000003e-01  9.9990116433335399e-02  1.0000000000000003e-01  9.9995376497822239e-02  9.9991269478619041e-02  9.9992895509063692e-02  9.9992565206175305e-02  9.9990956216640989e-02  9.9991112219122144e-02  9.9992782522726420e-02  9.9989072556750200e-02  9.9990209659798379e-02  9.9992147128166883e-02  9.9985936342062334e-02  9.9987501273700430e-02  9.9991321773225755e-02  9.9982404519297755e-02  9.9987185029245099e-02  9.9993420109701289e-02  9.9980908088812187e-02  9.9989845665978044e-02  9.9997861902491172e-02  9.9977565822060799e-02  9.9995926397282608e-02  9.9991041815682316e-02  9