<?xml version="1.0"?>
<VTKFile type="UnstructuredGrid"  version="0.1"  >
<UnstructuredGrid>
<Piece  NumberOfPoints="1933" NumberOfCells="3640">
<Points>
<DataArray  type="Float64"  NumberOfComponents="3"  format="ascii">0.4754623533535971 0.0001362419449341833 0  5.475462379669113 0.000116940560503358 0  5.475491363103746 7.500117025273718 0  0.4754913111837198 7.500136282110726 0  10.47546241300899 9.75605864509991e-05 0  10.4754914582582 7.500097661037355 0  15.47546249524408 7.806243042346884e-05 0  15.47549161987713 7.500078167503751 0  20.47546267265985 5.8441981566776e-05 0  20.47549187079797 7.500058547583133 0  25.47546298881377 3.871637863971144e-05 0  25.47549223373855 7.500038821416574 0  30.47546348282269 1.891613906104339e-05 0  30.47549273075485 7.500019020836784 0  35.47546418973167 -9.192023318943445e-07 0  35.47549338284529 7.499999185950974 0  40.47546514159886 -2.074331644749032e-05 0  40.47549420981232 7.499979363334495 0  45.47546636873889 -4.050391507675818e-05 0  45.47549523029675 7.499959605388044 0  50.47546790091253 -6.01426192314348e-05 0  50.47549646187638 7.499939970559333 0  55.47546976839342 -7.959408351793876e-05 0  55.47549792113396 7.499920524260126 0  60.47547200289792 -9.878446793867097e-05 0  60.4754996236158 7.49990134041095 0  65.47547463838052 -0.0001176292510085847 0  65.47550158359866 7.499882503628863 0  70.47547771168347 -0.0001360302933908307 0  70.47550381357397 7.499864112149518 0  75.4754812630128 -0.0001538719731042313 0  75.47550632332417 7.499846281653874 0  80.47548533615807 -0.0001710161056725463 0  80.47550911841351 7.499829150264961 0  85.47548997830549 -0.0001872952161914561 0  85.47551219784039 7.499812885102702 0  90.47549523914535 -0.0002025035182878065 0  90.47551555047698 7.499797690949555 0  95.47550116874088 -0.0002163846373729504 0  95.4755191497639 7.499783821802692 0  100.4755078131568 -0.0002286146312400005 0  100.4755229459231 7.499771596381118 0  105.4755152060113 -0.0002387781180860115 0  105.4755268547187 7.499761419013652 0  110.4755233524965 -0.0002463341883225691 0  110.47553074164 7.499753807690343 0  115.4755321993609 -0.000250567083574172 0  115.4755344005865 7.499749431204418 0  120.4755415784354 -0.0002505142254901041 0  120.475537527397 7.499749156655136 0  125.475551099879 -0.0002448611824795592 0  125.4755396926519 7.49975410569691 0  130.4755599491035 -0.0002317908458946426 0  130.4755403290509 7.499765709574874 0  135.475566497838 -0.0002087782777957403 0  135.4755387754569 7.499785732692974 0  140.4755675529444 -0.0001723581078531221 0  140.4755344832905 7.499816192911452 0  145.4755568838532 -0.0001180695811192322 0  145.4755276426886 7.499859053679114 0  150.4755222281545 -4.165752339982842e-05 0  150.475520874191 7.499915695443252 0  160.4755282581473 1.075859459416327e-18 0  165.475447598674 -0.0001201799630390879 0  165.4755141358654 7.499860362970651 0  160.4755363348023 7.499953767575508 0  170.4754067298696 -0.000217853422500866 0  170.4754914478028 7.499772443087212 0  175.4753865273296 -0.0002995976758713133 0  175.4754733217385 7.499695128409407 0  180.4753774253886 -0.0003691942174388206 0  180.4754601854792 7.499627807211523 0  185.4753743909442 -0.0004294270088755285 0  185.4754512448024 7.499568817597303 0  190.4753746939506 -0.000482416048919283 0  190.4754455194478 7.499516532805631 0  195.4753768180487 -0.0005297639486216974 0  195.4754421496307 7.499469595323244 0  200.4753799023719 -0.000572676422302757 0  200.475440459721 7.49942692862186 0  205.4753834478187 -0.0006120631941666293 0  205.4754399437057 7.499387693181822 0  210.4753871593973 -0.0006486166468872091 0  210.4754402310868 7.499351235583446 0  215.475390859986 -0.0006828701860181926 0  215.4754410532985 7.499317044469886 0  220.4753944421849 -0.0007152404751896661 0  220.4754422163333 7.499284715917357 0  225.4753978408253 -0.000746057722017951 0  225.4754435800624 7.499253927251909 0  230.4754010168991 -0.0007755874194900317 0  230.4754450431718 7.49922441755123 0  235.4754039479385 -0.0008040460715315494 0  235.4754465323811 7.49919597316327 0  240.4754066221243 -0.0008316126983634924 0  240.4754479947791 7.499168416902869 0  245.4754090346225 -0.0008584373698162749 0  245.475449392394 7.499141599923131 0  250.4754111852828 -0.0008846476267974193 0  250.4754506983446 7.499115395533505 0  255.4754130772192 -0.0009103533822638715 0  255.4754518941245 7.499089694445985 0  260.4754147159761 -0.0009356507069890803 0  260.4754529676906 7.499064401084239 0  265.4754161091311 -0.0009606247739776432 0  265.4754539121433 7.499039430704288 0  270.4754172662282 -0.0009853521372596096 0  270.4754547248399 7.499014707162491 0  275.4754181990221 -0.001009902438959989 0  275.4754554068234 7.498990161239664 0  280.4754189220061 -0.001034339556884128 0  280.4754559624832 7.498965729499785 0  285.4754194532487 -0.001058722104422241 0  285.4754563993648 7.498941353739956 0  290.4754198154997 -0.001083103047321736 0  290.4754567280416 7.498916981185154 0  295.4754200375129 -0.001107527961756041 0  295.475456961988 7.498892565709611 0  300.4754201552597 -0.001132031045275788 0  300.475457117396 7.498868070530554 0  305.4754202122178 -0.001156627276961669 0  305.4754572131209 7.498843473007758 0  310.4754202566198 -0.001181297971853202 0  310.4754572715494 7.498818772377119 0  5.475520096426219 15.00011722087714 0  0.4755200394893363 15.00013638172353 0  10.47552019213708 15.00009788631369 0  15.47552034663073 15.00007839388071 0  20.47552057344201 15.00005876477416 0  25.47552088349923 15.00003902758517 0  30.47552128656174 15.00001921780542 0  35.47552179156128 14.99999937691775 0  40.47552240649909 14.99997955181202 0  45.47552313816848 14.99995979472348 0  50.47552399178876 14.99994016371241 0  55.47552497055181 14.99992072366909 0  60.4755260750428 14.99990154784543 0  65.4755273024786 14.99988271995119 0  70.47552864568893 14.99986433689631 0  75.47553009175989 14.99984651231094 0  80.47553162024286 14.99982938102885 0  85.47553320083738 14.99981310477785 0  90.47553479047528 14.99979787937635 0  95.47553632981372 14.99978394376601 0  100.4755377393228 14.99977159117119 0  105.475538915564 14.99976118245868 0  110.4755397290327 14.99975316115794 0  115.4755400264378 14.99974806814852 0  120.4755396429115 14.99974655086388 0  125.4755384339991 14.99974935536558 0  130.4755363437664 14.99975727681096 0  135.4755335331755 14.99977101925662 0  140.4755305966964 14.99979086902456 0  145.475528874953 14.99981599031534 0  150.4755307584839 14.99984289486341 0  165.4755467485765 14.99980731737056 0  160.4755493817317 14.99986975700467 0  170.4755387086936 14.99974091899175 0  175.4755287498164 14.99967651158243 0  180.475519106704 14.99961670502322 0  185.4755107840965 14.99956209310539 0  190.4755040729764 14.99951238720298 0  195.4754989166188 14.99946699369487 0  200.4754951161124 14.99942526923682 0  205.4754924344128 14.99938662099681 0  210.4754906441317 14.9993505373844 0  215.4754895462199 14.9993165896687 0  220.4754889745172 14.99928442284786 0  225.4754887940272 14.99925374376289 0  230.4754888968524 14.99922430967574 0  235.4754891976636 14.99919591839907 0  240.4754896294911 14.99916840016181 0  245.4754901401245 14.99914161105094 0  250.4754906891687 14.99911542777301 0  255.4754912456869 14.99908974347972 0  260.4754917863497 14.99906446444234 0  265.4754922939833 14.99903950740561 0  270.4754927564388 14.99901479750025 0  275.4754931657034 14.99899026663494 0  280.4754935171784 14.99896585232788 0  285.4754938091091 14.9989414969706 0  290.475494042108 14.99891714753503 0  295.475494218858 14.99889275571343 0  300.4754943441297 14.99886827836132 0  305.4754944255141 14.99884367773674 0  310.4754944756083 14.9988189200075 0  5.475548567437475 22.50011761580778 0  0.4755485115735122 22.50013669354803 0  10.47554864697517 22.50009830262773 0  15.47554876438601 22.50007880035291 0  20.47554892738172 22.50005914888114 0  25.47554913990933 22.50003938712103 0  30.47554940374813 22.50001955568075 0  35.47554971920623 22.49999969814667 0  40.47555008524583 22.49997986182401 0  45.47555049927306 22.49996009840588 0  50.47555095673032 22.49994046480448 0  55.47555145055276 22.49992102425979 0  60.47555197051106 22.49990184779482 0  65.47555250244187 22.49988301607341 0  70.47555302736043 22.49986462171798 0  75.47555352046678 22.49984677215224 0  80.47555395008077 22.49982959303169 0  85.47555427660656 22.49981323230519 0  90.47555445172983 22.49979786488832 0  95.47555441822988 22.4997836977873 0  100.4755541110764 22.49977097521884 0  105.4755534609289 22.4997599827118 0  110.4755524018121 22.49975104814462 0  115.4755508856224 22.49974453585308 0  120.4755489071175 22.49974082685077 0  125.4755465437508 22.4997402732183 0  130.4755440139749 22.4997431072517 0  135.475541752845 22.49974927625135 0  140.4755404895455 22.49975816537611 0  145.475541278244 22.49976817872595 0  150.4755453687056 22.49977623227033 0  165.4755675697644 22.4997479963299 0  160.4755614294959 22.49979084216089 0  170.4755685886673 22.49969886112155 0  175.4755660992775 22.49964768390182 0  180.4755617072699 22.49959723191355 0  185.4755566175485 22.49954898297517 0  190.4755515845476 22.49950353478137 0  195.4755470141258 22.49946097856213 0  200.475543082335 22.49942115059984 0  205.4755398284198 22.49938377937617 0  210.475537217586 22.49934856423253 0  215.4755351799671 22.49931521388061 0  220.4755336333262 22.49928346290588 0  225.4755324954475 22.49925307686638 0  230.4755316903183 22.49922385186581 0  235.4755311507352 22.49919561172609 0  240.4755308189471 22.49916820435386 0  245.4755306462899 22.49914149806822 0  250.4755305923557 22.49911537822512 0  255.4755306240039 22.49908974425749 0  260.4755307143539 22.499064507148 0  265.4755308418511 22.49903958730699 0  270.475530989416 22.4990149128153 0  275.4755311436953 22.49899041798849 0  280.4755312944057 22.49896604221903 0  285.4755314337845 22.49894172904117 0  290.4755315561719 22.49891742532536 0  295.4755316578103 22.
[...]
<PointData  Vectors="v"> 
<DataArray  type="Float64"  Name="v"  NumberOfComponents="3" format="ascii">3.3598237420401977e+00 6.6674182214119391e+00 0.0000000000000000e+00  3.8273386297407272e+00 6.0411374262101694e+00 0.0000000000000000e+00  3.3155563355950881e+00 5.3401304055080301e+00 0.0000000000000000e+00  2.9517345252181024e+00 6.1215057019154573e+00 0.0000000000000000e+00  4.3705882845797381e+00 6.3044801966864101e+00 0.0000000000000000e+00  3.7826073752435247e+00 5.4903256700823793e+00 0.0000000000000000e+00  4.8034677254703997e+00 6.8734617040769841e+00 0.0000000000000000e+00  4.3248013186539938e+00 6.2253805230926238e+00 0.0000000000000000e+00  5.1260850077603024e+00 6.7471310970090599e+00 0.0000000000000000e+00  4.7560137314155382e+00 6.2648696826888388e+00 0.0000000000000000e+00  5.5568588631543587e+00 7.1012749538860547e+00 0.0000000000000000e+00  5.0763827517184197e+00 6.4571732549986791e+00 0.0000000000000000e+00  5.8517443768700526e+00 6.9888273320966023e+00 0.0000000000000000e+00  5.5044896231437583e+00 6.5489753991922699e+00 0.0000000000000000e+00  5.8243032842376223e+00 6.4644412922409948e+00 0.0000000000000000e+00  5.7962114299927068e+00 6.5082924452644706e+00 0.0000000000000000e+00  6.5998179151938787e+00 7.0273870546153550e+00 0.0000000000000000e+00  5.7652787052256436e+00 5.8670688564185047e+00 0.0000000000000000e+00  4.6656772151501471e+00 3.5505796992997034e+00 0.0000000000000000e+00  6.5370817123071587e+00 6.4550309211169639e+00 0.0000000000000000e+00  1.3082827135807273e+01 1.5385695779869540e+01 0.0000000000000000e+00  4.5990493984593375e+00 2.7630408120300993e+00 0.0000000000000000e+00  1.3612546538153591e+01 1.5035848971802066e+01 0.0000000000000000e+00  1.3011728834970505e+01 1.4245053005991291e+01 0.0000000000000000e+00  1.3867355344644245e+01 1.4130146305933657e+01 0.0000000000000000e+00  1.3536949474856186e+01 1.3751288543251038e+01 0.0000000000000000e+00  1.4190929597551294e+01 1.3273488195537913e+01 0.0000000000000000e+00  1.3787510669823432e+01 1.2791589417496246e+01 0.0000000000000000e+00  1.4643317384006899e+01 1.2632243445125617e+01 0.0000000000000000e+00  1.4106740383526748e+01 1.1956982806851025e+01 0.0000000000000000e+00  1.5239886779356992e+01 1.2202908710447121e+01 0.0000000000000000e+00  1.4554952805892560e+01 1.1311548991180430e+01 0.0000000000000000e+00  1.5921596788970573e+01 1.1866605056769938e+01 0.0000000000000000e+00  1.5147203354843136e+01 1.0847109429509112e+01 0.0000000000000000e+00  1.6625429893651209e+01 1.1708957033683740e+01 0.0000000000000000e+00  1.5824723200499553e+01 1.0656022259779672e+01 0.0000000000000000e+00  1.7288629850136719e+01 1.1417747229267484e+01 0.0000000000000000e+00  1.6524981080177401e+01 1.0425367742892034e+01 0.0000000000000000e+00  1.7856530603640845e+01 1.1030251689978627e+01 0.0000000000000000e+00  1.7184917745406896e+01 1.0179774729766008e+01 0.0000000000000000e+00  1.8290491293334782e+01 1.0436471063161651e+01 0.0000000000000000e+00  1.7750571535516766e+01 9.7861663691958363e+00 0.0000000000000000e+00  1.8576415868193553e+01 9.6626094189017060e+00 0.0000000000000000e+00  1.8183390602865650e+01 9.2329487613277621e+00 0.0000000000000000e+00  1.8717024598528692e+01 8.3704795004292905e+00 0.0000000000000000e+00  1.8469882423516346e+01 8.1575570808215829e+00 0.0000000000000000e+00  1.8731113547231217e+01 7.2727069252508132e+00 0.0000000000000000e+00  1.8612115827201333e+01 7.2471275350188931e+00 0.0000000000000000e+00  1.8658203529848663e+01 5.2500524184547661e+00 0.0000000000000000e+00  1.8631405741695207e+01 5.3544168243312180e+00 0.0000000000000000e+00  1.8531595580843156e+01 3.9981308819905967e+00 0.0000000000000000e+00  1.8563809644547977e+01 4.1783531921681512e+00 0.0000000000000000e+00  1.8399310521411827e+01 1.4836316398161993e+00 0.0000000000000000e+00  1.8448720465841959e+01 1.6737769762838857e+00 0.0000000000000000e+00  1.8281976216236970e+01 5.6955116336596812e-01 0.0000000000000000e+00  1.8326045225440343e+01 7.2903453613665570e-01 0.0000000000000000e+00  1.8210701324760002e+01 -1.8157570913508034e+00 0.0000000000000000e+00  1.8228395783412850e+01 -1.7202387553740395e+00 0.0000000000000000e+00  1.8172538623224060e+01 -1.6661822124735830e+00 0.0000000000000000e+00  1.8171210088119423e+01 -1.6340465848420864e+00 0.0000000000000000e+00  1.8163563196052063e+01 8.9326409559525521e-11 0.0000000000000000e+00  1.8164429337077813e+01 8.6010833346953210e-04 0.0000000000000000e+00  1.8163563200158610e+01 -5.3919954600044079e-19 0.0000000000000000e+00  1.1542934704893876e+01 4.5659295057356771e-03 0.0000000000000000e+00  1.8177150345489334e+01 9.9316917570394683e+00 0.0000000000000000e+00  1.8164421967208078e+01 -8.7385047173907523e-04 0.0000000000000000e+00  1.2947796184967162e+01 -9.4286195895166269e-01 0.0000000000000000e+00  1.1559230940899248e+01 -3.0474003193648951e+00 0.0000000000000000e+00  1.1085750426590568e+01 -5.9962519096511295e+00 0.0000000000000000e+00  1.2965391600536353e+01 -3.2111731076256511e+00 0.0000000000000000e+00  1.0979081023521323e+01 -6.9616636142963149e+00 0.0000000000000000e+00  1.1107839782096345e+01 -6.8067426675902789e+00 0.0000000000000000e+00  1.0055183327330059e+01 -1.0014645904219680e+01 0.0000000000000000e+00  1.1008420103072865e+01 -8.6371338368936481e+00 0.0000000000000000e+00  9.4679468175985981e+00 -1.1166196103483626e+01 0.0000000000000000e+00  1.0093273037627347e+01 -1.0294118651002179e+01 0.0000000000000000e+00  8.7595627905079052e+00 -1.2347376489235467e+01 0.0000000000000000e+00  9.5157806660033444e+00 -1.1295267848809097e+01 0.0000000000000000e+00  8.1707443088766851e+00 -1.2537739058956294e+01 0.0000000000000000e+00  8.8187456376819515e+00 -1.1665180742408186e+01 0.0000000000000000e+00  7.3921283996400655e+00 -1.2490893034404488e+01 0.0000000000000000e+00  8.2420726704262730e+00 -1.1334848756862064e+01 0.0000000000000000e+00  6.8751650901953978e+00 -1.1723602579386254e+01 0.0000000000000000e+00  7.4763162123779354e+00 -1.0960535876079764e+01 0.0000000000000000e+00  6.4820466688140197e+00 -1.0805367967388365e+01 0.0000000000000000e+00  6.9730673609114664e+00 -1.0228561030754699e+01 0.0000000000000000e+00  6.0334582625508064e+00 -9.8637945256939350e+00 0.0000000000000000e+00  6.5942176458259798e+00 -9.2042870254327127e+00 0.0000000000000000e+00  5.5942170768872375e+00 -8.9199462379736190e+00 0.0000000000000000e+00  6.1603175237518277e+00 -8.2748817271918380e+00 0.0000000000000000e+00  5.1683313274691534e+00 -8.0748523789805127e+00 0.0000000000000000e+00  5.7362776522869927e+00 -7.4500303292264549e+00 0.0000000000000000e+00  4.7204317179217457e+00 -7.3017836927204973e+00 0.0000000000000000e+00  5.3259095602765143e+00 -6.6442249852116237e+00 0.0000000000000000e+00  4.2995579620207867e+00 -6.5582503663114036e+00 0.0000000000000000e+00  4.8937236231307315e+00 -5.9414017058240383e+00 0.0000000000000000e+00  3.9165495402139889e+00 -5.8888961439498066e+00 0.0000000000000000e+00  4.4887916277934243e+00 -5.3288977477284938e+00 0.0000000000000000e+00  3.5434851449889719e+00 -5.2590617410883578e+00 0.0000000000000000e+00  4.1218083702728068e+00 -4.7140666106309697e+00 0.0000000000000000e+00  3.2036655014144522e+00 -4.6450393675594039e+00 0.0000000000000000e+00  3.7648070775185389e+00 -4.1498999695555305e+00 0.0000000000000000e+00  2.9091480143247948e+00 -4.0899116482633868e+00 0.0000000000000000e+00  3.4410274305009758e+00 -3.6627096017340914e+00 0.0000000000000000e+00  2.6281001942692384e+00 -3.5216681247859967e+00 0.0000000000000000e+00  3.1625630214000711e+00 -3.1145443051677946e+00 0.0000000000000000e+00  2.3793063428314940e+00 -3.0328800124432505e+00 0.0000000000000000e+00  2.8973465297978733e+00 -2.6741711582677596e+00 0.0000000000000000e+00  2.1581376802870293e+00 -2.4998464524370103e+00 0.0000000000000000e+00  2.6644745239871992e+00 -2.1822359048693185e+00 0.0000000000000000e+00  1.9514665526846131e+00 -2.1513976951158424e+00 0.0000000000000000e+00  2.4587283058442857e+00 -1.8557782525775730e+00 0.0000000000000000e+00  1.7506769057942169e+00 -1.6027897689592672e+00 0.0000000000000000e+00  2.2679220723211446e+00 -1.3152029940423431e+00 0.0000000000000000e+00  1.5511847801788490e+00 -1.5708815571180472e+00 0.0000000000000000e+00  2.0817806709796192e+00 -1.2861992180950064e+00 0.0000000000000000e+00  1.3349445421776509e+00 -9.1866234774226463e-01 0.0000000000000000e+00  1.8984842055252531e+00 -6.0685754485431043e-01 0.0000000000000000e+00  1.0168088743161632e+00 -1.4602538989420519e+00 0.0000000000000000e+00  1.6953778925445389e+00 -9.9857034411268419e-01 0.0000000000000000e+00  5.0494733926360236e-01 -1.2333346463959338e+00 0.0000000000000000e+00  1.3953911779914259e+00 -4.7548095969638149e-01 0.0000000000000000e+00  -6.9787066264440878e-01 -1.8339808532188390e-01 0.0000000000000000e+00  8.9079398954713596e-01 1.6001308174097033e+00 0.0000000000000000e+00  3.0455667321359150e+00 4.7946553120537825e+00 0.0000000000000000e+00  2.6383063975727667e+00 5.5101806517321021e+00 0.0000000000000000e+00  3.4086759874336137e+00 4.7906510359836707e+00 0.0000000000000000e+00  3.8738192484616949e+00 5.4136747339431004e+00 0.0000000000000000e+00  4.4129101353222069e+00 5.6203809389306922e+00 0.0000000000000000e+00  4.8397765974801938e+00 5.9797632753337364e+00 0.0000000000000000e+00  5.1545073374577530e+00 5.9105524387755821e+00 0.0000000000000000e+00  5.5758793241890645e+00 6.0750560464103902e+00 0.0000000000000000e+00  5.8599398097554305e+00 5.9184110636111615e+00 0.0000000000000000e+00  5.8205705894503819e+00 5.3022896316524015e+00 0.0000000000000000e+00  6.5840037094375914e+00 5.6748088484224999e+00 0.0000000000000000e+00  4.6374709796743367e+00 1.6321312907580388e+00 0.0000000000000000e+00  1.3038965653945811e+01 1.2970324039737987e+01 0.0000000000000000e+00  1.3553278144535566e+01 1.2421032342286063e+01 0.0000000000000000e+00  1.3794669279207367e+01 1.1483976846778367e+01 0.0000000000000000e+00  1.4104286909361777e+01 1.0644677564708351e+01 0.0000000000000000e+00  1.4542751062890295e+01 9.9649059438261141e+00 0.0000000000000000e+00  1.5124374342745215e+01 9.6464608024575842e+00 0.0000000000000000e+00  1.5790486738702340e+01 9.3815845453997611e+00 0.0000000000000000e+00  1.6479166223833406e+01 9.1966132014712212e+00 0.0000000000000000e+00  1.7127522731791540e+01 8.9446546094087331e+00 0.0000000000000000e+00  1.7681771852922374e+01 8.5893307976877455e+00 0.0000000000000000e+00  1.8104763324365003e+01 7.7331518518845641e+00 0.0000000000000000e+00  1.8382911713758464e+01 7.0371958115314985e+00 0.0000000000000000e+00  1.8519678744135192e+01 5.3276161402504352e+00 0.0000000000000000e+00  1.8536760382833844e+01 4.2775986734752189e+00 0.0000000000000000e+00  1.8472669338284756e+01 1.8447473653969886e+00 0.0000000000000000e+00  1.8364608819247412e+01 9.0055854972353178e-01 0.0000000000000000e+00  1.8260533949311494e+01 -1.5791623973233950e+00 0.0000000000000000e+00  1.8182348769713144e+01 -1.5779120067781192e+00 0.0000000000000000e+00  1.8166525130658165e+01 1.6410051778025310e-03 0.0000000000000000e+00  1.8181394459939700e+01 9.8729320791857305e+00 0.0000000000000000e+00  1.8166511467001154e+01 -1.7683779870372800e-03 0.0000000000000000e+00  1.8237890134729383e+01 6.8782351782981044e+00 0.0000000000000000e+00  1.1610630709426555e+01 -5.3118648049894217e+00 0.0000000000000000e+00  1.3007909020896763e+01 -4.0196975092119587e+00 0.0000000000000000e+00  1.1150813345796779e+01 -8.4896165596308162e+00 0.0000000000000000e+00  1.1055131227902393e+01 -8.9260334320393877e+00 0.0000000000000000e+00  1.0147566607012870e+01 -1.0432974003213802e+01 0.0000000000000000e+00  9.5781574257004802e+00 -1.0625777851766793e+01 0.0000000000000000e+00  8.8912791207759057e+00 -1.0476204816764149e+01 0.0000000000000000e+00  8.3254528298791008e+00 -9.8185199151462630e+00 0.0000000000000000e+00  7.5712132072783165e+00 -9.4809569049819764e+00 0.0000000000000000e+00  7.0802230983048817e+00 -8.6437389552887947e+00 0.0000000000000000e+00  6.7143080302109501e+00 -7.6318220826948835e+00 0.0000000000000000e+00  6.2937449527225846e+00 -6.8222829124493582e+00 0.0000000000000000e+00  5.8836697055003384e+00 -6.0372841051354698e+00 0.0000000000000000e+00  5.4877206073561027e+00 -5.3018059583437864e+00 0.0000000000000000e+00  5.0701850322223816e+00 -4.7303909637913231e+00 0.0000000000000000e+00  4.6801261091360056e+00 -4.1725907671618332e+00 0.0000000000000000e+00  4.3281210565089507e+00 -3.6232934550471634e+00 0.0000000000000000e+00  3.9860073327603596e+00 -3.1859616188154720e+00 0.0000000000000000e+00  3.6770352988795754e+00 -2.7056255388330355e+00 0.0000000000000000e+00  3.4131602645348686e+00 -2.2850388316072028e+00 0.0000000000000000e+00  3.1622949921755930e+00 -1.8412941053829999e+00 0.0000000000000000e+00  2.9433768004399301e+00 -1.5556105816456112e+00 0.0000000000000000e+00  2.7513677950239734e+00 -1.0367153641591194e+00 0.0000000000000000e+00  2.5736397851032953e+00 -1.0153454125273049e+00 0.0000000000000000e+00  2.4006393892238647e+00 -3.3846471936831296e-01 0.0000000000000000e+00  2.2292226097203471e+00 -7.0294304929508966e-01 0.0000000000000000e+00  2.0390031171237109e+00 -3.0078007034608601e-02 0.0000000000000000e+00  1.7497813469742485e+00 2.3472700654707719e+00 0.0000000000000000e+00  2.9498134067334609e+00 4.1843310852140441e+00 0.0000000000000000e+00  2.5785379559811044e+00 4.9526130411536968e+00 0.0000000000000000e+00  3.3560001419865921e+00 4.2474677223252968e+00 0.0000000000000000e+00  3.7165207605498578e+00 4.7187228266452248e+00 0.0000000000000000e+00  4.1772472783679087e+00 4.8162498305714934e+00 0.0000000000000000e+00  4.7094523920141160e+00 5.3456811701577642e+00 0.0000000000000000e+00  5.1269516640237418e+00 5.4464148920862243e+00 0.0000000000000000e+00  5.4299060048860435e+00 5.4526764421806950e+00 0.0000000000000000e+00  5.8371530975624397e+00 5.5033076147125159e+00 0.0000000000000000e+00  6.1053561600826640e+00 5.3730948608884557e+00 0.0000000000000000e+00  6.0494918515356808e+00 4.5412378997440008e+00 0.0000000000000000e+00  6.7970443521180997e+00 4.5636432594874057e+00 0.0000000000000000e+00  4.8329100111603935e+00 3.8330905019996814e-01 0.0000000000000000e+00  1.3212081923549549e+01 1.1665372549832849e+01 0.0000000000000000e+00  1.3705712510636934e+01 1.1134012779452730e+01 0.0000000000000000e+00  1.3930069543735497e+01 1.0192818142274238e+01 0.0000000000000000e+00  1.4222231569184176e+01 9.3206033588800210e+00 0.0000000000000000e+00  1.4641454751369720e+01 8.7888839517598267e+00 0.0000000000000000e+00  1.5201335224870130e+01 8.3987489580253296e+00 0.0000000000000000e+00  1.5843540562810322e+01 8.1813246514470084e+00 0.0000000000000000e+00  1.6506082752407533e+01 7.9904925067429318e+00 0.0000000000000000e+00  1.7126920075166758e+01 7.7762746998555556e+00 0.0000000000000000e+00  1.7653768165753327e+01 7.1168034449015156e+00 0.0000000000000000e+00  1.8049801366983488e+01 6.6351473065919118e+00 0.0000000000000000e+00  1.8304417135024092e+01 5.1360330112560710e+00 0.0000000000000000e+00  1.8421420693385517e+01 4.2584042768280836e+00 0.0000000000000000e+00  1.8427596560208368e+01 1.9447228519765476e+00 0.0000000000000000e+00  1.8359896546645135e+01 1.0501775553984452e+00 0.0000000000000000e+00  1.8266802903778892e+01 -1.4322582920619993e+00 0.0000000000000000e+00  1.8185124048825500e+01 -1.5095532805255298e+00 0.0000000000000000e+00  1.8169796998351877e+01 2.3476841239245833e-03 0.0000000000000000e+00  1.8175875214822781e+01 9.8207391390054077e+00 0.0000000000000000e+00  1.8169784429186834e+01 -2.5586221637958480e-03 0.0000000000000000e+00  1.8231519555812831e+01 6.7843088509529572e+00 0.0000000000000000e+00  1.8284621013005509e+01 4.6428757287114024e+00 0.0000000000000000e+00  1.1638594010494138e+01 -6.1037177109774028e+00 0.0000000000000000e+00  1.3022693299289308e+01 -5.7053322581844998e+00 0.0000000000000000e+00  1.1167828405688775e+01 -8.7868926746198639e+00 0.0000000000000000e+00  1.1080435802235463e+01 -9.0813744202773261e+00 0.0000000000000000e+00  1.0185219283472629e+01 -9.7816394226845453e+00 0.0000000000000000e+00  9.6294965616189803e+00 -9.4575721664598706e+00 0.0000000000000000e+00  8.9579288892422113e+00 -8.9820009135598653e+00 0.0000000000000000e+00  8.4077368123852647e+00 -8.3625511015717429e+00 0.0000000000000000e+00  7.6700130870115828e+00 -7.9206311851772613e+00 0.0000000000000000e+00  7.1961960948685073e+00 -7.0970443207831835e+00 0.0000000000000000e+00  6.8480713033001663e+00 -6.2060570440073946e+00 0.0000000000000000e+00  6.4461170592739681e+00 -5.4374022985960915e+00 0.0000000000000000e+00  6.0555144491626152e+00 -4.7236866013266470e+00 0.0000000000000000e+00  5.6796445669623461e+00 -4.1202361395034757e+00 0.0000000000000000e+00  5.2826493915313515e+00 -3.6038429250531250e+00 0.0000000000000000e+00  4.9133919337230507e+00 -3.1117020990430060e+00 0.0000000000000000e+00  4.5821616690495528e+00 -2.6891343561953929e+00 0.0000000000000000e+00  4.2606702934706346e+00 -2.2582220139867637e+00 0.0000000000000000e+00  3.9719319250302152e+00 -1.9050896249388323e+00 0.0000000000000000e+00  3.7278712179451259e+00 -1.4802423258177304e+00 0.0000000000000000e+00  3.4960273853645973e+00 -1.2423058282738673e+00 0.0000000000000000e+00  3.2956864114810780e+00 -7.6269194123188144e-01 0.0000000000000000e+00  3.1210104993500565e+00 -7.6309670851506772e-01 0.0000000000000000e+00  2.9605146816748538e+00 -9.1015997014941896e-02 0.0000000000000000e+00  2.8025311728262685e+00 -4.6029795040682220e-01 0.0000000000000000e+00  2.6480716382051077e+00 2.4625326736240316e-01 0.0000000000000000e+00  2.4683580649788777e+00 2.7659920595551561e+00 0.0000000000000000e+00  3.1250257490528091e+00 3.6281069335713152e+00 0.0000000000000000e+00  2.7793470831746485e+00 4.4332062396852345e+00 0.0000000000000000e+00  3.4951260146360448e+00 3.6397278034052190e+00 0.0000000000000000e+00  3.8987667264201269e+00 4.1806316183866894e+00 0.0000000000000000e+00  4.2550958640254510e+00 4.1295521829088377e+00 0.0000000000000000e+00  4.7089977255023374e+00 4.5539838677745088e+00 0.0000000000000000e+00  5.2312232203516000e+00 4.8293314731694821e+00 0.0000000000000000e+00  5.6351343825791789e+00 5.0098749602182577e+00 0.0000000000000000e+00  5.9210039463828918e+00 4.9063400896587286e+00 0.0000000000000000e+00  6.3082357841572057e+00 4.9863311702580342e+00 0.0000000000000000e+00  6.5547660728850516e+00 4.6405406687271293e+00 0.0000000000000000e+00  6.4772980906065634e+00 3.4573869612449535e+00 0.0000000000000000e+00  7.2041223283675437e+00 3.3458479129240457e+00 0.0000000000000000e+00  5.2159305691127260e+00 -8.8260746704219140e-01 0.0000000000000000e+00  1.3565580577125822e+01 1.0413431467122415e+01 0.0000000000000000e+00  1.4034048035546752e+01 9.8708607654176639e+00 0.0000000000000000e+00  1.4238458705238804e+01 8.8976590680179477e+00 0.0000000000000000e+00  1.4509234611154785e+01 8.1772605506645064e+00 0.0000000000000000e+00  1.4903755149145162e+01 7.5799411589528622e+00 0.0000000000000000e+00  1.5433465643396291e+01 7.2421949438348889e+00 0.0000000000000000e+00  1.6040391386709025e+01 7.0245013324598071e+00 0.0000000000000000e+00  1.6662875090579590e+01 6.8754561960183285e+00 0.0000000000000000e+00  1.7239828024494102e+01 6.3588573259461523e+00 0.0000000000000000e+00  1.7720274359890478e+01 6.0730065070526145e+00 0.0000000000000000e+00  1.8070792349711112e+01 4.7858592506362561e+00 0.0000000000000000e+00  1.8281647648813163e+01 4.1077387997126635e+00 0.0000000000000000e+00  1.8363926095117250e+01 1.9575341136151927e+00 0.0000000000000000e+00  1.8343877280910814e+01 1.1546681581146490e+00 0.0000000000000000e+00  1.8273488605582507e+01 -1.2903202172715142e+00 0.0000000000000000e+00  1.8191996986384019e+01 -1.4341348298035748e+00 0.0000000000000000e+00  1.8174118326339475e+01 2.9769621085713001e-03 0.0000000000000000e+00  1.8176364579064536e+01 9.8004227576648972e+00 0.0000000000000000e+00  1.8174106334071237e+01 -3.2573696899690524e-03 0.0000000000000000e+00  1.8190005315836100e+01 6.7020417006341528e+00 0.0000000000000000e+00  1.8236017212423111e+01 4.5675256