<?xml version="1.0"?>
<VTKFile type="UnstructuredGrid"  version="0.1"  >
<UnstructuredGrid>
<Piece  NumberOfPoints="1933" NumberOfCells="3640">
<Points>
<DataArray  type="Float64"  NumberOfComponents="3"  format="ascii">-0.2940062243255369 0.000809166181343241 0  4.705993779513111 0.0007774954584483392 0  4.706041311580396 7.500777521001769 0  -0.2939587052160777 7.500809168441933 0  9.705993778704071 0.0007457941502469561 0  9.706041346530128 7.500745829588536 0  14.70599378953386 0.0007140326993677814 0  14.70604141111844 7.500714072272049 0  19.70599383340735 0.0006821980088075402 0  19.7060415174668 7.500682239250771 0  24.70599393253446 0.0006502875764020067 0  24.70604167850667 7.500650329587475 0  29.70599410845904 0.0006183058825742712 0  29.70604190774124 7.500618348540468 0  34.70599438185067 0.000586262152347699 0  34.70604221907532 7.500586305735131 0  39.70599477285033 0.0005541690332433591 0  39.70604262679466 7.500554214038728 0  44.705995301648 0.0005220419079978795 0  44.70604314567424 7.500522088973208 0  49.70599598915233 0.0004898986662061104 0  49.70604379117499 7.50048994853999 0  54.70599685769875 0.000457759830574353 0  54.70604457969325 7.500457813376337 0  59.70599793178485 0.0004256489852435268 0  59.70604552883621 7.500425707202752 0  64.7059992388424 0.0003935934939579684 0  64.70604665770013 7.500393657555518 0  69.70600081006349 0.0003616255310954754 0  69.70604798713036 7.500361696830692 0  74.70600268130643 0.0003297834844767744 0  74.7060495399367 7.500329863699776 0  79.70600489410531 0.0002981138314733171 0  79.70605134102566 7.500298204997525 0  84.70600749680762 0.0002666736469126872 0  84.70605341739105 7.500266778235805 0  89.70601054585391 0.0002355339836224297 0  89.70605579786772 7.500235654971211 0  94.7060141071922 0.0002047844915597801 0  94.70605851250367 7.500204925361229 0  99.70601825775958 0.0001745398378403048 0  99.70606159132143 7.500174704399679 0  104.7060230868421 0.0001449488054510249 0  104.7060650621291 7.500145140549394 0  109.7060286968498 0.0001162074646637348 0  109.7060689468903 7.500116427813421 0  114.7060352024656 8.857866809786519e-05 0  114.7060732560153 7.50008882272503 0  119.7060427259038 6.242155939567215e-05 0  119.7060779798895 7.500062668269439 0  124.7060513834479 3.823722197845295e-05 0  124.7060830773631 7.500038427226996 0  129.7060612530555 1.674072966845473e-05 0  129.7060884626939 7.500016727351375 0  134.7060723014831 -1.023242546334451e-06 0  134.7060939978985 7.49999841886611 0  139.706084225216 -1.349373203222649e-05 0  139.7060995126214 7.499984638313402 0  144.7060961060049 -1.830106719323734e-05 0  144.7061049144238 7.499976859841055 0  149.706105652248 -1.18934752650432e-05 0  149.7061105659387 7.499976920123832 0  159.7061073738537 4.730011379929941e-19 0  164.7060575045876 -6.135547520509694e-05 0  164.7060981543076 7.499930298820072 0  159.7061136132756 7.499979203284826 0  169.7060273129457 -0.0001174082234398429 0  169.7060822826766 7.49987841771984 0  174.7060081964124 -0.0001697149221326931 0  174.7060687101424 7.4998279411348 0  179.7059956939823 -0.0002188945867343126 0  179.7060578098285 7.499779707630088 0  184.7059873197733 -0.0002654641502440606 0  184.7060492967327 7.499733668914769 0  189.7059816229706 -0.0003098856948102938 0  189.7060427429879 7.499689558914731 0  194.7059777233483 -0.0003525480474665528 0  194.7060377417765 7.49964708558724 0  199.7059750664221 -0.0003937652341734416 0  199.7060339521262 7.499605986704482 0  204.7059732896637 -0.0004337865259326246 0  204.7060311022956 7.499566041812109 0  209.7059721474218 -0.0004728093918300512 0  209.7060289802229 7.499527069860924 0  214.7059714676871 -0.0005109913145317855 0  214.7060274215663 7.499488922919975 0  219.7059711264953 -0.0005484593059062816 0  219.7060262989256 7.49945147965532 0  224.7059710323049 -0.0005853171657386699 0  224.7060255131356 7.499414639723513 0  229.705971116154 -0.0006216508963331068 0  229.7060249865605 7.499378319281401 0  234.7059713252528 -0.0006575327207179562 0  234.7060246580371 7.499342447492334 0  239.7059716186779 -0.0006930240799901576 0  239.7060244790918 7.49930696383139 0  244.705971964397 -0.0007281778957200866 0  244.7060244111079 7.499271816001078 0  249.705972337157 -0.0007630403058178435 0  249.7060244232001 7.499236958303136 0  254.7059727169608 -0.0007976520228569041 0  254.7060244906136 7.499202350347592 0  259.7059730879521 -0.0008320494205460093 0  259.7060245935105 7.499167956010866 0  264.7059734376069 -0.0008662654227591316 0  264.7060247160553 7.499133742578755 0  269.7059737561549 -0.0009003302461365756 0  269.7060248457288 7.499099680029597 0  274.7059740362087 -0.0009342720276812267 0  274.7060249728164 7.499065740429918 0  279.705974272574 -0.0009681173483717361 0  279.7060250900468 7.49903189743238 0  284.705974462259 -0.001001891635969079 0  284.7060251923335 7.498998125887673 0  289.7059746046976 -0.001035619383140382 0  289.7060252766066 7.498964401613847 0  294.7059747022229 -0.0010693240272875 0  294.7060253416928 7.49893070141501 0  299.7059747608021 -0.001103027155265983 0  299.706025388223 7.498897003514188 0  304.7059747909515 -0.00113674630081219 0  304.7060254185877 7.498863288660194 0  309.7059748084514 -0.001170489694879138 0  309.7060254371515 7.498829542240331 0  4.706088725709646 15.00077758870108 0  -0.2939112948896109 15.00080917748974 0  9.706088767092826 15.00074592238472 0  14.70608884056422 15.00071417385102 0  19.70608895477911 15.000682342573 0  24.70608911753793 15.00065043241777 0  29.70608933657985 15.00061845107735 0  34.70608961987978 15.00058640938772 0  39.70608997573393 15.00055432081572 0  44.70609041276584 15.00052220119565 0  49.70609093990713 15.00049006872429 0  54.70609156636326 15.00045794420566 0  59.70609230155667 15.00042585154172 0  64.70609315502793 15.00039381848156 0  69.70609413626633 15.00036187766114 0  74.70609525443487 15.00033006799107 0  79.70609651794135 15.00029843647947 0  84.7060979337984 15.00026704061453 0  89.70609950669908 15.00023595147774 0  94.7061012377268 15.00020525781569 0  99.70610312262367 15.00017507136018 0  104.7061051495805 15.00014553374092 0  109.706107296637 15.0001168253383 0  114.7061095290697 15.00008917627605 0  119.7061117977574 15.00006287922267 0  124.7061140406952 15.00003830224247 0  129.7061161919284 15.00001589648252 0  134.7061182054859 14.99999618548133 0  139.7061201058892 14.99997970436113 0  144.7061220771455 14.99996681186282 0  149.7061245789426 14.99995717118416 0  164.7061253371068 14.99990847586361 0  159.7061283825506 14.99994800520273 0  169.7061199220377 14.99986461991409 0  174.7061134707278 14.99981931491189 0  179.706107039278 14.99977424297253 0  184.7061011740538 14.99973013070564 0  189.7060960867385 14.99968720942952 0  194.7060918082297 14.99964548412476 0  199.7060882831893 14.99960486713398 0  204.7060854220208 14.9995652407472 0  209.7060831274594 14.99952648493322 0  214.7060813070945 14.99948848850065 0  219.7060798784579 14.99945115262448 0  224.7060787703752 14.99941439103351 0  229.7060779225694 14.99937812888174 0  234.7060772845499 14.99934230122464 0  239.7060768142969 14.99930685149478 0  244.7060764769789 14.99927173012475 0  249.706076243808 14.99923689335534 0  254.706076091056 14.9992023022214 0  259.706075999231 14.99916792169154 0  264.706075952398 14.99913371993575 0  269.7060759376221 14.99909966769859 0  274.706075944508 14.99906573776205 0  279.7060759648191 14.99903190448933 0  284.706075992155 14.99899814344932 0  289.7060760216624 14.99896443112591 0  294.706076049792 14.99893074471058 0  299.7060760741113 14.99889706193169 0  304.7060760932637 14.99886336071865 0  309.7060761072553 14.99882961802829 0  4.706135978512168 22.50077774366447 0  -0.293864042726693 22.50080926389593 0  9.706136015709484 22.5007461091864 0  14.70613607847885 22.50071437244901 0  19.70613617308491 22.50068254352158 0  24.70613630400663 22.50065063263459 0  29.7061364748808 22.50061865113958 0  34.70613668898906 22.50058661190379 0  39.70613694945231 22.50055452948925 0  44.70613725924785 22.50052242031121 0  49.70613762112036 22.50049030287887 0  54.70613803741917 22.50045819817221 0  59.70613850987296 22.50042613018985 0  64.70613903929845 22.50039412669913 0  69.70613962522837 22.50036222022353 0  74.70614026544193 22.5003304493145 0  79.70614095537717 22.50029886016569 0  84.70614168741056 22.50026750864168 0  89.70614245000296 22.50023646280085 0  94.70614322674352 22.50020580598828 0  99.70614399538184 22.50017564054058 0  104.7061447270526 22.5001460920468 0  109.7061453860834 22.50011731388621 0  114.7061459310737 22.50008949129446 0  119.7061463183651 22.50006284329007 0  124.7061465095628 22.50003761906162 0  129.7061464852131 22.50001408230644 0  134.7061462664633 22.49999247174144 0  139.7061459438721 22.49997291798955 0  144.7061457037289 22.49995528829496 0  149.7061458201214 22.49993893782327 0  164.7061518323643 22.49988457968684 0  159.7061488523526 22.49991865249684 0  169.7061525169021 22.49984650557581 0  174.7061514670816 22.49980614041252 0  179.7061493411657 22.49976481428362 0  184.7061466945329 22.49972339339192 0  189.7061439124948 22.49968236417969 0  194.7061412301853 22.49964196218765 0  199.7061387742163 22.49960227457805 0  204.7061366004426 22.49956330717754 0  209.706134721817 22.49952502455741 0  214.70613312707 22.49948737274219 0  219.7061317925333 22.49945029152639 0  224.7061306893002 22.49941372082933 0  229.7061297873702 22.49937760373101 0  234.7061290579227 22.49934188770961 0  239.7061284744555 22.4993065249363 0  244.7061280132607 22.49927147209778 0  249.7061276535214 22.49923669000177 0  254.7061273772095 22.49920214309869 0  259.7061271688775 22.49916779898895 0  264.7061270154112 22.49913362794771 0  269.7061269057671 22.49909960248274 0  274.7061268307136 22.49906569692984 0  279.7061267825775 22.49903188708588 0  284.7061267550009 22.49899814987238 0  289.7061267427076 22.49896446300976 0  294.7061267412892 22.49893080465169 0
[...]
<PointData  Vectors="v"> 
<DataArray  type="Float64"  Name="v"  NumberOfComponents="3" format="ascii">-1.1009456021133428e+00 -7.6626297126879876e+00 0.0000000000000000e+00  -1.6582073302232958e+00 -7.1736825198787599e+00 0.0000000000000000e+00  -1.5280166082921367e+00 -6.3380452593523309e+00 0.0000000000000000e+00  -1.0979972119615109e+00 -7.0178557807307813e+00 0.0000000000000000e+00  -2.3520920528741871e+00 -7.7528949173095123e+00 0.0000000000000000e+00  -2.0848730554112804e+00 -6.7130726550023896e+00 0.0000000000000000e+00  -2.9733273897987149e+00 -8.7744991920474273e+00 0.0000000000000000e+00  -2.7775275365566365e+00 -7.8442327163303363e+00 0.0000000000000000e+00  -3.5169838104264786e+00 -9.0866557143673941e+00 0.0000000000000000e+00  -3.3967576379199453e+00 -8.2734913816443836e+00 0.0000000000000000e+00  -4.1982274815775202e+00 -9.9603821628411993e+00 0.0000000000000000e+00  -3.9376443699700561e+00 -8.9415655441846109e+00 0.0000000000000000e+00  -4.7373475221638630e+00 -1.0314474024386827e+01 0.0000000000000000e+00  -4.6151783956717027e+00 -9.5094410695198661e+00 0.0000000000000000e+00  -4.8163379519323204e+00 -1.0051186695785040e+01 0.0000000000000000e+00  -5.1497743660079971e+00 -9.9370897206557274e+00 0.0000000000000000e+00  -5.9002411540725204e+00 -1.1147171218144928e+01 0.0000000000000000e+00  -5.2234841189689103e+00 -9.5264740130827175e+00 0.0000000000000000e+00  -2.7946071372664134e+00 -5.9837641329536027e+00 0.0000000000000000e+00  -6.3011697983720829e+00 -1.0647724932446554e+01 0.0000000000000000e+00  -1.3915753529828487e+01 -2.1867009684653691e+01 0.0000000000000000e+00  -3.1885739679275376e+00 -5.1922784975915866e+00 0.0000000000000000e+00  -1.3595918181977019e+01 -2.0093074699925939e+01 0.0000000000000000e+00  -1.4302256919724389e+01 -2.0579972472663691e+01 0.0000000000000000e+00  -1.3673031065284059e+01 -1.8773635722584228e+01 0.0000000000000000e+00  -1.3973887401009152e+01 -1.8666132173503023e+01 0.0000000000000000e+00  -1.4204070571334354e+01 -1.8106698211656955e+01 0.0000000000000000e+00  -1.4041174324408768e+01 -1.7319668534679828e+01 0.0000000000000000e+00  -1.5144180848226387e+01 -1.8073936940216868e+01 0.0000000000000000e+00  -1.4561020533192854e+01 -1.6674692307982788e+01 0.0000000000000000e+00  -1.6394330891047414e+01 -1.8465493286698479e+01 0.0000000000000000e+00  -1.5488090663560847e+01 -1.6602253553099686e+01 0.0000000000000000e+00  -1.7860875041255021e+01 -1.9074309878666757e+01 0.0000000000000000e+00  -1.6723721562755337e+01 -1.6887926658452663e+01 0.0000000000000000e+00  -1.9453228025273091e+01 -1.9961379607196967e+01 0.0000000000000000e+00  -1.8174420908156357e+01 -1.7587553417655517e+01 0.0000000000000000e+00  -2.1080919579691553e+01 -2.0700505166052359e+01 0.0000000000000000e+00  -1.9749066468583695e+01 -1.8274492562335123e+01 0.0000000000000000e+00  -2.2667232931143367e+01 -2.1325178176447878e+01 0.0000000000000000e+00  -2.1357904956335652e+01 -1.8962651734916889e+01 0.0000000000000000e+00  -2.4148591743053714e+01 -2.1673255907344807e+01 0.0000000000000000e+00  -2.2924030552075831e+01 -1.9468947002011653e+01 0.0000000000000000e+00  -2.5469564799066060e+01 -2.1708663736985073e+01 0.0000000000000000e+00  -2.4383953947866072e+01 -1.9745867948003511e+01 0.0000000000000000e+00  -2.6594390063385028e+01 -2.0979652544849163e+01 0.0000000000000000e+00  -2.5682065700749977e+01 -1.9311533351257943e+01 0.0000000000000000e+00  -2.7509453145715351e+01 -2.0260849234465244e+01 0.0000000000000000e+00  -2.6784057677870546e+01 -1.8908861294181627e+01 0.0000000000000000e+00  -2.8209054164033887e+01 -1.8112965195096471e+01 0.0000000000000000e+00  -2.7673838399390771e+01 -1.7082955769421428e+01 0.0000000000000000e+00  -2.8715217991617425e+01 -1.6442957731171290e+01 0.0000000000000000e+00  -2.8349953193425705e+01 -1.5706093450732958e+01 0.0000000000000000e+00  -2.9046656780102861e+01 -1.2761643647848247e+01 0.0000000000000000e+00  -2.8828784255305976e+01 -1.2283187177356416e+01 0.0000000000000000e+00  -2.9247478454263788e+01 -1.0101698315570937e+01 0.0000000000000000e+00  -2.9137530387252831e+01 -9.8248693197292845e+00 0.0000000000000000e+00  -2.9342436129466385e+01 -5.2145778097336626e+00 0.0000000000000000e+00  -2.9308936743990433e+01 -5.0887215965406352e+00 0.0000000000000000e+00  -2.9381812386884949e+01 -1.2521103418897939e+00 0.0000000000000000e+00  -2.9383432811861464e+01 -1.2200398691713763e+00 0.0000000000000000e+00  -2.9389262613583753e+01 8.7631268740015245e-10 0.0000000000000000e+00  -2.9389940990844092e+01 -7.0930272450923123e-04 0.0000000000000000e+00  -2.9389262614623544e+01 4.1363623994686316e-19 0.0000000000000000e+00  -2.0123859594536750e+01 7.0948694600500781e+00 0.0000000000000000e+00  -2.9383906434041776e+01 -6.7776352482838522e+00 0.0000000000000000e+00  -2.9389929055472624e+01 6.7739824293612473e-04 0.0000000000000000e+00  -2.0748556449089502e+01 1.3371661590534849e+01 0.0000000000000000e+00  -2.0151735359347295e+01 1.4348813918982255e+01 0.0000000000000000e+00  -1.7729944688620780e+01 2.0811864988917677e+01 0.0000000000000000e+00  -2.0814052980965783e+01 1.6314624914963918e+01 0.0000000000000000e+00  -1.6952664625894229e+01 2.2292837567483495e+01 0.0000000000000000e+00  -1.7833724002055728e+01 2.1161725506359460e+01 0.0000000000000000e+00  -1.5272957433380252e+01 2.5070606947859968e+01 0.0000000000000000e+00  -1.7094005983001558e+01 2.2584028505439328e+01 0.0000000000000000e+00  -1.4061433768176158e+01 2.5284471009812872e+01 0.0000000000000000e+00  -1.5451317438209186e+01 2.3500900098178292e+01 0.0000000000000000e+00  -1.2766827636318453e+01 2.5364074492584948e+01 0.0000000000000000e+00  -1.4277074007518447e+01 2.3454615082198615e+01 0.0000000000000000e+00  -1.1651265275849619e+01 2.4312158601867001e+01 0.0000000000000000e+00  -1.3018944890303798e+01 2.2671764842006382e+01 0.0000000000000000e+00  -1.0323509738677449e+01 2.3144296458154141e+01 0.0000000000000000e+00  -1.1939476309098850e+01 2.1184925690813106e+01 0.0000000000000000e+00  -9.3680122807102535e+00 2.1303134633034620e+01 0.0000000000000000e+00  -1.0647625182729307e+01 1.9901919569243805e+01 0.0000000000000000e+00  -8.5848509613138990e+00 1.9447941540165885e+01 0.0000000000000000e+00  -9.7275628350739325e+00 1.8305021285247793e+01 0.0000000000000000e+00  -7.7330822230952547e+00 1.7754942206219781e+01 0.0000000000000000e+00  -8.9794643334965052e+00 1.6508847290449136e+01 0.0000000000000000e+00  -6.9263845737428742e+00 1.6155718476434593e+01 0.0000000000000000e+00  -8.1625537697865873e+00 1.4976852620175755e+01 0.0000000000000000e+00  -6.1686081646977495e+00 1.4740089619704094e+01 0.0000000000000000e+00  -7.3902984668403207e+00 1.3634419016252878e+01 0.0000000000000000e+00  -5.4232119200166249e+00 1.3444737563055510e+01 0.0000000000000000e+00  -6.6665993568930677e+00 1.2357294053082480e+01 0.0000000000000000e+00  -4.7450515247579297e+00 1.2204086725467912e+01 0.0000000000000000e+00  -5.9549746904228842e+00 1.1217164922379478e+01 0.0000000000000000e+00  -4.1418906766908208e+00 1.1065842402356489e+01 0.0000000000000000e+00  -5.3101962752128014e+00 1.0191136677771066e+01 0.0000000000000000e+00  -3.5762496391916776e+00 9.9773651075708383e+00 0.0000000000000000e+00  -4.7400079629591847e+00 9.1586475696361678e+00 0.0000000000000000e+00  -3.0734451889057195e+00 8.9147499115630247e+00 0.0000000000000000e+00  -4.2070580676308671e+00 8.1899071334200091e+00 0.0000000000000000e+00  -2.6424951894100879e+00 7.9171815644010417e+00 0.0000000000000000e+00  -3.7364786762300168e+00 7.2999341341551540e+00 0.0000000000000000e+00  -2.2473478532368838e+00 6.9131968130557748e+00 0.0000000000000000e+00  -3.3375298223960521e+00 6.3492036864858035e+00 0.0000000000000000e+00  -1.9064183369759446e+00 5.9783658965617965e+00 0.0000000000000000e+00  -2.9738202829491041e+00 5.4956512541741347e+00 0.0000000000000000e+00  -1.6192557203646072e+00 5.0255249581592700e+00 0.0000000000000000e+00  -2.6643820821026463e+00 4.6227662236646152e+00 0.0000000000000000e+00  -1.3665715527570363e+00 4.2106617874529517e+00 0.0000000000000000e+00  -2.4076656625269313e+00 3.8600954425693605e+00 0.0000000000000000e+00  -1.1483434022423797e+00 3.2719863888538838e+00 0.0000000000000000e+00  -2.1863524382187673e+00 2.9715347827945724e+00 0.0000000000000000e+00  -9.5737312261580065e-01 2.7343167008388445e+00 0.0000000000000000e+00  -1.9970764495993607e+00 2.4767461937870130e+00 0.0000000000000000e+00  -7.8109083172780702e-01 1.7841952987555405e+00 0.0000000000000000e+00  -1.8382409615185051e+00 1.5446894513935003e+00 0.0000000000000000e+00  -5.4330196490344507e-01 1.7275601523359787e+00 0.0000000000000000e+00  -1.6880094734386284e+00 1.4018272032943964e+00 0.0000000000000000e+00  -1.8275854082599058e-01 1.2027538385706174e+00 0.0000000000000000e+00  -1.4864168105313258e+00 6.8176503291431689e-01 0.0000000000000000e+00  6.6156792064871350e-01 7.4520152499340719e-03 0.0000000000000000e+00  -1.1403772999039483e+00 -1.2176578695108493e+00 0.0000000000000000e+00  -1.8055786781121319e+00 -5.6926213071833898e+00 0.0000000000000000e+00  -1.3316794259859264e+00 -6.3079493604307535e+00 0.0000000000000000e+00  -2.2359435012125628e+00 -5.8778751666520312e+00 0.0000000000000000e+00  -2.7922880107628933e+00 -6.8061369940344907e+00 0.0000000000000000e+00  -3.4831772275936035e+00 -7.3463081419057374e+00 0.0000000000000000e+00  -4.0992390147283135e+00 -8.1326731978643103e+00 0.0000000000000000e+00  -4.6354868643531404e+00 -8.4966098506602954e+00 0.0000000000000000e+00  -5.3067555603105099e+00 -9.1397320985884054e+00 0.0000000000000000e+00  -5.8333192788354644e+00 -9.4211474014575565e+00 0.0000000000000000e+00  -5.8975313995935377e+00 -9.0375610293159916e+00 0.0000000000000000e+00  -6.9642152007619407e+00 -9.8681112985788033e+00 0.0000000000000000e+00  -3.8398597869038067e+00 -3.9163368321372434e+00 0.0000000000000000e+00  -1.4942822021410704e+01 -1.9165041938523192e+01 0.0000000000000000e+00  -1.4603303249535822e+01 -1.7226543191699513e+01 0.0000000000000000e+00  -1.4656976398359364e+01 -1.5903889898072434e+01 0.0000000000000000e+00  -1.5160549599624769e+01 -1.5223081077826672e+01 0.0000000000000000e+00  -1.6067723094963842e+01 -1.5047982039578045e+01 0.0000000000000000e+00  -1.7279935961382911e+01 -1.5426474781947118e+01 0.0000000000000000e+00  -1.8704189195051946e+01 -1.5929938600788077e+01 0.0000000000000000e+00  -2.0248815088912544e+01 -1.6568889491575067e+01 0.0000000000000000e+00  -2.1824200802003535e+01 -1.7140293892782768e+01 0.0000000000000000e+00  -2.3354243118757832e+01 -1.7579237487772559e+01 0.0000000000000000e+00  -2.4774536414328821e+01 -1.7388790258637481e+01 0.0000000000000000e+00  -2.6030395909694615e+01 -1.7282088815601579e+01 0.0000000000000000e+00  -2.7087479479627536e+01 -1.5775010226409169e+01 0.0000000000000000e+00  -2.7930673551990949e+01 -1.4721996036853799e+01 0.0000000000000000e+00  -2.8557112697009323e+01 -1.1591177910906799e+01 0.0000000000000000e+00  -2.8988126570404646e+01 -9.3960025338460920e+00 0.0000000000000000e+00  -2.9243897774081738e+01 -4.8529456966441629e+00 0.0000000000000000e+00  -2.9371381079448575e+01 -1.1484740489201022e+00 0.0000000000000000e+00  -2.9391565383895411e+01 -1.3511373542075557e-03 0.0000000000000000e+00  -2.9362951981518005e+01 -6.8400542221695062e+00 0.0000000000000000e+00  -2.9391543613870891e+01 1.3313629414920007e-03 0.0000000000000000e+00  -2.9301285456283104e+01 5.1366355896361104e-01 0.0000000000000000e+00  -2.0103350388457638e+01 1.7335108367188148e+01 0.0000000000000000e+00  -2.0810182049193500e+01 1.6716884269361312e+01 0.0000000000000000e+00  -1.7872329656969669e+01 2.1500882242300378e+01 0.0000000000000000e+00  -1.7175640234018662e+01 2.1059915712007296e+01 0.0000000000000000e+00  -1.5572484572129955e+01 2.1717681368196107e+01 0.0000000000000000e+00  -1.4437643595316414e+01 2.0806899905694976e+01 0.0000000000000000e+00  -1.3216646251889470e+01 1.9587235169840291e+01 0.0000000000000000e+00  -1.2173008703634256e+01 1.7985323478206215e+01 0.0000000000000000e+00  -1.0916054689979168e+01 1.6945521732628681e+01 0.0000000000000000e+00  -1.0030097345639934e+01 1.5406610295546377e+01 0.0000000000000000e+00  -9.3152790555011773e+00 1.3771401821724167e+01 0.0000000000000000e+00  -8.5312999836079371e+00 1.2495544022185946e+01 0.0000000000000000e+00  -7.7914129728382147e+00 1.1290819430925520e+01 0.0000000000000000e+00  -7.0994660742128586e+00 1.0168627245922824e+01 0.0000000000000000e+00  -6.4191082627364278e+00 9.2424711776100139e+00 0.0000000000000000e+00  -5.8049870489533610e+00 8.3214512959784912e+00 0.0000000000000000e+00  -5.2648070020366440e+00 7.4082588847014215e+00 0.0000000000000000e+00  -4.7612783506670002e+00 6.6115190468913623e+00 0.0000000000000000e+00  -4.3195294636221444e+00 5.7677092673913464e+00 0.0000000000000000e+00  -3.9487057716864151e+00 4.9669132894347090e+00 0.0000000000000000e+00  -3.6126499828663721e+00 4.1747185885810705e+00 0.0000000000000000e+00  -3.3300724822559853e+00 3.4913279469233500e+00 0.0000000000000000e+00  -3.0998987521439778e+00 2.6545621497891476e+00 0.0000000000000000e+00  -2.9040144612226162e+00 2.2092190496850872e+00 0.0000000000000000e+00  -2.7405201220281499e+00 1.3192961148344515e+00 0.0000000000000000e+00  -2.6051004175167565e+00 1.1944576973448924e+00 0.0000000000000000e+00  -2.4805190752644783e+00 3.8848241285731072e-01 0.0000000000000000e+00  -2.3004374089018387e+00 -1.7172900206830544e+00 0.0000000000000000e+00  -2.5187111581535446e+00 -4.9809112894999084e+00 0.0000000000000000e+00  -2.0905247504583908e+00 -5.6671024426741088e+00 0.0000000000000000e+00  -2.9938512641284927e+00 -5.2314464066725694e+00 0.0000000000000000e+00  -3.4255034420942869e+00 -5.9719556594537062e+00 0.0000000000000000e+00  -3.9813036249074538e+00 -6.3117444848897923e+00 0.0000000000000000e+00  -4.6696666214300100e+00 -7.2120814398473376e+00 0.0000000000000000e+00  -5.2807520002225932e+00 -7.6979176153491293e+00 0.0000000000000000e+00  -5.8089371342198834e+00 -8.1405799740561680e+00 0.0000000000000000e+00  -6.4691259264015617e+00 -8.6413556394134243e+00 0.0000000000000000e+00  -6.9814957443219265e+00 -8.9536468677196268e+00 0.0000000000000000e+00  -7.0283283634424718e+00 -8.2821288398936606e+00 0.0000000000000000e+00  -8.0758391334912059e+00 -8.6169345680650604e+00 0.0000000000000000e+00  -4.9336220417587429e+00 -2.5231600698921768e+00 0.0000000000000000e+00  -1.6022193646229290e+01 -1.7746767149456648e+01 0.0000000000000000e+00  -1.5668645280229821e+01 -1.5837411944133443e+01 0.0000000000000000e+00  -1.5704031635660240e+01 -1.4486001671681549e+01 0.0000000000000000e+00  -1.6182891583659345e+01 -1.3710091274167597e+01 0.0000000000000000e+00  -1.7058613870550598e+01 -1.3636170734515403e+01 0.0000000000000000e+00  -1.8232465488586765e+01 -1.3826535472039613e+01 0.0000000000000000e+00  -1.9611010451698309e+01 -1.4289605494448912e+01 0.0000000000000000e+00  -2.1103053096028795e+01 -1.4819744514323780e+01 0.0000000000000000e+00  -2.2619222262449064e+01 -1.5331829408050973e+01 0.0000000000000000e+00  -2.4082558439272130e+01 -1.5309726617546664e+01 0.0000000000000000e+00  -2.5430089845737772e+01 -1.5455471686397869e+01 0.0000000000000000e+00  -2.6606107321663693e+01 -1.4248669006724388e+01 0.0000000000000000e+00  -2.7578778968374682e+01 -1.3522749058762793e+01 0.0000000000000000e+00  -2.8330754994013230e+01 -1.0714611951773895e+01 0.0000000000000000e+00  -2.8866241830214314e+01 -8.8231974658708818e+00 0.0000000000000000e+00  -2.9198823142611285e+01 -4.5256949692822488e+00 0.0000000000000000e+00  -2.9368823450755539e+01 -1.0412334775648080e+00 0.0000000000000000e+00  -2.9394100512754381e+01 -1.9321322398913510e-03 0.0000000000000000e+00  -2.9344751546027698e+01 -7.0012344782156086e+00 0.0000000000000000e+00  -2.9394081195862050e+01 1.9039755922039792e-03 0.0000000000000000e+00  -2.9151970821803221e+01 3.9129710691844105e-01 0.0000000000000000e+00  -2.9080648300626809e+01 3.5799721445326780e+00 0.0000000000000000e+00  -1.9940391661480355e+01 1.7832309703409273e+01 0.0000000000000000e+00  -2.0719723410738496e+01 1.7145003919129785e+01 0.0000000000000000e+00  -1.7850984050335995e+01 2.0066916781542606e+01 0.0000000000000000e+00  -1.7220258367908755e+01 1.9359263103230667e+01 0.0000000000000000e+00  -1.5677754392138633e+01 1.9149596691396336e+01 0.0000000000000000e+00  -1.4600290626412971e+01 1.7797584529623130e+01 0.0000000000000000e+00  -1.3432331408660540e+01 1.6459759845721315e+01 0.0000000000000000e+00  -1.2439201157162076e+01 1.5098236518653964e+01 0.0000000000000000e+00  -1.1230541030679735e+01 1.4114909222475362e+01 0.0000000000000000e+00  -1.0391352829399947e+01 1.2735409339174105e+01 0.0000000000000000e+00  -9.7223170840145894e+00 1.1355261142086178e+01 0.0000000000000000e+00  -8.9833700984417373e+00 1.0216123095303436e+01 0.0000000000000000e+00  -8.2876572747209121e+00 9.1651728323015877e+00 0.0000000000000000e+00  -7.6390882556449871e+00 8.2556931618955662e+00 0.0000000000000000e+00  -7.0011604722528817e+00 7.4333608587097322e+00 0.0000000000000000e+00  -6.4284504309167909e+00 6.6302253412575274e+00 0.0000000000000000e+00  -5.9286012793527911e+00 5.8877395954236356e+00 0.0000000000000000e+00  -5.4643686655463339e+00 5.1356845832072917e+00 0.0000000000000000e+00  -5.0606752015892837e+00 4.4406706050981990e+00 0.0000000000000000e+00  -4.7269903896695258e+00 3.6994311398112933e+00 0.0000000000000000e+00  -4.4266107891095352e+00 3.0961030833654224e+00 0.0000000000000000e+00  -4.1791101986498989e+00 2.3360037429530260e+00 0.0000000000000000e+00  -3.9819567968790555e+00 1.9431779642580709e+00 0.0000000000000000e+00  -3.8194296173077169e+00 1.0975637745101978e+00 0.0000000000000000e+00  -3.6852605102457558e+00 1.0200080117321291e+00 0.0000000000000000e+00  -3.5834687081019689e+00 2.1950292376530284e-01 0.0000000000000000e+00  -3.4798497935561272e+00 -1.9573047621633279e+00 0.0000000000000000e+00  -3.4385387969499379e+00 -4.3372972423805614e+00 0.0000000000000000e+00  -3.0485139140451341e+00 -5.0840445602609501e+00 0.0000000000000000e+00  -3.8687555864963117e+00 -4.5166877978174567e+00 0.0000000000000000e+00  -4.3472242377798409e+00 -5.3224064473799242e+00 0.0000000000000000e+00  -4.7817167038307868e+00 -5.4770240779578607e+00 0.0000000000000000e+00  -5.3388313411447665e+00 -6.1803594276536007e+00 0.0000000000000000e+00  -6.0257757289046223e+00 -6.7842903497804912e+00 0.0000000000000000e+00  -6.6320845701835758e+00 -7.3541634426630234e+00 0.0000000000000000e+00  -7.1515009842177983e+00 -7.6600388429471531e+00 0.0000000000000000e+00  -7.7984343644221852e+00 -8.1970894145302928e+00 0.0000000000000000e+00  -8.2932036899391406e+00 -8.2266767413492889e+00 0.0000000000000000e+00  -8.3193700457946402e+00 -7.0613320890116205e+00 0.0000000000000000e+00  -9.3461897359995660e+00 -7.2490008623049533e+00 0.0000000000000000e+00  -6.1889337715463153e+00 -1.1214726795779268e+00 0.0000000000000000e+00  -1.7270430510668174e+01 -1.6372630540349643e+01 0.0000000000000000e+00  -1.6910665432233618e+01 -1.4441595801527605e+01 0.0000000000000000e+00  -1.6933682485710857e+01 -1.3006703408637135e+01 0.0000000000000000e+00  -1.7391219122070432e+01 -1.2344904833000342e+01 0.0000000000000000e+00  -1.8234828634324241e+01 -1.2095114989501669e+01 0.0000000000000000e+00  -1.9366195094252522e+01 -1.2259000487645453e+01 0.0000000000000000e+00  -2.0691564668680432e+01 -1.2626270746120770e+01 0.0000000000000000e+00  -2.2119416023040060e+01 -1.3109782076369910e+01 0.0000000000000000e+00  -2.3560384124790545e+01 -1.3174239157599452e+01 0.0000000000000000e+00  -2.4938109380516767e+01 -1.3502411518190591e+01 0.0000000000000000e+00  -2.6187964778451409e+01 -1.2557858373707328e+01 0.0000000000000000e+00  -2.7257720867542201e+01 -1.2147279697801721e+01 0.0000000000000000e+00  -2.8112489076378004e+01 -9.6693532039854873e+00 0.0000000000000000e+00  -2.8743916663100045e+01 -8.1167035990919700e+00 0.0000000000000000e+00  -2.9147467708867413e+01 -4.1045493176929080e+00 0.0000000000000000e+00  -2.9362302759100491e+01 -8.9687114109799693e-01 0.0000000000000000e+00  -2