<?xml version="1.0"?>
<VTKFile type="UnstructuredGrid"  version="0.1"  >
<UnstructuredGrid>
<Piece  NumberOfPoints="1933" NumberOfCells="3640">
<Points>
<DataArray  type="Float64"  NumberOfComponents="3"  format="ascii">0.0002875626111580321 -0.002419416183070152 0  5.000287591508635 -0.002346383468554744 0  5.00017800369781 7.497653668460732 0  0.0001779763843136606 7.497580641142549 0  10.00028764984984 -0.002273379402795575 0  10.00017804192868 7.497726664512177 0  15.00028775294908 -0.002200366845026771 0  15.00017809064526 7.497799670148712 0  20.00028790528217 -0.002127305231040835 0  20.00017814633276 7.497872726435782 0  25.00028810337928 -0.002054154585289149 0  25.00017820220443 7.497945873000372 0  30.00028833805025 -0.001980876449974073 0  30.00017824806628 7.498019147812223 0  35.00028859573081 -0.001907433592581634 0  35.00017827020382 7.498092587664052 0  40.00028885909504 -0.001833789260665781 0  40.00017825118771 7.498166228941763 0  45.00028910711069 -0.001759906297617972 0  45.00017816952714 7.498240108486938 0  50.00028931466635 -0.001685746234887931 0  50.00017799912484 7.498314264472024 0  55.00028945183991 -0.001611268387138214 0  55.00017770850016 7.498388737270415 0  60.00028948282757 -0.001536428935244334 0  60.00017725974228 7.498463570335139 0  65.00028936450522 -0.001461179960019251 0  65.00017660714117 7.49853881111748 0  70.00028904454651 -0.001385468373613823 0  70.00017569542285 7.498614512068333 0  75.00028845896738 -0.00130923467838691 0  75.00017445748377 7.498690731775266 0  80.00028752888858 -0.001232411459644496 0  80.0001728114794 7.498767536298582 0  85.00028615619124 -0.001154921484562274 0  85.00017065707007 7.498845000779646 0  90.0002842175559 -0.001076675230491378 0  90.0001678705639 7.498923211397662 0  95.00028155607048 -0.0009975675981778692 0  95.00016429863174 7.49900226773198 0  100.0002779690687 -0.0009174734808849323 0  100.0001597502219 7.499082285507579 0  105.0002731899616 -0.0008362417783014471 0  105.0001539863396 7.499163399476528 0  110.0002668602337 -0.0007536874346850161 0  110.0001467076295 7.499245765627697 0  115.0002584849426 -0.0006695813516014036 0  115.0001375405639 7.499329560614706 0  120.0002473599702 -0.000583639141417641 0  120.0001260252325 7.49941497337982 0  125.000232450101 -0.0004955131321038002 0  125.0001116128722 7.499502177628624 0  130.0002121805279 -0.0004048016827194776 0  130.0000936925881 7.499591260421897 0  135.0001840750005 -0.0003111160460168486 0  135.0000716906154 7.499682054632116 0  140.0001441221564 -0.0002143166134772946 0  140.0000453340263 7.499773769192146 0  145.0000856614217 -0.000115235582232601 0  145.0000152658858 7.499864217478781 0  149.9999974167368 -1.784637510078941e-05 0  149.9999843803145 7.499948341098785 0  160 1.093253230137592e-18 0  165.0000356961492 1.129742869364314e-05 0  165.0000068622672 7.500007462898661 0  159.999990016945 7.499990983666041 0  170.0000697688782 4.103453027409655e-05 0  170.0000235262432 7.500039474544455 0  175.0001001300659 8.306094332120189e-05 0  175.000039656613 7.500082513627762 0  180.00012639452 0.0001334909825752758 0  180.0000548313193 7.500133391172307 0  185.0001488180265 0.0001897943345755607 0  185.0000687758526 7.500189884705144 0  190.0001678565571 0.0002502809455630377 0  190.000081368966 7.500250444017228 0  195.0001839894381 0.0003137951294773648 0  195.0000925997193 7.500313977952144 0  200.0001976546806 0.0003795287730061539 0  200.0001025246628 7.500379708351677 0  205.0002092309527 0.0004469048622061854 0  205.0001112362774 7.50044707206406 0  210.0002190378973 0.0005155034257361426 0  210.0001188424226 7.500515655440513 0  215.000227342759 0.0005850134849151158 0  215.0001254539574 7.500585150291664 0  220.0002343683993 0.0006552012074151802 0  220.0001311778104 7.500655323930266 0  225.0002403008389 0.0007258883347342007 0  225.0001361134575 7.500725998491538 0  230.0002452957684 0.0007969372502536651 0  230.0001403514493 7.50079703642297 0  235.0002494839732 0.0008682404296738379 0  235.0001439731233 7.500868330132858 0  240.000252975797 0.0009397128478872625 0  240.0001470509742 7.500939794489597 0  245.0002558648202 0.001011286427169185 0  245.0001496493652 7.501011361312438 0  250.0002582309115 0.001082905930797544 0  250.0001518253966 7.501082975284421 0  255.0002601427981 0.001154525910626151 0  255.0001536298317 7.501154590908309 0  260.0002616602659 0.001226108452697423 0  260.0001551080131 7.501226170254663 0  265.0002628360905 0.001297621559920833 0  265.0001563007447 7.501297681341771 0  270.0002637177602 0.001369038083253784 0  270.0001572451142 7.501369097055432 0  275.0002643490583 0.001440335175352625 0  275.0001579752321 7.501440394573646 0  280.0002647715133 0.001511494303248892 0  280.0001585228765 7.501511555313674 0  285.0002650257068 0.00158250192775787 0  285.000158917993 7.501582565471749 0  290.0002651523222 0.001653351043464171 0  290.0001591890328 7.501653417279473 0  295.0002651926795 0.001724043871552358 0  295.0001593630868 7.501724111148858 0  300.0002651881798 0.001794596068283005 0  300.0001594658476 7.501794658904006 0  305.000265177506 0.001865042664075467 0  305.0001595216086 7.50186508828607 0  310.0002651892413 0.00193544476449545 0  310.0001595539561 7.501935448997291 0  5.000068399849888 14.99765376443825 0  6.837740697296368e-05 14.99758077952428 0  10.0000684158522 14.99772672183245 0  15.00006842002328 14.99779969698688 0  20.00006840503562 14.99787272979389 0  25.00006836196172 14.99794585747556 0  30.00006827993844 14.99801911569032 0  35.00006814569334 14.99809253929766 0  40.00006794305902 14.99816616307949 0  45.00006765247102 14.99824002246399 0  50.00006725041499 14.99831415424821 0  55.0000667087852 14.99838859731416 0  60.00006599412252 14.9984633933422 0  65.00006506670668 14.99853858753019 0  70.00006387948163 14.99861422932775 0  75.00006237680925 14.99869037318815 0  80.00006049306057 14.99876707932303 0  85.00005815110364 14.99884441440713 0  90.00005526082381 14.99892245210624 0  95.00005171796768 14.9990012731542 0  100.0000474038773 14.99908096442406 0  105.0000421871691 14.99916161590682 0  110.0000359292287 14.99924331352343 0  115.0000284967308 14.99932612389512 0  120.000019786406 14.99941006400651 0  125.0000097700012 14.99949504326788 0  129.999998570177 14.99958075688534 0  134.9999865784175 14.99966649765192 0  139.999974616555 14.99975084277025 0  144.999964105773 14.99983118282213 0  149.9999570993585 14.99990315246423 0  164.9999701418805 14.99999734299687 0  159.9999640650453 14.99996672199071 0  169.9999758167361 15.00003583620563 0  174.9999818038271 15.00008179884775 0  179.9999881259254 15.00013393064613 0  184.9999945930464 15.0001908987417 0  190.0000009916266 15.0002515759802 0  195.0000071488957 15.00031507242344 0  200.0000129458925 15.00038070474618 0  205.0000183116018 15.00044795350843 0  210.0000232119851 15.00051642430754 0  215.0000276392785 15.00058581662794 0  220.0000316032607 15.00065590011301 0  225.000035124711 15.00072649687803 0  230.0000382307545 15.00079746841994 0  235.0000409516826 15.00086870592492 0  240.0000433188509 15.00094012306039 0  245.0000453633461 15.00101165058435 0  250.0000471151905 15.00108323229519 0  255.0000486029064 15.00115482198524 0  260.0000498533211 15.00122638116475 0  265.0000508915214 15.00129787739824 0  270.0000517409017 15.00136928315239 0  275.0000524232545 15.00144057509928 0  280.0000529588825 15.00151173385242 0  285.0000533667369 15.00158274413845 0  290.0000536645963 15.00165359541606 0  295.0000538694008 15.00172428293864 0  300.0000539979229 15.00179480920043 0  305.0000540681568 15.00186518559643 0  310.0000541020857 15.00193543399707 0  4.999958915516077 22.49765389802008 0  -4.110278751656704e-05 22.49758101423831 0  9.999958918324822 22.49772677723519 0  14.99995889624222 22.49779969085021 0  19.99995884045758 22.49787267359254 0  24.99995874191101 22.49794575799342 0  29.9999585907163 22.49801897558836 0  34.99995837564626 22.49809235766653 0  39.99995808367122 22.49816593583994 0  44.99995769954879 22.49823974254745 0  49.99995720545665 22.49831381152943 0  54.9999565806577 22.49838817827477 0  59.99995580119861 22.49846288042944 0  64.9999548396578 22.49853795814472 0  69.99995366498231 22.49861345432825 0  74.99995224248929 22.49868941473571 0  79.99995053415891 22.49876588779538 0  84.99994849942298 22.49884292398197 0  89.99994609677239 22.49892057442815 0  94.99994328667402 22.49899888825282 0  99.99994003653049 22.4990779077411 0  104.9999363287312 22.4991576599643 0  109.9999321732232 22.49923814257846 0  114.9999276263675 22.49931930028881 0  119.9999228178976 22.4994009867824 0  124.9999179869819 22.49948290507218 0  129.9999135255556 22.4995645182776 0  134.9999100202528 22.4996449262052 0  139.9999082707529 22.49972271911183 0  144.9999092406385 22.49979586806553 0  149.9999138746264 22.49986183183161 0  164.9999193890584 22.49998472668608 0  159.9999196997769 22.4999429257233 0  169.9999188786472 22.50003023017401 0  174.9999186934235 22.50008017130822 0  179.9999190812232 22.50013440283734 0  184.9999200654764 22.50019238331605 0  189.99992155264 22.50025347010336 0  194.999923407841 22.50031705505042 0  199.9999254961392 22.5003826138819 0  204.9999277009531 22.50044971488474 0  209.9999299297228 22.50051801089603 0  214.9999321133065 22.50058722602501 0  219.9999342027831 22.50065714208707 0  224.9999361655667 22.50072758662559 0  229.9999379817064 22.5007984230013 0  234.9999396407188 22.50086954245653 0  239.999941139027 22.50094085786855 0  244.9999424779615 22.50101229887573 0  249.9999436622347 22.50108380809483 0  254.9999446987997 22.50115533819849 0  259.9999455959985 22.50122684967389 0  264.9999463629395 22.50129830912721 0  269.9999470090416 22.50136968803374 0  274.9999475437187 22.50144096185935 0  279.9999479761829 22.50151210949242 0  284.9999483153877 22.50158311292548 0  289.9999485701552 22.50165395710397 0  294.9999487495955 22.50172462980528 0  299.9999488639655 22.501795
[...]
<PointData  Vectors="v"> 
<DataArray  type="Float64"  Name="v"  NumberOfComponents="3" format="ascii">-1.5824139538027080e+00 5.7326504234495177e+00 0.0000000000000000e+00  -1.1480018705447836e+00 5.5730553414741975e+00 0.0000000000000000e+00  -8.4716394281502838e-01 4.9216114909871926e+00 0.0000000000000000e+00  -1.1791436923596250e+00 5.2353175869011048e+00 0.0000000000000000e+00  -5.6800710297110124e-01 6.2488673569759365e+00 0.0000000000000000e+00  -4.1298011506436610e-01 5.3797328982867612e+00 0.0000000000000000e+00  4.7866681117143019e-03 7.3324939095277060e+00 0.0000000000000000e+00  1.6605622594665695e-01 6.4745574201928315e+00 0.0000000000000000e+00  5.6224482127862618e-01 7.9652557556840504e+00 0.0000000000000000e+00  7.3729722965436861e-01 7.1311300883868070e+00 0.0000000000000000e+00  1.2342728538160130e+00 9.0251271927101548e+00 0.0000000000000000e+00  1.2925069223443961e+00 8.0198890404499039e+00 0.0000000000000000e+00  1.8121236295675913e+00 9.7113313436947024e+00 0.0000000000000000e+00  1.9612122778885253e+00 8.8479483862802031e+00 0.0000000000000000e+00  1.9673321939761470e+00 9.8091855597332493e+00 0.0000000000000000e+00  2.5349032114463119e+00 9.5808142739209501e+00 0.0000000000000000e+00  2.9460299302195607e+00 1.1020247500238193e+01 0.0000000000000000e+00  2.6850651185880179e+00 9.5574898782774174e+00 0.0000000000000000e+00  -1.4375740686101726e-01 6.1432170531908916e+00 0.0000000000000000e+00  3.6574125838582336e+00 1.0784083777423017e+01 0.0000000000000000e+00  9.4307217759839137e+00 2.0004850324790862e+01 0.0000000000000000e+00  5.6026589468190169e-01 5.6498434228916521e+00 0.0000000000000000e+00  8.3839834916967373e+00 1.7485126755841350e+01 0.0000000000000000e+00  1.0127157009919687e+01 1.9063188666993732e+01 0.0000000000000000e+00  8.2543150402983585e+00 1.6256505240201637e+01 0.0000000000000000e+00  9.0711142540086538e+00 1.6460973938817023e+01 0.0000000000000000e+00  8.7902490921187670e+00 1.6034340378364135e+01 0.0000000000000000e+00  8.9297949189850421e+00 1.5242430655719522e+01 0.0000000000000000e+00  9.8591777730314192e+00 1.6622909654252258e+01 0.0000000000000000e+00  9.4519606030070200e+00 1.5033832693050112e+01 0.0000000000000000e+00  1.1285524982001565e+01 1.7685890107214618e+01 0.0000000000000000e+00  1.0503966240083340e+01 1.5562187959409057e+01 0.0000000000000000e+00  1.2976828180890443e+01 1.9007182198851293e+01 0.0000000000000000e+00  1.1911143740607999e+01 1.6488785187209828e+01 0.0000000000000000e+00  1.4849538284124096e+01 2.0600089577961281e+01 0.0000000000000000e+00  1.3580994844947691e+01 1.7811864103045895e+01 0.0000000000000000e+00  1.6820051330887395e+01 2.2087112229510868e+01 0.0000000000000000e+00  1.5428637118759058e+01 1.9153910862423366e+01 0.0000000000000000e+00  1.8818904015505755e+01 2.3485047423966023e+01 0.0000000000000000e+00  1.7371909921845230e+01 2.0512684997136216e+01 0.0000000000000000e+00  2.0781876984125745e+01 2.4642102380052957e+01 0.0000000000000000e+00  1.9340349454476137e+01 2.1725589418731531e+01 0.0000000000000000e+00  2.2633379300422472e+01 2.5473121926326929e+01 0.0000000000000000e+00  2.1269783254730953e+01 2.2726764266395378e+01 0.0000000000000000e+00  2.4312846857723169e+01 2.5585956050588575e+01 0.0000000000000000e+00  2.3083748323250198e+01 2.3099682390476985e+01 0.0000000000000000e+00  2.5779416387946512e+01 2.5520758481777229e+01 0.0000000000000000e+00  2.4724631357697415e+01 2.3358686459129210e+01 0.0000000000000000e+00  2.6984410831271145e+01 2.4069364195163701e+01 0.0000000000000000e+00  2.6145142048349545e+01 2.2298351940206530e+01 0.0000000000000000e+00  2.7930071383080303e+01 2.2619222274251541e+01 0.0000000000000000e+00  2.7306788422201169e+01 2.1246716587034307e+01 0.0000000000000000e+00  2.8598772557083379e+01 1.9180037842119056e+01 0.0000000000000000e+00  2.8196783219983214e+01 1.8215745710689074e+01 0.0000000000000000e+00  2.9041106976268626e+01 1.5791017658888284e+01 0.0000000000000000e+00  2.8819110117318697e+01 1.5183673197767472e+01 0.0000000000000000e+00  2.9266173909384648e+01 1.0271276086875268e+01 0.0000000000000000e+00  2.9194248818670367e+01 9.9721478924834432e+00 0.0000000000000000e+00  2.9368173035518424e+01 3.7189207556588229e+00 0.0000000000000000e+00  2.9372091197067761e+01 3.6348557801266352e+00 0.0000000000000000e+00  2.9389264413717562e+01 1.2411875205885851e-05 0.0000000000000000e+00  2.9389462130335250e+01 2.2005013857858143e-04 0.0000000000000000e+00  2.9389262614624354e+01 -1.0211764763315106e-19 0.0000000000000000e+00  2.1019705047756926e+01 -1.1514654257907191e+01 0.0000000000000000e+00  2.9366937064099595e+01 1.0021090656604801e+00 0.0000000000000000e+00  2.9389455239707036e+01 -1.8668025138097313e-04 0.0000000000000000e+00  2.0626157440186926e+01 -2.0688881904075053e+01 0.0000000000000000e+00  2.1048875521686760e+01 -2.0165897705028506e+01 0.0000000000000000e+00  1.7603145731506292e+01 -2.7675761497471864e+01 0.0000000000000000e+00  2.0714758134843180e+01 -2.3182516894573865e+01 0.0000000000000000e+00  1.6452972423251158e+01 -2.9097466197082166e+01 0.0000000000000000e+00  1.7749145852182050e+01 -2.7423343561489993e+01 0.0000000000000000e+00  1.4658985532026270e+01 -3.0538641359420527e+01 0.0000000000000000e+00  1.6652492629688862e+01 -2.7892512114441956e+01 0.0000000000000000e+00  1.3286190871850723e+01 -2.9731362627242781e+01 0.0000000000000000e+00  1.4909593936740498e+01 -2.7717907812165617e+01 0.0000000000000000e+00  1.1899948513380464e+01 -2.8678496311984023e+01 0.0000000000000000e+00  1.3587370672012410e+01 -2.6641134863411807e+01 0.0000000000000000e+00  1.0683973823441319e+01 -2.6786134410384467e+01 0.0000000000000000e+00  1.2248772053231361e+01 -2.5004848705435496e+01 0.0000000000000000e+00  9.3144116921257201e+00 -2.4943916509080317e+01 0.0000000000000000e+00  1.1079040083397041e+01 -2.2929921431470746e+01 0.0000000000000000e+00  8.2853810174508933e+00 -2.2732706036729532e+01 0.0000000000000000e+00  9.7547136837190944e+00 -2.1228684262197639e+01 0.0000000000000000e+00  7.4110106971143219e+00 -2.0650382381655177e+01 0.0000000000000000e+00  8.7693172268728254e+00 -1.9377522578045266e+01 0.0000000000000000e+00  6.4811961287657871e+00 -1.8853630249743787e+01 0.0000000000000000e+00  7.9374160729175722e+00 -1.7496655601668795e+01 0.0000000000000000e+00  5.6149863802522670e+00 -1.7210794702960484e+01 0.0000000000000000e+00  7.0493236950286695e+00 -1.5948186869796274e+01 0.0000000000000000e+00  4.8146299635898906e+00 -1.5766069422733665e+01 0.0000000000000000e+00  6.2236538024106896e+00 -1.4601717997819200e+01 0.0000000000000000e+00  4.0563225815889759e+00 -1.4443959662744160e+01 0.0000000000000000e+00  5.4629248475451826e+00 -1.3341833212566819e+01 0.0000000000000000e+00  3.3798081158305946e+00 -1.3180704426642746e+01 0.0000000000000000e+00  4.7435546456267845e+00 -1.2200556228365217e+01 0.0000000000000000e+00  2.7867870130752865e+00 -1.2008853837321999e+01 0.0000000000000000e+00  4.1051211771173373e+00 -1.1153429971080330e+01 0.0000000000000000e+00  2.2445216557306691e+00 -1.0878058141096034e+01 0.0000000000000000e+00  3.5494302893189715e+00 -1.0098205824495631e+01 0.0000000000000000e+00  1.7706799636846409e+00 -9.7732381884032176e+00 0.0000000000000000e+00  3.0440024390397524e+00 -9.0954171393554972e+00 0.0000000000000000e+00  1.3677914795718362e+00 -8.7147102572587780e+00 0.0000000000000000e+00  2.6062692293040626e+00 -8.1430309078942766e+00 0.0000000000000000e+00  1.0093498641525840e+00 -7.6589749641199010e+00 0.0000000000000000e+00  2.2391086121636605e+00 -7.1533649772768637e+00 0.0000000000000000e+00  7.0636290066234775e-01 -6.6356358631507497e+00 0.0000000000000000e+00  1.9157090899096409e+00 -6.2130926391341372e+00 0.0000000000000000e+00  4.6275077086197325e-01 -5.6273914580577902e+00 0.0000000000000000e+00  1.6477571317398578e+00 -5.2931279683871324e+00 0.0000000000000000e+00  2.6039225029015822e-01 -4.6578293096088679e+00 0.0000000000000000e+00  1.4379926776864320e+00 -4.3859620794947842e+00 0.0000000000000000e+00  1.0792521491910462e-01 -3.6881202430337798e+00 0.0000000000000000e+00  1.2705263914237870e+00 -3.4893471836411822e+00 0.0000000000000000e+00  -1.7857834862873611e-03 -2.8504522088256214e+00 0.0000000000000000e+00  1.1502734329714308e+00 -2.7180594772537008e+00 0.0000000000000000e+00  -7.0944191265363762e-02 -1.9659821906507824e+00 0.0000000000000000e+00  1.0763483224286523e+00 -1.8900205178953911e+00 0.0000000000000000e+00  -1.3774180208302320e-01 -1.3328987509249179e+00 0.0000000000000000e+00  1.0362367338933762e+00 -1.2672226165641625e+00 0.0000000000000000e+00  -2.0969360844224066e-01 -7.1189529841272847e-01 0.0000000000000000e+00  1.0098339710748230e+00 -6.2608790978327789e-01 0.0000000000000000e+00  -3.7217077598274351e-01 1.7147820200432232e-01 0.0000000000000000e+00  9.5403516094501883e-01 3.6893889404331864e-01 0.0000000000000000e+00  -1.2812489733507129e-01 4.4228025965672852e+00 0.0000000000000000e+00  -4.8766804877686765e-01 4.6980135059242834e+00 0.0000000000000000e+00  2.0508979057798646e-01 4.7276815028043293e+00 0.0000000000000000e+00  6.4032918495818902e-01 5.6057813259429956e+00 0.0000000000000000e+00  1.2196366154013478e+00 6.2746036260740210e+00 0.0000000000000000e+00  1.7900813630488781e+00 7.1878380419017107e+00 0.0000000000000000e+00  2.3434354996804623e+00 7.8467300916778866e+00 0.0000000000000000e+00  3.0087340590453224e+00 8.7232488313772087e+00 0.0000000000000000e+00  3.5770950420263516e+00 9.3358323435745962e+00 0.0000000000000000e+00  3.7203236452059265e+00 9.3308068892437337e+00 0.0000000000000000e+00  4.6832508573811698e+00 1.0302614679317317e+01 0.0000000000000000e+00  1.5755985044992347e+00 4.7164228974788651e+00 0.0000000000000000e+00  1.1136328412566010e+01 1.8048653550031755e+01 0.0000000000000000e+00  1.0073152299464281e+01 1.5461876807233327e+01 0.0000000000000000e+00  9.9189721535141153e+00 1.4259300760448850e+01 0.0000000000000000e+00  1.0424419010475880e+01 1.3997214051424377e+01 0.0000000000000000e+00  1.1453981961878435e+01 1.4393634394981390e+01 0.0000000000000000e+00  1.2833889676019311e+01 1.5324492734918962e+01 0.0000000000000000e+00  1.4472364218915162e+01 1.6403913497618650e+01 0.0000000000000000e+00  1.6283012351477193e+01 1.7622464255613352e+01 0.0000000000000000e+00  1.8183740999031322e+01 1.8799086144786941e+01 0.0000000000000000e+00  2.0105202742882469e+01 1.9864544750038899e+01 0.0000000000000000e+00  2.1980359994679105e+01 2.0412887313273572e+01 0.0000000000000000e+00  2.3734289033422080e+01 2.0936332669848404e+01 0.0000000000000000e+00  2.5308020421819357e+01 2.0208760066086558e+01 0.0000000000000000e+00  2.6655331989411319e+01 1.9555105797463142e+01 0.0000000000000000e+00  2.7733164477596212e+01 1.6925031376127709e+01 0.0000000000000000e+00  2.8538722797469781e+01 1.4318204279461161e+01 0.0000000000000000e+00  2.9056801550592898e+01 9.4495439784170188e+00 0.0000000000000000e+00  2.9341388497990813e+01 3.4628729288917235e+00 0.0000000000000000e+00  2.9389936841475958e+01 4.1939702359877718e-04 0.0000000000000000e+00  2.9328731483064630e+01 1.1618048957555900e+00 0.0000000000000000e+00  2.9389927444088563e+01 -3.6698243229359341e-04 0.0000000000000000e+00  2.9172633219207203e+01 -7.7079077040490782e+00 0.0000000000000000e+00  2.0919294643427584e+01 -2.2733495880772917e+01 0.0000000000000000e+00  2.0666007110053435e+01 -2.3016851482530019e+01 0.0000000000000000e+00  1.7768676997150529e+01 -2.6288600516432535e+01 0.0000000000000000e+00  1.6737850691212888e+01 -2.5136127536459497e+01 0.0000000000000000e+00  1.5051332988750577e+01 -2.4693358833098500e+01 0.0000000000000000e+00  1.3784755179328149e+01 -2.3026937363466939e+01 0.0000000000000000e+00  1.2496069475644067e+01 -2.1203816307062961e+01 0.0000000000000000e+00  1.1373467579344808e+01 -1.9269872601297010e+01 0.0000000000000000e+00  1.0094103143537103e+01 -1.7925536232394723e+01 0.0000000000000000e+00  9.1516366225416803e+00 -1.6273364960621958e+01 0.0000000000000000e+00  8.3606582978191586e+00 -1.4640529982156467e+01 0.0000000000000000e+00  7.5125255902706938e+00 -1.3386502316317101e+01 0.0000000000000000e+00  6.7252712354972637e+00 -1.2223024118864867e+01 0.0000000000000000e+00  6.0015069942943748e+00 -1.1143421283486854e+01 0.0000000000000000e+00  5.3180870501472937e+00 -1.0216843737744059e+01 0.0000000000000000e+00  4.7143898591302431e+00 -9.2849550298239905e+00 0.0000000000000000e+00  4.1922806321954456e+00 -8.3571599020066589e+00 0.0000000000000000e+00  3.7195772129201052e+00 -7.5057642561317914e+00 0.0000000000000000e+00  3.3136873485049820e+00 -6.6212566734978813e+00 0.0000000000000000e+00  2.9774509844189252e+00 -5.7465402011882221e+00 0.0000000000000000e+00  2.6844479498618137e+00 -4.9089152800056111e+00 0.0000000000000000e+00  2.4460109375607186e+00 -4.0892601311931722e+00 0.0000000000000000e+00  2.2654542776737441e+00 -3.2547095549539407e+00 0.0000000000000000e+00  2.1260713980721175e+00 -2.5558322945871947e+00 0.0000000000000000e+00  2.0343795212179177e+00 -1.7934081911486162e+00 0.0000000000000000e+00  1.9864918918049175e+00 -1.2270875735299061e+00 0.0000000000000000e+00  1.9749735978431970e+00 -5.9664376301718647e-01 0.0000000000000000e+00  1.9725604103109959e+00 4.3089833590947996e-01 0.0000000000000000e+00  1.1214845927461061e+00 3.8816021050011908e+00 0.0000000000000000e+00  7.9996488228662721e-01 4.2187864015085781e+00 0.0000000000000000e+00  1.4840724170020958e+00 4.2249780754544215e+00 0.0000000000000000e+00  1.8219344601878333e+00 4.9506750474341787e+00 0.0000000000000000e+00  2.2607335367714252e+00 5.4039920450898133e+00 0.0000000000000000e+00  2.8428226752322354e+00 6.3315948859393893e+00 0.0000000000000000e+00  3.4145935999674757e+00 7.0179358413102824e+00 0.0000000000000000e+00  3.9666731324492424e+00 7.7281458961469172e+00 0.0000000000000000e+00  4.6281727774266690e+00 8.4885817436970505e+00 0.0000000000000000e+00  5.1894212035728362e+00 9.1243578912756131e+00 0.0000000000000000e+00  5.3210342868432150e+00 8.8693199868659338e+00 0.0000000000000000e+00  6.2688383908887193e+00 9.3895431856370291e+00 0.0000000000000000e+00  3.1498894143807434e+00 3.7112185242940310e+00 0.0000000000000000e+00  1.2709651678012779e+01 1.7058765208979619e+01 0.0000000000000000e+00  1.1644450020762203e+01 1.4501297168041392e+01 0.0000000000000000e+00  1.1477711251209527e+01 1.3256128088663123e+01 0.0000000000000000e+00  1.1960626059941729e+01 1.2872915094207862e+01 0.0000000000000000e+00  1.2958532085206869e+01 1.3285064621410559e+01 0.0000000000000000e+00  1.4298116516492600e+01 1.3983166746729239e+01 0.0000000000000000e+00  1.5886538211854836e+01 1.4949611283819939e+01 0.0000000000000000e+00  1.7638242827121410e+01 1.5998356667434916e+01 0.0000000000000000e+00  1.9470675231921632e+01 1.7041072066821719e+01 0.0000000000000000e+00  2.1311620757301988e+01 1.7665110037865031e+01 0.0000000000000000e+00  2.3095989650016350e+01 1.8382740374889064e+01 0.0000000000000000e+00  2.4744304756637412e+01 1.7930572471643124e+01 0.0000000000000000e+00  2.6201189661856116e+01 1.7633798166154062e+01 0.0000000000000000e+00  2.7411874367021824e+01 1.5406671310358105e+01 0.0000000000000000e+00  2.8346115132395543e+01 1.3241711554242229e+01 0.0000000000000000e+00  2.8977501355637603e+01 8.7730835814077590e+00 0.0000000000000000e+00  2.9334384846983149e+01 3.2209436651758314e+00 0.0000000000000000e+00  2.9390679444760874e+01 6.0082752252185680e-04 0.0000000000000000e+00  2.9304670125725085e+01 1.4746953172873221e+00 0.0000000000000000e+00  2.9390670975228012e+01 -5.2567473130714208e-04 0.0000000000000000e+00  2.8937332773845036e+01 -7.4159656453940981e+00 0.0000000000000000e+00  2.8768889944551908e+01 -1.0433953792578011e+01 0.0000000000000000e+00  2.0627625215763089e+01 -2.2738134525667142e+01 0.0000000000000000e+00  2.0504812506109868e+01 -2.2023284031461628e+01 0.0000000000000000e+00  1.7717032312921852e+01 -2.3669706256830455e+01 0.0000000000000000e+00  1.6784642473582853e+01 -2.2228689856888110e+01 0.0000000000000000e+00  1.5183889715037941e+01 -2.1189852829807030e+01 0.0000000000000000e+00  1.3996453425576449e+01 -1.9326834820542548e+01 0.0000000000000000e+00  1.2778276327570641e+01 -1.7638346153248495e+01 0.0000000000000000e+00  1.1721776661506583e+01 -1.6055261119487831e+01 0.0000000000000000e+00  1.0504044115946183e+01 -1.4906580960471814e+01 0.0000000000000000e+00  9.6200881360119759e+00 -1.3498652629251062e+01 0.0000000000000000e+00  8.8854099786099248e+00 -1.2157452888566382e+01 0.0000000000000000e+00  8.0915394870387392e+00 -1.1083782850424683e+01 0.0000000000000000e+00  7.3562957561059479e+00 -1.0097755745355748e+01 0.0000000000000000e+00  6.6826492494838128e+00 -9.2301928934695159e+00 0.0000000000000000e+00  6.0473474308682560e+00 -8.4166176146032079e+00 0.0000000000000000e+00  5.4898592178341996e+00 -7.6097466471589739e+00 0.0000000000000000e+00  5.0122396139835912e+00 -6.8313557040806829e+00 0.0000000000000000e+00  4.5824986198134621e+00 -6.0458808897730076e+00 0.0000000000000000e+00  4.2179563799311817e+00 -5.2748547926996796e+00 0.0000000000000000e+00  3.9220007602130562e+00 -4.5007598663797754e+00 0.0000000000000000e+00  3.6677088879582969e+00 -3.7628718497880924e+00 0.0000000000000000e+00  3.4674483127532367e+00 -3.0130953469150112e+00 0.0000000000000000e+00  3.3230033376388399e+00 -2.3773563934986752e+00 0.0000000000000000e+00  3.2203475231734986e+00 -1.6818647506008819e+00 0.0000000000000000e+00  3.1611177235594798e+00 -1.1871471461757577e+00 0.0000000000000000e+00  3.1506606436953257e+00 -5.9931978931375407e-01 0.0000000000000000e+00  3.1625041291468450e+00 4.0084378529556647e-01 0.0000000000000000e+00  2.4346620347353123e+00 3.3965605917828845e+00 0.0000000000000000e+00  2.1492391279388805e+00 3.7948348332493431e+00 0.0000000000000000e+00  2.7606054821268153e+00 3.6762674204473678e+00 0.0000000000000000e+00  3.1311006032837265e+00 4.4378382608036162e+00 0.0000000000000000e+00  3.4777729478107244e+00 4.7397677713270392e+00 0.0000000000000000e+00  3.9255063258654808e+00 5.4531568762208487e+00 0.0000000000000000e+00  4.5152897940853185e+00 6.1559730235463892e+00 0.0000000000000000e+00  5.0929138664127969e+00 6.8978890028359476e+00 0.0000000000000000e+00  5.6478927027003136e+00 7.4969364490624439e+00 0.0000000000000000e+00  6.3079548445103972e+00 8.2863733857842110e+00 0.0000000000000000e+00  6.8624063979659535e+00 8.6804377581227552e+00 0.0000000000000000e+00  6.9822021007163944e+00 7.9781027604016961e+00 0.0000000000000000e+00  7.9172570837714540e+00 8.3941657206033824e+00 0.0000000000000000e+00  4.7980266895743018e+00 2.7091670998627144e+00 0.0000000000000000e+00  1.4375854337732459e+01 1.6087385661461145e+01 0.0000000000000000e+00  1.3325748374684036e+01 1.3505848781694343e+01 0.0000000000000000e+00  1.3158936982290607e+01 1.2157446766808418e+01 0.0000000000000000e+00  1.3628723476985897e+01 1.1807127120166829e+01 0.0000000000000000e+00  1.4599372741943837e+01 1.2000266973691062e+01 0.0000000000000000e+00  1.5900378913965902e+01 1.2602971678742724e+01 0.0000000000000000e+00  1.7438037943735807e+01 1.3415074421486539e+01 0.0000000000000000e+00  1.9125933109845565e+01 1.4346403496987248e+01 0.0000000000000000e+00  2.0880583810521774e+01 1.4967642000515909e+01 0.0000000000000000e+00  2.2629391387968099e+01 1.5784656583876405e+01 0.0000000000000000e+00  2.4301268604295640e+01 1.5544861683524568e+01 0.0000000000000000e+00  2.5821378460074399e+01 1.5558824873561923e+01 0.0000000000000000e+00  2.7122273883705230e+01 1.3702521163265175e+01 0.0000000000000000e+00  2.8164092071875082e+01 1.1994025202989581e+01 0.0000000000000000e+00  2.8887606721705403e+01 7.9496608781463936e+00 0.0000000000000000e+00  2.9316850265229814e+01 2.9118950279218740e+00 0.0000000000000000e+00  2.9391662390206864e+01 7.6340007783624289e-04 0.0000000000000000e+00  2.9281464480025505e+01 1.8982189957560511e+00 0.0000000000000000e+00  2.9391654588751109e+01 -6.6700037119268667e-04 0.0000000000000000e+00  2.8785567653759699e+01 -6.6926655325842637e+00 0.0000000000000000e+00  2.8260995497368171e+01 -1