<?xml version="1.0"?>
<VTKFile type="UnstructuredGrid"  version="0.1"  >
<UnstructuredGrid>
<Piece  NumberOfPoints="1933" NumberOfCells="3640">
<Points>
<DataArray  type="Float64"  NumberOfComponents="3"  format="ascii">0.000283145813844532 -0.002236338748995495 0  5.000283163258236 -0.002163866913310004 0  5.000174410496462 7.497836152947351 0  0.0001744024860133586 7.497763699915321 0  10.00028320528211 -0.002091396604166133 0  10.00017441493743 7.497908611058254 0  15.00028327275057 -0.002018881691527708 0  15.00017440816823 7.497981118222297 0  20.00028335528916 -0.001946283977259667 0  20.00017437985693 7.498053710900159 0  25.00028343612736 -0.00187357240006568 0  25.0001743167148 7.498126418898861 0  30.00028349464116 -0.001800721430344261 0  30.00017420253493 7.498199266893423 0  35.00028350744769 -0.00172770945441354 0  35.0001740182052 7.498272275918089 0  40.00028344861001 -0.001654517417793675 0  40.00017374156807 7.498345464615373 0  45.00028328928563 -0.001581127778603888 0  45.00017334708806 7.498418850202765 0  50.0002829970014 -0.00150752374527742 0  50.00017280531964 7.498492449177201 0  55.00028253463932 -0.001433688754485709 0  55.00017208217415 7.498566277792458 0  60.00028185915355 -0.001359606149072204 0  60.00017113797664 7.498640352341128 0  65.00028091999276 -0.001285259027036692 0  65.00016992629133 7.498714689261893 0  70.0002796571612 -0.001210630245675979 0  70.0001683924786 7.498789305078716 0  75.00027799881006 -0.0011357025784764 0  75.00016647192959 7.498864216161386 0  80.00027585819377 -0.00106045903697378 0  80.000164087904 7.498939438274793 0  85.00027312974734 -0.0009848833879276442 0  85.00016114887822 7.499014985851799 0  90.0002696839162 -0.0009089609227877632 0  90.00015754529036 7.499090870871731 0  95.00026536017313 -0.0008326795819203112 0  95.00015314556511 7.499167101133271 0  100.0002599573335 -0.0007560316225551629 0  100.0001477913269 7.499243677538395 0  105.0002532197401 -0.0006790161956323746 0  105.0001412918248 7.499320589676151 0  110.0002448169729 -0.0006016435715227867 0  110.0001334178954 7.499397808359245 0  115.0002343131796 -0.0005239425744513933 0  115.0001238965177 7.499475272520694 0  120.0002211194456 -0.0004459746149440977 0  120.0001124086051 7.499552865423134 0  125.0002044180718 -0.0003678618570174806 0  125.0000985960262 7.499630370293415 0  130.0001830400208 -0.0002898465862164007 0  130.0000820905799 7.499707385977757 0  135.000155264577 -0.0002124209683747681 0  135.000062590569 7.499783164580508 0  140.00011849246 -0.000136617827309137 0  140.0000400337109 7.499856296515919 0  145.0000687243356 -6.466955443863118e-05 0  145.0000149506243 7.499924094229319 0  149.9999997862888 -1.476377958339979e-06 0  149.9999891136159 7.499981352619485 0  160 5.288796220127554e-19 0  165.0000583520454 4.959228734408584e-05 0  165.0000102549661 7.5000524392719 0  159.9999877972164 7.500006623515266 0  170.000102277761 0.0001084905303342567 0  170.0000326341988 7.500110254333037 0  175.0001361206582 0.0001732247086924539 0  175.0000530271827 7.500174460002143 0  180.0001626612624 0.0002415276718253132 0  180.0000709301913 7.500242420986839 0  185.0001837774403 0.000312040201597988 0  185.0000863610363 7.500312696486731 0  190.0002007725327 0.0003839429168846774 0  190.0000995329221 7.500384433132327 0  195.0002145725784 0.0004567263234531445 0  195.0001107174884 7.500457099420748 0  200.0002258513061 0.0005300619741840433 0  200.0001201861316 7.500530351463904 0  205.0002351104566 0.0006037310123576759 0  205.0001281866965 7.500603959781773 0  210.0002427319139 0.0006775836427559874 0  210.0001349363428 7.500677767431485 0  215.0002490120221 0.0007515153049322544 0  215.000140621522 7.500751665092668 0  220.0002541846079 0.0008254520754258545 0  220.0001454007788 7.500825575670569 0  225.0002584367771 0.0008993413419758439 0  225.0001494083969 7.500899444423061 0  230.0002619200226 0.0009731456089317638 0  230.0001527580284 7.500973232406078 0  235.0002647582348 0.001046838241711455 0  235.0001555459757 7.501046911985917 0  240.0002670536239 0.001120400464388739 0  240.0001578540339 7.501120463688201 0  245.0002688912056 0.001193819202545659 0  245.0001597519052 7.501193873945446 0  250.0002703422791 0.001267085521946302 0  250.0001612992351 7.50126713347402 0  255.0002714671868 0.001340193508175736 0  255.0001625473263 7.501340236112791 0  260.0002723175521 0.001413139492558362 0  260.0001635405831 7.50141317802004 0  265.0002729381355 0.001485921571475107 0  265.0001643177305 7.501485957168918 0  270.0002733684009 0.001558539398950557 0  270.0001649128376 7.501558573114509 0  275.000273643855 0.001630994261833493 0  275.000165356168 7.501631027032672 0  280.0002737971807 0.001703289476817753 0  280.0001656748632 7.501703322055566 0  285.0002738591455 0.001775431180504867 0  285.0001658934573 7.5017754639513 0  290.0002738591912 0.001847429614624023 0  290.0001660342132 7.501847462212348 0  295.0002738254913 0.001919301021360581 0  295.0001661172843 7.501919331620311 0  300.0002737840617 0.001991070197175758 0  300.0001661607301 7.501991094325817 0  305.0002737561333 0.002062773394914324 0  305.0001661805301 7.502062782412665 0  310.0002737523473 0.002134459834333321 0  310.0001661909268 7.50213444092496 0  5.000065721223756 14.99783617825534 0  6.571920277254062e-05 14.99776379370217 0  10.00006570530974 14.99790859194631 0  15.00006566033587 14.99798107098347 0  20.00006557542873 14.99805364505391 0  25.00006543906075 14.99812633914385 0  30.00006523829363 14.99819917468711 0  35.00006495823966 14.99827217053119 0  40.00006458165142 14.99834534375994 0  45.00006408855234 14.99841871035326 0  50.00006345584971 14.99849228567259 0  55.0000626568966 14.9985660847717 0  60.00006166098585 14.99864012253353 0  65.00006043277197 14.99871441362652 0  70.00005893162736 14.99878897226008 0  75.00005711095336 14.99886381169602 0  80.00005491749 14.99893894343844 0  85.00005229070648 14.99901437597096 0  90.00004916242341 14.9990901128225 0  95.00004545693065 14.99916614959804 0  100.0000410920567 14.99924246936579 0  105.0000359819556 14.99931903537798 0  110.000030042862 14.99939577940243 0  115.0000232037824 14.9994725827812 0  120.0000154250493 14.99954924546817 0  125.0000067286776 14.99962543550565 0  129.9999972448072 14.99970060782416 0  134.9999872761019 14.99977387868462 0  139.9999773717718 14.99984384819932 0  144.9999683745143 14.99990840599038 0  149.9999613419376 14.99996473394759 0  164.9999662845448 15.00006076297071 0  159.9999600557101 15.00001249163266 0  169.9999739549185 15.0001173337754 0  174.9999825454476 15.00017992807938 0  179.9999913424826 15.00024654646617 0  184.9999998457877 15.00031580891783 0  190.0000077675977 15.00038680357789 0  195.0000149705428 15.00045892888194 0  200.0000214121037 15.00053178366484 0  205.0000271053008 15.00060509648397 0  210.0000320932092 15.00067868094633 0  215.0000364332445 15.00075240738431 0  220.0000401878443 15.00082618466713 0  225.0000434191705 15.00089994830716 0  230.0000461862705 15.00097365251849 0  235.0000485437099 15.00104726479985 0  240.0000505410663 15.0011207621657 0  245.0000522229125 15.00119412848166 0  250.0000536290638 15.00126735256321 0  255.0000547949566 15.00134042682091 0  260.0000557520762 15.00141334631515 0  265.0000565283891 15.0014861081354 0  270.00005714875 15.00155871105476 0  275.0000576352735 15.00163115543632 0  280.000058007665 15.00170344338589 0  285.0000582835273 15.00177557915728 0  290.0000584786758 15.0018475698186 0  295.0000586075303 15.00191942618025 0  300.0000586837173 15.00199116397193 0  305.0000587210898 15.00206280527494 0  310.0000587355343 15.00213438042015 0  4.999957222376594 22.49783617558847 0  -4.27762315046154e-05 22.49776390882591 0  9.999957199578205 22.49790851148907 0  14.99995714245336 22.49798093748102 0  19.99995704063204 22.4980534727285 0  24.9999568846851 22.49812613474289 0  29.9999566651027 22.49819893962026 0  34.99995637161153 22.49827190230945 0  39.99995599271993 22.49834503688349 0  44.99995551541505 22.49841835677222 0  49.99995492496233 22.49849187491446 0  54.99995420477853 22.49856560379441 0  59.99995333637291 22.49863955532879 0  64.99995229937124 22.49871374056599 0  69.99995107166039 22.49878816914334 0  74.99994962971981 22.49886284842309 0  79.99994794924255 22.49893778218657 0  84.99994600620056 22.49901296870299 0  89.99994377857972 22.49908839789362 0  94.99994124910546 22.49916404716749 0  99.9999384094035 22.49923987528933 0  104.9999352661773 22.49931581332804 0  109.9999318501087 22.49939175130429 0  114.9999282281959 22.49946751862508 0  119.9999245199515 22.4995428558959 0  124.9999209168787 22.49961737568812 0  129.9999177022825 22.49969051154208 0  134.9999152637951 22.49976146089301 0  139.9999140833761 22.49982914537004 0  144.9999146809184 22.49989225401897 0  149.9999174896935 22.49994951889078 0  164.9999135868806 22.50006905288526 0  159.9999160636724 22.50001739163761 0  169.9999126788681 22.50012616041028 0  174.9999132485344 22.50018794534864 0  179.9999149772266 22.50025336030988 0  184.9999174843114 22.5003214341997 0  189.9999204349625 22.50039139480496 0  194.9999235728396 22.50046266672177 0  199.9999267175202 22.50053483303975 0  204.9999297502702 22.50060759494247 0  209.9999325984166 22.50068073879536 0  214.9999352219584 22.50075411166403 0  219.9999376032154 22.50082760378005 0  224.9999397392528 22.50090113616254 0  229.9999416365202 22.50097465189941 0  234.9999433071452 22.50104810998053 0  239.9999447664173 22.50112148090431 0  244.9999460311088 22.50119474352355 0  249.9999471183749 22.50126788276849 0  254.9999480450486 22.50134088800177 0  259.9999488272037 22.50141375184047 0  264.9999494798986 22.50148646933311 0  269.9999500170424 22.5015590374164 0  274.9999504513525 22.50163145459941 0  279.9999507943915 22.50170372083585 0  284.9999510566918 22.50177583754786 0  289.9999512480074 22.50184780775725 0  294.9999513777561 22.50191963625961 0  299.9999514557628 22.5019913297
[...]
<PointData  Vectors="v"> 
<DataArray  type="Float64"  Name="v"  NumberOfComponents="3" format="ascii">-1.7626785930918538e+00 5.8646313306535003e+00 0.0000000000000000e+00  -1.3234237035706500e+00 5.6842592691070584e+00 0.0000000000000000e+00  -1.0228684631660574e+00 5.0255546211537814e+00 0.0000000000000000e+00  -1.3587390941172361e+00 5.3614645953686093e+00 0.0000000000000000e+00  -7.3883480213133490e-01 6.3602080834212114e+00 0.0000000000000000e+00  -5.8384676596131058e-01 5.4841930586168548e+00 0.0000000000000000e+00  -1.5962328347458363e-01 7.4593330572779797e+00 0.0000000000000000e+00  -2.3020203821068585e-04 6.5917869917339216e+00 0.0000000000000000e+00  4.0526730075076800e-01 8.0971204677262651e+00 0.0000000000000000e+00  5.7740614562874637e-01 7.2518716778979559e+00 0.0000000000000000e+00  1.0824104252690381e+00 9.1662525370630572e+00 0.0000000000000000e+00  1.1400166000439202e+00 8.1533751564423014e+00 0.0000000000000000e+00  1.6641982054653683e+00 9.8544629640315744e+00 0.0000000000000000e+00  1.8137951507108538e+00 8.9852150259648571e+00 0.0000000000000000e+00  1.8230557632761661e+00 9.9565047165749689e+00 0.0000000000000000e+00  2.3913720322817347e+00 9.7227088438802873e+00 0.0000000000000000e+00  2.7986916982443737e+00 1.1158641360095896e+01 0.0000000000000000e+00  2.5451231592269967e+00 9.7005340533210038e+00 0.0000000000000000e+00  -2.8278645695475441e-01 6.2897022741696160e+00 0.0000000000000000e+00  3.5143384169922345e+00 1.0918168445062722e+01 0.0000000000000000e+00  9.2511753769914051e+00 2.0085000849536069e+01 0.0000000000000000e+00  4.2542116884770359e-01 5.7908484828102429e+00 0.0000000000000000e+00  8.1990880130489714e+00 1.7552311883809782e+01 0.0000000000000000e+00  9.9517078397260512e+00 1.9138479860537132e+01 0.0000000000000000e+00  8.0687326982170848e+00 1.6317483414065734e+01 0.0000000000000000e+00  8.8902160122769178e+00 1.6523076311218855e+01 0.0000000000000000e+00  8.6093914380741854e+00 1.6097491310289683e+01 0.0000000000000000e+00  8.7480958834402074e+00 1.5298602267225862e+01 0.0000000000000000e+00  9.6885570680449220e+00 1.6696547133059418e+01 0.0000000000000000e+00  9.2748576008611874e+00 1.5092236994172897e+01 0.0000000000000000e+00  1.1129792421728212e+01 1.7777937926843414e+01 0.0000000000000000e+00  1.0336951952657671e+01 1.5632037786983986e+01 0.0000000000000000e+00  1.2839391920919821e+01 1.9123801343849586e+01 0.0000000000000000e+00  1.1758852811437908e+01 1.6578109748199207e+01 0.0000000000000000e+00  1.4732315385242956e+01 2.0743878601657652e+01 0.0000000000000000e+00  1.3446819873573423e+01 1.7925496320350184e+01 0.0000000000000000e+00  1.6723446068934305e+01 2.2259466686813237e+01 0.0000000000000000e+00  1.5314475362563149e+01 1.9295510906878221e+01 0.0000000000000000e+00  1.8742069076016282e+01 2.3683410732534043e+01 0.0000000000000000e+00  1.7278153999245070e+01 2.0681578488631079e+01 0.0000000000000000e+00  2.0723043962640364e+01 2.4862294055451535e+01 0.0000000000000000e+00  1.9266138790664659e+01 2.1918969861466913e+01 0.0000000000000000e+00  2.2590147158845625e+01 2.5707826972177017e+01 0.0000000000000000e+00  2.1213339726093427e+01 2.2938267577776035e+01 0.0000000000000000e+00  2.4282523239958266e+01 2.5829439594946219e+01 0.0000000000000000e+00  2.3042658974183226e+01 2.3324003218448681e+01 0.0000000000000000e+00  2.5759315512728204e+01 2.5760178442939043e+01 0.0000000000000000e+00  2.4696208891195823e+01 2.3582985022313260e+01 0.0000000000000000e+00  2.6971949835302844e+01 2.4301998383395158e+01 0.0000000000000000e+00  2.6126677958564041e+01 2.2519719968408168e+01 0.0000000000000000e+00  2.7923037196933969e+01 2.2828201013229425e+01 0.0000000000000000e+00  2.7295725851847624e+01 2.1447777648617617e+01 0.0000000000000000e+00  2.8595237357923100e+01 1.9368590665085321e+01 0.0000000000000000e+00  2.8190867938563702e+01 1.8399223301712698e+01 0.0000000000000000e+00  2.9039665062949069e+01 1.5941477448438828e+01 0.0000000000000000e+00  2.8816470478557896e+01 1.5331224058167464e+01 0.0000000000000000e+00  2.9265708909464763e+01 1.0391884285217705e+01 0.0000000000000000e+00  2.9193405710695039e+01 1.0091429861063627e+01 0.0000000000000000e+00  2.9368098361308739e+01 3.8078340329782305e+00 0.0000000000000000e+00  2.9372022501400696e+01 3.7234300744170010e+00 0.0000000000000000e+00  2.9389264430639784e+01 1.2526485152851885e-05 0.0000000000000000e+00  2.9389463964074515e+01 2.2207455970503707e-04 0.0000000000000000e+00  2.9389262614623640e+01 -1.4063299501822508e-19 0.0000000000000000e+00  2.1063430480824774e+01 -1.1616134516259333e+01 0.0000000000000000e+00  2.9366934960376128e+01 8.3463894040519837e-01 0.0000000000000000e+00  2.9389457011840779e+01 -1.8840090182040221e-04 0.0000000000000000e+00  2.0630321767629741e+01 -2.0892527268818036e+01 0.0000000000000000e+00  2.1093245989606213e+01 -2.0310797406578420e+01 0.0000000000000000e+00  1.7609192906930719e+01 -2.7897124615926856e+01 0.0000000000000000e+00  2.0720176643909781e+01 -2.3407207728051006e+01 0.0000000000000000e+00  1.6443757282575966e+01 -2.9368177317558441e+01 0.0000000000000000e+00  1.7757080107999798e+01 -2.7671737914479866e+01 0.0000000000000000e+00  1.4645266487046424e+01 -3.0812215044163043e+01 0.0000000000000000e+00  1.6645800949496707e+01 -2.8159890733558392e+01 0.0000000000000000e+00  1.3266672636825877e+01 -3.0004783987696033e+01 0.0000000000000000e+00  1.4899028025525361e+01 -2.7983212304742366e+01 0.0000000000000000e+00  1.1877259520717615e+01 -2.8933466504733371e+01 0.0000000000000000e+00  1.3571645659323288e+01 -2.6891919274568316e+01 0.0000000000000000e+00  1.0657085369326657e+01 -2.7019588264502481e+01 0.0000000000000000e+00  1.2230510670768588e+01 -2.5232583617963364e+01 0.0000000000000000e+00  9.2851935951522098e+00 -2.5148166305248946e+01 0.0000000000000000e+00  1.1057211686371872e+01 -2.3131251543459083e+01 0.0000000000000000e+00  8.2528108180152149e+00 -2.2909093439165137e+01 0.0000000000000000e+00  9.7311888638290434e+00 -2.1400617842083353e+01 0.0000000000000000e+00  7.3745759866624709e+00 -2.0799348045523072e+01 0.0000000000000000e+00  8.7430707423303122e+00 -1.9521264932648052e+01 0.0000000000000000e+00  6.4404590624031961e+00 -1.8979127830222094e+01 0.0000000000000000e+00  7.9079324547441550e+00 -1.7616271163299874e+01 0.0000000000000000e+00  5.5692753688608123e+00 -1.7317702925115750e+01 0.0000000000000000e+00  7.0161647408831564e+00 -1.6048202297837005e+01 0.0000000000000000e+00  4.7632566038018584e+00 -1.5859515028019228e+01 0.0000000000000000e+00  6.1861452162302832e+00 -1.4687237199124876e+01 0.0000000000000000e+00  3.9996092912117405e+00 -1.4528216699027951e+01 0.0000000000000000e+00  5.4203756401472125e+00 -1.3418644729663601e+01 0.0000000000000000e+00  3.3178471430619441e+00 -1.3259577004908586e+01 0.0000000000000000e+00  4.6962854826671823e+00 -1.2272118681811898e+01 0.0000000000000000e+00  2.7198706102124635e+00 -1.2084988470469936e+01 0.0000000000000000e+00  4.0532214895970746e+00 -1.1222690104167585e+01 0.0000000000000000e+00  2.1735703363465602e+00 -1.0952502845812115e+01 0.0000000000000000e+00  3.4931882735298339e+00 -1.0167154050100200e+01 0.0000000000000000e+00  1.6965792237012904e+00 -9.8464849972496769e+00 0.0000000000000000e+00  2.9843363767724993e+00 -9.1644908363199900e+00 0.0000000000000000e+00  1.2912831706976824e+00 -8.7853675839354004e+00 0.0000000000000000e+00  2.5440587266868615e+00 -8.2106260600051630e+00 0.0000000000000000e+00  9.3180390627986720e-01 -7.7266311856404748e+00 0.0000000000000000e+00  2.1750934836418327e+00 -7.2200069601340546e+00 0.0000000000000000e+00  6.2875541148425618e-01 -6.6964647171998077e+00 0.0000000000000000e+00  1.8512501318508188e+00 -6.2743717751749779e+00 0.0000000000000000e+00  3.8637196224564313e-01 -5.6828574724067531e+00 0.0000000000000000e+00  1.5838329124748098e+00 -5.3509671297737604e+00 0.0000000000000000e+00  1.8637549088243174e-01 -4.7003040444404025e+00 0.0000000000000000e+00  1.3758742861250137e+00 -4.4325198521520388e+00 0.0000000000000000e+00  3.7891797689735364e-02 -3.7263675188107541e+00 0.0000000000000000e+00  1.2113655457662234e+00 -3.5340798959567175e+00 0.0000000000000000e+00  -6.6442660574563328e-02 -2.8662721109056863e+00 0.0000000000000000e+00  1.0956455580801532e+00 -2.7424931193721451e+00 0.0000000000000000e+00  -1.2845267513628897e-01 -1.9855245490259186e+00 0.0000000000000000e+00  1.0277079076296087e+00 -1.9207587440266474e+00 0.0000000000000000e+00  -1.8394734108598690e-01 -1.3112108431754601e+00 0.0000000000000000e+00  9.9523941025326834e-01 -1.2630780067577378e+00 0.0000000000000000e+00  -2.3663572852755346e-01 -6.8138582138240100e-01 0.0000000000000000e+00  9.8082824290084780e-01 -6.2485042727410212e-01 0.0000000000000000e+00  -3.5396674012510526e-01 1.8414366047419128e-01 0.0000000000000000e+00  9.4456920880244954e-01 3.1309850060681493e-01 0.0000000000000000e+00  -2.9946780481793811e-01 4.5209068521421854e+00 0.0000000000000000e+00  -6.6227942937736939e-01 4.8192656969333250e+00 0.0000000000000000e+00  3.7640036524519201e-02 4.8248863812851956e+00 0.0000000000000000e+00  4.7771001351220249e-01 5.7161516579238638e+00 0.0000000000000000e+00  1.0615746135877751e+00 6.3857737404335086e+00 0.0000000000000000e+00  1.6383728956511672e+00 7.3102548201219806e+00 0.0000000000000000e+00  2.1990669349473264e+00 7.9764318688991889e+00 0.0000000000000000e+00  2.8693574436307085e+00 8.8593714260191359e+00 0.0000000000000000e+00  3.4415033145197418e+00 9.4735581209773283e+00 0.0000000000000000e+00  3.5882036845901641e+00 9.4696677310535691e+00 0.0000000000000000e+00  4.5478638311663406e+00 1.0431361350656603e+01 0.0000000000000000e+00  1.4482931641856891e+00 4.8527118542662677e+00 0.0000000000000000e+00  1.0968273792165576e+01 1.8119018746617243e+01 0.0000000000000000e+00  9.8994927006212059e+00 1.5519353919659116e+01 0.0000000000000000e+00  9.7443310699463073e+00 1.4310926248395388e+01 0.0000000000000000e+00  1.0254167316852772e+01 1.4052071582485690e+01 0.0000000000000000e+00  1.1293573030042410e+01 1.4461038191723002e+01 0.0000000000000000e+00  1.2687916006377112e+01 1.5411136982625571e+01 0.0000000000000000e+00  1.4344176727574755e+01 1.6515710507999550e+01 0.0000000000000000e+00  1.6174461333926583e+01 1.7760992199621839e+01 0.0000000000000000e+00  1.8095175652299261e+01 1.8963407539287697e+01 0.0000000000000000e+00  2.0035729995938681e+01 2.0049684675681650e+01 0.0000000000000000e+00  2.1928165513170054e+01 2.0614472492480239e+01 0.0000000000000000e+00  2.3696939964783791e+01 2.1141941623966765e+01 0.0000000000000000e+00  2.5282810732034708e+01 2.0415495046105004e+01 0.0000000000000000e+00  2.6639553081453453e+01 1.9745395533819302e+01 0.0000000000000000e+00  2.7724241046928704e+01 1.7101063312604388e+01 0.0000000000000000e+00  2.8534440661871606e+01 1.4461195833040026e+01 0.0000000000000000e+00  2.9055242750412933e+01 9.5663362185478480e+00 0.0000000000000000e+00  2.9341180752765634e+01 3.5506958135420170e+00 0.0000000000000000e+00  2.9389943050522849e+01 4.2325555317299736e-04 0.0000000000000000e+00  2.9328522297187380e+01 9.9467381419096967e-01 0.0000000000000000e+00  2.9389933568420208e+01 -3.7036562522635620e-04 0.0000000000000000e+00  2.9172181888517748e+01 -7.9195437077127000e+00 0.0000000000000000e+00  2.0963732336214687e+01 -2.2900111564585004e+01 0.0000000000000000e+00  2.0672101124402733e+01 -2.3269360894200421e+01 0.0000000000000000e+00  1.7777891197907714e+01 -2.6534422505170209e+01 0.0000000000000000e+00  1.6733068309489486e+01 -2.5395970861595785e+01 0.0000000000000000e+00  1.5043281384627235e+01 -2.4936779787093375e+01 0.0000000000000000e+00  1.3772156872161261e+01 -2.3251228090575228e+01 0.0000000000000000e+00  1.2481530170058221e+01 -2.1400148064591107e+01 0.0000000000000000e+00  1.1355943849648964e+01 -1.9439609811788419e+01 0.0000000000000000e+00  1.0075455670117067e+01 -1.8065539296608254e+01 0.0000000000000000e+00  9.1308314955376932e+00 -1.6388459488956126e+01 0.0000000000000000e+00  8.3371706903696996e+00 -1.4735367222563990e+01 0.0000000000000000e+00  7.4859152770774147e+00 -1.3465829474690299e+01 0.0000000000000000e+00  6.6948618408622487e+00 -1.2292604425727234e+01 0.0000000000000000e+00  5.9666058983912746e+00 -1.1208235118049664e+01 0.0000000000000000e+00  5.2790159619897752e+00 -1.0279488697124288e+01 0.0000000000000000e+00  4.6712378018855309e+00 -9.3477189303221575e+00 0.0000000000000000e+00  4.1453340073101668e+00 -8.4214255761113552e+00 0.0000000000000000e+00  3.6697516726315915e+00 -7.5698694522488621e+00 0.0000000000000000e+00  3.2618584892261668e+00 -6.6855119588738878e+00 0.0000000000000000e+00  2.9243503913832884e+00 -5.8074738030006863e+00 0.0000000000000000e+00  2.6314304998934723e+00 -4.9678643876545925e+00 0.0000000000000000e+00  2.3940415621339777e+00 -4.1388388404258576e+00 0.0000000000000000e+00  2.2157985374565463e+00 -3.3041653354562026e+00 0.0000000000000000e+00  2.0798589854489813e+00 -2.5873785623412813e+00 0.0000000000000000e+00  1.9931924180551934e+00 -1.8333728365931101e+00 0.0000000000000000e+00  1.9517382722835517e+00 -1.2347506398601633e+00 0.0000000000000000e+00  1.9483521591353006e+00 -6.1356695302529507e-01 0.0000000000000000e+00  1.9583404700591105e+00 3.4537937493739079e-01 0.0000000000000000e+00  9.6161670004955879e-01 3.9747974675472020e+00 0.0000000000000000e+00  6.3637301435754656e-01 4.3344637604556784e+00 0.0000000000000000e+00  1.3274838963052669e+00 4.3163352019358063e+00 0.0000000000000000e+00  1.6692507052246257e+00 5.0538050745247496e+00 0.0000000000000000e+00  2.1128698787886493e+00 5.5083528028349082e+00 0.0000000000000000e+00  2.6994757125482591e+00 6.4445325503037774e+00 0.0000000000000000e+00  3.2775236696779007e+00 7.1367085023888386e+00 0.0000000000000000e+00  3.8368244760948973e+00 7.8568884734817157e+00 0.0000000000000000e+00  4.5031591551090120e+00 8.6207649264126669e+00 0.0000000000000000e+00  5.0680001679544340e+00 9.2581704582636206e+00 0.0000000000000000e+00  5.2028595340465467e+00 9.0031459434726422e+00 0.0000000000000000e+00  6.1471481361719009e+00 9.5138959247077128e+00 0.0000000000000000e+00  3.0360316693635974e+00 3.8428936867168226e+00 0.0000000000000000e+00  1.2554813779757577e+01 1.7124826448046221e+01 0.0000000000000000e+00  1.1483769286916800e+01 1.4554602252352122e+01 0.0000000000000000e+00  1.1315771152110216e+01 1.3304647464719485e+01 0.0000000000000000e+00  1.1802736384640653e+01 1.2925851492238424e+01 0.0000000000000000e+00  1.2810068828516723e+01 1.3350417585337819e+01 0.0000000000000000e+00  1.4163579075846476e+01 1.4068715769646360e+01 0.0000000000000000e+00  1.5769171942087770e+01 1.5059185614887392e+01 0.0000000000000000e+00  1.7539794975242540e+01 1.6133269297897812e+01 0.0000000000000000e+00  1.9391399394234277e+01 1.7198207069637608e+01 0.0000000000000000e+00  2.1250531764095239e+01 1.7841452617990559e+01 0.0000000000000000e+00  2.3051211022911350e+01 1.8566807585833327e+01 0.0000000000000000e+00  2.4713344999551417e+01 1.8119826144916132e+01 0.0000000000000000e+00  2.6181327883266647e+01 1.7810710502277125e+01 0.0000000000000000e+00  2.7400370406883003e+01 1.5573127065542616e+01 0.0000000000000000e+00  2.8340445585865080e+01 1.3378535897249645e+01 0.0000000000000000e+00  2.8975410559083560e+01 8.8863721474035664e+00 0.0000000000000000e+00  2.9334122197603694e+01 3.3076180028741908e+00 0.0000000000000000e+00  2.9390692499003574e+01 6.0635265980047153e-04 0.0000000000000000e+00  2.9304203387444105e+01 1.3089379405003569e+00 0.0000000000000000e+00  2.9390683953411163e+01 -5.3051971252523155e-04 0.0000000000000000e+00  2.8935208113226626e+01 -7.6271302467149429e+00 0.0000000000000000e+00  2.8766624681703117e+01 -1.0668427132884020e+01 0.0000000000000000e+00  2.0670994202821518e+01 -2.2933817910259680e+01 0.0000000000000000e+00  2.0510710777828642e+01 -2.2274444125339937e+01 0.0000000000000000e+00  1.7726936299607669e+01 -2.3909269816489616e+01 0.0000000000000000e+00  1.6781444832951042e+01 -2.2467879988112447e+01 0.0000000000000000e+00  1.5178286137015284e+01 -2.1407995581172806e+01 0.0000000000000000e+00  1.3987147000295952e+01 -1.9520900507885411e+01 0.0000000000000000e+00  1.2767830422133377e+01 -1.7804230576958826e+01 0.0000000000000000e+00  1.1709116707138879e+01 -1.6194178386978155e+01 0.0000000000000000e+00  1.0491000614838272e+01 -1.5019026620640766e+01 0.0000000000000000e+00  9.6056053637820433e+00 -1.3590041525263951e+01 0.0000000000000000e+00  8.8689510833044718e+00 -1.2232666603891339e+01 0.0000000000000000e+00  8.0726609318353333e+00 -1.1148235634442200e+01 0.0000000000000000e+00  7.3343228777233094e+00 -1.0156405571683027e+01 0.0000000000000000e+00  6.6568965793645356e+00 -9.2871596769090328e+00 0.0000000000000000e+00  6.0181440545062506e+00 -8.4738415038482771e+00 0.0000000000000000e+00  5.4573005960584569e+00 -7.6689024101604737e+00 0.0000000000000000e+00  4.9766148782408157e+00 -6.8917245658073263e+00 0.0000000000000000e+00  4.5447231665051939e+00 -6.1077066087950627e+00 0.0000000000000000e+00  4.1788968411391165e+00 -5.3344522832870602e+00 0.0000000000000000e+00  3.8823806097904603e+00 -4.5603863230441881e+00 0.0000000000000000e+00  3.6288596125426626e+00 -3.8145738102056952e+00 0.0000000000000000e+00  3.4303245906850255e+00 -3.0665351623284782e+00 0.0000000000000000e+00  3.2888297632223620e+00 -2.4146006314695398e+00 0.0000000000000000e+00  3.1902582128292032e+00 -1.7298169006187440e+00 0.0000000000000000e+00  3.1366149774391685e+00 -1.2050081154133814e+00 0.0000000000000000e+00  3.1332338443305354e+00 -6.2878174298827472e-01 0.0000000000000000e+00  3.1536096290145541e+00 2.9615059135813560e-01 0.0000000000000000e+00  2.2891990762431287e+00 3.4841601845356793e+00 0.0000000000000000e+00  1.9998957280053620e+00 3.9047061988811893e+00 0.0000000000000000e+00  2.6188850274620412e+00 3.7626847228063864e+00 0.0000000000000000e+00  2.9926947566947413e+00 4.5350888116574382e+00 0.0000000000000000e+00  3.3433023796337715e+00 4.8368928242489835e+00 0.0000000000000000e+00  3.7958597409697790e+00 5.5593436531191864e+00 0.0000000000000000e+00  4.3901189946800079e+00 6.2653904269912362e+00 0.0000000000000000e+00  4.9739251718401860e+00 7.0159017068538061e+00 0.0000000000000000e+00  5.5359727169870974e+00 7.6220091337216056e+00 0.0000000000000000e+00  6.2006621069638221e+00 8.4149723834756323e+00 0.0000000000000000e+00  6.7584529461055851e+00 8.8095975832484061e+00 0.0000000000000000e+00  6.8812105410343101e+00 8.1079447694428755e+00 0.0000000000000000e+00  7.8124570601855012e+00 8.5142897269384115e+00 0.0000000000000000e+00  4.7008011794637614e+00 2.8368687824006260e+00 0.0000000000000000e+00  1.4237447644554933e+01 1.6149603591693236e+01 0.0000000000000000e+00  1.3181298078169949e+01 1.3556439160162727e+01 0.0000000000000000e+00  1.3012973679841133e+01 1.2204547024564011e+01 0.0000000000000000e+00  1.3486467972357707e+01 1.1858666903335338e+01 0.0000000000000000e+00  1.4466067737762877e+01 1.2065355781487511e+01 0.0000000000000000e+00  1.5780368857438662e+01 1.2687340586946359e+01 0.0000000000000000e+00  1.7334393938843565e+01 1.3522281294052389e+01 0.0000000000000000e+00  1.9040225253069419e+01 1.4475569174468493e+01 0.0000000000000000e+00  2.0812901294229654e+01 1.5117590737687214e+01 0.0000000000000000e+00  2.2578615184076710e+01 1.5945236128448970e+01 0.0000000000000000e+00  2.4265402733008450e+01 1.5714396585079355e+01 0.0000000000000000e+00  2.5797879959338683e+01 1.5720166816736175e+01 0.0000000000000000e+00  2.7108363821599152e+01 1.3857451281978163e+01 0.0000000000000000e+00  2.8157086184284829e+01 1.2123202405302546e+01 0.0000000000000000e+00  2.8884942259722408e+01 8.0584263605726534e+00 0.0000000000000000e+00  2.9316490594545947e+01 2.9970116470054622e+00 0.0000000000000000e+00  2.9391684499731763e+01 7.7041421196531257e-04 0.0000000000000000e+00  2.9280764020619063e+01 1.7349951067563811e+00 0.0000000000000000e+00  2.9391676628176715e+01 -6.7314381133234751e-04 0.0000000000000000e+00  2.8781818396770021e+01 -6.9003129763597286e+00 0.0000000000000000e+00  2.8254607066394513e+01 