<?xml version="1.0"?>
<VTKFile type="UnstructuredGrid"  version="0.1"  >
<UnstructuredGrid>
<Piece  NumberOfPoints="1933" NumberOfCells="3640">
<Points>
<DataArray  type="Float64"  NumberOfComponents="3"  format="ascii">0.4752987785841519 0.00114682941056082 0  5.475298817037388 0.001083630815571546 0  5.47539368715162 7.501083769376795 0  0.4753936005796102 7.501146883318648 0  10.47529885789143 0.00102029666136143 0  10.47539385005659 7.501020467334438 0  15.47529897334022 0.0009567400106480471 0  15.47539413257876 7.500956921779078 0  20.47529924769889 0.000892938527189044 0  20.47539457840186 7.500893123233569 0  25.47529976311853 0.0008289094962097262 0  25.47539523219697 7.500829094685018 0  30.47530059562366 0.0007646955523498233 0  30.47539613867591 7.500764881387939 0  35.4753018153322 0.000700356489314016 0  35.47539734190933 7.500700544359828 0  40.47530348826831 0.0006359648803522793 0  40.47539888515065 7.500636156767132 0  45.47530567867327 0.0005716042299584905 0  45.47540081103795 7.500571802442161 0  50.47530845137225 0.0005073689171734389 0  50.47540316198395 7.500507576005676 0  55.47531187404712 0.0004433655280022904 0  55.47540598059651 7.500443584289089 0  60.47531601938188 0.0003797154044422722 0  60.47540930999139 7.500379948928408 0  65.47532096709809 0.0003165584118645415 0  65.47541319386626 7.500316810151203 0  70.47532680588868 0.0002540580794573948 0  70.47541767619032 7.500254331915397 0  75.4753336352442 0.0001924084281156967 0  75.47542280031493 7.500192708704774 0  80.47534156709858 0.000131842994772876 0  80.47542860722243 7.50013217446152 0  85.47535072712962 7.264682643241241e-05 0  85.47543513251063 7.500073014364218 0  90.47536125534717 1.517260020365071e-05 0  90.47544240150198 7.500015580471501 0  95.47537330526454 -4.013739793494681e-05 0  95.4754504215921 7.499960312681486 0  100.4753870402719 -9.272081659268536e-05 0  100.4754591705845 7.499907767043112 0  105.475402624585 -0.0001418523076698299 0  105.4754685792949 7.499858654220469 0  110.4754202036847 -0.0001865819764949166 0  110.4754785063126 7.499813891804312 0  115.4754398644611 -0.0002256457552144229 0  115.4754887028594 7.49977467494092 0  120.4754615560233 -0.0002573332636043153 0  120.4754987672296 7.499742569627341 0  125.4754849340142 -0.0002792917388572939 0  125.4755080940616 7.499719629993637 0  130.4755090554761 -0.0002882366043636739 0  130.4755158399334 7.499708530261649 0  135.4755317800464 -0.0002795375494826746 0  135.4755209683513 7.499712674380029 0  140.4755485881997 -0.0002466906596642323 0  140.4755225391085 7.49973618930759 0  145.4755502137703 -0.0001809565994710673 0  145.4755206586433 7.499783648860399 0  150.4755177044733 -7.290846007134623e-05 0  150.4755191792128 7.499859696391362 0  160.4755282581481 1.06187065710822e-18 0  165.4753638416459 -0.0002303180854509012 0  165.4755000216259 7.49973462737318 0  160.4755477581796 7.499917439622122 0  170.475274860807 -0.0004252549704191373 0  170.475451538696 7.499557048578878 0  175.4752261296316 -0.0005946393112384141 0  175.4754118261163 7.499395614029288 0  180.4751997644741 -0.0007441358395340284 0  180.4753818267352 7.499250242643182 0  185.4751861828068 -0.0008780779611716233 0  185.4753601444016 7.49911857755433 0  190.4751800736552 -0.0009998614419526679 0  190.4753449786462 7.498998097312365 0  195.4751784082833 -0.001112099481932785 0  195.4753347160217 7.498886626910351 0  200.475179409983 -0.001216780378898639 0  200.4753280656416 7.498782410977005 0  205.4751820058882 -0.001315415717131514 0  205.4753240432818 7.498684065508413 0  210.4751855291104 -0.001409162326544835 0  210.4753219145212 7.498590505006177 0  215.4751895535157 -0.001498915397746464 0  215.4753211358657 7.498500874935319 0  220.4751937999667 -0.001585376957414656 0  220.4753213056015 7.49841449692742 0  225.4751980817637 -0.001669105439528527 0  225.4753221260506 7.498330826638693 0  230.4752022720234 -0.001750551475545757 0  230.4753233756924 7.498249422046929 0  235.4752062836217 -0.00183008387274341 0  235.4753248889386 7.498169919753345 0  240.4752100565242 -0.001908008665082333 0  240.4753265415616 7.498092017225193 0  245.4752135495924 -0.001984583269785224 0  245.4753282402121 7.498015459388614 0  250.4752167351879 -0.002060027163728178 0  250.4753299148687 7.497940028397914 0  255.4752195956006 -0.002134530058588385 0  255.4753315133979 7.497865535735313 0  260.4752221207162 -0.00220825825037903 0  260.4753329976392 7.497791816039668 0  265.4752243065921 -0.002281359604492293 0  265.4753343406115 7.497718722245109 0  270.4752261547353 -0.002353967477905301 0  270.4753355245604 7.497646121750933 0  275.4752276719996 -0.002426203748235801 0  275.4753365396238 7.497573893461445 0  280.4752288710715 -0.00249818098810147 0  280.4753373829693 7.497501925646892 0  285.4752297715692 -0.002570003660253888 0  285.4753380582612 7.497430114704114 0  290.4752304017497 -0.002641767964155202 0  290.4753385753073 7.497358365058524 0  295.47523080079 -0.002713559551101836 0  295.4753389497704 7.49728659067104 0  300.4752310212498 -0.002785447579787335 0  300.4753392028488 7.497214718910858 0  305.4752311306048 -0.002857472198646415 0  305.4753393611747 7.497142697909238 0  310.4752312087128 -0.002929619980137834 0  310.4753394582006 7.497070508845589 0  5.475488098653439 15.00108409791326 0  0.4754880010082449 15.0011470183549 0  10.4754882705882 15.00102086494091 0  15.47548855588293 15.00095733252942 0  20.47548898229824 15.00089352558042 0  25.47548957335194 15.00082948363801 0  30.475490351114 15.00076525958484 0  35.47549133701489 15.00070091769369 0  40.47549255183234 15.00063653230116 0  45.47549401535858 15.00057218745391 0  50.47549574592064 15.00050797756546 0  55.4754977597675 15.00044400905678 0  60.47550007026528 15.00038040298548 0  65.4755026868006 15.00031729873357 0  70.47550561326221 15.00025485890724 0  75.47550884594708 15.00019327569799 0  80.47551237070668 15.00013277906418 0  85.47551615913692 15.00007364721603 0  90.47552016362141 15.00001622002021 0  95.47552431113262 14.9999609160561 0  100.4755284959263 14.99990825408804 0  105.475532571854 14.99985887951128 0  110.475536346187 14.99981359554552 0  115.4755395791683 14.99977339688546 0  120.4755419977194 14.99973949875732 0  125.4755433389573 14.99971334410332 0  130.4755434504367 14.99969655059969 0  135.4755424888158 14.99969071715901 0  140.4755412697449 14.99969692499237 0  145.475541798594 14.99971458230105 0  150.4755478402479 14.99973873190125 0  165.4755753388411 14.99963811275476 0  160.4755821771165 14.99976707727328 0  170.4755583601854 14.99949887048376 0  175.475537628605 14.99936074938436 0  180.4755173517802 14.9992291120403 0  185.4754994909062 14.99910554017933 0  190.4754846716372 14.99898988510101 0  195.4754728504349 14.99888134136876 0  200.4754636967488 14.99877893752599 0  205.4754567910232 14.99868173980959 0  210.4754517186305 14.9985889237236 0  215.4754481088814 14.99849978805403 0  220.4754456467033 14.99841374599519 0  225.4754440717174 14.99833030894314 0  230.4754431722304 14.99824906954271 0  235.4754427778271 14.99816968646573 0  240.4754427521854 14.99809187159122 0  245.4754429867727 14.99801537952282 0  250.4754433955828 14.99793999912681 0  255.4754439108566 14.99786554672704 0  260.4754444796699 14.99779186063166 0  265.4754450612183 14.99771879672761 0  270.4754456246824 14.99764622494881 0  275.4754461475161 14.99757402648763 0  280.4754466140694 14.99750209168091 0  285.4754470144549 14.99743031855426 0  290.4754473436032 14.99735861203933 0  295.475447600588 14.99728688384541 0  300.4754477884202 14.99721505276323 0  305.4754479149281 14.99714304451592 0  310.4754479958627 14.99707078841297 0  5.475581980075299 22.50108478291392 0  0.475581882943564 22.50114751265536 0  10.47558212666184 22.5010216179249 0  15.47558235238734 22.5009580896899 0  20.47558267468751 22.50089425969316 0  25.47558310410824 22.50083018832107 0  30.47558364747777 22.50076593944059 0  35.47558430938274 22.5007015825211 0  40.47558509256241 22.50063719382271 0  45.47558599766066 22.50057285747894 0  50.47558702259328 22.50050866689364 0  55.47558816164796 22.50044472666997 0  60.475589404359 22.50038115520443 0  65.47559073414898 22.50031808806089 0  70.47559212671568 22.50025568224837 0  75.47559354815274 22.50019412154973 0  80.47559495282694 22.50013362306208 0  85.47559628112251 22.50007444510175 0  90.47559745731478 22.50001689655685 0  95.47559838811274 22.49996134758074 0  100.4755989628599 22.49990824109609 0  105.4755990571138 22.49985810372602 0  110.4755985424259 22.49981155313868 0  115.4755973066862 22.4997692958159 0  120.4755952912759 22.4997321040388 0  125.475592552942 22.49970075212771 0  130.4755893580073 22.49967587814436 0  135.4755863100943 22.49965771750325 0  140.4755844907893 22.49964563253933 0  145.4755855379303 22.49963735770491 0  150.4755914709278 22.49962799070976 0  165.4756333598554 22.49953058313163 0  160.4756213334896 22.49962640464196 0  170.475635713818 22.49942150597051 0  175.4756312804043 22.49930696215483 0  180.4756230190739 22.49919223750043 0  185.4756132028702 22.49908031373479 0  190.4756032928018 22.49897254613115 0  195.4755941056566 22.49886932252043 0  200.4755860241337 22.49877052046704 0  205.4755791659559 22.49867578166975 0  210.4755735003525 22.49858466310112 0  215.4755689218314 22.49849671430556 0  220.4755652941763 22.49841151329977 0  225.475562475229 22.49832868040307 0  230.4755603298871 22.49824788091472 0  235.475558736162 22.4981688225673 0  240.4755575873143 22.49809125086646 0  245.4755567918876 22.49801494387437 0  250.4755562726918 22.49793970717171 0  255.4755559653523 22.49786536930203 0  260.475555816722 22.49779177779401 0  265.4755557833475 22.4977187957569 0  270.4755558300352 22.49764629900741 0  275.4755559285537 22.49757417367234 0  280.475556056479 22.49750231420564 0  285.4755561961802 22.49743062173649 0  290.4755563339971 22.49735900260408 0  295.4755564597071 22.49728736677978 0  300.4755565664
[...]
<PointData  Vectors="v"> 
<DataArray  type="Float64"  Name="v"  NumberOfComponents="3" format="ascii">4.3365919299049374e+00 3.1246457536850420e+00 0.0000000000000000e+00  4.5357232291224081e+00 2.5997710549687252e+00 0.0000000000000000e+00  3.8378917383049753e+00 2.3012342035376268e+00 0.0000000000000000e+00  3.6792696710188579e+00 2.8861425167317609e+00 0.0000000000000000e+00  4.7207571968894619e+00 2.4465227298374197e+00 0.0000000000000000e+00  4.0367003791036593e+00 2.1691609218238335e+00 0.0000000000000000e+00  4.7998497692247843e+00 2.3456164947087199e+00 0.0000000000000000e+00  4.2212704522054176e+00 2.2274357001789120e+00 0.0000000000000000e+00  4.7781225953420217e+00 1.8287808169002713e+00 0.0000000000000000e+00  4.2996555223294814e+00 1.8617540699113173e+00 0.0000000000000000e+00  4.7938121432840370e+00 1.5281030945778034e+00 0.0000000000000000e+00  4.2770695749653411e+00 1.5048860005138929e+00 0.0000000000000000e+00  4.7317097738432787e+00 9.9185663715432815e-01 0.0000000000000000e+00  4.2921457224389981e+00 1.0853801776458729e+00 0.0000000000000000e+00  4.6082882653269328e+00 4.0677803134600221e-01 0.0000000000000000e+00  4.2294504707498977e+00 5.9185249543667318e-01 0.0000000000000000e+00  4.7790782754769765e+00 2.2146982083673736e-01 0.0000000000000000e+00  4.1056563969240427e+00 -3.5039188049197263e-02 0.0000000000000000e+00  4.7547638843070645e+00 -2.4101203074550998e-01 0.0000000000000000e+00  4.2766592223733602e+00 -2.0505331911755620e-01 0.0000000000000000e+00  7.2540060779352196e+00 3.0263558382081159e+00 0.0000000000000000e+00  4.2530023913856780e+00 -7.2369421863525241e-01 0.0000000000000000e+00  8.4307760873648352e+00 4.2340377436935723e+00 0.0000000000000000e+00  6.7524652176354856e+00 2.4678228536982414e+00 0.0000000000000000e+00  8.7657498309264579e+00 4.0878014250717376e+00 0.0000000000000000e+00  7.9304860621286686e+00 3.5825610620108668e+00 0.0000000000000000e+00  8.7581023912982836e+00 3.3685019745991185e+00 0.0000000000000000e+00  8.2684116924010205e+00 3.3760219401119578e+00 0.0000000000000000e+00  8.5498510123476503e+00 2.3636030407010460e+00 0.0000000000000000e+00  8.2649285340501883e+00 2.6704324524357408e+00 0.0000000000000000e+00  8.2648885944492072e+00 1.2773394046197768e+00 0.0000000000000000e+00  8.0629609985775605e+00 1.6984709551965769e+00 0.0000000000000000e+00  7.9013164837622938e+00 1.2439256759789637e-01 0.0000000000000000e+00  7.7855280082953753e+00 6.6131445386915577e-01 0.0000000000000000e+00  7.4477520553513168e+00 -1.0177178489971568e+00 0.0000000000000000e+00  7.4310246371219506e+00 -3.4747700474223708e-01 0.0000000000000000e+00  6.8931095209986628e+00 -2.2279799529259465e+00 0.0000000000000000e+00  6.9893795604829965e+00 -1.4075865575011661e+00 0.0000000000000000e+00  6.2256522775688863e+00 -3.4795302880093963e+00 0.0000000000000000e+00  6.4483105803117713e+00 -2.4930318807119187e+00 0.0000000000000000e+00  5.4464284658054227e+00 -4.7883264637058973e+00 0.0000000000000000e+00  5.7974044173891039e+00 -3.6361701830928181e+00 0.0000000000000000e+00  4.5880618490042560e+00 -6.0757590635359913e+00 0.0000000000000000e+00  5.0377693107672092e+00 -4.8081182532966347e+00 0.0000000000000000e+00  3.6907046258195115e+00 -7.4374549496354065e+00 0.0000000000000000e+00  4.2031716917456592e+00 -6.1138134705642644e+00 0.0000000000000000e+00  2.7984075661956607e+00 -8.4947462339881259e+00 0.0000000000000000e+00  3.3312875925059702e+00 -7.1841249122522584e+00 0.0000000000000000e+00  1.9807798750697621e+00 -9.6197674550452845e+00 0.0000000000000000e+00  2.4726618615106473e+00 -8.4208871272965968e+00 0.0000000000000000e+00  1.2697362824821403e+00 -9.9751915198142740e+00 0.0000000000000000e+00  1.6871418947571242e+00 -8.9467411380002755e+00 0.0000000000000000e+00  7.2419328152165874e-01 -1.0362840942930687e+01 0.0000000000000000e+00  1.0220265938074289e+00 -9.5767551548963699e+00 0.0000000000000000e+00  3.3350958509962680e-01 -9.1818567796918273e+00 0.0000000000000000e+00  5.1476040521194588e-01 -8.6470400242770058e+00 0.0000000000000000e+00  1.2316722387771019e-01 -8.1541375501272615e+00 0.0000000000000000e+00  1.8529538490636652e-01 -7.8737775032324695e+00 0.0000000000000000e+00  2.1993690452598177e-02 -3.9518598472592568e+00 0.0000000000000000e+00  1.8236410580733435e-02 -3.8677968471375657e+00 0.0000000000000000e+00  -6.0947278708408671e-09 1.3529046756055096e-10 0.0000000000000000e+00  7.4420260761492074e-04 7.1246021403530331e-04 0.0000000000000000e+00  1.1800445840199216e-10 -3.6925557334322099e-19 0.0000000000000000e+00  -1.4472897034576555e+00 7.1064429319222677e+00 0.0000000000000000e+00  2.7398909266362424e-02 9.2969725817234004e+00 0.0000000000000000e+00  7.4193574829344261e-04 -7.5352246984542294e-04 0.0000000000000000e+00  2.0104968664023742e-01 1.1843577109278344e+01 0.0000000000000000e+00  -1.4489934626548144e+00 9.4156452517705471e+00 0.0000000000000000e+00  2.0703158043068526e-01 1.1109898494010137e+01 0.0000000000000000e+00  1.6383830066894356e-01 1.1118528624503323e+01 0.0000000000000000e+00  8.1150656811584287e-01 1.1026911811582144e+01 0.0000000000000000e+00  1.3881742841196015e-01 1.0146753433000717e+01 0.0000000000000000e+00  9.9638612082780775e-01 8.8654021517766974e+00 0.0000000000000000e+00  7.1743646279107998e-01 8.6074567222955487e+00 0.0000000000000000e+00  1.2576845159203967e+00 7.2157118449656918e+00 0.0000000000000000e+00  8.7948501034560478e-01 6.8432267657055093e+00 0.0000000000000000e+00  1.4061189394237601e+00 5.3841991391804234e+00 0.0000000000000000e+00  1.1192700622039098e+00 5.1770053599121324e+00 0.0000000000000000e+00  1.5689353734046219e+00 4.0242775260831696e+00 0.0000000000000000e+00  1.2496092951363924e+00 3.7957257696001889e+00 0.0000000000000000e+00  1.6368687447098313e+00 2.9323406939522876e+00 0.0000000000000000e+00  1.3959954253509053e+00 2.8434716015164132e+00 0.0000000000000000e+00  1.7559272824188237e+00 2.3327412511169388e+00 0.0000000000000000e+00  1.4488372702958687e+00 2.1661810996648390e+00 0.0000000000000000e+00  1.9031010042693914e+00 1.9634605568528225e+00 0.0000000000000000e+00  1.5546477538947165e+00 1.7537289533201454e+00 0.0000000000000000e+00  2.0290923955943811e+00 1.7940622620552198e+00 0.0000000000000000e+00  1.6898470583202276e+00 1.6150211750947219e+00 0.0000000000000000e+00  2.1251380306958545e+00 1.7221216893314062e+00 0.0000000000000000e+00  1.8047444819242702e+00 1.5869371862673425e+00 0.0000000000000000e+00  2.1938545583948765e+00 1.6739479212448345e+00 0.0000000000000000e+00  1.8909393161427270e+00 1.5792263511865170e+00 0.0000000000000000e+00  2.2145728534208438e+00 1.6295241977359247e+00 0.0000000000000000e+00  1.9506846306861754e+00 1.6059922810461009e+00 0.0000000000000000e+00  2.2117760995881750e+00 1.5919923719021030e+00 0.0000000000000000e+00  1.9630539409813446e+00 1.6031225072713493e+00 0.0000000000000000e+00  2.1952423469799918e+00 1.5368282827910700e+00 0.0000000000000000e+00  1.9526652432414553e+00 1.5681931676129082e+00 0.0000000000000000e+00  2.1572788177420499e+00 1.4674962436586210e+00 0.0000000000000000e+00  1.9290864572684456e+00 1.5305711035939349e+00 0.0000000000000000e+00  2.1102673912537422e+00 1.3984332056615452e+00 0.0000000000000000e+00  1.8844203830693760e+00 1.4747178852915523e+00 0.0000000000000000e+00  2.0646983003010133e+00 1.2991154281325084e+00 0.0000000000000000e+00  1.8311335137877394e+00 1.3730742253922457e+00 0.0000000000000000e+00  2.0051209072614693e+00 1.2146131667328699e+00 0.0000000000000000e+00  1.7795375000022102e+00 1.3093394142815726e+00 0.0000000000000000e+00  1.9435130662860034e+00 1.0706971185675791e+00 0.0000000000000000e+00  1.7141345480545818e+00 1.1683630497110109e+00 0.0000000000000000e+00  1.8728300191469496e+00 9.8036122006065651e-01 0.0000000000000000e+00  1.6467973434577454e+00 1.0914966616130337e+00 0.0000000000000000e+00  1.7911294151306181e+00 7.2934003658676583e-01 0.0000000000000000e+00  1.5706169691204959e+00 8.5707342221141114e-01 0.0000000000000000e+00  1.6844785512680802e+00 6.7837645820030312e-01 0.0000000000000000e+00  1.4832199626887581e+00 8.4325053847975406e-01 0.0000000000000000e+00  1.5526684351165139e+00 1.9235187688756269e-01 0.0000000000000000e+00  1.3713050357464531e+00 3.9538876142460844e-01 0.0000000000000000e+00  1.3790637752144597e+00 2.9762275847300224e-01 0.0000000000000000e+00  1.2335811429940426e+00 5.6264268672468876e-01 0.0000000000000000e+00  1.1020475188974255e+00 -6.3541293381266661e-01 0.0000000000000000e+00  1.0551506129734010e+00 -2.1408740149230515e-01 0.0000000000000000e+00  6.3443315441153947e-01 -7.9288803411194442e-01 0.0000000000000000e+00  7.7132975516404079e-01 -8.7736282337645327e-02 0.0000000000000000e+00  -4.6772261860821623e-01 -2.8941146715808086e-01 0.0000000000000000e+00  3.0101208888189435e-01 1.3717109680680262e+00 0.0000000000000000e+00  3.1235319942430935e+00 2.0640832910200735e+00 0.0000000000000000e+00  2.9385152502231406e+00 2.6069463673298618e+00 0.0000000000000000e+00  3.2806783912601305e+00 1.8723346567383197e+00 0.0000000000000000e+00  3.4769263367136203e+00 1.9523039537935376e+00 0.0000000000000000e+00  3.6582256609417700e+00 1.7462971934025624e+00 0.0000000000000000e+00  3.7327567582323393e+00 1.5414315942665413e+00 0.0000000000000000e+00  3.7056793004326316e+00 1.0653606212193409e+00 0.0000000000000000e+00  3.7161259036882499e+00 6.8839949185361682e-01 0.0000000000000000e+00  3.6490634087287037e+00 1.5338050319712360e-01 0.0000000000000000e+00  3.5211174730847223e+00 -4.5984129549215536e-01 0.0000000000000000e+00  3.6895731528845301e+00 -6.8777348273696814e-01 0.0000000000000000e+00  3.6639105999681680e+00 -1.2775820506522955e+00 0.0000000000000000e+00  6.1559950813410822e+00 1.8202366216735995e+00 0.0000000000000000e+00  7.3275146536428286e+00 2.8698292509446603e+00 0.0000000000000000e+00  7.6642180981085160e+00 2.6761095727941941e+00 0.0000000000000000e+00  7.6614555803155602e+00 1.9987978190731630e+00 0.0000000000000000e+00  7.4636107614207674e+00 1.0739617583613743e+00 0.0000000000000000e+00  7.1924048056466328e+00 1.8021000482049651e-01 0.0000000000000000e+00  6.8458871273776269e+00 -7.5181446911868477e-01 0.0000000000000000e+00  6.4155284109101238e+00 -1.6899777420238440e+00 0.0000000000000000e+00  5.8891743615275880e+00 -2.6690423449800296e+00 0.0000000000000000e+00  5.2558987283540510e+00 -3.6828239153561877e+00 0.0000000000000000e+00  4.5199826965013719e+00 -4.8777226088927783e+00 0.0000000000000000e+00  3.7141473691799081e+00 -5.8969913619813390e+00 0.0000000000000000e+00  2.8783023503197520e+00 -7.1562778651119352e+00 0.0000000000000000e+00  2.0627104094074644e+00 -7.8020498375282346e+00 0.0000000000000000e+00  1.3325005589149581e+00 -8.6081059603185697e+00 0.0000000000000000e+00  7.2660414824825981e-01 -7.9406529788292861e+00 0.0000000000000000e+00  3.0237138404482783e-01 -7.4097409259476308e+00 0.0000000000000000e+00  4.8347907226633229e-02 -3.7053910578125846e+00 0.0000000000000000e+00  2.5523243754432354e-03 1.3594918238004018e-03 0.0000000000000000e+00  5.5289990650091089e-02 9.1395782648467314e+00 0.0000000000000000e+00  2.5480574686257283e-03 -1.5506563829751332e-03 0.0000000000000000e+00  2.0826654588060661e-01 1.1640993548003330e+01 0.0000000000000000e+00  -1.3175164817660994e+00 8.7401390912973227e+00 0.0000000000000000e+00  2.3646115546824742e-01 1.0210957845323842e+01 0.0000000000000000e+00  1.6967472195680586e-01 7.7632896607971071e+00 0.0000000000000000e+00  7.1134264460306296e-01 6.6156276232918225e+00 0.0000000000000000e+00  8.4612693509888626e-01 4.8353314048444762e+00 0.0000000000000000e+00  1.0596061801082013e+00 3.6125704663613045e+00 0.0000000000000000e+00  1.1692582862506660e+00 2.6351097220260398e+00 0.0000000000000000e+00  1.2973695203520059e+00 2.0973883837360447e+00 0.0000000000000000e+00  1.3339453062923607e+00 1.6038648396607891e+00 0.0000000000000000e+00  1.4254868621740362e+00 1.4196646009220044e+00 0.0000000000000000e+00  1.5483328779408383e+00 1.4219263780087998e+00 0.0000000000000000e+00  1.6518740613277401e+00 1.4560126747244386e+00 0.0000000000000000e+00  1.7282939014577279e+00 1.5215340948852101e+00 0.0000000000000000e+00  1.7796148622251393e+00 1.5894316787507219e+00 0.0000000000000000e+00  1.7844179371998075e+00 1.5879019562080090e+00 0.0000000000000000e+00  1.7674354696474370e+00 1.5694755417056137e+00 0.0000000000000000e+00  1.7380816771695971e+00 1.5451089740749240e+00 0.0000000000000000e+00  1.6880793823318081e+00 1.4560291485889232e+00 0.0000000000000000e+00  1.6299210580122840e+00 1.3894688089112341e+00 0.0000000000000000e+00  1.5738026532463845e+00 1.2692342943251795e+00 0.0000000000000000e+00  1.5039666086233199e+00 1.1950826867440245e+00 0.0000000000000000e+00  1.4323413315353468e+00 9.7397784879694338e-01 0.0000000000000000e+00  1.3518501506664939e+00 9.7685878963397343e-01 0.0000000000000000e+00  1.2601720226934940e+00 5.6611397220599513e-01 0.0000000000000000e+00  1.1437538947231853e+00 7.7150104450375667e-01 0.0000000000000000e+00  1.0018097921167401e+00 5.6894554352093354e-02 0.0000000000000000e+00  8.1860629259182049e-01 3.3969865368703883e-01 0.0000000000000000e+00  5.3073941365485533e-01 2.0808846784938213e+00 0.0000000000000000e+00  2.2555276096504087e+00 1.7883010562243302e+00 0.0000000000000000e+00  2.0830144687440932e+00 2.3456471464932918e+00 0.0000000000000000e+00  2.4375891396678324e+00 1.6398874978072198e+00 0.0000000000000000e+00  2.5892741374985895e+00 1.6620935837219248e+00 0.0000000000000000e+00  2.7789052319115224e+00 1.4798798924801320e+00 0.0000000000000000e+00  2.9515994361277991e+00 1.4362118417366934e+00 0.0000000000000000e+00  3.0159436536149231e+00 1.1131716707091190e+00 0.0000000000000000e+00  2.9778773211825595e+00 6.8064988116553138e-01 0.0000000000000000e+00  2.9765467132501926e+00 2.6169181962499027e-01 0.0000000000000000e+00  2.8980220268092345e+00 -2.6135163667416733e-01 0.0000000000000000e+00  2.7607603001501064e+00 -9.3573457790609516e-01 0.0000000000000000e+00  2.9226839104280282e+00 -1.2344883860555038e+00 0.0000000000000000e+00  2.8864005250111058e+00 -1.9050192147298635e+00 0.0000000000000000e+00  5.3567579568404780e+00 1.1271250045065584e+00 0.0000000000000000e+00  6.5088456049301042e+00 2.1765798036878827e+00 0.0000000000000000e+00  6.8362763199997341e+00 2.0049582033153008e+00 0.0000000000000000e+00  6.8299841940412778e+00 1.3695147704603174e+00 0.0000000000000000e+00  6.6324638398722504e+00 5.8305413859200150e-01 0.0000000000000000e+00  6.3644371754645395e+00 -2.3856875391137292e-01 0.0000000000000000e+00  6.0249473744222009e+00 -1.0533793016261908e+00 0.0000000000000000e+00  5.6048809779136795e+00 -1.8922877766394710e+00 0.0000000000000000e+00  5.0932175335650891e+00 -2.7509071795576503e+00 0.0000000000000000e+00  4.4823034481868573e+00 -3.7958784521301547e+00 0.0000000000000000e+00  3.7755394817985288e+00 -4.7208588711234691e+00 0.0000000000000000e+00  3.0114465542103623e+00 -5.9398877114135038e+00 0.0000000000000000e+00  2.2280541340678073e+00 -6.6338333113408101e+00 0.0000000000000000e+00  1.4860002367717953e+00 -7.5697548372865597e+00 0.0000000000000000e+00  8.4093068868690268e-01 -7.1257473990415576e+00 0.0000000000000000e+00  3.5764921769765246e-01 -6.8447829777239759e+00 0.0000000000000000e+00  5.5453269469508404e-02 -3.4875285496781374e+00 0.0000000000000000e+00  5.3720961264897881e-03 1.9436441329662810e-03 0.0000000000000000e+00  6.4654241620085151e-02 8.8940231948834843e+00 0.0000000000000000e+00  5.3677247312752556e-03 -2.2569259110017943e-03 0.0000000000000000e+00  3.4736374736580061e-01 1.1366704840498310e+01 0.0000000000000000e+00  5.0453352393649575e-01 1.1092512862917978e+01 0.0000000000000000e+00  -1.1092947525775498e+00 7.9544867468920524e+00 0.0000000000000000e+00  3.5084727506752755e-01 7.9119829653779910e+00 0.0000000000000000e+00  2.1858176085494677e-01 5.8480582666199377e+00 0.0000000000000000e+00  7.0770078686905880e-01 4.6636270078381612e+00 0.0000000000000000e+00  8.0182927178725594e-01 3.3211538700865968e+00 0.0000000000000000e+00  9.8008657830214962e-01 2.4935636984328817e+00 0.0000000000000000e+00  1.0614786842386750e+00 1.9253553932702021e+00 0.0000000000000000e+00  1.1643755952078285e+00 1.5661811802440773e+00 0.0000000000000000e+00  1.1793810720608982e+00 1.2979625794865126e+00 0.0000000000000000e+00  1.2519379508547261e+00 1.2511161462082350e+00 0.0000000000000000e+00  1.3577819440243066e+00 1.3127505758080338e+00 0.0000000000000000e+00  1.4463985627304965e+00 1.4174100195389856e+00 0.0000000000000000e+00  1.5101488413547317e+00 1.5213577018435358e+00 0.0000000000000000e+00  1.5505764884829005e+00 1.5883323921551196e+00 0.0000000000000000e+00  1.5461827630215683e+00 1.6016062054485192e+00 0.0000000000000000e+00  1.5214445160211176e+00 1.5948196050498591e+00 0.0000000000000000e+00  1.4853705172695273e+00 1.5361025901991405e+00 0.0000000000000000e+00  1.4294396200339499e+00 1.4813309855126620e+00 0.0000000000000000e+00  1.3659612868809812e+00 1.3577386946435470e+00 0.0000000000000000e+00  1.3047641695188656e+00 1.3039659906790499e+00 0.0000000000000000e+00  1.2300241973414652e+00 1.0856656467855605e+00 0.0000000000000000e+00  1.1533852585864566e+00 1.1016665436270581e+00 0.0000000000000000e+00  1.0679061714307443e+00 7.0819474366706570e-01 0.0000000000000000e+00  9.7076920360872831e-01 9.5014716712313518e-01 0.0000000000000000e+00  8.4929755993787037e-01 2.7503215911546947e-01 0.0000000000000000e+00  7.0118912705150271e-01 6.1784528555871787e-01 0.0000000000000000e+00  5.1406873065977554e-01 2.5184128427522197e+00 0.0000000000000000e+00  1.6192254859770172e+00 1.5319368728058216e+00 0.0000000000000000e+00  1.4499731490840293e+00 2.0883048243340379e+00 0.0000000000000000e+00  1.7878295295105109e+00 1.3713291943871431e+00 0.0000000000000000e+00  1.9624575745235311e+00 1.4409994366805616e+00 0.0000000000000000e+00  2.1045059686788981e+00 1.2035572338882392e+00 0.0000000000000000e+00  2.2817906585537098e+00 1.1870637704614289e+00 0.0000000000000000e+00  2.4397499594197432e+00 1.0284842450254932e+00 0.0000000000000000e+00  2.4868884603601251e+00 7.5069988733861226e-01 0.0000000000000000e+00  2.4299453658422725e+00 2.7721656967422703e-01 0.0000000000000000e+00  2.4094873917252642e+00 -1.3042786994242581e-01 0.0000000000000000e+00  2.3134910625140592e+00 -7.1960512416356692e-01 0.0000000000000000e+00  2.1619310929629556e+00 -1.4686427497194385e+00 0.0000000000000000e+00  2.3110059535185470e+00 -1.8369730799858157e+00 0.0000000000000000e+00  2.2508377001689857e+00 -2.5515755424515816e+00 0.0000000000000000e+00  4.6805060155512592e+00 4.7562926909188308e-01 0.0000000000000000e+00  5.7980992673824909e+00 1.5286612700075797e+00 0.0000000000000000e+00  6.1056290292840361e+00 1.3887584517248668e+00 0.0000000000000000e+00  6.0860651512694419e+00 8.8484734542947308e-01 0.0000000000000000e+00  5.8806891615101504e+00 1.6811069075113763e-01 0.0000000000000000e+00  5.6063357943899410e+00 -5.4222518301852696e-01 0.0000000000000000e+00  5.2629399156306516e+00 -1.2617457566810732e+00 0.0000000000000000e+00  4.8422516733800975e+00 -1.9863536856239414e+00 0.0000000000000000e+00  4.3347758484353403e+00 -2.8867222601281961e+00 0.0000000000000000e+00  3.7344037039511493e+00 -3.6773180921816584e+00 0.0000000000000000e+00  3.0516495485772763e+00 -4.8156323410353696e+00 0.0000000000000000e+00  2.3230312820917352e+00 -5.5021149180761384e+00 0.0000000000000000e+00  1.6013235914276265e+00 -6.5037397309242557e+00 0.0000000000000000e+00  9.3741453924473517e-01 -6.2501628758351666e+00 0.0000000000000000e+00  4.1989630819830331e-01 -6.1939595403982315e+00 0.0000000000000000e+00  7.3167004780379546e-02 -3.2211214612222254e+00 0.0000000000000000e+00  9.0926159003437961e-03 2.4625493888782062e-03 0.0000000000000000e+00  7.9498496808699443e-02 8.6119652775953028e+00 0.0000000000000000e+00  9.0881184784128762e-03 -2.8795780819332031e-03 0.0000000000000000e+00  3.9966473607855341e-01 1.0837440533729920e+01 0.0000000000000000e+00  7.6988041937443086e-01 1.0840798759236948e+01 0.0000000000000000e