<?xml version="1.0"?>
<VTKFile type="UnstructuredGrid"  version="0.1"  >
<UnstructuredGrid>
<Piece  NumberOfPoints="1933" NumberOfCells="3640">
<Points>
<DataArray  type="Float64"  NumberOfComponents="3"  format="ascii">-0.4752553674937459 -0.002556842898345342 0  4.524744681187824 -0.00248919068751643 0  4.524643178872029 7.497510918603728 0  -0.4753568832685319 7.497443245903129 0  9.524744766421403 -0.002421616614807004 0  9.524643278685378 7.497578493197873 0  14.52474492988088 -0.0023541033315205 0  14.52464342947944 7.49764600163279 0  19.52474520394914 -0.002286608723623635 0  19.52464364095726 7.497713490745173 0  24.52474561069161 -0.002219078776752831 0  24.52464391918853 7.497781015949048 0  29.52474616331787 -0.002151453260040655 0  29.52464426615551 7.497848637720217 0  34.52474686790999 -0.002083667974469908 0  34.52464467940902 7.497916420116077 0  39.52474772476819 -0.002015655228017115 0  39.52464515178846 7.497984430575934 0  44.52474872923919 -0.001947343328248493 0  44.52464567107635 7.498052740519055 0  49.52474987204427 -0.001878655468277607 0  49.5246462194734 7.498121426476693 0  54.52475113914532 -0.001809508165107733 0  54.52464677280047 7.498190571640484 0  59.52475251116208 -0.00173980928432659 0  59.52464729933875 7.498260267806017 0  64.5247539623149 -0.001669455601457847 0  64.52464775820073 7.49833061776031 0  69.52475545880317 -0.001598329780377959 0  69.52464809709582 7.498401738221858 0  74.52475695646305 -0.001526296575044456 0  74.52464824929785 7.498473763502596 0  79.52475839742604 -0.001453197966779166 0  79.52464812954389 7.498546850133516 0  84.52475970533463 -0.001378846818499343 0  84.52464762849046 7.498621182784815 0  89.52476077837451 -0.001303018437528435 0  89.52464660520701 7.498696981921563 0  94.52476147890505 -0.001225439160443756 0  94.52464487701063 7.498774513759819 0  99.52476161760649 -0.001145770668982911 0  99.52464220576901 7.498854103193114 0  104.5247609285592 -0.001063588176728667 0  104.5246382796781 7.498936150350796 0  109.5247590289142 -0.0009783498822553635 0  109.5246326897201 7.499021151082562 0  114.5247553518099 -0.0008893542805894926 0  114.5246249010502 7.499109720365942 0  119.5247490319069 -0.0007956815755146777 0  119.5246142227277 7.499202614098891 0  124.5247387057156 -0.0006961172265396002 0  124.5245997873277 7.499300736127831 0  129.5247221568602 -0.0005890646709003001 0  129.5245805710761 7.499405097719445 0  134.5246956767767 -0.0004724857836326381 0  134.5245555279809 7.49951665449709 0  139.5246528994095 -0.0003440109664652835 0  139.5245240044851 7.499635863343699 0  144.5245826510429 -0.0002017147817389722 0  144.5244868019004 7.499761677555836 0  149.5244648796297 -4.740712994127789e-05 0  149.5244487071718 7.499889729750813 0  159.5244717418521 9.553111740194503e-19 0  164.5244607930894 -6.316902031314651e-05 0  164.5244715558623 7.499920600927536 0  159.5244667816823 7.499962499519198 0  169.5244729987306 -9.224687907308396e-05 0  169.5244759676557 7.499899941330614 0  174.5244941070591 -9.774798406450727e-05 0  174.524482649696 7.499898314936669 0  179.5245176602569 -8.627740914033863e-05 0  179.5244913843278 7.499911714447602 0  184.5245407577139 -6.238642705264997e-05 0  184.5245013681226 7.499936603630327 0  189.5245621779478 -2.929165895839331e-05 0  189.5245118519737 7.499970225918277 0  194.5245814955042 1.070756779352405e-05 0  194.5245222846085 7.500010507506619 0  199.524598655251 5.594918919667489e-05 0  199.5245323054672 7.500055901324436 0  204.5246137656695 0.0001052159558832264 0  204.5245417007448 7.500105250095224 0  209.5246269989163 0.0001576034157182947 0  209.52455035913 7.500157681171887 0  214.5246385433331 0.000212429441320169 0  214.5245582368549 7.500212529559252 0  219.524648581751 0.0002691719504071033 0  219.524565332682 7.500269282556645 0  224.5246572824287 0.000327425629334925 0  224.5245716709081 7.50032754008184 0  229.5246647961145 0.0003868714748371136 0  229.5245772901986 7.50038698610923 0  234.524671256002 0.0004472550406070609 0  234.5245822364557 7.500447367929099 0  239.5246767789926 0.0005083706621248892 0  239.5245865583922 7.500508480922238 0  244.5246814674917 0.0005700498476843812 0  244.524590304903 7.500570157256062 0  249.524685411374 0.0006321526248405425 0  249.5245935236121 7.500632257404959 0  254.5246886899662 0.0006945610296748475 0  254.5245962601986 7.500694663742426 0  259.5246913739867 0.0007571741953209118 0  259.5245985582224 7.500757275692462 0  264.524693527455 0.0008199046852201407 0  264.5246004592818 7.500820006100897 0  269.5246952095767 0.0008826758592028752 0  269.5246020033763 7.500882778618212 0  274.5246964766577 0.0009454201814412706 0  274.5246032293777 7.500945525994847 0  279.5246973840466 0.001008078499663243 0  279.5246041755333 7.501008189291713 0  284.524697988105 0.001070600465852229 0  284.5246048799135 7.50107071811551 0  289.5246983480495 0.00113294645420285 0  289.5246053807059 7.501133072107417 0  294.5246985273577 0.001195091587167422 0  294.524605716293 7.501195224045273 0  299.5246985938902 0.001257032808503528 0  299.524605925103 7.501257165047643 0  304.5246986169594 0.00131880020921722 0  304.5246060455854 7.501318912469356 0  309.5246986574598 0.001380473187375677 0  309.5246061175104 7.501380521284931 0  4.524541510461775 14.99751114213985 0  -0.4754585492919357 14.99744345918193 0  9.524541586105423 14.99757869183642 0  14.52454168354545 14.99764616751813 0  19.52454180273062 14.99771362558703 0  24.52454194032829 14.99778112382401 0  29.5245420902147 14.99784872233243 0  34.52454224316115 14.99791648386261 0  39.52454238624146 14.99798447428456 0  44.524542502117 14.99805276337886 0  49.52454256821039 14.99812142595362 0  54.52454255572792 14.99819054327535 0  59.52454242846967 14.99826020482207 0  64.52454214136539 14.99833051039556 0  69.52454163866584 14.99840157265778 0  74.52454085173109 14.99847352018134 0  79.52453969636676 14.99854650111953 0  84.52453806970991 14.99862068759863 0  89.52453584676434 14.99869628089103 0  94.52453287690429 14.99877351729017 0  99.52452898107092 14.99885267428314 0  104.5245239511815 14.99893407590677 0  109.5245175546446 14.99901809471982 0  114.5245095492833 14.99910514495832 0  119.5244997178278 14.9991956559869 0  124.5244879368935 14.99929000516125 0  129.5244743026014 14.99938837174885 0  134.5244593405428 14.99949044511166 0  139.5244443204818 14.99959487894835 0  144.5244316436886 14.99969833168761 0  149.5244250845416 14.99979385396642 0  164.5244524328897 14.99987567913354 0  159.5244469679601 14.99988162670952 0  169.5244539075719 14.99987591979569 0  174.5244544805314 14.99988572742118 0  179.5244555954616 14.99990528739184 0  184.5244576767168 14.99993348221991 0  189.5244606729669 14.99996887219665 0  194.5244643592913 15.00001009127208 0  199.5244684808169 15.00005597278412 0  204.5244728116971 15.00010556484143 0  209.524477173059 15.00015810640182 0  214.5244814329098 15.00021299356944 0  219.524485499314 15.00026974735768 0  224.5244893120406 15.00032798643139 0  229.5244928348289 15.00038740526328 0  234.5244960489989 15.00044775706139 0  239.5244989484642 15.00050884056849 0  244.5245015359882 15.0005704898899 0  249.5245038204477 15.00063256665543 0  254.5245058148722 15.00069495397738 0  259.524507535068 15.00075755180753 0  264.5245089986628 15.00082027340803 0  269.5245102244519 15.00088304274645 0  274.5245112319502 15.00094579269998 0  279.5245120410694 15.001008464017 0  284.5245126719198 15.00107100503174 0  289.5245131447194 15.00113337215012 0  294.5245134799841 15.00119553109485 0  299.5245136992839 15.00125745876347 0  304.5245138272326 15.00131914520427 0  309.5245138958935 15.0013805944556 0  4.524439818028493 22.49751152525279 0  -0.4755602365066696 22.49744390441133 0  9.524439869440975 22.49757900169637 0  14.52443991571742 22.49764640414687 0  19.52443995165139 22.49771379441225 0  24.52443996954229 22.49778123122323 0  29.52443995950598 22.49784877317666 0  34.52443990931737 22.49791648034412 0  39.52443980397054 22.4979844153643 0  44.5244396250941 22.49805264442461 0  49.52443935029327 22.49812123831218 0  54.52443895244369 22.49819027360739 0  59.52443839894962 22.49825983405174 0  64.52443765098258 22.49833001210319 0  69.524436662741 22.49840091067746 0  74.52443538081732 22.49847264505114 0  79.52443374383374 22.49854534485264 0  84.5244316826299 22.4986191559724 0  89.5244291214814 22.49869424204699 0  94.52442598112464 22.49877078485402 0  99.52442218480734 22.49884898239729 0  104.5244176692178 22.49892904251283 0  109.5244124029743 22.49901116824713 0  114.5244064162969 22.49909552873978 0  119.5243998461929 22.49918220553226 0  124.5243930010844 22.49927109899441 0  129.5243864453247 22.49936177371503 0  134.5243810936693 22.49945321889055 0  139.524378282137 22.49954351108423 0  144.524379736842 22.49962942209078 0  149.5243872956421 22.49970619513141 0  164.5244102276211 22.49982393706777 0  159.5244062286285 22.49980486681251 0  169.524410648769 22.49984301979721 0  174.5244091333527 22.49986567406664 0  179.524406999163 22.49989351022767 0  184.524405047683 22.49992686759841 0  189.5244036597965 22.49996541189985 0  194.5244029476338 22.50000852610066 0  199.5244028767092 22.50005552516235 0  204.5244033456567 22.50010575890124 0  209.5244042324376 22.50015865285307 0  214.5244054184406 22.50021371786205 0  219.524406799374 22.50027054541582 0  224.5244082888421 22.50032879752371 0  229.5244098181838 22.50038819539659 0  234.524411334633 22.50044850880565 0  239.5244127988998 22.50050954681373 0  244.5244141827374 22.50057115001404 0  249.5244154667368 22.5006331841748 0  254.5244166384455 22.50069553510804 0  259.5244176907967 22.50075810457288 0  264.5244186208371 22.50082080704501 0  269.5244194286941 22.50088356721388 0  274.5244201167586 22.50094631809671 0  279.5244206890641 22.50100899967351 0  284.5244211508817 22.50107155794042 0  289.524421508607 22.50113394423152 0  294.5244217700977 22.50119611454398 0  299.5244219457002
[...]
<PointData  Vectors="v"> 
<DataArray  type="Float64"  Name="v"  NumberOfComponents="3" format="ascii">-4.3399059641018090e+00 -3.1243575713253899e+00 0.0000000000000000e+00  -4.5387948742862276e+00 -2.5913825337438632e+00 0.0000000000000000e+00  -3.8411865197057811e+00 -2.2932100913149251e+00 0.0000000000000000e+00  -3.6824599414711208e+00 -2.8856993768086205e+00 0.0000000000000000e+00  -4.7231209725987515e+00 -2.4350647180279394e+00 0.0000000000000000e+00  -4.0397494577560327e+00 -2.1587610696025639e+00 0.0000000000000000e+00  -4.8015630249838015e+00 -2.3347810179113995e+00 0.0000000000000000e+00  -4.2236097968390869e+00 -2.2175726099555719e+00 0.0000000000000000e+00  -4.7793297796276297e+00 -1.8161742750346814e+00 0.0000000000000000e+00  -4.3013463673117434e+00 -1.8499092274379909e+00 0.0000000000000000e+00  -4.7942585036900356e+00 -1.5149288229286846e+00 0.0000000000000000e+00  -4.2782527897801108e+00 -1.4928525778401558e+00 0.0000000000000000e+00  -4.7316994136713362e+00 -9.7766195971126202e-01 0.0000000000000000e+00  -4.2925688616484701e+00 -1.0718738243261494e+00 0.0000000000000000e+00  -4.6085009987977470e+00 -3.9330592154694777e-01 0.0000000000000000e+00  -4.2294162477344415e+00 -5.7805008768734589e-01 0.0000000000000000e+00  -4.7788203163620553e+00 -2.0720755168445432e-01 0.0000000000000000e+00  -4.1058452679735762e+00 4.8598487756753475e-02 0.0000000000000000e+00  -4.7542405442815845e+00 2.5536451564050411e-01 0.0000000000000000e+00  -4.2763769228723456e+00 2.1900562765228326e-01 0.0000000000000000e+00  -7.2544807997223444e+00 -3.0137037189297811e+00 0.0000000000000000e+00  -4.2524547731985001e+00 7.3790929492277990e-01 0.0000000000000000e+00  -8.4314121954611085e+00 -4.2212226492825407e+00 0.0000000000000000e+00  -6.7529156184873660e+00 -2.4547367714223745e+00 0.0000000000000000e+00  -8.7664348541122905e+00 -4.0746345159992945e+00 0.0000000000000000e+00  -7.9310980682827701e+00 -3.5693157905198061e+00 0.0000000000000000e+00  -8.7587837718954447e+00 -3.3551083383891429e+00 0.0000000000000000e+00  -8.2690727119096987e+00 -3.3626387538596476e+00 0.0000000000000000e+00  -8.5504998890833193e+00 -2.3497675503897999e+00 0.0000000000000000e+00  -8.2655854144071714e+00 -2.6566558607258304e+00 0.0000000000000000e+00  -8.2654989194904651e+00 -1.2633101337220227e+00 0.0000000000000000e+00  -8.0635848991537777e+00 -1.6845114099815326e+00 0.0000000000000000e+00  -7.9018881417807574e+00 -1.1039928609892154e-01 0.0000000000000000e+00  -7.7861127154560643e+00 -6.4739241474083642e-01 0.0000000000000000e+00  -7.4482872138714447e+00 1.0318262704917138e+00 0.0000000000000000e+00  -7.4315692267851619e+00 3.6151680249877666e-01 0.0000000000000000e+00  -6.8936134406776519e+00 2.2421011734467982e+00 0.0000000000000000e+00  -6.9898868358320296e+00 1.4216453009619463e+00 0.0000000000000000e+00  -6.2261294272254490e+00 3.4934543674846958e+00 0.0000000000000000e+00  -6.4487853900493697e+00 2.5068989116900875e+00 0.0000000000000000e+00  -5.4468810107651109e+00 4.8026085050714515e+00 0.0000000000000000e+00  -5.7978512495029841e+00 3.6503969499527580e+00 0.0000000000000000e+00  -4.5884916408786545e+00 6.0901843004854177e+00 0.0000000000000000e+00  -5.0381902193921242e+00 4.8224906519383142e+00 0.0000000000000000e+00  -3.6911124221380094e+00 7.4525018457233054e+00 0.0000000000000000e+00  -4.2035694505455190e+00 6.1288081084186681e+00 0.0000000000000000e+00  -2.7987885057986683e+00 8.5103914110355756e+00 0.0000000000000000e+00  -3.3316606920551943e+00 7.1997140433679183e+00 0.0000000000000000e+00  -1.9811306938160846e+00 9.6374448070847905e+00 0.0000000000000000e+00  -2.4730083911693019e+00 8.4385042428299908e+00 0.0000000000000000e+00  -1.2700468137818934e+00 9.9935338485421283e+00 0.0000000000000000e+00  -1.6874540278640846e+00 8.9650155436952179e+00 0.0000000000000000e+00  -7.2445524717548093e-01 1.0385267955264609e+01 0.0000000000000000e+00  -1.0222984865065923e+00 9.5991034490023512e+00 0.0000000000000000e+00  -3.3370839787845868e-01 9.2056865482495045e+00 0.0000000000000000e+00  -5.1497776101848614e-01 8.6707770789928844e+00 0.0000000000000000e+00  -1.2329322683040406e-01 8.1821603768171034e+00 0.0000000000000000e+00  -1.8544963194523836e-01 7.9016920979434353e+00 0.0000000000000000e+00  -2.2040017363283770e-02 3.9900212118119387e+00 0.0000000000000000e+00  -1.8313164651442462e-02 3.9058404756183158e+00 0.0000000000000000e+00  -1.0693315033601196e-05 -7.3881372372229263e-05 0.0000000000000000e+00  -7.4071536315205018e-04 -8.3733379369975837e-04 0.0000000000000000e+00  -4.6185690435777123e-11 3.8156824702716083e-19 0.0000000000000000e+00  1.4487564226756338e+00 -7.1513020890018479e+00 0.0000000000000000e+00  -2.7291480961153032e-02 -9.3439464669678518e+00 0.0000000000000000e+00  -7.0761521606475147e-04 6.6112631015283652e-04 0.0000000000000000e+00  -1.9901447656765381e-01 -1.1843349855321549e+01 0.0000000000000000e+00  1.4505011722088776e+00 -9.4161866929411655e+00 0.0000000000000000e+00  -2.0614544911371935e-01 -1.1107975931932122e+01 0.0000000000000000e+00  -1.6178863586654546e-01 -1.1114895203750507e+01 0.0000000000000000e+00  -8.0964044018620951e-01 -1.1013089751077782e+01 0.0000000000000000e+00  -1.3791878729792031e-01 -1.0134396887288418e+01 0.0000000000000000e+00  -9.9450427667960195e-01 -8.8498829467296360e+00 0.0000000000000000e+00  -7.1557412188062697e-01 -8.5919961938141540e+00 0.0000000000000000e+00  -1.2554367504272437e+00 -7.1976388200674712e+00 0.0000000000000000e+00  -8.7760169417179112e-01 -6.8257272256482189e+00 0.0000000000000000e+00  -1.4036216391947720e+00 -5.3649852874283388e+00 0.0000000000000000e+00  -1.1170203060746025e+00 -5.1581935986551644e+00 0.0000000000000000e+00  -1.5660214394432941e+00 -4.0049776525171294e+00 0.0000000000000000e+00  -1.2471042801641687e+00 -3.7770701205515813e+00 0.0000000000000000e+00  -1.6335866554305198e+00 -2.9136083068619567e+00 0.0000000000000000e+00  -1.3930685862838728e+00 -2.8253069357297629e+00 0.0000000000000000e+00  -1.7524497325448103e+00 -2.3146994010647366e+00 0.0000000000000000e+00  -1.4455369973756942e+00 -2.1484395022464295e+00 0.0000000000000000e+00  -1.8998878373632995e+00 -1.9470024197528570e+00 0.0000000000000000e+00  -1.5511490837250907e+00 -1.7368773803134414e+00 0.0000000000000000e+00  -2.0260744515028439e+00 -1.7790001625567196e+00 0.0000000000000000e+00  -1.6866093959627011e+00 -1.5996665670520192e+00 0.0000000000000000e+00  -2.1222756273003034e+00 -1.7083083200232161e+00 0.0000000000000000e+00  -1.8016995073798807e+00 -1.5728896543684174e+00 0.0000000000000000e+00  -2.1911044212379385e+00 -1.6611288948518148e+00 0.0000000000000000e+00  -1.8880480472390033e+00 -1.5662379681229588e+00 0.0000000000000000e+00  -2.2119268096604641e+00 -1.6177363041325834e+00 0.0000000000000000e+00  -1.9479036611933687e+00 -1.5940476707930040e+00 0.0000000000000000e+00  -2.2092027238282022e+00 -1.5810763381397661e+00 0.0000000000000000e+00  -1.9603753732011213e+00 -1.5920969834565972e+00 0.0000000000000000e+00  -2.1927464872314770e+00 -1.5266209407673232e+00 0.0000000000000000e+00  -1.9500579783022673e+00 -1.5578693987658530e+00 0.0000000000000000e+00  -2.1548747061507330e+00 -1.4580773874677604e+00 0.0000000000000000e+00  -1.9265551859445524e+00 -1.5210148323826818e+00 0.0000000000000000e+00  -2.1079677046096137e+00 -1.3897220929863585e+00 0.0000000000000000e+00  -1.8819793484494258e+00 -1.4658503755826506e+00 0.0000000000000000e+00  -2.0625289954924080e+00 -1.2910229171979803e+00 0.0000000000000000e+00  -1.8287957914030777e+00 -1.3647867383004628e+00 0.0000000000000000e+00  -2.0031039808329805e+00 -1.2072309617709971e+00 0.0000000000000000e+00  -1.7773284154658995e+00 -1.3017291174684691e+00 0.0000000000000000e+00  -1.9416828789132177e+00 -1.0639588295824569e+00 0.0000000000000000e+00  -1.7120769180977089e+00 -1.1613459021353862e+00 0.0000000000000000e+00  -1.8711968712562983e+00 -9.7425905548632052e-01 0.0000000000000000e+00  -1.6449243999978242e+00 -1.0850994867206731e+00 0.0000000000000000e+00  -1.7897489138624336e+00 -7.2388407930208365e-01 0.0000000000000000e+00  -1.5689409114167074e+00 -8.5124125606804246e-01 0.0000000000000000e+00  -1.6833336641085002e+00 -6.7362002286778422e-01 0.0000000000000000e+00  -1.4817929661692613e+00 -8.3814089894710264e-01 0.0000000000000000e+00  -1.5518507016626912e+00 -1.8814303478190267e-01 0.0000000000000000e+00  -1.3701157569550404e+00 -3.9069542304428861e-01 0.0000000000000000e+00  -1.3785169721358372e+00 -2.9430542511165736e-01 0.0000000000000000e+00  -1.2327117115256339e+00 -5.5891751519649058e-01 0.0000000000000000e+00  -1.1018891888436735e+00 6.3841274677364845e-01 0.0000000000000000e+00  -1.0545585948313509e+00 2.1765651900887592e-01 0.0000000000000000e+00  -6.3492700270927149e-01 7.9417754463896550e-01 0.0000000000000000e+00  -7.7111512330860776e-01 8.9999821190745705e-02 0.0000000000000000e+00  4.6818085834185069e-01 2.8945838947355368e-01 0.0000000000000000e+00  -3.0143471006624928e-01 -1.3730943233210249e+00 0.0000000000000000e+00  -3.1266368306540251e+00 -2.0559038585411513e+00 0.0000000000000000e+00  -2.9415218069089972e+00 -2.6063563010847335e+00 0.0000000000000000e+00  -3.2838843434184652e+00 -1.8622989721379737e+00 0.0000000000000000e+00  -3.4798844974986944e+00 -1.9434988686349659e+00 0.0000000000000000e+00  -3.6604757930922989e+00 -1.7354246013564349e+00 0.0000000000000000e+00  -3.7343565180171541e+00 -1.5301599052728918e+00 0.0000000000000000e+00  -3.7067717327652852e+00 -1.0529950895661164e+00 0.0000000000000000e+00  -3.7164571655466450e+00 -6.7528533887846376e-01 0.0000000000000000e+00  -3.6489368931275692e+00 -1.3949099618521163e-01 0.0000000000000000e+00  -3.5212130858182866e+00 4.7309062952253694e-01 0.0000000000000000e+00  -3.6891972845120335e+00 7.0158856458820751e-01 0.0000000000000000e+00  -3.6632690798030545e+00 1.2922293259971798e+00 0.0000000000000000e+00  -6.1563505083880763e+00 -1.8067215413295463e+00 0.0000000000000000e+00  -7.3280303326674732e+00 -2.8563678018550838e+00 0.0000000000000000e+00  -7.6647813966259095e+00 -2.6623434806517405e+00 0.0000000000000000e+00  -7.6620132530009961e+00 -1.9848964935764533e+00 0.0000000000000000e+00  -7.4641340743453322e+00 -1.0601085678536950e+00 0.0000000000000000e+00  -7.1928868651019267e+00 -1.6624093294983852e-01 0.0000000000000000e+00  -6.8463273429754299e+00 7.6580569973923929e-01 0.0000000000000000e+00  -6.4159293256475989e+00 1.7037835499986165e+00 0.0000000000000000e+00  -5.8895409355765445e+00 2.6832129320347167e+00 0.0000000000000000e+00  -5.2562349913198796e+00 3.6971425548665566e+00 0.0000000000000000e+00  -4.5202917580685851e+00 4.8926661300334855e+00 0.0000000000000000e+00  -3.7144299413432065e+00 5.9125291440357275e+00 0.0000000000000000e+00  -2.8785594566582513e+00 7.1738403623590523e+00 0.0000000000000000e+00  -2.0629358785570462e+00 7.8202644060006854e+00 0.0000000000000000e+00  -1.3326910674316734e+00 8.6303858614807059e+00 0.0000000000000000e+00  -7.2674699944592791e-01 7.9643101022103977e+00 0.0000000000000000e+00  -3.0245936185508693e-01 7.4375621726605292e+00 0.0000000000000000e+00  -4.8362843626676193e-02 3.7433316210027869e+00 0.0000000000000000e+00  -2.4887501185690926e-03 -1.5921592859373035e-03 0.0000000000000000e+00  -5.5061668450476095e-02 -9.1865866358917234e+00 0.0000000000000000e+00  -2.4475819705999323e-03 1.2963793219098458e-03 0.0000000000000000e+00  -2.0800617799218071e-01 -1.1643654864220242e+01 0.0000000000000000e+00  1.3191534315052917e+00 -8.7372798543521561e+00 0.0000000000000000e+00  -2.3428422063624588e-01 -1.0196888400739178e+01 0.0000000000000000e+00  -1.6866360710891845e-01 -7.7492902228222089e+00 0.0000000000000000e+00  -7.0936530038346890e-01 -6.5981826454505956e+00 0.0000000000000000e+00  -8.4413007456359523e-01 -4.8170902900209409e+00 0.0000000000000000e+00  -1.0572396394992245e+00 -3.5943154068298293e+00 0.0000000000000000e+00  -1.1666334881266518e+00 -2.6175888887894843e+00 0.0000000000000000e+00  -1.2943196407231834e+00 -2.0802148214179152e+00 0.0000000000000000e+00  -1.3305208021147097e+00 -1.5873143566492600e+00 0.0000000000000000e+00  -1.4218621675813763e+00 -1.4039177284739637e+00 0.0000000000000000e+00  -1.5449680824815706e+00 -1.4075876958978397e+00 0.0000000000000000e+00  -1.6487014388629371e+00 -1.4427916169801613e+00 0.0000000000000000e+00  -1.7252742294426386e+00 -1.5094216776701097e+00 0.0000000000000000e+00  -1.7767049279051526e+00 -1.5782510501822633e+00 0.0000000000000000e+00  -1.7816101027525619e+00 -1.5774703983483582e+00 0.0000000000000000e+00  -1.7646983899464304e+00 -1.5598045998695031e+00 0.0000000000000000e+00  -1.7354199849926601e+00 -1.5361058744911549e+00 0.0000000000000000e+00  -1.6855076510665974e+00 -1.4475871711470172e+00 0.0000000000000000e+00  -1.6274516584388856e+00 -1.3816655054666236e+00 0.0000000000000000e+00  -1.5714616557552923e+00 -1.2619910860453782e+00 0.0000000000000000e+00  -1.5017756516754159e+00 -1.1884087580647045e+00 0.0000000000000000e+00  -1.4303354546674809e+00 -9.6785282441867537e-01 0.0000000000000000e+00  -1.3500381005633535e+00 -9.7137515330836099e-01 0.0000000000000000e+00  -1.2586115426527311e+00 -5.6106968753500452e-01 0.0000000000000000e+00  -1.1424242833757787e+00 -7.6729365689027507e-01 0.0000000000000000e+00  -1.0008067495258037e+00 -5.2919942092396081e-02 0.0000000000000000e+00  -8.1787012666520398e-01 -3.3686820603467221e-01 0.0000000000000000e+00  -5.3036537681753193e-01 -2.0812958427788781e+00 0.0000000000000000e+00  -2.2584506868101535e+00 -1.7799739790391864e+00 0.0000000000000000e+00  -2.0857683151803221e+00 -2.3448028794560218e+00 0.0000000000000000e+00  -2.4406069372282322e+00 -1.6296959573944430e+00 0.0000000000000000e+00  -2.5923906546203717e+00 -1.6536524071584098e+00 0.0000000000000000e+00  -2.7817752919307979e+00 -1.4700653412193339e+00 0.0000000000000000e+00  -2.9537590459333756e+00 -1.4259126161727631e+00 0.0000000000000000e+00  -3.0174525498275209e+00 -1.1015681528252510e+00 0.0000000000000000e+00  -2.9788771479113905e+00 -6.6867702330746848e-01 0.0000000000000000e+00  -2.9767841758101783e+00 -2.4849100711223357e-01 0.0000000000000000e+00  -2.8978000164181972e+00 2.7493088519060510e-01 0.0000000000000000e+00  -2.7607594843393781e+00 9.4884643723464757e-01 0.0000000000000000e+00  -2.9222108443042347e+00 1.2487349904927036e+00 0.0000000000000000e+00  -2.8856600895772848e+00 1.9200916275220064e+00 0.0000000000000000e+00  -5.3570109660078318e+00 -1.1133973408730076e+00 0.0000000000000000e+00  -6.5092547814274742e+00 -2.1627370065174847e+00 0.0000000000000000e+00  -6.8367299433538102e+00 -1.9910681011116342e+00 0.0000000000000000e+00  -6.8304294653838191e+00 -1.3557201014180831e+00 0.0000000000000000e+00  -6.6328714998004559e+00 -5.6915398010373197e-01 0.0000000000000000e+00  -6.3648007810562399e+00 2.5248929870987646e-01 0.0000000000000000e+00  -6.0252661300058232e+00 1.0671174078226329e+00 0.0000000000000000e+00  -5.6051573520408384e+00 1.9063970820768581e+00 0.0000000000000000e+00  -5.0934561307103090e+00 2.7651695088160846e+00 0.0000000000000000e+00  -4.4825093319921949e+00 3.8107678164487218e+00 0.0000000000000000e+00  -3.7757136236023272e+00 4.7363450088245642e+00 0.0000000000000000e+00  -3.0115923430113645e+00 5.9573979727565600e+00 0.0000000000000000e+00  -2.2281682742659132e+00 6.6519915680269444e+00 0.0000000000000000e+00  -1.4860812530597793e+00 7.5919727124672693e+00 0.0000000000000000e+00  -8.4096770034121926e-01 7.1493339591749132e+00 0.0000000000000000e+00  -3.5763765060060126e-01 6.8725219825046455e+00 0.0000000000000000e+00  -5.5372872942152512e-02 3.5253779737668798e+00 0.0000000000000000e+00  -5.2169645649156630e-03 -2.2756686726653824e-03 0.0000000000000000e+00  -6.4342988267287501e-02 -8.9411485528081585e+00 0.0000000000000000e+00  -5.1800715275740232e-03 1.8527854390752428e-03 0.0000000000000000e+00  -3.4697204035158519e-01 -1.1369388525094665e+01 0.0000000000000000e+00  -5.0413083870434461e-01 -1.1091771042779360e+01 0.0000000000000000e+00  1.1110684006515597e+00 -7.9411911203693606e+00 0.0000000000000000e+00  -3.4854825832404968e-01 -7.8962642946995372e+00 0.0000000000000000e+00  -2.1744919085095682e-01 -5.8320695535681590e+00 0.0000000000000000e+00  -7.0560596635805639e-01 -4.6454348938377636e+00 0.0000000000000000e+00  -7.9971457362765963e-01 -3.3034651114269398e+00 0.0000000000000000e+00  -9.7760174816649370e-01 -2.4764398179801366e+00 0.0000000000000000e+00  -1.0587346581826673e+00 -1.9088229407365325e+00 0.0000000000000000e+00  -1.1612072438705874e+00 -1.5501964312816776e+00 0.0000000000000000e+00  -1.1758380579186651e+00 -1.2825151084865933e+00 0.0000000000000000e+00  -1.2481951487726877e+00 -1.2363839965420806e+00 0.0000000000000000e+00  -1.3542997919767934e+00 -1.2992374785569072e+00 0.0000000000000000e+00  -1.4431089224788678e+00 -1.4050642915240374e+00 0.0000000000000000e+00  -1.5070125437142619e+00 -1.5100088567889101e+00 0.0000000000000000e+00  -1.5475504556506701e+00 -1.5777455009451427e+00 0.0000000000000000e+00  -1.5432590047022430e+00 -1.5918274478290984e+00 0.0000000000000000e+00  -1.5185915223069393e+00 -1.5857020092830112e+00 0.0000000000000000e+00  -1.4825931446658940e+00 -1.5275253868478933e+00 0.0000000000000000e+00  -1.4267516382833114e+00 -1.4733737445991300e+00 0.0000000000000000e+00  -1.3633757088509626e+00 -1.3503032289348436e+00 0.0000000000000000e+00  -1.3023057904985795e+00 -1.2970669060913174e+00 0.0000000000000000e+00  -1.2277163737821615e+00 -1.0792649672428654e+00 0.0000000000000000e+00  -1.1512594837707886e+00 -1.0958912443740187e+00 0.0000000000000000e+00  -1.0659766892419082e+00 -7.0277788282057607e-01 0.0000000000000000e+00  -9.6908431397898409e-01 -9.4559018685835505e-01 0.0000000000000000e+00  -8.4785010527572346e-01 -2.7057707935072883e-01 0.0000000000000000e+00  -7.0005740490394608e-01 -6.1461058659903689e-01 0.0000000000000000e+00  -5.1318865175457462e-01 -2.5182591384475823e+00 0.0000000000000000e+00  -1.6218968230556050e+00 -1.5233578780511252e+00 0.0000000000000000e+00  -1.4525558718850553e+00 -2.0873289694422472e+00 0.0000000000000000e+00  -1.7906663902201041e+00 -1.3609925900894140e+00 0.0000000000000000e+00  -1.9653865258136658e+00 -1.4324054877722801e+00 0.0000000000000000e+00  -2.1075346460475068e+00 -1.1941099998765290e+00 0.0000000000000000e+00  -2.2845700554972002e+00 -1.1778263896869190e+00 0.0000000000000000e+00  -2.4418181091522433e+00 -1.0178573254642864e+00 0.0000000000000000e+00  -2.4883035619374261e+00 -7.3949326203642241e-01 0.0000000000000000e+00  -2.4308495990885248e+00 -2.6516133344482179e-01 0.0000000000000000e+00  -2.4096270503637851e+00 1.4331417984131067e-01 0.0000000000000000e+00  -2.3131698275827501e+00 7.3304321300703101e-01 0.0000000000000000e+00  -2.1618299005194630e+00 1.4821825006789526e+00 0.0000000000000000e+00  -2.3104311536038771e+00 1.8516389386722016e+00 0.0000000000000000e+00  -2.2499918397233158e+00 2.5668502178778052e+00 0.0000000000000000e+00  -4.6806470471576773e+00 -4.6152974789758516e-01 0.0000000000000000e+00  -5.7983902851570956e+00 -1.5147012484269056e+00 0.0000000000000000e+00  -6.1059598441894849e+00 -1.3749802792934005e+00 0.0000000000000000e+00  -6.0863829300275833e+00 -8.7101017516077894e-01 0.0000000000000000e+00  -5.8809656798790773e+00 -1.5426369356656558e-01 0.0000000000000000e+00  -5.6065642198915944e+00 5.5588832276300315e-01 0.0000000000000000e+00  -5.2631194163629988e+00 1.2757829844524025e+00 0.0000000000000000e+00  -4.8423845568017470e+00 2.0005498973489559e+00 0.0000000000000000e+00  -4.3348675037610338e+00 2.9015507225313164e+00 0.0000000000000000e+00  -3.7344570060849818e+00 3.6927454205251120e+00 0.0000000000000000e+00  -3.0516685424363708e+00 4.8330856332522760e+00 0.0000000000000000e+00  -2.3230146817647355e+00 5.5202160376337774e+00 0.0000000000000000e+00  -1.6012732320643974e+00 6.5258960171040004e+00 0.0000000000000000e+00  -9.3732086881666932e-01 6.2736830271275794e+00 0.0000000000000000e+00  -4.1975765560401312e-01 6.2216240217366181e+00 0.0000000000000000e+00  -7.2963437705616474e-02 3.2588893257448239e+