<?xml version="1.0"?>
<VTKFile type="UnstructuredGrid"  version="0.1"  >
<UnstructuredGrid>
<Piece  NumberOfPoints="1933" NumberOfCells="3640">
<Points>
<DataArray  type="Float64"  NumberOfComponents="3"  format="ascii">-0.2940011610019144 0.0006342300520823781 0  4.705998853316195 0.0006033496449844343 0  4.706045205437919 7.500603404402402 0  -0.2939548289310266 7.500634249422681 0  9.705998867492029 0.0005724140221070035 0  9.706045271099347 7.500572482428427 0  14.70599891093383 0.0005413856323358902 0  14.70604538605589 7.500541458895765 0  19.70599901849167 0.0005102536655933495 0  19.70604556858098 7.500510328316183 0  24.7059992243907 0.0004790238257609322 0  24.70604583746119 7.50047909877636 0  29.70599956048148 0.0004477124234854848 0  29.70604621160069 7.500447787694585 0  34.70600005626404 0.000416342942739194 0  34.70604670973596 7.500416419079949 0  39.70600073960463 0.0003849441686040336 0  39.70604735036598 7.500385021977087 0  44.70600163768129 0.0003535493565484986 0  44.70604815184615 7.500353629788055 0  49.70600277797086 0.0003221961391504775 0  49.70604913257153 7.500322280254938 0  54.70600418921001 0.0002909270020274538 0  54.70605031118378 7.500291015974699 0  59.70600590231838 0.0002597902538078726 0  59.70605170674897 7.500259885389697 0  64.70600795129118 0.0002288414854477565 0  64.70605333885476 7.500228944257652 0  69.70601037406989 0.0001981455757353098 0  69.70605522757302 7.500198257660365 0  74.7060132133971 0.0001677793635038412 0  74.70605739321421 7.500167902668841 0  79.70601651763778 0.000137835184167663 0  79.70605985577114 7.5001379718527 0  84.70602034152057 0.000108425572517252 0  84.70606263389827 7.500108577912853 0  89.70602474667935 7.968958477769944e-05 0  89.70606574319879 7.500079859841374 0  94.70602980176153 5.180142065501481e-05 0  94.70606919348316 7.500051991186209 0  99.70603558162392 2.498237749736307e-05 0  99.70607298451645 7.500025191237861 0  104.7060421646868 -4.82281820857178e-07 0  104.7060770995893 7.499999740274995 0  109.7060496266256 -2.421910184849526e-05 0  109.7060814960693 7.499976000394937 0  114.7060580268419 -4.573105038050004e-05 0  114.7060860920718 7.499954443838242 0  119.7060673807245 -6.434509878172907e-05 0  119.7060907488938 7.49993569082403 0  124.7060776039382 -7.913382905290881e-05 0  124.7060952509077 7.49992055802466 0  129.7060884015 -8.879813955978673e-05 0  129.7060992905625 7.499910115180228 0  134.7060990474378 -9.149499348562367e-05 0  134.7061024816268 7.499905737282868 0  139.7061079458071 -8.460232140972672e-05 0  139.7061044621726 7.49990911748134 0  144.706111745914 -6.448716627348487e-05 0  144.7061052438695 7.499922175046601 0  149.7061034980302 -2.677563387792654e-05 0  149.7061062149983 7.499946861189654 0  159.7061073738537 1.309500822119114e-18 0  164.7060371309995 -9.57986749064733e-05 0  164.7060950436025 7.499889868323579 0  159.706115520112 7.499965491463247 0  169.7059981351659 -0.0001781161453367894 0  169.7060740844707 7.499814701251742 0  174.7059759783786 -0.0002508230686936819 0  174.7060567291212 7.499745214153686 0  179.7059633285144 -0.0003159929777117539 0  179.7060434244299 7.499681707163075 0  184.7059562277973 -0.0003752094195463388 0  184.7060336230442 7.499623410206383 0  189.7059524578008 -0.0004297300714200256 0  189.7060265957078 7.499569418287013 0  194.7059507349277 -0.0004805344520770095 0  194.7060216805744 7.499518927299215 0  199.705950292859 -0.0005283748650913216 0  199.7060183427443 7.499471278105936 0  204.7059506592425 -0.0005738276248958513 0  204.7060161703431 7.49942594553507 0  209.7059515335121 -0.0006173367432976899 0  209.706014852866 7.499382514270346 0  214.7059527185344 -0.0006592479484335118 0  214.7060141580277 7.499340655007939 0  219.7059540814319 -0.0006998340008888967 0  219.706013912164 7.499300104589643 0  224.7059555305159 -0.0007393131624994307 0  224.7060139850252 7.499260650501222 0  229.7059570013111 -0.0007778626026956575 0  229.706014278447 7.49922211910374 0  234.7059584478356 -0.0008156281696359353 0  234.7060147180624 7.499184366779083 0  239.7059598369977 -0.0008527315810103899 0  239.7060152472812 7.499147273261119 0  244.7059611449095 -0.0008892757856472693 0  244.7060158229196 7.499110736577569 0  249.7059623544032 -0.0009253490217525838 0  249.7060164120222 7.499074669172956 0  254.7059634533504 -0.0009610279374002274 0  254.7060169895511 7.499038994900302 0  259.7059644335221 -0.0009963800264320222 0  259.7060175366996 7.499003646658295 0  264.7059652898568 -0.001031465552977219 0  264.706018039675 7.49896856451785 0  269.7059660200325 -0.001066339078084316 0  269.7060184888351 7.498933694234005 0  274.7059666243207 -0.001101050652132742 0  274.7060188780799 7.49889898608332 0  279.70596710569 -0.001135646686433173 0  279.706019204454 7.498864394009839 0  284.7059674701829 -0.001170170453840529 0  284.7060194678835 7.498829875112193 0  289.7059677275572 -0.001204662070822943 0  289.7060196710043 7.498795389569388 0  294.7059678921941 -0.001239157645921093 0  294.7060198190219 7.498760901192333 0  299.7059679841345 -0.001273686972021678 0  299.7060199195689 7.498726378910607 0  304.705968029826 -0.001308268554447725 0  304.7060199826475 7.498691799651782 0  309.7059680613854 -0.001342899641233928 0  309.7060200211644 7.4986571532057 0  4.706091367650198 15.0006035363837 0  -0.2939086715159711 15.00063429932853 0  9.706091437969656 15.00057264457698 0  14.70609155591238 15.00054162758697 0  19.70609173331354 15.00051049426003 0  24.70609198029245 15.00047925966315 0  29.70609230642546 15.00044794448072 0  34.7060927211003 15.0004165741547 0  39.7060932335313 15.00038517828246 0  44.70609385264406 15.00035379041428 0  49.70609458690373 15.00032244826567 0  54.70609544409472 15.00029119433131 0  59.70609643102951 15.00026007690018 0  64.70609755314797 15.00022915149744 0  69.7060988139548 15.00019848281244 0  74.70610021423508 15.00016814721153 0  79.706101750971 15.00013823597935 0  84.70610341587923 15.00010885948409 0  89.70610519348428 15.0000801525202 0  94.7061070586729 15.00005228113633 0  99.70610897375236 15.00002545128477 0  104.7061108852457 14.99999991957511 0  109.7061127210771 14.99997600615321 0  114.7061143896607 14.99995410899483 0  119.7061157839805 14.9999347171593 0  124.706116796483 14.99991841671648 0  129.7061173549426 14.99990587503011 0  134.706117495246 14.99989777268678 0  139.7061174916679 14.99989461876189 0  144.7061180569364 14.99989631079096 0  149.7061205593081 14.99990109590728 0  164.7061287272255 14.99985120235451 0  159.7061318658774 14.99990649135742 0  169.7061215169551 14.99979114815686 0  174.7061127228884 14.99973097109963 0  179.7061040695574 14.99967299090647 0  184.706096382288 14.99961797347209 0  189.7060899382834 14.9995659512782 0  194.7060847352501 14.99951666483049 0  199.7060806478999 14.99946976827444 0  204.7060775100998 14.99942491723884 0  209.7060751545243 14.99938180174196 0  214.7060734296516 14.99934015468727 0  219.7060722053347 14.99929975027962 0  224.7060713729921 14.99926039889041 0  229.7060708435412 14.99922194120832 0  234.7060705446301 14.99918424280065 0  239.7060704178637 14.99914718944264 0  244.7060704163255 14.99911068324824 0  249.7060705024809 14.99907463951539 0  254.7060706464562 14.99903898416726 0  259.7060708246486 14.99900365167785 0  264.7060710186153 14.99896858338862 0  269.70607121419 14.9989337261469 0  274.7060714007704 14.99889903121993 0  279.7060715707384 14.99886445346036 0  284.7060717189847 14.99882995071966 0  289.7060718425008 14.99879548351687 0  294.7060719400808 14.99876101495665 0  299.7060720122012 14.99872651080751 0  304.7060720613192 14.99869193937788 0  309.7060720930382 14.99865727005593 0  4.706137304849833 22.50060381506878 0  -0.2938627342841177 22.50063449476162 0  9.706137365229628 22.50057295446449 0  14.70613745962078 22.50054194136691 0  19.70613759566587 22.5005108000449 0  24.70613777814483 22.50047955442895 0  29.70613801031815 22.5004482299465 0  34.70613829456409 22.50041685435453 0  39.7061386325654 22.50038545819006 0  44.70613902522787 22.50035407517615 0  49.70613947243913 22.50032274275588 0  54.70613997271665 22.50029150284251 0  59.70614052276206 22.50026040284055 0  64.70614111691917 22.50022949698421 0  69.7061417465229 22.50019884804402 0  74.70614239913198 22.50016852946341 0  79.70614305764458 22.50013862799513 0  84.70614369933189 22.50010924690809 0  89.70614429487438 22.50008050981455 0  94.70614480758933 22.50005256510325 0  99.7061451932055 22.50002559081314 0  104.706145400813 22.49999979947063 0  109.7061453760383 22.49997544180588 0  114.7061450680904 22.49995280713932 0  119.7061444430684 22.49993221622803 0  124.706143506622 22.49991399895342 0  129.7061423390697 22.49989844374785 0  134.7061411438199 22.4998856976233 0  139.7061403018977 22.49987558613039 0  144.7061404046426 22.49986731936522 0  149.7061421924363 22.49985909101293 0  164.7061567548938 22.49980830329056 0  159.7061518177544 22.49985109258392 0  169.7061577999723 22.49975993031042 0  174.7061560653146 22.49970905171245 0  179.7061527248739 22.49965782031497 0  184.7061487011078 22.49960749295126 0  189.7061445978438 22.49955867236508 0  194.7061407597772 22.49951156267063 0  199.706137354166 22.49946615200047 0  204.7061344383089 22.49942232424424 0  209.706132006733 22.49937992173794 0  214.7061300214604 22.49933877810714 0  219.7061284303036 22.49929873414024 0  224.7061271773503 22.49925964446371 0  229.7061262085969 22.49922137945982 0  234.7061254746955 22.49918382486976 0  239.7061249320398 22.49914688038374 0  244.7061245429406 22.49911045788594 0  249.7061242753318 22.49907447968044 0  254.7061241022658 22.49903887684419 0  259.7061240013272 22.4990035877622 0  264.70612395405 22.49896855685546 0  269.7061239453632 22.49893373349407 0  274.7061239630794 22.49889907107966 0  279.7061239974338 22.4988645262776 0  284.7061240406729 22.49883005836952 0  289.7061240867098 22.49879562867125 0  294.7061241308919 22.49876119989962 0  299
[...]
<PointData  Vectors="v"> 
<DataArray  type="Float64"  Name="v"  NumberOfComponents="3" format="ascii">-1.1004920196674359e+00 -7.6634233393476539e+00 0.0000000000000000e+00  -1.6577688493954894e+00 -7.1733439100096561e+00 0.0000000000000000e+00  -1.5275716036661688e+00 -6.3376840701243706e+00 0.0000000000000000e+00  -1.0975066174899129e+00 -7.0185811534335558e+00 0.0000000000000000e+00  -2.3515945768636417e+00 -7.7521774782417383e+00 0.0000000000000000e+00  -2.0844430241640324e+00 -6.7124435327682868e+00 0.0000000000000000e+00  -2.9727860418050693e+00 -8.7739573556587533e+00 0.0000000000000000e+00  -2.7770384206307988e+00 -7.8437564479702919e+00 0.0000000000000000e+00  -3.5164313731973662e+00 -9.0859022203010635e+00 0.0000000000000000e+00  -3.3962247132275403e+00 -8.2727544605211669e+00 0.0000000000000000e+00  -4.1976072780010014e+00 -9.9596039577189828e+00 0.0000000000000000e+00  -3.9371002762977549e+00 -8.9408888027989963e+00 0.0000000000000000e+00  -4.7367079450313510e+00 -1.0313575469598304e+01 0.0000000000000000e+00  -4.6145665411601611e+00 -9.5085715335709633e+00 0.0000000000000000e+00  -4.8157706794278221e+00 -1.0050426013651711e+01 0.0000000000000000e+00  -5.1491430803165352e+00 -9.9362207403181788e+00 0.0000000000000000e+00  -5.8996709829486695e+00 -1.1146348784829238e+01 0.0000000000000000e+00  -5.2229251040446654e+00 -9.5256556956021772e+00 0.0000000000000000e+00  -2.7939804706065821e+00 -5.9828567613139185e+00 0.0000000000000000e+00  -6.3006078118766133e+00 -1.0646903916309405e+01 0.0000000000000000e+00  -1.3915360716446123e+01 -2.1866430345930208e+01 0.0000000000000000e+00  -3.1879555165878566e+00 -5.1913435858422607e+00 0.0000000000000000e+00  -1.3595577680479412e+01 -2.0092467047346208e+01 0.0000000000000000e+00  -1.4301872088728862e+01 -2.0579287052454507e+01 0.0000000000000000e+00  -1.3672740001559527e+01 -1.8772992758779075e+01 0.0000000000000000e+00  -1.3973554849105787e+01 -1.8665415660588071e+01 0.0000000000000000e+00  -1.4203825305611526e+01 -1.8106043563305793e+01 0.0000000000000000e+00  -1.4040891137379957e+01 -1.7318945604362401e+01 0.0000000000000000e+00  -1.5143977203585552e+01 -1.8073234847817833e+01 0.0000000000000000e+00  -1.4560783029052342e+01 -1.6673927951536502e+01 0.0000000000000000e+00  -1.6394164317122993e+01 -1.8464769828842012e+01 0.0000000000000000e+00  -1.5487894640800409e+01 -1.6601474432548024e+01 0.0000000000000000e+00  -1.7860740962121152e+01 -1.9073588713364668e+01 0.0000000000000000e+00  -1.6723562448512311e+01 -1.6887156518685902e+01 0.0000000000000000e+00  -1.9453121915984632e+01 -1.9960626702840948e+01 0.0000000000000000e+00  -1.8174293996240657e+01 -1.7586758035998901e+01 0.0000000000000000e+00  -2.1080837208716204e+01 -2.0699728033994479e+01 0.0000000000000000e+00  -1.9748967304111815e+01 -1.8273679269419883e+01 0.0000000000000000e+00  -2.2667170279134751e+01 -2.1324400756213038e+01 0.0000000000000000e+00  -2.1357829178827124e+01 -1.8961844129151778e+01 0.0000000000000000e+00  -2.4148545163186125e+01 -2.1672393405404463e+01 0.0000000000000000e+00  -2.2923974128755646e+01 -1.9468059920744473e+01 0.0000000000000000e+00  -2.5469530865299543e+01 -2.1707743503307988e+01 0.0000000000000000e+00  -2.4383913150627713e+01 -1.9744928554519806e+01 0.0000000000000000e+00  -2.6594365982096360e+01 -2.0978613469638031e+01 0.0000000000000000e+00  -2.5682037440168177e+01 -1.9310480495657114e+01 0.0000000000000000e+00  -2.7509435528904969e+01 -2.0259683607223000e+01 0.0000000000000000e+00  -2.6784038336179641e+01 -1.8907687118097602e+01 0.0000000000000000e+00  -2.8209041815271188e+01 -1.8111493619378969e+01 0.0000000000000000e+00  -2.7673826414728676e+01 -1.7081481052767227e+01 0.0000000000000000e+00  -2.8715206852686922e+01 -1.6441359074810418e+01 0.0000000000000000e+00  -2.8349944725977299e+01 -1.5704497332522546e+01 0.0000000000000000e+00  -2.9046648690379506e+01 -1.2759477975293665e+01 0.0000000000000000e+00  -2.8828779810387655e+01 -1.2281028627415134e+01 0.0000000000000000e+00  -2.9247468006616181e+01 -1.0099289386099628e+01 0.0000000000000000e+00  -2.9137525995085429e+01 -9.8224734159615377e+00 0.0000000000000000e+00  -2.9342430194674311e+01 -5.2116619490187839e+00 0.0000000000000000e+00  -2.9308934836422523e+01 -5.0858171925220921e+00 0.0000000000000000e+00  -2.9381812029138761e+01 -1.2477503858443217e+00 0.0000000000000000e+00  -2.9383432796170084e+01 -1.2156836655709864e+00 0.0000000000000000e+00  -2.9389262612282149e+01 1.9728297217470639e-09 0.0000000000000000e+00  -2.9389940987273814e+01 -7.0929938944478614e-04 0.0000000000000000e+00  -2.9389262614623028e+01 4.1363557131499819e-19 0.0000000000000000e+00  -2.0123892812381271e+01 7.0883878584849001e+00 0.0000000000000000e+00  -2.9383908237019686e+01 -6.7840241292161663e+00 0.0000000000000000e+00  -2.9389929053302989e+01 6.7739590949111460e-04 0.0000000000000000e+00  -2.0748459123262819e+01 1.3371696633177447e+01 0.0000000000000000e+00  -2.0151723631092651e+01 1.4348678014232762e+01 0.0000000000000000e+00  -1.7730004353573182e+01 2.0811819834139722e+01 0.0000000000000000e+00  -2.0813923153381417e+01 1.6314856429267252e+01 0.0000000000000000e+00  -1.6952560097728973e+01 2.2294584872143027e+01 0.0000000000000000e+00  -1.7833760119832530e+01 2.1163235064086944e+01 0.0000000000000000e+00  -1.5272845663031692e+01 2.5072508435166910e+01 0.0000000000000000e+00  -1.7093878955362115e+01 2.2585933361541336e+01 0.0000000000000000e+00  -1.4061255762567077e+01 2.5286777972574949e+01 0.0000000000000000e+00  -1.5451188513558787e+01 2.3503112090921412e+01 0.0000000000000000e+00  -1.2766600156196686e+01 2.5366575941599304e+01 0.0000000000000000e+00  -1.4276880390603543e+01 2.3457046080064753e+01 0.0000000000000000e+00  -1.1650971552267960e+01 2.4314695716901742e+01 0.0000000000000000e+00  -1.3018704080584643e+01 2.2674203461209878e+01 0.0000000000000000e+00  -1.0323152719024165e+01 2.3146785480839839e+01 0.0000000000000000e+00  -1.1939170604286874e+01 2.1187320811406952e+01 0.0000000000000000e+00  -9.3676141953910950e+00 2.1305564928799601e+01 0.0000000000000000e+00  -1.0647257102739934e+01 1.9904287819475350e+01 0.0000000000000000e+00  -8.5844797392617291e+00 1.9450175492650228e+01 0.0000000000000000e+00  -9.7271540640873493e+00 1.8307294987208042e+01 0.0000000000000000e+00  -7.7327213064185427e+00 1.7757006513826415e+01 0.0000000000000000e+00  -8.9790828581576925e+00 1.6510926885226397e+01 0.0000000000000000e+00  -6.9260302748202793e+00 1.6157623733244229e+01 0.0000000000000000e+00  -8.1621829451277428e+00 1.4978767742302461e+01 0.0000000000000000e+00  -6.1682585910398355e+00 1.4741868078543304e+01 0.0000000000000000e+00  -7.3899345198368351e+00 1.3636204636639791e+01 0.0000000000000000e+00  -5.4228648839682299e+00 1.3446373351277698e+01 0.0000000000000000e+00  -6.6662404266908117e+00 1.2358933807827260e+01 0.0000000000000000e+00  -4.7447037696542846e+00 1.2205598456204804e+01 0.0000000000000000e+00  -5.9546185595216743e+00 1.1218675726615491e+01 0.0000000000000000e+00  -4.1415469553743680e+00 1.1067252629790429e+01 0.0000000000000000e+00  -5.3098396422122480e+00 1.0192553113438006e+01 0.0000000000000000e+00  -3.5759108436227853e+00 9.9786563812224554e+00 0.0000000000000000e+00  -4.7396555943475374e+00 9.1599463882806749e+00 0.0000000000000000e+00  -3.0731143035518080e+00 8.9159333723255259e+00 0.0000000000000000e+00  -4.2067108335873842e+00 8.1911025930184653e+00 0.0000000000000000e+00  -2.6421790857834924e+00 7.9182724356504082e+00 0.0000000000000000e+00  -3.7361395320360526e+00 7.3010473006140533e+00 0.0000000000000000e+00  -2.2470489298760201e+00 6.9141790168864476e+00 0.0000000000000000e+00  -3.3372056538920818e+00 6.3502117636984545e+00 0.0000000000000000e+00  -1.9061428091286230e+00 5.9792523898787806e+00 0.0000000000000000e+00  -2.9735134539638972e+00 5.4965729441711710e+00 0.0000000000000000e+00  -1.6190075739058143e+00 5.0263179412420778e+00 0.0000000000000000e+00  -2.6640988159771433e+00 4.6236003575648761e+00 0.0000000000000000e+00  -1.3663586044610878e+00 4.2113631845334192e+00 0.0000000000000000e+00  -2.4074099093472121e+00 3.8608497439602316e+00 0.0000000000000000e+00  -1.1481647514149871e+00 3.2725859720997672e+00 0.0000000000000000e+00  -2.1861320582343633e+00 2.9721858730788782e+00 0.0000000000000000e+00  -9.5724302007848350e-01 2.7348469870670735e+00 0.0000000000000000e+00  -1.9968904364937734e+00 2.4773494709264479e+00 0.0000000000000000e+00  -7.8100309532132950e-01 1.7845989061977006e+00 0.0000000000000000e+00  -1.8381037203101858e+00 1.5451566526582079e+00 0.0000000000000000e+00  -5.4326826078946133e-01 1.7279300988196609e+00 0.0000000000000000e+00  -1.6879145816024572e+00 1.4022785219932161e+00 0.0000000000000000e+00  -1.8282484162848370e-01 1.2029022239346134e+00 0.0000000000000000e+00  -1.4863762376949652e+00 6.8206360045255954e-01 0.0000000000000000e+00  6.6163094311062420e-01 7.4671488239959061e-03 0.0000000000000000e+00  -1.1404370421438630e+00 -1.2178365214929194e+00 0.0000000000000000e+00  -1.8050957937639811e+00 -5.6921919335829179e+00 0.0000000000000000e+00  -1.3311616559263679e+00 -6.3086225512697407e+00 0.0000000000000000e+00  -2.2355060498732655e+00 -5.8772235294209745e+00 0.0000000000000000e+00  -2.7918653991504345e+00 -6.8057491116136193e+00 0.0000000000000000e+00  -3.4826955537824809e+00 -7.3456368890145720e+00 0.0000000000000000e+00  -4.0987133813698238e+00 -8.1320131340386013e+00 0.0000000000000000e+00  -4.6349499970656511e+00 -8.4958418989158453e+00 0.0000000000000000e+00  -5.3061507854276790e+00 -9.1388922773000267e+00 0.0000000000000000e+00  -5.8326949444793632e+00 -9.4202209831594228e+00 0.0000000000000000e+00  -5.8969791672440746e+00 -9.0367442445487391e+00 0.0000000000000000e+00  -6.9636598562684107e+00 -9.8672633560994214e+00 0.0000000000000000e+00  -3.8392479998446771e+00 -3.9152947703724905e+00 0.0000000000000000e+00  -1.4942443237086762e+01 -1.9164248060083938e+01 0.0000000000000000e+00  -1.4602976569712707e+01 -1.7225747093844486e+01 0.0000000000000000e+00  -1.4656698860198757e+01 -1.5903057586264874e+01 0.0000000000000000e+00  -1.5160317498539088e+01 -1.5222239984714367e+01 0.0000000000000000e+00  -1.6067532198134977e+01 -1.5047156506849619e+01 0.0000000000000000e+00  -1.7279781552466982e+01 -1.5425630654651833e+01 0.0000000000000000e+00  -1.8704066645946565e+01 -1.5929083096544515e+01 0.0000000000000000e+00  -2.0248719807806847e+01 -1.6568046026638612e+01 0.0000000000000000e+00  -2.1824128415206260e+01 -1.7139376982679494e+01 0.0000000000000000e+00  -2.3354189527183451e+01 -1.7578273962190739e+01 0.0000000000000000e+00  -2.4774498198042220e+01 -1.7387718770808192e+01 0.0000000000000000e+00  -2.6030369275743222e+01 -1.7280901392223502e+01 0.0000000000000000e+00  -2.7087462328336066e+01 -1.5773527153687755e+01 0.0000000000000000e+00  -2.7930662319172615e+01 -1.4720396789970973e+01 0.0000000000000000e+00  -2.8557106735211132e+01 -1.1589019585778347e+01 0.0000000000000000e+00  -2.8988122752614096e+01 -9.3936109614310599e+00 0.0000000000000000e+00  -2.9243896334619041e+01 -4.8500447446070361e+00 0.0000000000000000e+00  -2.9371380957367606e+01 -1.1441186161325900e+00 0.0000000000000000e+00  -2.9391565368336593e+01 -1.3511314152036930e-03 0.0000000000000000e+00  -2.9362953315998890e+01 -6.8464493230563939e+00 0.0000000000000000e+00  -2.9391543601513646e+01 1.3313575393932413e-03 0.0000000000000000e+00  -2.9301276175362446e+01 5.1359539196848170e-01 0.0000000000000000e+00  -2.0103338481728350e+01 1.7335164487229576e+01 0.0000000000000000e+00  -2.0810055600444898e+01 1.6718662780945312e+01 0.0000000000000000e+00  -1.7872370773833506e+01 2.1502547477143747e+01 0.0000000000000000e+00  -1.7175521384012463e+01 2.1062130338987387e+01 0.0000000000000000e+00  -1.5572365009496863e+01 2.1720017599852611e+01 0.0000000000000000e+00  -1.4437460980980834e+01 2.0809268708850688e+01 0.0000000000000000e+00  -1.3216417496916730e+01 1.9589532596759970e+01 0.0000000000000000e+00  -1.2172715645886932e+01 1.7987598376212198e+01 0.0000000000000000e+00  -1.0915699550038335e+01 1.6947733893469838e+01 0.0000000000000000e+00  -1.0029701837944087e+01 1.5408730073310503e+01 0.0000000000000000e+00  -9.3149110440623222e+00 1.3773332541395179e+01 0.0000000000000000e+00  -8.5309427672260600e+00 1.2497339751310983e+01 0.0000000000000000e+00  -7.7910628241754596e+00 1.1292466553172193e+01 0.0000000000000000e+00  -7.0991211066961712e+00 1.0170142187096072e+01 0.0000000000000000e+00  -6.4187662230258722e+00 9.2438868384971453e+00 0.0000000000000000e+00  -5.8046446600628778e+00 8.3227564621684760e+00 0.0000000000000000e+00  -5.2644690104143725e+00 7.4094620149957553e+00 0.0000000000000000e+00  -4.7609456001522110e+00 6.6126443315142440e+00 0.0000000000000000e+00  -4.3192049326233528e+00 5.7687397516295942e+00 0.0000000000000000e+00  -3.9483963107528530e+00 4.9678609604051491e+00 0.0000000000000000e+00  -3.6123579694749224e+00 4.1755880225690936e+00 0.0000000000000000e+00  -3.3298041063599095e+00 3.4921235039698968e+00 0.0000000000000000e+00  -3.0996580145705397e+00 2.6552662435118304e+00 0.0000000000000000e+00  -2.9038091151800134e+00 2.2098739451976477e+00 0.0000000000000000e+00  -2.7403493266023982e+00 1.3198364056330867e+00 0.0000000000000000e+00  -2.6049783392656156e+00 1.1949727314317118e+00 0.0000000000000000e+00  -2.4804395838441575e+00 3.8886246587589568e-01 0.0000000000000000e+00  -2.3004125930740904e+00 -1.7173184447394334e+00 0.0000000000000000e+00  -2.5182065590280711e+00 -4.9804298581720152e+00 0.0000000000000000e+00  -2.0899672905326518e+00 -5.6676965855282324e+00 0.0000000000000000e+00  -2.9933813629198900e+00 -5.2307267305477865e+00 0.0000000000000000e+00  -3.4250787847585586e+00 -5.9715454485336688e+00 0.0000000000000000e+00  -3.9808937626438530e+00 -6.3111618587201193e+00 0.0000000000000000e+00  -4.6691974444898525e+00 -7.2114873284853385e+00 0.0000000000000000e+00  -5.2802386797834098e+00 -7.6971666843415676e+00 0.0000000000000000e+00  -5.8084122847459740e+00 -8.1398421118317685e+00 0.0000000000000000e+00  -6.4685328745357236e+00 -8.6404588090553798e+00 0.0000000000000000e+00  -6.9808827712787371e+00 -8.9527224833258465e+00 0.0000000000000000e+00  -7.0277871750485810e+00 -8.2812856101044368e+00 0.0000000000000000e+00  -8.0752945092808304e+00 -8.6159803286035466e+00 0.0000000000000000e+00  -4.9330207291928811e+00 -2.5220093274842772e+00 0.0000000000000000e+00  -1.6021824316119869e+01 -1.7745894402986575e+01 0.0000000000000000e+00  -1.5668327617603667e+01 -1.5836507196980500e+01 0.0000000000000000e+00  -1.5703762648750882e+01 -1.4485093367558623e+01 0.0000000000000000e+00  -1.6182667530031313e+01 -1.3709204533393118e+01 0.0000000000000000e+00  -1.7058430374580187e+01 -1.3635272014799032e+01 0.0000000000000000e+00  -1.8232317901839718e+01 -1.3825632089528815e+01 0.0000000000000000e+00  -1.9610894018475161e+01 -1.4288720766677420e+01 0.0000000000000000e+00  -2.1102963218421795e+01 -1.4818792799178871e+01 0.0000000000000000e+00  -2.2619154516137112e+01 -1.5330837222121515e+01 0.0000000000000000e+00  -2.4082508984276490e+01 -1.5308632182906031e+01 0.0000000000000000e+00  -2.5430054731901240e+01 -1.5454266932881842e+01 0.0000000000000000e+00  -2.6606083883537959e+01 -1.4247173456256325e+01 0.0000000000000000e+00  -2.7578763739882497e+01 -1.3521142300824240e+01 0.0000000000000000e+00  -2.8330746435882403e+01 -1.0712449361751352e+01 0.0000000000000000e+00  -2.8866237184906328e+01 -8.8208052235373202e+00 0.0000000000000000e+00  -2.9198821377764428e+01 -4.5227938177712561e+00 0.0000000000000000e+00  -2.9368823196191276e+01 -1.0368777988327851e+00 0.0000000000000000e+00  -2.9394100478118609e+01 -1.9321241388369412e-03 0.0000000000000000e+00  -2.9344750716059515e+01 -7.0076299611965824e+00 0.0000000000000000e+00  -2.9394081165346144e+01 1.9039678794054865e-03 0.0000000000000000e+00  -2.9151967461626040e+01 3.9121800225687120e-01 0.0000000000000000e+00  -2.9080635997696302e+01 3.5800785495569110e+00 0.0000000000000000e+00  -1.9940382322322375e+01 1.7833913049610874e+01 0.0000000000000000e+00  -2.0719599231060752e+01 1.7146933862085618e+01 0.0000000000000000e+00  -1.7851030064571560e+01 2.0068892245894165e+01 0.0000000000000000e+00  -1.7220144948816451e+01 1.9361601810961325e+01 0.0000000000000000e+00  -1.5677641559309286e+01 1.9151871507711530e+01 0.0000000000000000e+00  -1.4600115514555680e+01 1.7799812974050628e+01 0.0000000000000000e+00  -1.3432110655613117e+01 1.6461937898924560e+01 0.0000000000000000e+00  -1.2438916283634613e+01 1.5100355902618602e+01 0.0000000000000000e+00  -1.1230194403456219e+01 1.4116968060315630e+01 0.0000000000000000e+00  -1.0390966028868828e+01 1.2737380776677311e+01 0.0000000000000000e+00  -9.7219578915313889e+00 1.1357072888395370e+01 0.0000000000000000e+00  -8.9830218746615387e+00 1.0217780690626560e+01 0.0000000000000000e+00  -8.2873162715388808e+00 9.1666954629756745e+00 0.0000000000000000e+00  -7.6387525504045986e+00 8.2571132426331406e+00 0.0000000000000000e+00  -7.0008278432895121e+00 7.4346655102018868e+00 0.0000000000000000e+00  -6.4281175831627007e+00 6.6314350608694852e+00 0.0000000000000000e+00  -5.9282729309176299e+00 5.8888727765233826e+00 0.0000000000000000e+00  -5.4640456872952479e+00 5.1367273991377864e+00 0.0000000000000000e+00  -5.0603605355360637e+00 4.4416408894738373e+00 0.0000000000000000e+00  -4.7266909017712511e+00 3.7003267537825568e+00 0.0000000000000000e+00  -4.4263288218926329e+00 3.0969341415721563e+00 0.0000000000000000e+00  -4.1788520004971206e+00 2.3367492870896873e+00 0.0000000000000000e+00  -3.9817262538681919e+00 1.9438860769351867e+00 0.0000000000000000e+00  -3.8192346661776382e+00 1.0981558806963492e+00 0.0000000000000000e+00  -3.6851000538871892e+00 1.0205963814612893e+00 0.0000000000000000e+00  -3.5833572406961149e+00 2.1994688553259659e-01 0.0000000000000000e+00  -3.4797812699720083e+00 -1.9572514470986613e+00 0.0000000000000000e+00  -3.4380013982701834e+00 -4.3367368534668609e+00 0.0000000000000000e+00  -3.0479388573975457e+00 -5.0845824901304990e+00 0.0000000000000000e+00  -3.8682708381257629e+00 -4.5159161989842778e+00 0.0000000000000000e+00  -4.3467739551834388e+00 -5.3219284223939267e+00 0.0000000000000000e+00  -4.7813115603453058e+00 -5.4764194357910467e+00 0.0000000000000000e+00  -5.3384406516431637e+00 -6.1798543393518974e+00 0.0000000000000000e+00  -6.0253254271596690e+00 -6.7836058581643588e+00 0.0000000000000000e+00  -6.6315896883335563e+00 -7.3534431715223931e+00 0.0000000000000000e+00  -7.1509941136147006e+00 -7.6592446150999072e+00 0.0000000000000000e+00  -7.7978587359113511e+00 -8.1961953329777533e+00 0.0000000000000000e+00  -8.2926076015637378e+00 -8.2257267152331988e+00 0.0000000000000000e+00  -8.3188452217912729e+00 -7.0603834034047965e+00 0.0000000000000000e+00  -9.3456608001584787e+00 -7.2479389111788031e+00 0.0000000000000000e+00  -6.1883476172334149e+00 -1.1202438535943151e+00 0.0000000000000000e+00  -1.7270075002570881e+01 -1.6371650117398332e+01 0.0000000000000000e+00  -1.6910360878788286e+01 -1.4440616083011127e+01 0.0000000000000000e+00  -1.6933425852957292e+01 -1.3005750544341263e+01 0.0000000000000000e+00  -1.7391006528764247e+01 -1.2343946079200792e+01 0.0000000000000000e+00  -1.8234655747751347e+01 -1.2094158276374687e+01 0.0000000000000000e+00  -1.9366057155958192e+01 -1.2258069272103999e+01 0.0000000000000000e+00  -2.0691456915581345e+01 -1.2625279286728219e+01 0.0000000000000000e+00  -2.2119333814719408e+01 -1.3108756731284997e+01 0.0000000000000000e+00  -2.3560323240690835e+01 -1.3173117726971419e+01 0.0000000000000000e+00  -2.4938065610365236e+01 -1.3501185649458229e+01 0.0000000000000000e+00  -2.6187934935667197e+01 -1.2556346819414157e+01 0.0000000000000000e+00  -2.7257701428238494e+01 -1.2145661982836485e+01 0.0000000000000000e+00  -2.8112477748232937e+01 -9.6671831755942907e+00 0.0000000000000000e+00  -2.8743910768069693e+01 -8.1143075453708686e+00 0.0000000000000000e+00  -2.9147465398125714e+01 -4.1016459179930820e+00 0.0000000000000000e+00  -2.9362302360884904e+01 -8.9251459889179430e-01 0.0000000000000000e+00  -2