<?xml version="1.0"?>
<VTKFile type="UnstructuredGrid"  version="0.1"  >
<UnstructuredGrid>
<Piece  NumberOfPoints="1933" NumberOfCells="3640">
<Points>
<DataArray  type="Float64"  NumberOfComponents="3"  format="ascii">-0.2939945764006717 0.0004067970306584705 0  4.706005451540578 0.0003769445775937928 0  4.706050268917442 7.500377037312959 0  -0.2939497882954299 7.500406838644106 0  9.706005485196746 0.0003470048892817007 0  9.706050374503693 7.500347116153555 0  14.70600557103427 0.0003169300231446544 0  14.70605055493837 7.500317047084006 0  19.70600576138177 0.0002867121423808089 0  19.70605083649232 7.500286830223614 0  24.70600610608405 0.0002563676189107698 0  24.70605124556369 7.500256485390303 0  29.70600665039013 0.0002259281427852214 0  29.70605180807761 7.500226045810432 0  34.70600743527944 0.0001954357346724381 0  34.70605254905175 7.500195554191988 0  39.70600849866074 0.0001649401585141547 0  39.70605349246199 7.500165060610191 0  44.70600987679647 0.0001344979043379887 0  44.7060546613181 7.500134621711252 0  49.70601160570163 0.0001041722705908007 0  49.70605607782926 7.50010430090011 0  54.7060137224344 7.403429465433148e-05 0  54.70605776355584 7.500074169321294 0  59.70601626626269 4.416442695837964e-05 0  59.70605973946017 7.50004430755554 0  64.70601927971391 1.46549537918025e-05 0  64.7060620257685 7.500014808048379 0  69.70602280950315 -1.438673037960849e-05 0  69.70606464154649 7.499985778372982 0  74.70602690732204 -4.283380047969331e-05 0  74.70606760385546 7.499957345519638 0  79.70603163041547 -7.053430572859568e-05 0  79.70607092629965 7.499929661513132 0  84.70603704180644 -9.730361350189341e-05 0  84.70607461669182 7.499902910799952 0  89.70604320987937 -0.0001229142633038314 0  89.70607867343331 7.499877320038071 0  94.70605020679018 -0.0001470821409359238 0  94.70608308002463 7.49985317118268 0  99.70605810468952 -0.0001694473299661804 0  99.70608779689556 7.499830819109595 0  104.7060669678709 -0.0001895471439265445 0  104.7060927494622 7.499810715457473 0  109.7060768372525 -0.0002067775269337347 0  109.7060978111157 7.499793440845433 0  114.7060877003669 -0.0002203370136731833 0  114.7061027799855 7.499779747932458 0  119.7060994337257 -0.0002291445254732558 0  119.7061073495502 7.499770617340223 0  124.7061116921824 -0.0002317184101289601 0  124.7061110773569 7.499767325798388 0  129.7061236959208 -0.0002260003314502048 0  129.7061133674986 7.499771517625796 0  134.706133818403 -0.0002091093860383336 0  134.7061135110163 7.49978525000739 0  139.7061387835008 -0.0001770440736094041 0  139.7061108969363 7.499810939667937 0  144.7061320783175 -0.0001245291745775019 0  144.7061056722789 7.499851084508545 0  149.7061006976128 -4.612199003476857e-05 0  149.7061005587024 7.499907784543967 0  159.7061073738543 7.034658974631753e-19 0  164.7060106458815 -0.0001405736528402584 0  164.706090999694 7.499837310013691 0  159.706117998845 7.49994766670861 0  169.7059602048828 -0.0002570344336268042 0  169.7060634269492 7.499731871853676 0  174.7059340959546 -0.0003562609766262629 0  174.7060411540712 7.499637671719528 0  179.7059212545728 -0.0004422176030755476 0  179.706024723812 7.499554309794124 0  184.7059158095174 -0.0005178744199963674 0  184.7060132477607 7.499480077697868 0  189.7059145444742 -0.0005855233600192202 0  189.7060056048538 7.499413239843666 0  194.7059156514661 -0.0006469118324171973 0  194.7060008017083 7.499352326449757 0  199.7059180887917 -0.0007033618974965083 0  199.7059980513201 7.499296162400751 0  204.7059212413292 -0.0007558750241949187 0  204.7059967596436 7.499243826393652 0  209.7059247371238 -0.0008052157290005134 0  209.7059964881976 7.499194598566214 0  214.7059283463824 -0.0008519744588626871 0  214.705996916373 7.499147913830511 0  219.7059319246412 -0.0008966134476798731 0  219.7059978103624 7.499103324657038 0  224.7059353800205 -0.00093949975807618 0  224.7059989995074 7.499060472709626 0  229.7059386538791 -0.0009809290769291724 0  229.7060003589569 7.499019067614745 0  234.7059417090847 -0.001021142965276209 0  234.7060017971798 7.498978871138279 0  239.7059445227288 -0.001060341500592132 0  239.706003247035 7.498939685350367 0  244.7059470815105 -0.0010986926673479 0  244.7060046594018 7.498901343701337 0  249.7059493787742 -0.00113633943433039 0  249.7060059986345 7.498863704221177 0  254.7059514126207 -0.00117340516594833 0  254.7060072393268 7.498826644278648 0  259.7059531847374 -0.001209997812386013 0  259.7060083640125 7.49879005650122 0  264.7059546997635 -0.001246213180258087 0  264.706009361557 7.498753845580314 0  269.7059559650606 -0.001282137478482244 0  269.7060102260565 7.498717925780562 0  274.705956990857 -0.001317849244943542 0  274.7060109561112 7.498682219051466 0  279.7059577907339 -0.001353420670473745 0  279.7060115543757 7.498646653715756 0  284.7059583824785 -0.001388918226601849 0  284.7060120272933 7.49861116379436 0  289.7059587892694 -0.001424402340735975 0  289.7060123849173 7.498575689135502 0  294.7059590411509 -0.001459925593816659 0  294.706012640747 7.498540176658996 0  299.7059591764595 -0.001495528446382888 0  299.7060128115154 7.498504583213135 0  304.7059592423556 -0.001531230666475734 0  304.7060129171226 7.498468880758133 0  309.705959292192 -0.001567015223804711 0  309.7060129815777 7.498433064807625 0  4.706094802822951 15.00037725286026 0  -0.2939052604798546 15.0004069416655 0  9.706094910759054 15.00034736845924 0  14.7060950865137 15.00031730301994 0  19.70609534605578 15.0002870775743 0  24.70609570251904 15.00025672174921 0  29.70609616786813 15.00022627311918 0  34.70609675332727 15.00019577611406 0  39.70609746930418 15.00016528130084 0  44.70609832511705 15.00013484526064 0  49.70609932862439 15.0001045310832 0  54.70610048576325 15.00007440946111 0  59.70610179995274 15.00004456038637 0  64.70610327130156 15.00001507549296 0  69.70610489553437 14.9999860611395 0  74.7061066625445 14.99995764238474 0  79.70610855446047 14.99992996807258 0  84.70611054311382 14.99990321731497 0  89.7061125868096 14.99987760773291 0  94.70611462637795 14.9998534058673 0  99.70611658066034 14.99983094015659 0  104.7061183420107 14.99981061668345 0  109.7061197732021 14.99979293728786 0  114.7061207087267 14.99977851815202 0  119.706120966303 14.99976810364145 0  124.7061203791643 14.99976256323059 0  129.7061188669319 14.99976284536081 0  134.7061165719089 14.99976983477464 0  139.7061140930556 14.99978400667511 0  144.7061128304498 14.99980465900993 0  149.7061153335085 14.99982819799273 0  164.7061331340741 14.99977674863232 0  159.7061363939534 14.99985252502255 0  169.7061235900535 14.99969563712715 0  174.7061117504452 14.99961612689972 0  179.7061002087254 14.99954136650983 0  184.7060901528595 14.99947217290153 0  189.7060819452221 14.9994083200609 0  194.7060755403667 14.9993492046737 0  199.7060707220689 14.99929414522861 0  204.7060672246983 14.99924250269482 0  209.7060647898494 14.99919372015526 0  214.7060631891565 14.99914732783681 0  219.7060622304908 14.99910293488322 0  224.7060617566408 14.99906021730127 0  229.7060616410784 14.99901890597467 0  234.7060617830315 14.99897877613592 0  239.7060621028178 14.99893963860563 0  244.7060625378102 14.99890133268341 0  249.7060630391049 14.99886372044128 0  254.7060635688379 14.99882668215711 0  259.7060640980629 14.99879011266177 0  264.7060646050781 14.99875391841948 0  269.7060650741151 14.99871801521107 0  274.7060654943038 14.99868232633448 0  279.7060658588298 14.99864678127853 0  284.7060661642628 14.99861131486204 0  289.7060664099922 14.99857586684966 0  294.7060665978586 14.99854038203328 0  299.7060667321214 14.99850481063359 0  304.706066820195 14.99846910845199 0  309.7060668749592 14.99843323503769 0  4.706139028925924 22.50037769238229 0  -0.2938610334712616 22.5004072788333 0  9.706139119442398 22.50034783835653 0  14.70613925494105 22.50031776653433 0  19.70613944485568 22.500287519644 0  24.70613969435732 22.50025713942619 0  29.7061400062173 22.50022666960694 0  34.70614038163936 22.50019615729994 0  39.70614082043657 22.50016565380973 0  44.7061413208217 22.50013521535938 0  49.70614187896809 22.500104904006 0  54.7061424884116 22.50007478887613 0  59.7061431393187 22.50004494780184 0  64.70614381761811 22.50001546942419 0  69.70614450398783 22.49998645583467 0  74.70614517269915 22.49995802583616 0  79.70614579034884 22.49993031890806 0  84.70614631457076 22.49990349994461 0  89.70614669293026 22.49987776477779 0  94.70614686239153 22.49985334635258 0  99.70614675005568 22.49983052112044 0  104.7061462763543 22.49980961462552 0  109.7061453626026 22.49979100415315 0  114.7061439458017 22.49977511433251 0  119.7061420047356 22.49976239817901 0  124.7061396023124 22.49975329047203 0  129.7061369485565 22.49974811179545 0  134.7061344838196 22.49974688993905 0  139.7061329667374 22.49974905385033 0  144.7061335152248 22.49975295931924 0  149.7061374758545 22.49975529008775 0  164.7061631535505 22.49970914616662 0  159.7061556721912 22.49976326668996 0  169.7061646672831 22.4996473849821 0  174.7061620423088 22.49958283933536 0  179.7061571229792 22.4995187315597 0  184.7061513089489 22.4994568262848 0  189.7061454881101 22.4993978774325 0  194.706140147584 22.4993420482549 0  199.7061355074652 22.49928919814167 0  204.7061316269276 22.49923905246208 0  209.7061284765433 22.49919129464493 0  214.7061259836128 22.49914561219639 0  219.7061240588734 22.49910171719647 0  224.7061226113052 22.49905935339046 0  229.7061215557005 22.49901829665341 0  234.7061208160265 22.49897835246817 0  239.7061203264408 22.49893935229955 0  244.7061200310791 22.49890114978815 0  249.7061198832515 22.49886361718327 0  254.706119844415 22.49882664217613 0  259.7061198830959 22.49879012517155 0  264.7061199738721 22.49875397697995 0  269.7061200964353 22.49871811689235 0  274.7061202347572 22.49868247109588 0  279.7061203763531 22.49864697138482 0  284.7061205116547 22.49861155410887 0  289.7061206335233 22.49857615925783 0  294.7061207369871 22.49854072948
[...]
<PointData  Vectors="v"> 
<DataArray  type="Float64"  Name="v"  NumberOfComponents="3" format="ascii">-1.1008385600016131e+00 -7.6634972068741058e+00 0.0000000000000000e+00  -1.6580795326027500e+00 -7.1721045078420431e+00 0.0000000000000000e+00  -1.5279255732052541e+00 -6.3364985453670206e+00 0.0000000000000000e+00  -1.0978426957417387e+00 -7.0186283683595798e+00 0.0000000000000000e+00  -2.3517982763940668e+00 -7.7504439770912272e+00 0.0000000000000000e+00  -2.0847609781547267e+00 -6.7108702604137891e+00 0.0000000000000000e+00  -2.9728913645481434e+00 -8.7723273741921961e+00 0.0000000000000000e+00  -2.7772493006718739e+00 -7.8422736861185420e+00 0.0000000000000000e+00  -3.5164562094015679e+00 -9.0840044380074350e+00 0.0000000000000000e+00  -3.3963373447799996e+00 -8.2709772865080939e+00 0.0000000000000000e+00  -4.1975132452916055e+00 -9.9576136124527288e+00 0.0000000000000000e+00  -3.9371323721352369e+00 -8.9390764640629730e+00 0.0000000000000000e+00  -4.7365491997451752e+00 -1.0311445659865985e+01 0.0000000000000000e+00  -4.6144798473676047e+00 -9.5065386763357989e+00 0.0000000000000000e+00  -4.8156324303266276e+00 -1.0048388369097129e+01 0.0000000000000000e+00  -5.1489916810120340e+00 -9.9341524825523333e+00 0.0000000000000000e+00  -5.8994808548418867e+00 -1.1144227207781633e+01 0.0000000000000000e+00  -5.2227942507122780e+00 -9.5236115526226737e+00 0.0000000000000000e+00  -2.7936923869530519e+00 -5.9806390361539501e+00 0.0000000000000000e+00  -6.3004250894008260e+00 -1.0644835133769728e+01 0.0000000000000000e+00  -1.3915339201854108e+01 -2.1864642966629930e+01 0.0000000000000000e+00  -3.1876749927838750e+00 -5.1891500212054824e+00 0.0000000000000000e+00  -1.3595555419951888e+01 -2.0090609417338293e+01 0.0000000000000000e+00  -1.4301857951710005e+01 -2.0577431347497495e+01 0.0000000000000000e+00  -1.3672717683714284e+01 -1.8771066984938681e+01 0.0000000000000000e+00  -1.3973540054107730e+01 -1.8663490654262826e+01 0.0000000000000000e+00  -1.4203803444771310e+01 -1.8104084635097504e+01 0.0000000000000000e+00  -1.4040876327601405e+01 -1.7316986415253584e+01 0.0000000000000000e+00  -1.5143956201858572e+01 -1.8071220117049396e+01 0.0000000000000000e+00  -1.4560768668329024e+01 -1.6671912030209072e+01 0.0000000000000000e+00  -1.6394144505997698e+01 -1.8462740461628190e+01 0.0000000000000000e+00  -1.5487881107411697e+01 -1.6599443085661843e+01 0.0000000000000000e+00  -1.7860722635538558e+01 -1.9071580686659004e+01 0.0000000000000000e+00  -1.6723550047541362e+01 -1.6885145837965595e+01 0.0000000000000000e+00  -1.9453105215697452e+01 -1.9958617129631481e+01 0.0000000000000000e+00  -1.8174282852906909e+01 -1.7584745216306025e+01 0.0000000000000000e+00  -2.1080822369156134e+01 -2.0697731691534031e+01 0.0000000000000000e+00  -1.9748957658243242e+01 -1.8271679291496334e+01 0.0000000000000000e+00  -2.2667157333658878e+01 -2.1322445245040083e+01 0.0000000000000000e+00  -2.1357821095747255e+01 -1.8959884857206433e+01 0.0000000000000000e+00  -2.4148534050496831e+01 -2.1670394055919793e+01 0.0000000000000000e+00  -2.2923967624951842e+01 -1.9466057080674890e+01 0.0000000000000000e+00  -2.5469521280901201e+01 -2.1705724234302913e+01 0.0000000000000000e+00  -2.4383908061337340e+01 -1.9742906616767623e+01 0.0000000000000000e+00  -2.6594357859920166e+01 -2.0976502515680192e+01 0.0000000000000000e+00  -2.5682033901103232e+01 -1.9308368519021698e+01 0.0000000000000000e+00  -2.7509427411448158e+01 -2.0257466456943334e+01 0.0000000000000000e+00  -2.6784035200227748e+01 -1.8905471318492715e+01 0.0000000000000000e+00  -2.8209034615704841e+01 -1.8108962982717060e+01 0.0000000000000000e+00  -2.7673824614503118e+01 -1.7078955111556077e+01 0.0000000000000000e+00  -2.8715197215972136e+01 -1.6438687146820271e+01 0.0000000000000000e+00  -2.8349941716416581e+01 -1.5701834578235966e+01 0.0000000000000000e+00  -2.9046640525154292e+01 -1.2756167944497017e+01 0.0000000000000000e+00  -2.8828778196520645e+01 -1.2277731488021091e+01 0.0000000000000000e+00  -2.9247455339504477e+01 -1.0095719418292441e+01 0.0000000000000000e+00  -2.9137522095285206e+01 -9.8189223881499093e+00 0.0000000000000000e+00  -2.9342422748044839e+01 -5.2073645834261422e+00 0.0000000000000000e+00  -2.9308932916446576e+01 -5.0815355976123096e+00 0.0000000000000000e+00  -2.9381811614154966e+01 -1.2419592149301517e+00 0.0000000000000000e+00  -2.9383432821724917e+01 -1.2098975445737863e+00 0.0000000000000000e+00  -2.9389262610605670e+01 3.3982612706619350e-09 0.0000000000000000e+00  -2.9389940982172686e+01 -7.0929455884463362e-04 0.0000000000000000e+00  -2.9389262614637929e+01 4.8853694784817241e-19 0.0000000000000000e+00  -2.0123698248017142e+01 7.0811827991636962e+00 0.0000000000000000e+00  -2.9383910655708039e+01 -6.7914653922078561e+00 0.0000000000000000e+00  -2.9389929050030958e+01 6.7739240273362560e-04 0.0000000000000000e+00  -2.0748185510520841e+01 1.3371611940946289e+01 0.0000000000000000e+00  -2.0151470564149498e+01 1.4348506966448843e+01 0.0000000000000000e+00  -1.7729865834557355e+01 2.0812334618596029e+01 0.0000000000000000e+00  -2.0813607102918301e+01 1.6315627321378400e+01 0.0000000000000000e+00  -1.6952285344612047e+01 2.2296915896622636e+01 0.0000000000000000e+00  -1.7833590686542063e+01 2.1165372718477098e+01 0.0000000000000000e+00  -1.5272540012133206e+01 2.5075218531183982e+01 0.0000000000000000e+00  -1.7093574522478942e+01 2.2588615506041460e+01 0.0000000000000000e+00  -1.4060893156292275e+01 2.5289873590253759e+01 0.0000000000000000e+00  -1.5450860004794219e+01 2.3506127852216270e+01 0.0000000000000000e+00  -1.2766184681682368e+01 2.5369878811036802e+01 0.0000000000000000e+00  -1.4276496800105269e+01 2.3460274417571139e+01 0.0000000000000000e+00  -1.1650487003210911e+01 2.4318005156982572e+01 0.0000000000000000e+00  -1.3018270457393212e+01 2.2677410297483217e+01 0.0000000000000000e+00  -1.0322601335045558e+01 2.3150003978561205e+01 0.0000000000000000e+00  -1.1938669524898055e+01 2.1190440292363238e+01 0.0000000000000000e+00  -9.3670309975091381e+00 2.1308661589400064e+01 0.0000000000000000e+00  -1.0646690252545151e+01 1.9907336055500480e+01 0.0000000000000000e+00  -8.5839370824023042e+00 1.9453012653018760e+01 0.0000000000000000e+00  -9.7265557538683929e+00 1.8310192129976073e+01 0.0000000000000000e+00  -7.7322091169709406e+00 1.7759609095444958e+01 0.0000000000000000e+00  -8.9785255168594649e+00 1.6513574826487748e+01 0.0000000000000000e+00  -6.9255405479435277e+00 1.6160018080090513e+01 0.0000000000000000e+00  -8.1616563879243529e+00 1.4981195584198497e+01 0.0000000000000000e+00  -6.1677855942160162e+00 1.4744092999399401e+01 0.0000000000000000e+00  -7.3894306321844869e+00 1.3638454630855001e+01 0.0000000000000000e+00  -5.4224065889542725e+00 1.3448424397950184e+01 0.0000000000000000e+00  -6.6657535171416820e+00 1.2361006999956114e+01 0.0000000000000000e+00  -4.7442557131404879e+00 1.2207499399859129e+01 0.0000000000000000e+00  -5.9541465637503066e+00 1.1220592110829136e+01 0.0000000000000000e+00  -4.1411105291547559e+00 1.1069029647163974e+01 0.0000000000000000e+00  -5.3093780404937165e+00 1.0194347668207472e+01 0.0000000000000000e+00  -3.5754882574864744e+00 9.9802974977794765e+00 0.0000000000000000e+00  -4.7392057972415209e+00 9.1616083572395794e+00 0.0000000000000000e+00  -3.0727080092683297e+00 8.9174501448980106e+00 0.0000000000000000e+00  -4.2062750251553291e+00 8.1926438671940165e+00 0.0000000000000000e+00  -2.6417939594934685e+00 7.9196793938411219e+00 0.0000000000000000e+00  -3.7357201284527495e+00 7.3024860619859426e+00 0.0000000000000000e+00  -2.2466888241620748e+00 6.9154616330743952e+00 0.0000000000000000e+00  -3.3368075508262911e+00 6.3515319387826219e+00 0.0000000000000000e+00  -1.9058135242724201e+00 5.9804206395984805e+00 0.0000000000000000e+00  -2.9731404622823865e+00 5.4977874540500933e+00 0.0000000000000000e+00  -1.6187123864056487e+00 5.0273719716025651e+00 0.0000000000000000e+00  -2.6637567468640757e+00 4.6247055339100651e+00 0.0000000000000000e+00  -1.3661059863150098e+00 4.2123027274880291e+00 0.0000000000000000e+00  -2.4071019970007557e+00 3.8618531764389159e+00 0.0000000000000000e+00  -1.1479547115386501e+00 3.2733990324146780e+00 0.0000000000000000e+00  -2.1858668284253260e+00 2.9730627820954934e+00 0.0000000000000000e+00  -9.5708926038820596e-01 2.7355588432697084e+00 0.0000000000000000e+00  -1.9966677703862235e+00 2.4781458614669840e+00 0.0000000000000000e+00  -7.8089984361758336e-01 1.7851554084077013e+00 0.0000000000000000e+00  -1.8379375083292482e+00 1.5457888848318575e+00 0.0000000000000000e+00  -5.4323537076239414e-01 1.7284117512003268e+00 0.0000000000000000e+00  -1.6877987621299535e+00 1.4028660250647198e+00 0.0000000000000000e+00  -1.8289517182967549e-01 1.2031092822743135e+00 0.0000000000000000e+00  -1.4863310218486576e+00 6.8242564513029569e-01 0.0000000000000000e+00  6.6169528634765507e-01 7.4654301170779579e-03 0.0000000000000000e+00  -1.1404953967556963e+00 -1.2180401421496898e+00 0.0000000000000000e+00  -1.8054336600821297e+00 -5.6909798216934453e+00 0.0000000000000000e+00  -1.3314805018193896e+00 -6.3086414579896726e+00 0.0000000000000000e+00  -2.2358616328556078e+00 -5.8757041747952048e+00 0.0000000000000000e+00  -2.7921848589957254e+00 -6.8044265910169424e+00 0.0000000000000000e+00  -3.4829080723744674e+00 -7.3440069565103654e+00 0.0000000000000000e+00  -4.0988275868553332e+00 -8.1303214075317207e+00 0.0000000000000000e+00  -4.6349837458475163e+00 -8.4939870458225570e+00 0.0000000000000000e+00  -5.3060657421202944e+00 -9.1369209695619240e+00 0.0000000000000000e+00  -5.8325452453384843e+00 -9.4181462817274326e+00 0.0000000000000000e+00  -5.8968500327501170e+00 -9.0347528211581505e+00 0.0000000000000000e+00  -6.9634789305463274e+00 -9.8652192859832386e+00 0.0000000000000000e+00  -3.8389695819561274e+00 -3.9130312403575735e+00 0.0000000000000000e+00  -1.4942430693172659e+01 -1.9162325231278110e+01 0.0000000000000000e+00  -1.4602963447762454e+01 -1.7223788879157464e+01 0.0000000000000000e+00  -1.4656685759261681e+01 -1.5901041538854614e+01 0.0000000000000000e+00  -1.5160304861178284e+01 -1.5220207517126251e+01 0.0000000000000000e+00  -1.6067520374733054e+01 -1.5045143878233478e+01 0.0000000000000000e+00  -1.7279770670911024e+01 -1.5423615168615246e+01 0.0000000000000000e+00  -1.8704056932327738e+01 -1.5927079891817863e+01 0.0000000000000000e+00  -2.0248711329666872e+01 -1.6566083181767752e+01 0.0000000000000000e+00  -2.1824121224500818e+01 -1.7137370532620210e+01 0.0000000000000000e+00  -2.3354183545360033e+01 -1.7576248786863342e+01 0.0000000000000000e+00  -2.4774493665461772e+01 -1.7385604484576689e+01 0.0000000000000000e+00  -2.6030365409096348e+01 -1.7278684953400944e+01 0.0000000000000000e+00  -2.7087459949445869e+01 -1.5771002495085931e+01 0.0000000000000000e+00  -2.7930659748283571e+01 -1.4717738423612017e+01 0.0000000000000000e+00  -2.8557105590509163e+01 -1.1585728320720865e+01 0.0000000000000000e+00  -2.8988120881082128e+01 -9.3900688614723027e+00 0.0000000000000000e+00  -2.9243895560045271e+01 -4.8457693785241380e+00 0.0000000000000000e+00  -2.9371380941673912e+01 -1.1383339949890012e+00 0.0000000000000000e+00  -2.9391565346514785e+01 -1.3511227531073709e-03 0.0000000000000000e+00  -2.9362955310722153e+01 -6.8538980697103211e+00 0.0000000000000000e+00  -2.9391543583869328e+01 1.3313495878687898e-03 0.0000000000000000e+00  -2.9301265042944365e+01 5.1315562835715922e-01 0.0000000000000000e+00  -2.0103086007890177e+01 1.7335843115573169e+01 0.0000000000000000e+00  -2.0809744660447180e+01 1.6721046346115195e+01 0.0000000000000000e+00  -1.7872208448638865e+01 2.1505033680716327e+01 0.0000000000000000e+00  -1.7175228075382474e+01 2.1065117039806687e+01 0.0000000000000000e+00  -1.5572049042849930e+01 2.1723166185371085e+01 0.0000000000000000e+00  -1.4437091931600810e+01 2.0812401685201099e+01 0.0000000000000000e+00  -1.3215999650712883e+01 1.9592550350589359e+01 0.0000000000000000e+00  -1.2172230973122375e+01 1.7990548144741290e+01 0.0000000000000000e+00  -1.0915149345946558e+01 1.6950583105973525e+01 0.0000000000000000e+00  -1.0029120452718718e+01 1.5411438392258525e+01 0.0000000000000000e+00  -9.3143707455488940e+00 1.3775805982255370e+01 0.0000000000000000e+00  -8.5304332996325165e+00 1.2499623397219011e+01 0.0000000000000000e+00  -7.7905761351246348e+00 1.1294564924366352e+01 0.0000000000000000e+00  -7.0986514729673189e+00 1.0172080781792301e+01 0.0000000000000000e+00  -6.4183115382166509e+00 9.2456968794398939e+00 0.0000000000000000e+00  -5.8042004403707264e+00 8.3244359988688537e+00 0.0000000000000000e+00  -5.2640366440908561e+00 7.4110241599401334e+00 0.0000000000000000e+00  -4.7605272423421985e+00 6.6141076094604960e+00 0.0000000000000000e+00  -4.3188030340395747e+00 5.7700917375126659e+00 0.0000000000000000e+00  -3.9480157258007935e+00 4.9691130363006470e+00 0.0000000000000000e+00  -3.6120025310621138e+00 4.1767394648763512e+00 0.0000000000000000e+00  -3.3294795871221399e+00 3.4931780930641882e+00 0.0000000000000000e+00  -3.0993677170682878e+00 2.6562070484586666e+00 0.0000000000000000e+00  -2.9035614318794445e+00 2.2107342101107474e+00 0.0000000000000000e+00  -2.7401443524871225e+00 1.3205531841031775e+00 0.0000000000000000e+00  -2.6048296644342890e+00 1.1956360068697265e+00 0.0000000000000000e+00  -2.4803415180772439e+00 3.8933039152277343e-01 0.0000000000000000e+00  -2.3003855164083475e+00 -1.7173670965701406e+00 0.0000000000000000e+00  -2.5185256587209053e+00 -4.9791895427892818e+00 0.0000000000000000e+00  -2.0902566133564631e+00 -5.6676711919124534e+00 0.0000000000000000e+00  -2.9937192918447102e+00 -5.2291808744778736e+00 0.0000000000000000e+00  -3.4254343055366543e+00 -5.9702769039403307e+00 0.0000000000000000e+00  -3.9812132906057474e+00 -6.3096922210611472e+00 0.0000000000000000e+00  -4.6694099539748226e+00 -7.2099428801196037e+00 0.0000000000000000e+00  -5.2803529536738765e+00 -7.6954324852632032e+00 0.0000000000000000e+00  -5.8084460941635259e+00 -8.1380488304918224e+00 0.0000000000000000e+00  -6.4684479392158369e+00 -8.6384810909417951e+00 0.0000000000000000e+00  -6.9807331891309676e+00 -8.9507005695873971e+00 0.0000000000000000e+00  -7.0276582760291966e+00 -8.2793188943326470e+00 0.0000000000000000e+00  -8.0751139700308450e+00 -8.6138667312349639e+00 0.0000000000000000e+00  -4.9327429789222403e+00 -2.5196776827483967e+00 0.0000000000000000e+00  -1.6021811741599112e+01 -1.7743938563966164e+01 0.0000000000000000e+00  -1.5668314555724939e+01 -1.5834492300747190e+01 0.0000000000000000e+00  -1.5703749691701988e+01 -1.4483060934923667e+01 0.0000000000000000e+00  -1.6182655100262377e+01 -1.3707190953579401e+01 0.0000000000000000e+00  -1.7058418653097654e+01 -1.3633254777561170e+01 0.0000000000000000e+00  -1.8232307114588860e+01 -1.3823626491406896e+01 0.0000000000000000e+00  -1.9610884236699146e+01 -1.4286755074110721e+01 0.0000000000000000e+00  -2.1102954501727577e+01 -1.4816783290139231e+01 0.0000000000000000e+00  -2.2619146843296068e+01 -1.5328809099309515e+01 0.0000000000000000e+00  -2.4082502615676045e+01 -1.5306515363392965e+01 0.0000000000000000e+00  -2.5430049202513018e+01 -1.5452049033369480e+01 0.0000000000000000e+00  -2.6606079870899528e+01 -1.4244648344701321e+01 0.0000000000000000e+00  -2.7578760266895888e+01 -1.3518485489137536e+01 0.0000000000000000e+00  -2.8330744463657517e+01 -1.0709160237229272e+01 0.0000000000000000e+00  -2.8866235538276584e+01 -8.8172669937141972e+00 0.0000000000000000e+00  -2.9198820670803254e+01 -4.5185208097741461e+00 0.0000000000000000e+00  -2.9368823061877176e+01 -1.0310936784781881e+00 0.0000000000000000e+00  -2.9394100429728155e+01 -1.9321122643300866e-03 0.0000000000000000e+00  -2.9344750072812982e+01 -7.0150777453551036e+00 0.0000000000000000e+00  -2.9394081122325375e+01 1.9039565271207874e-03 0.0000000000000000e+00  -2.9151965317379258e+01 3.9076548096289826e-01 0.0000000000000000e+00  -2.9080623316248886e+01 3.5804656773869588e+00 0.0000000000000000e+00  -1.9940135571691073e+01 1.7836204443714145e+01 0.0000000000000000e+00  -2.0719293493707053e+01 1.7149660256990824e+01 0.0000000000000000e+00  -1.7850876227385307e+01 2.0071683361479970e+01 0.0000000000000000e+00  -1.7219860662910268e+01 1.9364720893004950e+01 0.0000000000000000e+00  -1.5677336134825591e+01 1.9154925475856377e+01 0.0000000000000000e+00  -1.4599757821472195e+01 1.7802757677844866e+01 0.0000000000000000e+00  -1.3431704615994335e+01 1.6464786759914031e+01 0.0000000000000000e+00  -1.2438443445467595e+01 1.5103107103244414e+01 0.0000000000000000e+00  -1.1229656246710190e+01 1.4119628936085496e+01 0.0000000000000000e+00  -1.0390396725820493e+01 1.2739914998050548e+01 0.0000000000000000e+00  -9.7214296042703303e+00 1.1359402386809400e+01 0.0000000000000000e+00  -8.9825244299539833e+00 1.0219912901620674e+01 0.0000000000000000e+00  -8.2868415946069458e+00 9.1686593774110268e+00 0.0000000000000000e+00  -7.6382948784691465e+00 8.2589455916128465e+00 0.0000000000000000e+00  -7.0003851188725097e+00 7.4363606113441421e+00 0.0000000000000000e+00  -6.4276853076167244e+00 6.6330148392388839e+00 0.0000000000000000e+00  -5.9278524659163949e+00 5.8903569803001998e+00 0.0000000000000000e+00  -5.4636392325139349e+00 5.1381039527186063e+00 0.0000000000000000e+00  -5.0599705045101091e+00 4.4429248281818525e+00 0.0000000000000000e+00  -4.7263221778303111e+00 3.7015158160875572e+00 0.0000000000000000e+00  -4.4259852025793851e+00 3.0980350603988609e+00 0.0000000000000000e+00  -4.1785393401879718e+00 2.3377413173278874e+00 0.0000000000000000e+00  -3.9814477167977431e+00 1.9448103310735834e+00 0.0000000000000000e+00  -3.8189988834765156e+00 1.0989366250437458e+00 0.0000000000000000e+00  -3.6849068036158088e+00 1.0213443406389924e+00 0.0000000000000000e+00  -3.5832205229423622e+00 2.2049069717271866e-01 0.0000000000000000e+00  -3.4796955497303710e+00 -1.9571940802201906e+00 0.0000000000000000e+00  -3.4382914825554822e+00 -4.3354522698829676e+00 0.0000000000000000e+00  -3.0482120045476102e+00 -5.0845321122014173e+00 0.0000000000000000e+00  -3.8685904965721840e+00 -4.5143421637515759e+00 0.0000000000000000e+00  -4.3471123086396650e+00 -5.3206333948926190e+00 0.0000000000000000e+00  -4.7816676274446097e+00 -5.4750037898938162e+00 0.0000000000000000e+00  -5.3387606353025756e+00 -6.1784701871615999e+00 0.0000000000000000e+00  -6.0255384590218464e+00 -6.7820189417017520e+00 0.0000000000000000e+00  -6.6317044625758141e+00 -7.3517705468239631e+00 0.0000000000000000e+00  -7.1510284587844826e+00 -7.6574449210433073e+00 0.0000000000000000e+00  -7.7977743268266719e+00 -8.1942704029556577e+00 0.0000000000000000e+00  -8.2924586334598107e+00 -8.2237295329035138e+00 0.0000000000000000e+00  -8.3187171169804230e+00 -7.0583471580008217e+00 0.0000000000000000e+00  -9.3454810910757065e+00 -7.2457573153165926e+00 0.0000000000000000e+00  -6.1880709616649092e+00 -1.1178790282904547e+00 0.0000000000000000e+00  -1.7270062772608043e+01 -1.6369637611016774e+01 0.0000000000000000e+00  -1.6910348272457931e+01 -1.4438584824918502e+01 0.0000000000000000e+00  -1.6933413453210630e+01 -1.3003737058940457e+01 0.0000000000000000e+00  -1.7390994609756401e+01 -1.2341928027985974e+01 0.0000000000000000e+00  -1.8234644575024934e+01 -1.2092151169662987e+01 0.0000000000000000e+00  -1.9366046821883184e+01 -1.2256101577237507e+01 0.0000000000000000e+00  -2.0691447485171981e+01 -1.2623267489537577e+01 0.0000000000000000e+00  -2.2119325291279253e+01 -1.3106726292489220e+01 0.0000000000000000e+00  -2.3560315856936917e+01 -1.3170998738191937e+01 0.0000000000000000e+00  -2.4938059121567338e+01 -1.3498966221381005e+01 0.0000000000000000e+00  -2.6187929863333924e+01 -1.2553820651986340e+01 0.0000000000000000e+00  -2.7257697290916170e+01 -1.2143005358757607e+01 0.0000000000000000e+00  -2.8112475095759503e+01 -9.6638944508931495e+00 0.0000000000000000e+00  -2.8743909012348098e+01 -8.1107707295793574e+00 0.0000000000000000e+00  -2.9147464591221759e+01 -4.0973736227655140e+00 0.0000000000000000e+00  -2.9362302137437094e+01 -8.8673056314993681e-01 0.0000000000000000e+00  -2