<?xml version="1.0"?>
<VTKFile type="UnstructuredGrid"  version="0.1"  >
<UnstructuredGrid>
<Piece  NumberOfPoints="1933" NumberOfCells="3640">
<Points>
<DataArray  type="Float64"  NumberOfComponents="3"  format="ascii">0.0003027623340803309 -0.00294423782131654 0  5.000302822619782 -0.002868833678610102 0  5.000189694249799 7.497131305817745 0  0.0001896142700040238 7.497055870759026 0  10.00030292586711 -0.002793532075324867 0  10.00018982456647 7.497206610669341 0  15.00030312675578 -0.002718319850617163 0  15.00019002434031 7.497281818141978 0  20.00030347009667 -0.002643149578444908 0  20.00019030851181 7.497356982241576 0  25.00030398846486 -0.002567956664336075 0  25.00019068785898 7.49743216966719 0  30.0003047035891 -0.002492667159274402 0  30.00019116838947 7.497507454868747 0  35.00030562839538 -0.002417201053545175 0  35.00019175088306 7.497582917790189 0  40.00030676873207 -0.002341473181812221 0  40.00019243054865 7.497658643349493 0  45.00030812453011 -0.002265392769179741 0  45.00019319663551 7.497734722028438 0  50.00030969038075 -0.002188862118148103 0  50.00019403184727 7.497811251221239 0  55.00031145556435 -0.002111774654716779 0  55.00019491143777 7.497888337180018 0  60.00031340354153 -0.002034012386441569 0  60.00019580187124 7.497966097522894 0  65.00031551087665 -0.001955442712705242 0  65.00019665891007 7.498044664364884 0  70.00031774548944 -0.001875914432702169 0  70.00019742495722 7.49812418821331 0  75.00032006404628 -0.001795252696104832 0  75.00019802540947 7.498204842853316 0  80.00032240815861 -0.001713252514524233 0  80.00019836367765 7.498286831548582 0  85.00032469884738 -0.001629670275774086 0  85.00019831440105 7.49837039500616 0  90.00032682836989 -0.001544212447633166 0  90.00019771418825 7.498455821709925 0  95.00032864790884 -0.001456520282307324 0  95.00019634899191 7.498543461408439 0  100.0003299485516 -0.00136614878313424 0  100.0001939369818 7.498633742714325 0  105.0003304311063 -0.001272537410939626 0  105.0001901056011 7.498727195824276 0  110.0003296568456 -0.001174968955235773 0  110.0001843616949 7.498824481006966 0  115.0003269649713 -0.001072511779683965 0  115.0001760548341 7.498926422034816 0  120.0003213308717 -0.0009639398430517199 0  120.0001643378229 7.499034039549055 0  125.0003111174465 -0.0008476264731140257 0  125.0001481384389 7.499148568929376 0  130.0002936310223 -0.0007214179557631437 0  130.000126180335 7.49927142319516 0  135.0002643170916 -0.0005825304858795269 0  135.000097144985 7.49940400952419 0  140.0002152869211 -0.0004276411982853382 0  140.0000601847644 7.499547206662243 0  145.0001325826163 -0.0002537925429259476 0  145.0000162551783 7.499700163312974 0  149.9999909543518 -6.249158760150522e-05 0  149.9999713275847 7.499858164490312 0  159.9999999999984 9.081596601155211e-19 0  164.9999745773342 -9.203025904835387e-05 0  164.99999753048 7.499886174227682 0  159.9999957372056 7.499949849757487 0  169.9999822386565 -0.0001410861808326943 0  169.9999989329805 7.49984832905893 0  175.0000034798944 -0.000160259634303891 0  175.0000037159279 7.499834337414447 0  180.0000293026752 -0.0001577996821738986 0  180.0000116783957 7.49983939511103 0  185.0000555471807 -0.0001394364008907741 0  185.0000217588077 7.499859114415017 0  190.0000803665845 -0.0001092465891408452 0  190.0000329317656 7.49989002840842 0  195.0001030301156 -7.01579863754022e-05 0  195.0000444212675 7.499929509780363 0  200.0001233402905 -2.429352686379712e-05 0  200.0000557021032 7.4999755896636 0  205.0001413463113 2.678865143116894e-05 0  205.0000664463717 7.500026790762278 0  210.0001572030788 8.192895200584906e-05 0  210.0000764666142 7.500081996630143 0  215.0001711024694 0.0001402516608724588 0  215.0000856698717 7.500140354960009 0  220.0001832406064 0.000201085699590828 0  220.0000940242866 7.500201207591057 0  225.0001938030718 0.0002639094229741118 0  225.0001015360878 7.500264040144768 0  230.0002029590192 0.0003283117122246886 0  230.0001082342442 7.500328445679552 0  235.0002108596587 0.0003939641667446778 0  235.000114160486 7.500394098257628 0  240.0002176388327 0.0004606009307317773 0  240.0001193629618 7.50046073352214 0  245.0002234145554 0.0005280038438128254 0  245.0001238923356 7.500528134266474 0  250.0002282909551 0.000595991367568919 0  250.0001277995005 7.500596119600747 0  255.0002323603659 0.0006644102466187723 0  255.0001311343713 7.50066453675552 0  260.0002357054583 0.0007331292059551237 0  260.0001339453859 7.500733254867161 0  265.0002384013955 0.0008020342271577014 0  265.000136279481 7.500802160308415 0  270.0002405180137 0.0008710251274868493 0  270.0001381823748 7.500871153294477 0  275.0002421220739 0.0009400133191055701 0  275.000139699024 7.500940145632859 0  280.0002432795968 0.001008920777813221 0  280.0001408741544 7.501009059614473 0  285.0002440582658 0.00107768042907238 0  285.0001417527519 7.50107782817908 0  290.0002445297386 0.001146238396204712 0  290.000142380386 7.501146396640982 0  295.0002447714808 0.001214558887405033 0  295.0001428032861 7.501214726432631 0  300.0002448671148 0.001282632941633048 0  300.0001430681488 7.501282801498165 0  305.0002449031214 0.001350492675820197 0  305.0001432221059 7.501350638115575 0  310.0002449570891 0.001418232146091572 0  310.0001433143677 7.501418299195858 0  5.000076333928035 14.99713159456087 0  7.625583699544247e-05 14.99705613163539 0  10.00007643668951 14.99720687596582 0  15.00007657422711 14.99728204623536 0  20.00007674875219 14.99735717338219 0  25.00007695829306 14.99743232822803 0  30.00007719749728 14.99750758540839 0  35.00007745732966 14.99758302360064 0  40.0000777243761 14.99765872597789 0  45.00007797997699 14.99773478111611 0  50.00007819921728 14.99781128436792 0  55.00007834972661 14.99788833968693 0  60.00007839021423 14.99796606191381 0  65.00007826865556 14.99804457957378 0  70.00007792003899 14.99812403827562 0  75.0000772635896 14.99820460483873 0  80.00007619939839 14.99828647230284 0  85.00007460444185 14.99836986598115 0  90.00007232809509 14.99845505067653 0  95.00006918750795 14.9985423390271 0  100.0000649637114 14.99863210056561 0  105.0000594003087 14.998724770221 0  110.0000522083283 14.99882085320964 0  115.0000430838458 14.99892091970932 0  120.0000317498922 14.99902557587928 0  125.0000180415589 14.99913538515141 0  130.0000020626898 14.99925069138941 0  134.9999844503572 14.99937125853799 0  139.9999667757037 14.99949558565759 0  144.9999520461826 14.99961967968159 0  149.9999450409604 14.9997349269769 0  164.9999803126872 14.9998255268046 0  159.9999745153594 14.99984218479928 0  169.9999806024978 14.9998154257054 0  174.9999795620764 14.9998167727223 0  179.9999792193123 14.99983018027057 0  184.9999802210184 14.9998544333226 0  189.9999825501634 14.99988780822643 0  194.9999859343989 14.99992862163767 0  199.9999900449229 14.99997541565476 0  204.9999945811232 15.00002699086372 0  209.9999992987894 15.00008238301597 0  215.0000040128353 15.0001408238829 0  220.0000085900119 15.00020170219799 0  225.0000129388823 15.00026453000361 0  230.0000170001631 15.00032891539955 0  235.0000207385648 15.00039454110586 0  240.0000241363216 15.00046114781638 0  245.0000271882676 15.00052852133177 0  250.0000298981893 15.00059648262027 0  255.0000322761731 15.00066488013791 0  260.0000343367159 15.00073358390996 0  265.0000360973842 15.00080248101425 0  270.0000375778791 15.00087147222493 0  275.0000387993722 15.00094046966896 0  280.0000397840249 15.00100939542758 0  285.000040554663 15.00107818107469 0  290.0000411345993 15.00114676817394 0  295.0000415478059 15.0012151097181 0  300.0000418197843 15.00128317232161 0  305.0000419799696 15.00135093851685 0  310.0000420671379 15.00141840746868 0  4.999962902061393 22.49713209922216 0  -3.716987398388882e-05 22.49705669334572 0  9.99996297436801 22.49720730053952 0  14.99996304710394 22.49728238555707 0  19.99996311559121 22.49735743160084 0  24.99996317167178 22.49743251230204 0  29.99996320432969 22.49750770142361 0  34.99996319962649 22.49758307492367 0  39.99996314021695 22.49765871233886 0  44.99996300464299 22.49773469803098 0  49.99996276650973 22.4978111225414 0  54.99996239358295 22.49788808415839 0  59.99996184682649 22.49796569074483 0  64.99996107939795 22.49804406185181 0  69.99996003564918 22.49812333112698 0  74.99995865023237 22.4982036490011 0  79.99995684750556 22.49828518557858 0  84.99995454158079 22.49836813354594 0  89.99995163760254 22.49845271069646 0  94.99994803521774 22.49853916127906 0  99.99994363575989 22.49862775468552 0  104.9999383554773 22.49871877879936 0  109.9999321482069 22.49881252333088 0  114.9999250421318 22.49890924524237 0  119.9999171962527 22.49900910344155 0  124.999908981873 22.49911204302635 0  129.999901090255 22.49921760132769 0  134.9998946548447 22.49932460304067 0  139.9998913467678 22.49943072319628 0  144.9998933448367 22.49953196138627 0  149.9999029927395 22.49962229187249 0  164.9999341576584 22.49975590277287 0  159.9999285968577 22.49974025137237 0  169.9999347291805 22.49977050981621 0  174.9999324899118 22.49978891097535 0  179.9999292346855 22.49981342709419 0  184.9999260881001 22.49984468856461 0  189.9999236121166 22.49988240163039 0  194.9999220005257 22.49992586386134 0  199.9999212403189 22.49997425389761 0  204.9999212192472 22.50002677422073 0  209.9999217894789 22.50008271096648 0  214.9999228017527 22.50014145104997 0  219.999924121597 22.50020247926973 0  224.9999256354148 22.50026536729065 0  229.9999272512507 22.50032976037993 0  234.999928897045 22.50039536456794 0  239.9999305179111 22.500461935288 0  244.9999320732394 22.50052926776944 0  249.9999335339976 22.50059718911702 0  254.9999348803822 22.50066555188164 0  259.9999360998337 22.50073422890316 0  264.9999371854078 22.50080310922409 0  269.9999381344413 22.50087209490582 0  274.9999389474834 22.50094109861083 0  279.9999396274711 22.50101004183227 0  284.999940179172 22.50107885364224 0  289.9999406089813 22.50114746977187 0  294.9999409252724 22.50121583168742 0  299.
[...]
<PointData  Vectors="v"> 
<DataArray  type="Float64"  Name="v"  NumberOfComponents="3" format="ascii">-1.5831935870353080e+00 5.7323694850313514e+00 0.0000000000000000e+00  -1.1487027265552860e+00 5.5758123768078809e+00 0.0000000000000000e+00  -8.4793722842391739e-01 4.9242505268189873e+00 0.0000000000000000e+00  -1.1798755541093726e+00 5.2350991296659588e+00 0.0000000000000000e+00  -5.6846718889507708e-01 6.2527696119232221e+00 0.0000000000000000e+00  -4.1367486793662056e-01 5.3832735451006029e+00 0.0000000000000000e+00  4.5467273465380131e-03 7.3361558479677438e+00 0.0000000000000000e+00  1.6560210022501881e-01 6.4778884516359341e+00 0.0000000000000000e+00  5.6218665821984282e-01 7.9695293511050833e+00 0.0000000000000000e+00  7.3706347033173081e-01 7.1351306302664570e+00 0.0000000000000000e+00  1.2344849846136090e+00 9.0296166374708289e+00 0.0000000000000000e+00  1.2924548846565711e+00 8.0239723472854152e+00 0.0000000000000000e+00  1.8124793962526875e+00 9.7161375445675198e+00 0.0000000000000000e+00  1.9614306975614071e+00 8.8525387325986369e+00 0.0000000000000000e+00  1.9676356327503279e+00 9.8137779172152939e+00 0.0000000000000000e+00  2.5352653176186086e+00 9.5854852602979914e+00 0.0000000000000000e+00  2.9464448554373517e+00 1.1025026858541212e+01 0.0000000000000000e+00  2.6853750231755598e+00 9.5621011588634133e+00 0.0000000000000000e+00  -1.4312802724563761e-01 6.1481980794016913e+00 0.0000000000000000e+00  3.6578340362275612e+00 1.0788747637011403e+01 0.0000000000000000e+00  9.4307522089468154e+00 2.0008893990872348e+01 0.0000000000000000e+00  5.6090217456787861e-01 5.6547729224483545e+00 0.0000000000000000e+00  8.3840025075929390e+00 1.7489317644874408e+01 0.0000000000000000e+00  1.0127194044163581e+01 1.9067399427252163e+01 0.0000000000000000e+00  8.2543252703100745e+00 1.6260845867344358e+01 0.0000000000000000e+00  9.0711401593727530e+00 1.6465329375159008e+01 0.0000000000000000e+00  8.7902524521648555e+00 1.6038756738516728e+01 0.0000000000000000e+00  8.9298121922200782e+00 1.5246857928482747e+01 0.0000000000000000e+00  9.8591758298501642e+00 1.6627456574483158e+01 0.0000000000000000e+00  9.4519710510843069e+00 1.5038387121278150e+01 0.0000000000000000e+00  1.1285519192045694e+01 1.7690477467392462e+01 0.0000000000000000e+00  1.0503971367127139e+01 1.5566779787452317e+01 0.0000000000000000e+00  1.2976819968782902e+01 1.9011732060241876e+01 0.0000000000000000e+00  1.1911144940509747e+01 1.6493336619153254e+01 0.0000000000000000e+00  1.4849528839214436e+01 2.0604655761043144e+01 0.0000000000000000e+00  1.3580993203673550e+01 1.7816429010444757e+01 0.0000000000000000e+00  1.6820042120668344e+01 2.2091663046360363e+01 0.0000000000000000e+00  1.5428633979607113e+01 1.9158457757215871e+01 0.0000000000000000e+00  1.8818896165176479e+01 2.3489520555181876e+01 0.0000000000000000e+00  1.7371906359163329e+01 2.0517151911799107e+01 0.0000000000000000e+00  2.0781871405523539e+01 2.4646686853409573e+01 0.0000000000000000e+00  1.9340346463803300e+01 2.1730166109187863e+01 0.0000000000000000e+00  2.2633376331801685e+01 2.5477756751749418e+01 0.0000000000000000e+00  2.1269781452557151e+01 2.2731391058977838e+01 0.0000000000000000e+00  2.4312846949679336e+01 2.5590797191542258e+01 0.0000000000000000e+00  2.3083748676947760e+01 2.3104517359859031e+01 0.0000000000000000e+00  2.5779416945265087e+01 2.5525820265307669e+01 0.0000000000000000e+00  2.4724632279581087e+01 2.3363746491333259e+01 0.0000000000000000e+00  2.6984412891014163e+01 2.4075118919846592e+01 0.0000000000000000e+00  2.6145145235583367e+01 2.2304112963415662e+01 0.0000000000000000e+00  2.7930067551388248e+01 2.2625244225891400e+01 0.0000000000000000e+00  2.7306789020072916e+01 2.1252757534279912e+01 0.0000000000000000e+00  2.8598767394117839e+01 1.9187502334795429e+01 0.0000000000000000e+00  2.8196784807467697e+01 1.8223243839957753e+01 0.0000000000000000e+00  2.9041088859243313e+01 1.5798994429578249e+01 0.0000000000000000e+00  2.8819106176429678e+01 1.5191704690689829e+01 0.0000000000000000e+00  2.9266154438358235e+01 1.0281035766857826e+01 0.0000000000000000e+00  2.9194244461459469e+01 9.9819706865017039e+00 0.0000000000000000e+00  2.9368170018600903e+01 3.7320090907739738e+00 0.0000000000000000e+00  2.9372091483342718e+01 3.6479788847408536e+00 0.0000000000000000e+00  2.9389264412545675e+01 1.2410873128014737e-05 0.0000000000000000e+00  2.9389462127423023e+01 2.2004748872188245e-04 0.0000000000000000e+00  2.9389262614595591e+01 -1.0161291779090445e-19 0.0000000000000000e+00  2.1020243910383186e+01 -1.1530693869653295e+01 0.0000000000000000e+00  2.9366938308323981e+01 9.8509240796435782e-01 0.0000000000000000e+00  2.9389455238229495e+01 -1.8667988132028721e-04 0.0000000000000000e+00  2.0626734498044609e+01 -2.0689140665860098e+01 0.0000000000000000e+00  2.1049309629866812e+01 -2.0166333361910461e+01 0.0000000000000000e+00  1.7603350751870313e+01 -2.7674456703035418e+01 0.0000000000000000e+00  2.0715282107760981e+01 -2.3180771889740676e+01 0.0000000000000000e+00  1.6453435984182285e+01 -2.9092150793869411e+01 0.0000000000000000e+00  1.7749325262876596e+01 -2.7418444233596865e+01 0.0000000000000000e+00  1.4659487623531421e+01 -3.0532489357531428e+01 0.0000000000000000e+00  1.6652940204359087e+01 -2.7886449013681606e+01 0.0000000000000000e+00  1.3286809793419529e+01 -2.9724356347020120e+01 0.0000000000000000e+00  1.4910094096013328e+01 -2.7711082914333989e+01 0.0000000000000000e+00  1.1900679989082228e+01 -2.8671030496962217e+01 0.0000000000000000e+00  1.3587991888628908e+01 -2.6633842053682006e+01 0.0000000000000000e+00  1.0684863319203881e+01 -2.6778654198929296e+01 0.0000000000000000e+00  1.2249510840688547e+01 -2.4997603743357242e+01 0.0000000000000000e+00  9.3154595849885453e+00 -2.4936631836943775e+01 0.0000000000000000e+00  1.1079939371074049e+01 -2.2922874196387625e+01 0.0000000000000000e+00  8.2865083104195527e+00 -2.2725696531195386e+01 0.0000000000000000e+00  9.7557726077962936e+00 -2.1221790976989002e+01 0.0000000000000000e+00  7.4120538082008309e+00 -2.0643957299008907e+01 0.0000000000000000e+00  8.7704556639684554e+00 -1.9370968743132348e+01 0.0000000000000000e+00  6.4821775170425520e+00 -1.8847732504475093e+01 0.0000000000000000e+00  7.9384706026821128e+00 -1.7490664258043914e+01 0.0000000000000000e+00  5.6159241330482699e+00 -1.7205365749911568e+01 0.0000000000000000e+00  7.0503166487203943e+00 -1.5942691852475960e+01 0.0000000000000000e+00  4.8155367808406435e+00 -1.5761020044229610e+01 0.0000000000000000e+00  6.2246031002576272e+00 -1.4596621970185046e+01 0.0000000000000000e+00  4.0572041313227389e+00 -1.4439302286521935e+01 0.0000000000000000e+00  5.4638432737599265e+00 -1.3337137871371509e+01 0.0000000000000000e+00  3.3806741915893399e+00 -1.3176386963873279e+01 0.0000000000000000e+00  4.7444478069829117e+00 -1.2196215435956089e+01 0.0000000000000000e+00  2.7876340682492393e+00 -1.2004816729389434e+01 0.0000000000000000e+00  4.1059987666514397e+00 -1.1149364200243737e+01 0.0000000000000000e+00  2.2453450952896081e+00 -1.0874330786337369e+01 0.0000000000000000e+00  3.5502887995766303e+00 -1.0094442886472462e+01 0.0000000000000000e+00  1.7714739085047124e+00 -9.7697951682130721e+00 0.0000000000000000e+00  3.0448372215542738e+00 -9.0919296507242358e+00 0.0000000000000000e+00  1.3685442544974940e+00 -8.7115176888211838e+00 0.0000000000000000e+00  2.6070743519017787e+00 -8.1397763174287849e+00 0.0000000000000000e+00  1.0100531019789978e+00 -7.6560683142146848e+00 0.0000000000000000e+00  2.2398724225312447e+00 -7.1503837117547331e+00 0.0000000000000000e+00  7.0700322330184706e-01 -6.6329897973190830e+00 0.0000000000000000e+00  1.9164231681624935e+00 -6.2103518671430713e+00 0.0000000000000000e+00  4.6332100060070508e-01 -5.6250078192767665e+00 0.0000000000000000e+00  1.6484080841428990e+00 -5.2906388281801240e+00 0.0000000000000000e+00  2.6087391414977873e-01 -4.6557023121672465e+00 0.0000000000000000e+00  1.4385733142514299e+00 -4.3837018733749691e+00 0.0000000000000000e+00  1.0831983582366564e-01 -3.6862839541232590e+00 0.0000000000000000e+00  1.2710182319951768e+00 -3.4873799583430598e+00 0.0000000000000000e+00  -1.5072869805846034e-03 -2.8488282668623581e+00 0.0000000000000000e+00  1.1506779379483023e+00 -2.7162610526040196e+00 0.0000000000000000e+00  -7.0766037631505213e-02 -1.9647157119330374e+00 0.0000000000000000e+00  1.0766364779832600e+00 -1.8886032170086897e+00 0.0000000000000000e+00  -1.3770508267061610e-01 -1.3317585854765179e+00 0.0000000000000000e+00  1.0364242193131163e+00 -1.2658701737837315e+00 0.0000000000000000e+00  -2.0986731229527464e-01 -7.1137293169609539e-01 0.0000000000000000e+00  1.0098797706935276e+00 -6.2524989489547611e-01 0.0000000000000000e+00  -3.7200165755067993e-01 1.7147539501733827e-01 0.0000000000000000e+00  9.5387063197329813e-01 3.6842214192488454e-01 0.0000000000000000e+00  -1.2885953627671989e-01 4.4255042672257092e+00 0.0000000000000000e+00  -4.8835733579331253e-01 4.6978635475371320e+00 0.0000000000000000e+00  2.0431345465151476e-01 4.7311042520798052e+00 0.0000000000000000e+00  6.3963120763636461e-01 5.6087507855779215e+00 0.0000000000000000e+00  1.2191794931422508e+00 6.2782732914819102e+00 0.0000000000000000e+00  1.7898445282282240e+00 7.1916482766429022e+00 0.0000000000000000e+00  2.3433805538608299e+00 7.8509142513537329e+00 0.0000000000000000e+00  3.0089496122871453e+00 8.7277038949391983e+00 0.0000000000000000e+00  3.5774544205229701e+00 9.3405222973043625e+00 0.0000000000000000e+00  3.7206309124382964e+00 9.3353024595922776e+00 0.0000000000000000e+00  4.6836698875853635e+00 1.0307228191281858e+01 0.0000000000000000e+00  1.5762331042665740e+00 4.7215161790054729e+00 0.0000000000000000e+00  1.1136362805917656e+01 1.8053029606055386e+01 0.0000000000000000e+00  1.0073175913336213e+01 1.5466319309897511e+01 0.0000000000000000e+00  9.9189873537568616e+00 1.4263866269179635e+01 0.0000000000000000e+00  1.0424427527510497e+01 1.4001813344711602e+01 0.0000000000000000e+00  1.1453985222013197e+01 1.4398190145942435e+01 0.0000000000000000e+00  1.2833888730949290e+01 1.5329058989232404e+01 0.0000000000000000e+00  1.4472360312381598e+01 1.6408458974853833e+01 0.0000000000000000e+00  1.6283006447296874e+01 1.7626927243752565e+01 0.0000000000000000e+00  1.8183734079152202e+01 1.8803656906818208e+01 0.0000000000000000e+00  2.0105195544373952e+01 1.9869164425087988e+01 0.0000000000000000e+00  2.1980353745852437e+01 2.0417715401925239e+01 0.0000000000000000e+00  2.3734283009854934e+01 2.0941388117558795e+01 0.0000000000000000e+00  2.5308016595686308e+01 2.0214520510380389e+01 0.0000000000000000e+00  2.6655327649706216e+01 1.9561153850616812e+01 0.0000000000000000e+00  2.7733162458921932e+01 1.6932543298066360e+01 0.0000000000000000e+00  2.8538719608914594e+01 1.4326259369121180e+01 0.0000000000000000e+00  2.9056799545701324e+01 9.4593907592057072e+00 0.0000000000000000e+00  2.9341388681044595e+01 3.4760061297132103e+00 0.0000000000000000e+00  2.9389936828796099e+01 4.1939237498392893e-04 0.0000000000000000e+00  2.9328732273398625e+01 1.1447893015636421e+00 0.0000000000000000e+00  2.9389927434150465e+01 -3.6698218373034460e-04 0.0000000000000000e+00  2.9172610247160428e+01 -7.7092412277373406e+00 0.0000000000000000e+00  2.0919741980134841e+01 -2.2731908024524447e+01 0.0000000000000000e+00  2.0666556434354433e+01 -2.3011490304545120e+01 0.0000000000000000e+00  1.7768890004779148e+01 -2.6282950768717946e+01 0.0000000000000000e+00  1.6738340092288063e+01 -2.5129391614866545e+01 0.0000000000000000e+00  1.5051877955658986e+01 -2.4686249229019857e+01 0.0000000000000000e+00  1.3785424495018530e+01 -2.3019867627068788e+01 0.0000000000000000e+00  1.2496858010636283e+01 -2.1197006297226153e+01 0.0000000000000000e+00  1.1374416935598743e+01 -1.9263217615594851e+01 0.0000000000000000e+00  1.0095211939388431e+01 -1.7919099183319574e+01 0.0000000000000000e+00  9.1528248282517684e+00 -1.6267245104492051e+01 0.0000000000000000e+00  8.3617622754059671e+00 -1.4634941229523502e+01 0.0000000000000000e+00  7.5135676013594734e+00 -1.3381339927250449e+01 0.0000000000000000e+00  6.7262693423448523e+00 -1.2218281736478303e+01 0.0000000000000000e+00  6.0024739439305801e+00 -1.1139042059333701e+01 0.0000000000000000e+00  5.3190283827231424e+00 -1.0212754151839222e+01 0.0000000000000000e+00  4.7153153501169145e+00 -9.2811629278047505e+00 0.0000000000000000e+00  4.1931867359757264e+00 -8.3536363150219284e+00 0.0000000000000000e+00  3.7204592472471139e+00 -7.5024646910628450e+00 0.0000000000000000e+00  3.3145394390745420e+00 -6.6182128797371300e+00 0.0000000000000000e+00  2.9782614369140807e+00 -5.7437243136124483e+00 0.0000000000000000e+00  2.6852083519519319e+00 -4.9063309482702433e+00 0.0000000000000000e+00  2.4467079015975237e+00 -4.0868939520325878e+00 0.0000000000000000e+00  2.2660806345764657e+00 -3.2526086620349206e+00 0.0000000000000000e+00  2.1266086048783404e+00 -2.5539025055075881e+00 0.0000000000000000e+00  2.0348291565266341e+00 -1.7918159946068961e+00 0.0000000000000000e+00  1.9868248177761214e+00 -1.2255839255259602e+00 0.0000000000000000e+00  1.9752056495171284e+00 -5.9559309636957336e-01 0.0000000000000000e+00  1.9726508271488257e+00 4.3069753699247543e-01 0.0000000000000000e+00  1.1207910350868713e+00 3.8843725437073164e+00 0.0000000000000000e+00  7.9934204588508750e-01 4.2187433506495253e+00 0.0000000000000000e+00  1.4833331992306924e+00 4.2284636786659044e+00 0.0000000000000000e+00  1.8211533396238131e+00 4.9535267562565188e+00 0.0000000000000000e+00  2.2600310043544440e+00 5.4073002515942976e+00 0.0000000000000000e+00  2.8423609095481277e+00 6.3350743033335926e+00 0.0000000000000000e+00  3.4143523041384007e+00 7.0218469691352468e+00 0.0000000000000000e+00  3.9666137849509897e+00 7.7321947613735649e+00 0.0000000000000000e+00  4.6283840961128107e+00 8.4930557673029696e+00 0.0000000000000000e+00  5.1897764542420743e+00 9.1289321925149665e+00 0.0000000000000000e+00  5.3213377610529164e+00 8.8737651303672624e+00 0.0000000000000000e+00  6.2692540565918611e+00 9.3943213792805622e+00 0.0000000000000000e+00  3.1505213767886917e+00 3.7164750431447304e+00 0.0000000000000000e+00  1.2709682184741354e+01 1.7063228824851375e+01 0.0000000000000000e+00  1.1644470255893708e+01 1.4505878249462903e+01 0.0000000000000000e+00  1.1477723487797512e+01 1.3260738743622184e+01 0.0000000000000000e+00  1.1960631958917444e+01 1.2877478628249921e+01 0.0000000000000000e+00  1.2958532729369180e+01 1.3289635627034775e+01 0.0000000000000000e+00  1.4298113123969371e+01 1.3987714252420417e+01 0.0000000000000000e+00  1.5886531700717217e+01 1.4954073897470879e+01 0.0000000000000000e+00  1.7638234101559249e+01 1.6002925029573419e+01 0.0000000000000000e+00  1.9470665091717990e+01 1.7045687933793520e+01 0.0000000000000000e+00  2.1311610484667149e+01 1.7669933657301709e+01 0.0000000000000000e+00  2.3095979175815671e+01 1.8387792345547716e+01 0.0000000000000000e+00  2.4744296027169785e+01 1.7936331052873324e+01 0.0000000000000000e+00  2.6201181573327769e+01 1.7639848693941349e+01 0.0000000000000000e+00  2.7411869075348953e+01 1.5414188535809982e+01 0.0000000000000000e+00  2.8346111109639921e+01 1.3249776846652008e+01 0.0000000000000000e+00  2.8977499446202984e+01 8.7829399054273800e+00 0.0000000000000000e+00  2.9334384745634804e+01 3.2340805296653783e+00 0.0000000000000000e+00  2.9390679416604360e+01 6.0082127445542971e-04 0.0000000000000000e+00  2.9304669660753895e+01 1.4576773246377188e+00 0.0000000000000000e+00  2.9390670950666696e+01 -5.2567413638096344e-04 0.0000000000000000e+00  2.8937327039543717e+01 -7.4172823483501222e+00 0.0000000000000000e+00  2.8768868289684015e+01 -1.0433215033203595e+01 0.0000000000000000e+00  2.0628089306802899e+01 -2.2732926997021806e+01 0.0000000000000000e+00  2.0505380401146351e+01 -2.2017162456517688e+01 0.0000000000000000e+00  1.7717270394924647e+01 -2.3663385401805247e+01 0.0000000000000000e+00  1.6785158090730505e+01 -2.2221669592570965e+01 0.0000000000000000e+00  1.5184463277801173e+01 -2.1182968370393816e+01 0.0000000000000000e+00  1.3997152173102059e+01 -1.9320201797181330e+01 0.0000000000000000e+00  1.2779094261141084e+01 -1.7631929725342232e+01 0.0000000000000000e+00  1.1722754741765566e+01 -1.6049062767204919e+01 0.0000000000000000e+00  1.0505181322586456e+01 -1.4900578191030753e+01 0.0000000000000000e+00  9.6213041668619717e+00 -1.3492935420902539e+01 0.0000000000000000e+00  8.8865410543387231e+00 -1.2152196487645412e+01 0.0000000000000000e+00  8.0926080594338003e+00 -1.1078973696507132e+01 0.0000000000000000e+00  7.3573198732598355e+00 -1.0093328987974486e+01 0.0000000000000000e+00  6.6836416041116218e+00 -9.2260643154352557e+00 0.0000000000000000e+00  6.0483136717942525e+00 -8.4128011143822921e+00 0.0000000000000000e+00  5.4908090990902121e+00 -7.6061933073259329e+00 0.0000000000000000e+00  5.0131695647927277e+00 -6.8280194473866134e+00 0.0000000000000000e+00  4.5834040344178231e+00 -6.0427915387190625e+00 0.0000000000000000e+00  4.2188313534853172e+00 -5.2719758112416137e+00 0.0000000000000000e+00  3.9228336169002720e+00 -4.4980998805499981e+00 0.0000000000000000e+00  3.6684912344927088e+00 -3.7604099666136861e+00 0.0000000000000000e+00  3.4681667968908756e+00 -3.0108880163886207e+00 0.0000000000000000e+00  3.3236507354595366e+00 -2.3752925064991008e+00 0.0000000000000000e+00  3.2209054318477595e+00 -1.6801408358435388e+00 0.0000000000000000e+00  3.1615876049991143e+00 -1.1854682645737589e+00 0.0000000000000000e+00  3.1510135325222506e+00 -5.9811771452452811e-01 0.0000000000000000e+00  3.1627561767647410e+00 4.0085593332659392e-01 0.0000000000000000e+00  2.4340365312238172e+00 3.3994379392345588e+00 0.0000000000000000e+00  2.1486538016831940e+00 3.7948529349529725e+00 0.0000000000000000e+00  2.7599089250479647e+00 3.6798217684563648e+00 0.0000000000000000e+00  3.1303581673808631e+00 4.4407527712182322e+00 0.0000000000000000e+00  3.4769888301169116e+00 4.7429581477350187e+00 0.0000000000000000e+00  3.9248006959059651e+00 5.4562747070096007e+00 0.0000000000000000e+00  4.5148251116846581e+00 6.1595531896588778e+00 0.0000000000000000e+00  5.0926697067237416e+00 6.9016646618365138e+00 0.0000000000000000e+00  5.6478306585413405e+00 7.5010040688429074e+00 0.0000000000000000e+00  6.3081635686446100e+00 8.2907315443209626e+00 0.0000000000000000e+00  6.8627593538328071e+00 8.6849614589863009e+00 0.0000000000000000e+00  6.9825037884007104e+00 7.9827123492988248e+00 0.0000000000000000e+00  7.9176711760703995e+00 8.3991071475021730e+00 0.0000000000000000e+00  4.7986578436116938e+00 2.7145105290431268e+00 0.0000000000000000e+00  1.4375882769005264e+01 1.6091987568038569e+01 0.0000000000000000e+00  1.3325767151268840e+01 1.3510474760315709e+01 0.0000000000000000e+00  1.3158948278079041e+01 1.2162021520920280e+01 0.0000000000000000e+00  1.3628728637916705e+01 1.1811705983536973e+01 0.0000000000000000e+00  1.4599372987431900e+01 1.2004819604649482e+01 0.0000000000000000e+00  1.5900375182163961e+01 1.2607437107158237e+01 0.0000000000000000e+00  1.7438031115071244e+01 1.3419643706055931e+01 0.0000000000000000e+00  1.9125923963731566e+01 1.4351018877673956e+01 0.0000000000000000e+00  2.0880573563495748e+01 1.4972464168188880e+01 0.0000000000000000e+00  2.2629380396782850e+01 1.5789707281788177e+01 0.0000000000000000e+00  2.4301258609411281e+01 1.5550619340404403e+01 0.0000000000000000e+00  2.5821369379223615e+01 1.5564876687294550e+01 0.0000000000000000e+00  2.7122267399424214e+01 1.3710040673757279e+01 0.0000000000000000e+00  2.8164087752768754e+01 1.2002095082543955e+01 0.0000000000000000e+00  2.8887604813155196e+01 7.9595212809966176e+00 0.0000000000000000e+00  2.9316850017732552e+01 2.9250333453416557e+00 0.0000000000000000e+00  2.9391662342820858e+01 7.6339268990024826e-04 0.0000000000000000e+00  2.9281464152752942e+01 1.8811986268615550e+00 0.0000000000000000e+00  2.9391654545508391e+01 -6.6699944806442935e-04 0.0000000000000000e+00  2.8785565566338061e+01 -6.6939844601354324e+00 0.0000000000000000e+00  2.8260990693090388e+01 -1