<?xml version="1.0"?>
<VTKFile type="UnstructuredGrid"  version="0.1"  >
<UnstructuredGrid>
<Piece  NumberOfPoints="1933" NumberOfCells="3640">
<Points>
<DataArray  type="Float64"  NumberOfComponents="3"  format="ascii">-0.2940047061527423 0.0007566915331779119 0  4.705995300829716 0.0007252576997907661 0  4.706042479221322 7.500725292007336 0  -0.2939575428469042 7.500756698926693 0  9.705995304516044 0.0006937858919244223 0  9.706042523384603 7.500693831220659 0  14.7059953251293 0.0006622441539359209 0  14.70604260308348 7.500662293833901 0  19.70599538810794 0.0006306200747897128 0  19.70604273228505 7.500630671339414 0  24.70599551926654 0.0005989136140553252 0  24.70604292567738 7.500598965507068 0  29.70599574324104 0.0005671328011655418 0  29.70604319838397 7.500567185243113 0  34.70599608335024 0.0005352911387857643 0  34.70604356575924 7.500535344487998 0  39.70599656205277 0.0005034061156732211 0  39.70604404335291 7.50050346096217 0  44.70599720163514 0.0004714984763588246 0  44.70604464701424 7.500471555551585 0  49.70599802497654 0.0004395920333120162 0  49.70604539308444 7.500439652179844 0  54.70599905633289 0.0004077138980955591 0  54.70604629863358 7.500407778072105 0  59.70600032212855 0.0003758950721823559 0  59.7060473817066 7.500375964365411 0  64.70600185176441 0.0003441713874685684 0  64.70604866154733 7.500344247062469 0  69.70600367845766 0.0003125848296472366 0  69.7060501587692 7.500312668365055 0  74.70600584013195 0.000281185321839775 0  74.70605189543242 7.500281278464525 0  79.70600838037102 0.0002500330988343299 0  79.70605389496961 7.5002501379161 0  84.70601134943695 0.0002192018734609885 0  84.706056181873 7.500219320788381 0  89.70601480532866 0.0001887830995935838 0  89.70605878100824 7.500188918868647 0  94.70601881480442 0.0001588917921603369 0  94.70606171635241 7.50015904733159 0  99.70602345417782 0.0001296746074185253 0  99.70606500885128 7.50012985246013 0  104.7060288094759 0.0001013212724288757 0  104.7060686729582 7.500101522262005 0  109.7060349750891 7.408107317673695e-05 0  109.7060727112586 7.500074301168775 0  114.7060420491171 4.828711639433362e-05 0  114.706077106475 7.500048510426241 0  119.7060501217283 2.439271158326871e-05 0  119.7060818102672 7.500024576190336 0  124.7060592490228 3.026843119101439e-06 0  124.7060867291431 7.500003067409873 0  129.7060693970792 -1.492020583517873e-05 0  129.7060917108188 7.499984744435864 0  134.7060803248399 -2.816424990585512e-05 0  134.7060965428377 7.499970614924846 0  139.7060913410687 -3.482599089490911e-05 0  139.7061009973724 7.49996198240532 0  144.7061007977921 -3.215676498059196e-05 0  144.7061050132152 7.499960454570273 0  149.7061050059782 -1.63581534268263e-05 0  149.7061092606872 7.499967902472902 0  159.7061073738537 8.563061295307943e-19 0  164.7060513923225 -7.16886424083156e-05 0  164.7060972210607 7.499918169445958 0  159.706114185361 7.499975089680053 0  169.7060185592914 -0.0001356210134845348 0  169.7060798231125 7.499859302361052 0  174.705998530584 -0.0001940479880822007 0  174.7060651156727 7.499803122417819 0  179.7059859838482 -0.0002480249365762869 0  179.7060534939921 7.499750306657974 0  184.7059779916272 -0.0002983887755732277 0  184.7060445943631 7.49970059025844 0  189.7059728728185 -0.0003458402652049511 0  189.7060378985014 7.499653515469609 0  194.7059696261822 -0.000390945439615569 0  194.7060329230801 7.499608636630493 0  199.7059676336816 -0.0004341498077552251 0  199.7060292689476 7.499565572440877 0  204.7059664998396 -0.0004758007534388463 0  204.706026622322 7.499524011031322 0  209.7059659625296 -0.000516169708410074 0  209.7060247416081 7.499483701072665 0  214.7059658422043 -0.0005554706288589957 0  214.70602344208 7.499444440222207 0  219.7059660122246 -0.0005938742511837336 0  219.7060225824584 7.499406064598801 0  224.7059663810045 -0.0006315187137228947 0  224.7060220542519 7.499368440207812 0  229.7059668809276 -0.0006685173688751306 0  229.706021773666 7.499331456267402 0  234.705967461246 -0.000704964527178208 0  234.706021675576 7.499295020106504 0  239.7059680833858 -0.0007409397126881801 0  239.7060217090732 7.499259053277847 0  244.7059687177575 -0.000776510855141737 0  244.7060218341704 7.499223488581514 0  249.7059693415337 -0.0008117367225331157 0  249.7060220193612 7.499188267762084 0  254.7059699370774 -0.0008466688080856414 0  254.7060222398058 7.49915333970248 0  259.7059704908204 -0.0008813528215511492 0  259.7060224759752 7.499118658985798 0  264.7059709924775 -0.0009158298888861602 0  264.706022712647 7.499084184733369 0  269.7059714345128 -0.0009501375300626785 0  269.7060229381648 7.499049879656524 0  274.7059718118362 -0.000984310456109526 0  274.7060231438982 7.499015709284794 0  279.7059721217024 -0.001018381197123577 0  279.7060233238711 7.498981641358234 0  284.7059723638297 -0.001052380534421215 0  284.7060234745001 7.498947645401887 0  289.705972540749 -0.001086337647848663 0  289.7060235944269 7.498913692542053 0  294.7059726584079 -0.001120279776206633 0  294.7060236843923 7.498879755684834 0  299.7059727269957 -0.001154230968241967 0  299.7060237471276 7.498845810265144 0  304.7059727618079 -0.00118820904928201 0  304.7060237873065 7.498811835885318 0  309.7059727835256 -0.001222218955554595 0  309.7060238118561 7.498777819253286 0  4.706089518083179 15.00072537899127 0  -0.293910508086181 15.00075672023171 0  9.706089568147338 15.00069394482273 0  14.70608965496034 15.0006624155468 0  19.70608978813146 15.00063079344843 0  24.70608997615685 15.00059908575465 0  29.70609022732684 15.00056730405514 0  34.70609055004029 15.00053546356763 0  39.70609095286883 15.00050358259811 0  44.70609144452671 15.00047168229565 0  49.70609203380568 15.00043978671264 0  54.70609272948497 15.00040792316026 0  59.70609354020408 15.00037612285659 0  64.70609447427356 15.00034442188353 0  69.70609553938728 15.00031286249306 0  74.70609674219511 15.0002814948325 0  79.7060980876773 15.000250379193 0  84.70609957825782 15.00021958892674 0  89.70610121257934 15.00018921422918 0  94.70610298386651 15.00015936703761 0  99.70610487783119 15.00013018735013 0  104.7061068701642 15.00010185129062 0  109.7061089238706 15.00007458116944 0  114.7061109871686 15.00004865746638 0  119.7061129935687 15.00002443176792 0  124.7061148674014 15.0000023375411 0  129.7061165408305 14.99998289079962 0  134.7061179924414 14.99996666219897 0  139.7061193216803 14.99995417905132 0  144.7061208711678 14.99994566174188 0  149.7061233731591 14.99994034865719 0  164.7061263542325 14.99989129352848 0  159.7061294276538 14.99993555091003 0  169.7061204005811 14.99984257793131 0  174.7061132464184 14.99979281112178 0  179.7061061483772 14.99974386650537 0  184.706099736513 14.9996964824816 0  189.7060942421661 14.99965083072035 0  194.7060896862774 14.99960683686117 0  199.706085992524 14.99956433578841 0  204.7060830483483 14.9995231417942 0  209.7060807354671 14.99948307786255 0  214.7060789437364 14.99944398603071 0  219.7060775763842 14.99940572938274 0  224.7060765510136 14.99936819064035 0  229.7060757987057 14.99933126961799 0  234.7060752624115 14.99929488052472 0  239.7060748951985 14.99925894949594 0  244.7060746586093 14.99922341246865 0  249.7060745212321 14.9991882134008 0  254.7060744574946 14.99915330279375 0  259.7060744466722 14.99911863646771 0  264.7060744720768 14.99908417454411 0  269.706074520404 14.99904988059833 0  274.7060745811968 14.99901572095794 0  279.706074646404 14.99898166413295 0  284.7060747100122 14.99894768037699 0  289.7060747677216 14.99891374138448 0  294.706074816686 14.9988798201208 0  299.7060748553454 14.99884589072633 0  304.7060748834876 14.99881192824407 0  309.7060749027973 14.99877790736018 0  4.706136376511881 22.50072557107136 0  -0.2938636500955489 22.50075683934581 0  9.706136420664052 22.50069416855059 0  14.70613649292017 22.50066264869995 0  19.70613659995831 22.50063102584857 0  24.70613674634776 22.50059931433692 0  29.70613693561242 22.50056752973925 0  34.70613717076299 22.50053568938974 0  39.70613745448891 22.50050381264288 0  44.70613778914607 22.50047192110624 0  49.70613817662213 22.50044003896918 0  54.70613861811682 22.50040819349167 0  59.70613911385085 22.50037641569409 0  64.70613966269902 22.50034474128384 0  69.70614026173492 22.50031321185855 0  74.70614090567149 22.50028187643725 0  79.70614158618507 22.50025079338137 0  84.70614229112041 22.50022003277688 0  89.70614300360448 22.50018967934838 0  94.70614370114481 22.5001598359542 0  99.70614435488484 22.50013062764183 0  104.7061449293458 22.50010220608182 0  109.706145383245 22.50007475385906 0  114.7061456723646 22.50004848743527 0  119.7061457559731 22.50002365635127 0  124.7061456088886 22.50000053400463 0  129.7061452415884 22.49997939151483 0  134.7061447298971 22.49996044008945 0  139.7061442515118 22.49994371883272 0  144.7061441142356 22.49992889784805 0  149.7061447320429 22.49991498386054 0  164.7061533093579 22.49986169643097 0  159.7061497421992 22.49989838433166 0  169.7061541020619 22.49982053249413 0  174.7061528467889 22.49977701311953 0  179.70615035651 22.49973271521785 0  184.706147296729 22.49968862218473 0  189.7061441183131 22.49964525535559 0  194.706141089266 22.49960284084501 0  199.7061383483937 22.49956143610753 0  204.706135951985 22.49952101038953 0  209.7061339074648 22.49948149159222 0  214.7061321955515 22.49944279202083 0  219.7061307840211 22.49940482176824 0  224.706129635865 22.49936749516607 0  229.7061287138819 22.49933073348513 0  234.7061279830929 22.49929446568256 0  239.7061274118645 22.49925862818532 0  244.7061269722944 22.49922316423936 0  249.7061266401908 22.49918802310134 0  254.7061263948498 22.49915315920965 0  259.7061262187332 22.49911853140005 0  264.7061260971217 22.49908410219152 0  269.706126017763 22.49904983715047 0  274.7061259705391 22.49901570433246 0  279.7061259471492 22.49898167379493 0  284.7061259408167 22.49894771716738 0  289.7061259460217 22.49891380724883 0  294.7061259582832 22.49887991756192 0 
[...]
<PointData  Vectors="v"> 
<DataArray  type="Float64"  Name="v"  NumberOfComponents="3" format="ascii">-1.1004277210524138e+00 -7.6632479750572760e+00 0.0000000000000000e+00  -1.6577150164348462e+00 -7.1739116081080896e+00 0.0000000000000000e+00  -1.5275028220247358e+00 -6.3382360205058621e+00 0.0000000000000000e+00  -1.0974541310629180e+00 -7.0184301350911831e+00 0.0000000000000000e+00  -2.3515967232315860e+00 -7.7530101979846178e+00 0.0000000000000000e+00  -2.0843847940945084e+00 -6.7131924141800949e+00 0.0000000000000000e+00  -2.9728380916460520e+00 -8.7747070200431310e+00 0.0000000000000000e+00  -2.7770362215900066e+00 -7.8444314386737828e+00 0.0000000000000000e+00  -3.5165164193782594e+00 -9.0868086914616786e+00 0.0000000000000000e+00  -3.3962723549466598e+00 -8.2736114974636426e+00 0.0000000000000000e+00  -4.1977551420563062e+00 -9.9605464620130402e+00 0.0000000000000000e+00  -3.9371809474312647e+00 -8.9417372329355054e+00 0.0000000000000000e+00  -4.7368875280245684e+00 -1.0314604958708765e+01 0.0000000000000000e+00  -4.6147099969765701e+00 -9.5095534991372457e+00 0.0000000000000000e+00  -4.8159272818401897e+00 -1.0051385901505975e+01 0.0000000000000000e+00  -5.1493182616300359e+00 -9.9372150184897130e+00 0.0000000000000000e+00  -5.8998480266017719e+00 -1.1147354506743037e+01 0.0000000000000000e+00  -5.2230772902165041e+00 -9.5266309519240195e+00 0.0000000000000000e+00  -2.7942195700667329e+00 -5.9839327219275260e+00 0.0000000000000000e+00  -6.3007804474530156e+00 -1.0647885700576953e+01 0.0000000000000000e+00  -1.3915437189705033e+01 -2.1867252550084540e+01 0.0000000000000000e+00  -3.1881901398381842e+00 -5.1924131245690646e+00 0.0000000000000000e+00  -1.3595645461211456e+01 -2.0093323277333997e+01 0.0000000000000000e+00  -1.4301944199788865e+01 -2.0580155873452895e+01 0.0000000000000000e+00  -1.3672799302391027e+01 -1.8773882849006544e+01 0.0000000000000000e+00  -1.3973618237455502e+01 -1.8666318089408211e+01 0.0000000000000000e+00  -1.4203876534856228e+01 -1.8106947670407614e+01 0.0000000000000000e+00  -1.4040946041000668e+01 -1.7319861575013014e+01 0.0000000000000000e+00  -1.5144020911585088e+01 -1.8074170402903214e+01 0.0000000000000000e+00  -1.4560829884125019e+01 -1.6674874719877916e+01 0.0000000000000000e+00  -1.6394201146899341e+01 -1.8465714538305960e+01 0.0000000000000000e+00  -1.5487934011477178e+01 -1.6602429547750738e+01 0.0000000000000000e+00  -1.7860771578768823e+01 -1.9074523135887869e+01 0.0000000000000000e+00  -1.6723594992464850e+01 -1.6888100474331058e+01 0.0000000000000000e+00  -1.9453147039783659e+01 -1.9961567358953541e+01 0.0000000000000000e+00  -1.8174320469574166e+01 -1.7587707349027674e+01 0.0000000000000000e+00  -2.1080857472761451e+01 -2.0700667830291540e+01 0.0000000000000000e+00  -1.9748988375160316e+01 -1.8274626793417859e+01 0.0000000000000000e+00  -2.2667186362827582e+01 -2.1325321507011566e+01 0.0000000000000000e+00  -2.1357845571541311e+01 -1.8962771628304768e+01 0.0000000000000000e+00  -2.4148557721628958e+01 -2.1673349043158517e+01 0.0000000000000000e+00  -2.2923986531892723e+01 -1.9469021228585078e+01 0.0000000000000000e+00  -2.5469540614025124e+01 -2.1708714425073680e+01 0.0000000000000000e+00  -2.4383922275055600e+01 -1.9745903876389331e+01 0.0000000000000000e+00  -2.6594373431397770e+01 -2.0979644910622874e+01 0.0000000000000000e+00  -2.5682043764983376e+01 -1.9311514738743952e+01 0.0000000000000000e+00  -2.7509441856259862e+01 -2.0260774097422377e+01 0.0000000000000000e+00  -2.6784042952277982e+01 -1.8908778542329820e+01 0.0000000000000000e+00  -2.8209046858246928e+01 -1.8112774579252584e+01 0.0000000000000000e+00  -2.7673829215238833e+01 -1.7082760654722094e+01 0.0000000000000000e+00  -2.8715212673194241e+01 -1.6442703666034010e+01 0.0000000000000000e+00  -2.8349947406762148e+01 -1.5705837767604297e+01 0.0000000000000000e+00  -2.9046653387438042e+01 -1.2761196240935840e+01 0.0000000000000000e+00  -2.8828781229375220e+01 -1.2282740435926899e+01 0.0000000000000000e+00  -2.9247474936409837e+01 -1.0101149610624020e+01 0.0000000000000000e+00  -2.9137528331273678e+01 -9.8243237100547560e+00 0.0000000000000000e+00  -2.9342434229156893e+01 -5.2138687835215674e+00 0.0000000000000000e+00  -2.9308935940579392e+01 -5.0880156510867227e+00 0.0000000000000000e+00  -2.9381812260670412e+01 -1.2509422997352220e+00 0.0000000000000000e+00  -2.9383432788629602e+01 -1.2188728689773347e+00 0.0000000000000000e+00  -2.9389262613193232e+01 1.2052707116824167e-09 0.0000000000000000e+00  -2.9389940989942954e+01 -7.0930190154106952e-04 0.0000000000000000e+00  -2.9389262614623359e+01 4.1363614308004729e-19 0.0000000000000000e+00  -2.0123946119654036e+01 7.0927014693130479e+00 0.0000000000000000e+00  -2.9383906960678832e+01 -6.7796605215274210e+00 0.0000000000000000e+00  -2.9389929054988780e+01 6.7739771275996015e-04 0.0000000000000000e+00  -2.0748573781012777e+01 1.3371618665767596e+01 0.0000000000000000e+00  -2.0151808464920055e+01 1.4348674752472826e+01 0.0000000000000000e+00  -1.7730020883168113e+01 2.0811737814510032e+01 0.0000000000000000e+00  -2.0814060710298921e+01 1.6314598456825582e+01 0.0000000000000000e+00  -1.6952673594145022e+01 2.2293336512287084e+01 0.0000000000000000e+00  -1.7833793364384469e+01 2.1162126255943107e+01 0.0000000000000000e+00  -1.5272964776735853e+01 2.5071133377796706e+01 0.0000000000000000e+00  -1.7094008518606746e+01 2.2584556842815903e+01 0.0000000000000000e+00  -1.4061412132964012e+01 2.5285153469182497e+01 0.0000000000000000e+00  -1.5451320037744102e+01 2.3501540483022008e+01 0.0000000000000000e+00  -1.2766785041561326e+01 2.5364834909475459e+01 0.0000000000000000e+00  -1.4277048177404925e+01 2.3455345265368653e+01 0.0000000000000000e+00  -1.1651196477817233e+01 2.4312941689808593e+01 0.0000000000000000e+00  -1.3018898870801545e+01 2.2672508963791355e+01 0.0000000000000000e+00  -1.0323415774752045e+01 2.3145076011643692e+01 0.0000000000000000e+00  -1.1939404577187707e+01 2.1185667884702635e+01 0.0000000000000000e+00  -9.3678988817628372e+00 2.1303908820955556e+01 0.0000000000000000e+00  -1.0647528646645764e+01 1.9902664547872966e+01 0.0000000000000000e+00  -8.5847416781768331e+00 1.9448659859531279e+01 0.0000000000000000e+00  -9.7274470615090518e+00 1.8305745690833181e+01 0.0000000000000000e+00  -7.7329703506053109e+00 1.7755611964141313e+01 0.0000000000000000e+00  -8.9793528905114766e+00 1.6509513188556927e+01 0.0000000000000000e+00  -6.9262696400573951e+00 1.6156339737598170e+01 0.0000000000000000e+00  -8.1624399249307249e+00 1.4977469346280873e+01 0.0000000000000000e+00  -6.1684910868595875e+00 1.4740671661581434e+01 0.0000000000000000e+00  -7.3901817218075392e+00 1.3634997938159380e+01 0.0000000000000000e+00  -5.4230916810064551e+00 1.3445271303631065e+01 0.0000000000000000e+00  -6.6664806377524837e+00 1.2357823173068104e+01 0.0000000000000000e+00  -4.7449275681597483e+00 1.2204577220515723e+01 0.0000000000000000e+00  -5.9548529697807995e+00 1.1217649959265833e+01 0.0000000000000000e+00  -4.1417660412798103e+00 1.1066297185100334e+01 0.0000000000000000e+00  -5.3100709822063292e+00 1.0191590561045953e+01 0.0000000000000000e+00  -3.5761243550672948e+00 9.9777760664428339e+00 0.0000000000000000e+00  -4.7398821395879445e+00 9.1590576728827546e+00 0.0000000000000000e+00  -3.0733207985377025e+00 8.9151212575780683e+00 0.0000000000000000e+00  -4.2069317361531375e+00 8.1902799298024291e+00 0.0000000000000000e+00  -2.6423751264465252e+00 7.9175193354552649e+00 0.0000000000000000e+00  -3.7363533690281137e+00 7.3002785019752263e+00 0.0000000000000000e+00  -2.2472328020972472e+00 6.9134950926265688e+00 0.0000000000000000e+00  -3.3374089767916577e+00 6.3495095822664602e+00 0.0000000000000000e+00  -1.9063108292089059e+00 5.9786301776087170e+00 0.0000000000000000e+00  -2.9737045711217380e+00 5.4959269487111140e+00 0.0000000000000000e+00  -1.6191579832038769e+00 5.0257579745957353e+00 0.0000000000000000e+00  -2.6642740378986582e+00 4.6230139851867982e+00 0.0000000000000000e+00  -1.3664861151721781e+00 4.2108636143857865e+00 0.0000000000000000e+00  -2.4075674998897711e+00 3.8603158174754437e+00 0.0000000000000000e+00  -1.1482703759874129e+00 3.2721566498763530e+00 0.0000000000000000e+00  -2.1862667009910610e+00 2.9717237418825948e+00 0.0000000000000000e+00  -9.5731773581963586e-01 2.7344653774003040e+00 0.0000000000000000e+00  -1.9970032121015122e+00 2.4769214474217942e+00 0.0000000000000000e+00  -7.8105128462987372e-01 1.7843074285875875e+00 0.0000000000000000e+00  -1.8381855054685570e+00 1.5448254122647367e+00 0.0000000000000000e+00  -5.4328193171913952e-01 1.7276615866346592e+00 0.0000000000000000e+00  -1.6879699127848087e+00 1.4019580777017733e+00 0.0000000000000000e+00  -1.8277502709023180e-01 1.2027908876274216e+00 0.0000000000000000e+00  -1.4863969340212124e+00 6.8185695979428673e-01 0.0000000000000000e+00  6.6158454871136985e-01 7.4561706931375324e-03 0.0000000000000000e+00  -1.1403940696305439e+00 -1.2177032291938916e+00 0.0000000000000000e+00  -1.8050412675588114e+00 -5.6927681915166168e+00 0.0000000000000000e+00  -1.3311197377368371e+00 -6.3084903298921180e+00 0.0000000000000000e+00  -2.2354353257104549e+00 -5.8779566359056661e+00 0.0000000000000000e+00  -2.7918052926332200e+00 -6.8063402474865748e+00 0.0000000000000000e+00  -3.4826914204117028e+00 -7.3464192267584485e+00 0.0000000000000000e+00  -4.0987591397696717e+00 -8.1328121110334006e+00 0.0000000000000000e+00  -4.6350287632854643e+00 -8.4967297714789556e+00 0.0000000000000000e+00  -5.3062923612531501e+00 -9.1398390098041276e+00 0.0000000000000000e+00  -5.8328682465456323e+00 -9.4212305745367981e+00 0.0000000000000000e+00  -5.8971294942426198e+00 -9.0376955748320533e+00 0.0000000000000000e+00  -6.9638306238757197e+00 -9.8682383897711077e+00 0.0000000000000000e+00  -3.8394806245236981e+00 -3.9164117762297854e+00 0.0000000000000000e+00  -1.4942513663347853e+01 -1.9165162908611780e+01 0.0000000000000000e+00  -1.4603038270324614e+01 -1.7226675253789782e+01 0.0000000000000000e+00  -1.4656752099523592e+01 -1.5904016107376052e+01 0.0000000000000000e+00  -1.5160362725374018e+01 -1.5223206234946622e+01 0.0000000000000000e+00  -1.6067569993361445e+01 -1.5048110809114942e+01 0.0000000000000000e+00  -1.7279812670537428e+01 -1.5426589466429208e+01 0.0000000000000000e+00  -1.8704091788667192e+01 -1.5930039223821050e+01 0.0000000000000000e+00  -2.0248739737005764e+01 -1.6568981176221691e+01 0.0000000000000000e+00  -2.1824143862759833e+01 -1.7140344916116785e+01 0.0000000000000000e+00  -2.3354201231773118e+01 -1.7579254774436038e+01 0.0000000000000000e+00  -2.4774506653181486e+01 -1.7388757177289452e+01 0.0000000000000000e+00  -2.6030375454614536e+01 -1.7281995370885916e+01 0.0000000000000000e+00  -2.7087466261576843e+01 -1.5774807683983290e+01 0.0000000000000000e+00  -2.7930665304471134e+01 -1.4721735989764991e+01 0.0000000000000000e+00  -2.8557108229734471e+01 -1.1590728975382524e+01 0.0000000000000000e+00  -2.8988124170137429e+01 -9.3954568878948699e+00 0.0000000000000000e+00  -2.9243896895779518e+01 -4.8522400808550961e+00 0.0000000000000000e+00  -2.9371380985072459e+01 -1.1473070738895355e+00 0.0000000000000000e+00  -2.9391565379804984e+01 -1.3511359105127926e-03 0.0000000000000000e+00  -2.9362952312583243e+01 -6.8420815096001881e+00 0.0000000000000000e+00  -2.9391543610735539e+01 1.3313616545654508e-03 0.0000000000000000e+00  -2.9301282450854202e+01 5.1365968605488943e-01 0.0000000000000000e+00  -2.0103423292184228e+01 1.7334984424483736e+01 0.0000000000000000e+00  -2.0810190726445999e+01 1.6717383526996965e+01 0.0000000000000000e+00  -1.7872400534192860e+01 2.1501311919863944e+01 0.0000000000000000e+00  -1.7175645322897424e+01 2.1060557887518620e+01 0.0000000000000000e+00  -1.5572490165855804e+01 2.1718369643263600e+01 0.0000000000000000e+00  -1.4437621341107034e+01 2.0807614087452730e+01 0.0000000000000000e+00  -1.3216604212404556e+01 1.9587938745039594e+01 0.0000000000000000e+00  -1.2172941220228156e+01 1.7986031367931364e+01 0.0000000000000000e+00  -1.0915962580669968e+01 1.6946217184144722e+01 0.0000000000000000e+00  -1.0029986185500547e+01 1.5407282515427887e+01 0.0000000000000000e+00  -9.3151723755202109e+00 1.3772014884183518e+01 0.0000000000000000e+00  -8.5311910327706411e+00 1.2496118582879946e+01 0.0000000000000000e+00  -7.7913012646479709e+00 1.1291345593440743e+01 0.0000000000000000e+00  -7.0993525254713736e+00 1.0169107811097309e+01 0.0000000000000000e+00  -6.4189918326757409e+00 9.2429197434544523e+00 0.0000000000000000e+00  -5.8048671715611793e+00 8.3218606355595455e+00 0.0000000000000000e+00  -5.2646867110106381e+00 7.4086309542186273e+00 0.0000000000000000e+00  -4.7611576574739649e+00 6.6118649893830055e+00 0.0000000000000000e+00  -4.3194099050904189e+00 5.7680218803132401e+00 0.0000000000000000e+00  -3.9485907719853608e+00 4.9671967167084068e+00 0.0000000000000000e+00  -3.6125402159631803e+00 4.1749778766973229e+00 0.0000000000000000e+00  -3.3299704693351377e+00 3.4915631786346730e+00 0.0000000000000000e+00  -3.0998067209875795e+00 2.6547697651945783e+00 0.0000000000000000e+00  -2.9039349204062943e+00 2.2094131114904885e+00 0.0000000000000000e+00  -2.7404531960200407e+00 1.3194587573119163e+00 0.0000000000000000e+00  -2.6050513109635314e+00 1.1946125139731676e+00 0.0000000000000000e+00  -2.4804859948115423e+00 3.8860388935762868e-01 0.0000000000000000e+00  -2.3004241695887453e+00 -1.7172804390841441e+00 0.0000000000000000e+00  -2.5181623000800686e+00 -4.9810248495180067e+00 0.0000000000000000e+00  -2.0899448071850091e+00 -5.6675968378249726e+00 0.0000000000000000e+00  -2.9933246051328366e+00 -5.2314840854199360e+00 0.0000000000000000e+00  -3.4250059112356799e+00 -5.9721207548491488e+00 0.0000000000000000e+00  -3.9808314608116366e+00 -6.3118602799988448e+00 0.0000000000000000e+00  -4.6691911886227508e+00 -7.2122115445699038e+00 0.0000000000000000e+00  -5.2802823140563762e+00 -7.6980050303006857e+00 0.0000000000000000e+00  -5.8084889780166238e+00 -8.1406946807809994e+00 0.0000000000000000e+00  -6.4686724060333454e+00 -8.6414207708254374e+00 0.0000000000000000e+00  -6.9810540841851889e+00 -8.9537080383183181e+00 0.0000000000000000e+00  -7.0279355158406558e+00 -8.2822301125323285e+00 0.0000000000000000e+00  -8.0754632815127927e+00 -8.6170025080224573e+00 0.0000000000000000e+00  -4.9332512835505513e+00 -2.5231728035735257e+00 0.0000000000000000e+00  -1.6021893129222999e+01 -1.7746834780038661e+01 0.0000000000000000e+00  -1.5668387742233968e+01 -1.5837477710814310e+01 0.0000000000000000e+00  -1.5703814357108541e+01 -1.4486071178029221e+01 0.0000000000000000e+00  -1.6182711285778066e+01 -1.3710169771010930e+01 0.0000000000000000e+00  -1.7058466852230346e+01 -1.3636240956112747e+01 0.0000000000000000e+00  -1.8232347804550226e+01 -1.3826597455791820e+01 0.0000000000000000e+00  -1.9610918132995049e+01 -1.4289664202462719e+01 0.0000000000000000e+00  -2.1102982311223460e+01 -1.4819767992924382e+01 0.0000000000000000e+00  -2.2619169357527294e+01 -1.5331824189671082e+01 0.0000000000000000e+00  -2.4082520130997896e+01 -1.5309675589438724e+01 0.0000000000000000e+00  -2.5430063055083551e+01 -1.5455364505744868e+01 0.0000000000000000e+00  -2.6606089569623879e+01 -1.4248456332359190e+01 0.0000000000000000e+00  -2.7578767784463647e+01 -1.3522482172487107e+01 0.0000000000000000e+00  -2.8330748716869966e+01 -1.0714158623344971e+01 0.0000000000000000e+00  -2.8866238655847994e+01 -8.8226496982165639e+00 0.0000000000000000e+00  -2.9198821968679333e+01 -4.5249882328535866e+00 0.0000000000000000e+00  -2.9368823295032222e+01 -1.0400660947646705e+00 0.0000000000000000e+00  -2.9394100503576016e+01 -1.9321302923264586e-03 0.0000000000000000e+00  -2.9344751168390665e+01 -7.0032622876362716e+00 0.0000000000000000e+00  -2.9394081187914889e+01 1.9039737551642933e-03 0.0000000000000000e+00  -2.9151969188689673e+01 3.9128963331436800e-01 0.0000000000000000e+00  -2.9080643765880836e+01 3.5799783861049499e+00 0.0000000000000000e+00  -1.9940464786366707e+01 1.7832711705367071e+01 0.0000000000000000e+00  -2.0719732329850807e+01 1.7145530990431315e+01 0.0000000000000000e+00  -1.7851056070708836e+01 2.0067460608232260e+01 0.0000000000000000e+00  -1.7220264881917579e+01 1.9359953293713136e+01 0.0000000000000000e+00  -1.5677761925694387e+01 1.9150269381334251e+01 0.0000000000000000e+00  -1.4600270675637198e+01 1.7798258597887905e+01 0.0000000000000000e+00  -1.3432291956528497e+01 1.6460429556816440e+01 0.0000000000000000e+00  -1.2439136452157054e+01 1.5098895240663591e+01 0.0000000000000000e+00  -1.1230451935315429e+01 1.4115552854377068e+01 0.0000000000000000e+00  -1.0391244878257865e+01 1.2736029066985518e+01 0.0000000000000000e+00  -9.7222137809250295e+00 1.1355832345817021e+01 0.0000000000000000e+00  -8.9832647083178134e+00 1.0216645182142303e+01 0.0000000000000000e+00  -8.2875493012593608e+00 9.1656507078764911e+00 0.0000000000000000e+00  -7.6389786001701170e+00 8.2561375070587850e+00 0.0000000000000000e+00  -7.0010480986719124e+00 7.4337651190144243e+00 0.0000000000000000e+00  -6.4283347627008753e+00 6.6305968734384999e+00 0.0000000000000000e+00  -5.9284853359896399e+00 5.8880850267802849e+00 0.0000000000000000e+00  -5.4642524613514354e+00 5.1359989762627798e+00 0.0000000000000000e+00  -5.0605602569201507e+00 4.4409609474064764e+00 0.0000000000000000e+00  -4.7268801285349538e+00 3.6996983498275062e+00 0.0000000000000000e+00  -4.4265058694463262e+00 3.0963500278532301e+00 0.0000000000000000e+00  -4.1790131560455661e+00 2.3362263917928137e+00 0.0000000000000000e+00  -3.9818698186092472e+00 1.9433908653353578e+00 0.0000000000000000e+00  -3.8193552669583197e+00 1.0977453906007875e+00 0.0000000000000000e+00  -3.6851988258258075e+00 1.0201897019552888e+00 0.0000000000000000e+00  -3.5834250024314915e+00 2.1964848963413086e-01 0.0000000000000000e+00  -3.4798222696645889e+00 -1.9572654308100730e+00 0.0000000000000000e+00  -3.4379752075993868e+00 -4.3373642903783152e+00 0.0000000000000000e+00  -3.0479260060503375e+00 -5.0845025334544802e+00 0.0000000000000000e+00  -3.8682229894919882e+00 -4.5166922551457906e+00 0.0000000000000000e+00  -4.3467137007810344e+00 -5.3225279326829007e+00 0.0000000000000000e+00  -4.7812351575036907e+00 -5.4771019699243473e+00 0.0000000000000000e+00  -5.3383749131876019e+00 -6.1804945737017265e+00 0.0000000000000000e+00  -6.0253157558382870e+00 -6.7843693619981202e+00 0.0000000000000000e+00  -6.6316299870008848e+00 -7.3542461201075584e+00 0.0000000000000000e+00  -7.1510675312278336e+00 -7.6601123099418720e+00 0.0000000000000000e+00  -7.7979950853602817e+00 -8.1971331422384761e+00 0.0000000000000000e+00  -8.2927757831158395e+00 -8.2267053020607772e+00 0.0000000000000000e+00  -8.3189904409699089e+00 -7.0613749153859047e+00 0.0000000000000000e+00  -9.3458265459520753e+00 -7.2490073531720522e+00 0.0000000000000000e+00  -6.1885751236363857e+00 -1.1214327963767163e+00 0.0000000000000000e+00  -1.7270141299031980e+01 -1.6372632677822942e+01 0.0000000000000000e+00  -1.6910418562036277e+01 -1.4441605703296014e+01 0.0000000000000000e+00  -1.6933475206532982e+01 -1.3006727132821586e+01 0.0000000000000000e+00  -1.7391048100916422e+01 -1.2344925699583905e+01 0.0000000000000000e+00  -1.8234690171589207e+01 -1.2095133457404375e+01 0.0000000000000000e+00  -1.9366085208211057e+01 -1.2259021549370512e+01 0.0000000000000000e+00  -2.0691479387324719e+01 -1.2626262278291891e+01 0.0000000000000000e+00  -2.2119351502730989e+01 -1.3109750373916528e+01 0.0000000000000000e+00  -2.3560336777582851e+01 -1.3174166685916033e+01 0.0000000000000000e+00  -2.4938075821776142e+01 -1.3502287498461856e+01 0.0000000000000000e+00  -2.6187942161241409e+01 -1.2557632896056916e+01 0.0000000000000000e+00  -2.7257706472288461e+01 -1.2147003677488829e+01 0.0000000000000000e+00  -2.8112480785299347e+01 -9.6688935642360807e+00 0.0000000000000000e+00  -2.8743912500242015e+01 -8.1161521077681567e+00 0.0000000000000000e+00  -2.9147466124402662e+01 -4.1038404337921852e+00 0.0000000000000000e+00  -2.9362302520755499e+01 -8.9570300957535798e-01 0.0000000000000000e+00  -2