<?xml version="1.0"?>
<VTKFile type="UnstructuredGrid"  version="0.1"  >
<UnstructuredGrid>
<Piece  NumberOfPoints="1933" NumberOfCells="3640">
<Points>
<DataArray  type="Float64"  NumberOfComponents="3"  format="ascii">0.4754658990023081 1.377973238088966e-05 0  5.475465932652064 -4.968190490846347e-06 0  5.475494089763846 7.499995136970443 0  0.4754940255445614 7.500013831873134 0  10.47546597648008 -2.381194420581888e-05 0  10.47549420641502 7.499976311582146 0  15.47546608154238 -4.27967165211767e-05 0  15.47549440329019 7.499957331938156 0  20.47546630353596 -6.192501730127261e-05 0  20.47549470753307 7.499938203968143 0  25.47546669442885 -8.117396346774821e-05 0  25.47549514596005 7.499918954129961 0  30.47546730055241 -0.0001005047563981023 0  30.47549574440761 7.499899622768358 0  35.47546816313299 -0.0001198678799727039 0  35.47549652725632 7.499880260059142 0  40.47546931963613 -0.00013920570880962 0  40.47549751725767 7.499860923901816 0  45.47547080526809 -0.0001584534438041204 0  45.47549873555879 7.499841679213126 0  50.47547265438711 -0.0001775388859079239 0  50.47550020179112 7.499822598259208 0  55.47547490174762 -0.0001963813157254404 0  55.47550193410907 7.499803761823568 0  60.47547758356127 -0.0002148895861623606 0  60.47550394907993 7.499785261131972 0  65.47548073837665 -0.0002329594167364123 0  65.47550626132438 7.499767200556414 0  70.47548440776043 -0.0002504697750852195 0  70.47550888279208 7.499749701212481 0  75.47548863673728 -0.0002672781235887138 0  75.47551182151584 7.499732905660662 0  80.47549347387836 -0.000283214177222296 0  80.47551507961991 7.499716984038264 0  85.47549897083584 -0.0002980716392010842 0  85.47551865026493 7.499702142097387 0  90.47550518093527 -0.0003115971208794123 0  90.47552251306054 7.499688631825125 0  95.47551215612897 -0.0003234750629606902 0  95.47552662728023 7.499676765591702 0  100.4755199410246 -0.0003333068821963464 0  100.4755309219656 7.499666935123516 0  105.4755285616336 -0.0003405816609793269 0  105.4755352817172 7.499659637020065 0  110.4755380044327 -0.0003446343201920765 0  110.4755395268062 7.499655506936922 0  115.4755481774719 -0.0003445851758080461 0  115.4755433865237 7.499655364661802 0  120.4755588378017 -0.0003392519300129983 0  120.4755464663445 7.499660271356886 0  125.4755694551436 -0.00032702171712634 0  125.4755482147113 7.499671596399876 0  130.4755789538444 -0.0003056686096456909 0  130.4755479090541 7.499691080424726 0  135.4755852207105 -0.0002721088185092324 0  135.4755447144585 7.499720855170379 0  140.4755841578863 -0.0002221342038471601 0  140.4755379482439 7.499763328115224 0  145.4755678320797 -0.0001503997157935038 0  145.4755278734333 7.499820774276285 0  150.4755207202595 -5.207465137544434e-05 0  150.4755178285521 7.499894654211584 0  160.4755282581471 8.597280189638509e-19 0  165.4754333374867 -0.0001442893679805053 0  165.4755119583926 7.499832062597547 0  160.4755376695391 7.499944169801038 0  170.4753863058805 -0.0002603476223449043 0  170.4754857091452 7.499727842924763 0  175.4753639752372 -0.0003563716726986418 0  175.4754649351794 7.499637221215407 0  180.475354770149 -0.0004371610973362396 0  180.4754501159236 7.499559208861742 0  185.4753526272001 -0.0005062464503562634 0  185.4754402735065 7.499491638736122 0  190.4753542790189 -0.0005663046285833448 0  190.4754342166945 7.499432436843071 0  195.4753579268869 -0.0006193517180538342 0  195.4754309071825 7.499379887232466 0  200.475362561653 -0.0006669002228099944 0  200.4754295335918 7.499332635543904 0  205.4753676073385 -0.0007100887951915014 0  205.4754294918174 7.499289628957811 0  210.4753727305111 -0.0007497823967241794 0  210.4754303424506 7.499250050068912 0  215.4753777364624 -0.0007866462043737354 0  215.4754317693665 7.499213260560017 0  220.4753825115532 -0.0008211989057868454 0  220.4754335461728 7.499178757230615 0  225.4753869905115 -0.0008538508321030112 0  225.475435510982 7.499146138887259 0  230.4753911374705 -0.000884931293468951 0  230.4754375481106 7.499115081750499 0  235.4753949347277 -0.00091470833160984 0  235.4754395750355 7.499085321221112 0  240.4753983759469 -0.0009434031605826519 0  240.4754415331645 7.499056638294904 0  245.4754014619947 -0.000971200869516711 0  245.4754433813289 7.499028849352423 0  250.475404198381 -0.0009982584697365924 0  250.4754450911988 7.499001798402887 0  255.4754065937283 -0.001024711029248455 0  255.4754466440696 7.498975351128193 0  260.4754086589201 -0.001050676403103384 0  260.47544802862 7.498949390267406 0  265.475410406758 -0.001076258902655391 0  265.4754492393812 7.498923812025967 0  270.4754118519999 -0.001101552123175817 0  270.4754502757244 7.498898523303775 0  275.4754130117616 -0.001126641046290914 0  275.4754511412227 7.498873439628533 0  280.4754139062518 -0.001151603431154333 0  280.4754518432869 7.498848483768069 0  285.4754145598622 -0.001176510382807798 0  285.4754523929712 7.49882358509294 0  290.4754150025694 -0.001201425803707688 0  290.4754528048435 7.498798679880742 0  295.475415271562 -0.001226404139815647 0  295.475453096844 7.498773712910461 0  300.4754154126622 -0.001251485332816053 0  300.4754532900648 7.498748640893976 0  305.4754154805011 -0.001276685041699901 0  305.4754534086908 7.498723438516345 0  310.4754155347456 -0.001301976893118896 0  310.4754534810873 7.49869810809551 0  5.475521946383945 14.99999537756884 0  0.4755218764517627 15.00001396008449 0  10.47552206234866 14.99997658540255 0  15.4755222479706 14.99995760529099 0  20.47552251901048 14.99993846499155 0  25.47552288801975 14.99991920093529 0  30.47552336604375 14.99989985770857 0  35.47552396300302 14.99988048701841 0  40.47552468754147 14.99986114704602 0  45.47552554666377 14.99984190242779 0  50.47552654526252 14.99982282488705 0  55.47552768553486 14.99980399449751 0  60.47552896623884 14.99978550158191 0  65.47553038172055 14.99976744929317 0  70.47553192062051 14.99974995697847 0  75.47553356416002 14.99973316448689 0  80.4755352838922 14.99971723764558 0  85.47553703880928 14.99970237519814 0  90.47553877172474 14.99968881756183 0  95.47554040495751 14.99967685778946 0  100.4755418355728 14.9996668550594 0  105.4755429309639 14.99965925072392 0  110.4755435265445 14.99965458614775 0  115.4755434292189 14.99965351970632 0  120.4755424335911 14.99965683630588 0  125.4755403633218 14.99966543461082 0  130.4755371580862 14.99968026112862 0  135.4755330361478 14.99970212984674 0  140.4755287668085 14.99973130884873 0  145.4755260608081 14.99976663947929 0  150.4755279447014 14.99980364220404 0  165.4755491215679 14.99976722731923 0  160.4755518200385 14.99984069872236 0  170.4755398250407 14.99968949033012 0  175.4755282262595 14.99961467269973 0  180.475517027869 14.99954583059548 0  185.475507429873 14.99948358529477 0  190.4754997691134 14.99942750898233 0  195.4754939656291 14.99937682290446 0  200.4754897715429 14.99933070297984 0  205.4754868962348 14.99928839771441 0  210.4754850632737 14.99924926255307 0  215.4754840322332 14.99921275963172 0  220.475483603578 14.99917844506959 0  225.4754836161267 14.99914595335754 0  230.4754839418188 14.99911498263175 0  235.475484480022 14.99908528206301 0  240.4754851523039 14.99905664151996 0  245.4754858979954 14.99902888326637 0  250.4754866705786 14.99900185534861 0  255.475487434815 14.99897542634002 0  260.4754881644977 14.99894948116547 0  265.4754888406976 14.99892391778956 0  270.4754894504043 14.99889864461482 0  275.4754899854594 14.99887357848944 0  280.4754904416977 14.99884864327412 0  285.475490818269 14.99882376895812 0  290.4754911170761 14.99879889133787 0  295.4754913424432 14.99877395224485 0  300.4754915011779 14.99874890016264 0  305.4754916035392 14.99872369061469 0  310.4754916660439 14.9986982844709 0  5.475549496113487 22.49999585910177 0  0.4755494277245398 22.50001434822542 0  10.47554959187737 22.49997708787352 0  15.47554973142186 22.49995809238726 0  20.47554992342316 22.4999389224805 0  25.47555017203888 22.49991962665191 0  30.47555047878489 22.49990025536273 0  35.47555084333687 22.49988086262218 0  40.4755512636502 22.49986150691787 0  45.47555173568099 22.49984225205836 0  50.47555225287154 22.49982316820947 0  55.47555280547461 22.49980433326447 0  60.47555337974189 22.49978583463037 0  65.47555395697871 22.49976777149775 0  70.47555451246227 22.49975025766181 0  75.47555501423741 22.49973342497055 0  80.47555542184627 22.49971742747064 0  85.47555568511915 22.49970244629377 0  90.47555574329492 22.49968869524304 0  95.4755555249625 22.49967642685495 0  100.4755549496766 22.49966593833754 0  105.475553932665 22.49965757607541 0  110.4755523948613 22.49965173609224 0  115.4755502815881 22.49964885558255 0  120.475547594433 22.49964938677632 0  125.4755444416808 22.49965373823819 0  130.4755411116256 22.49966215957713 0  135.4755381669084 22.49967453389755 0  140.4755365400437 22.49969003280286 0  145.4755375687428 22.49970660038091 0  150.4755428291849 22.49972033955165 0  165.4755710153546 22.49969460456258 0  160.475563505134 22.49974355198677 0  170.475572286605 22.49963826021061 0  175.4755693178162 22.49957972372687 0  180.4755640756442 22.49952233823221 0  185.4755580219428 22.49946785496662 0  190.4755520641027 22.49941695302527 0  195.4755466846728 22.49936970163438 0  200.475542088155 22.49932586775306 0  205.4755383148033 22.49928509450598 0  210.4755353169249 22.49924699566933 0  215.4755330059571 22.49921120127529 0  220.4755312796993 22.49917737660488 0  225.4755300370322 22.49914522751093 0  230.4755291851405 22.49911449920866 0  235.4755286424522 22.49908497230387 0  240.4755283392431 22.49905645796638 0  245.4755282170625 22.49902879315331 0  250.4755282276282 22.4990018362679 0  255.4755283315559 22.4989754633815 0  260.4755284970875 22.49894956502579 0  265.4755286989227 22.49892404351306 0  270.4755289171624 22.49889881072758 0  275.4755291363845 22.49887378633089 0  280.4755293448416 22.4988488963233 0  285.4755295337939 22.49882407189098 0  290.4755296970152 22.49879924842111 0  295.47
[...]
<PointData  Vectors="v"> 
<DataArray  type="Float64"  Name="v"  NumberOfComponents="3" format="ascii">3.3596090857102552e+00 6.6673817578230361e+00 0.0000000000000000e+00  3.8271447444763211e+00 6.0417979727015156e+00 0.0000000000000000e+00  3.3153464574542122e+00 5.3407598337410258e+00 0.0000000000000000e+00  2.9515324005178427e+00 6.1214809463195428e+00 0.0000000000000000e+00  4.3704503346178765e+00 6.3054093138414951e+00 0.0000000000000000e+00  3.7824181887409782e+00 5.4911707736275464e+00 0.0000000000000000e+00  4.8033811548730716e+00 6.8743445795051894e+00 0.0000000000000000e+00  4.3246680237442554e+00 6.2261861887349337e+00 0.0000000000000000e+00  5.1260436654051587e+00 6.7481503298150596e+00 0.0000000000000000e+00  4.7559318767786651e+00 6.2658210561205632e+00 0.0000000000000000e+00  5.5568803969410983e+00 7.1023501409189445e+00 0.0000000000000000e+00  5.0763460973064687e+00 6.4581540303641018e+00 0.0000000000000000e+00  5.8518000161376547e+00 6.9899715349719820e+00 0.0000000000000000e+00  5.5045158775999035e+00 6.5500684341974065e+00 0.0000000000000000e+00  5.8243506850627496e+00 6.4655434462757846e+00 0.0000000000000000e+00  5.7962717866461633e+00 6.5094070374511563e+00 0.0000000000000000e+00  6.5998940037949669e+00 7.0285330750574966e+00 0.0000000000000000e+00  5.7653308398467393e+00 5.8681717060110437e+00 0.0000000000000000e+00  4.6657984317022363e+00 3.5517652176976844e+00 0.0000000000000000e+00  6.5371625319524629e+00 6.4561494413512310e+00 0.0000000000000000e+00  1.3082816139625089e+01 1.5386672372696646e+01 0.0000000000000000e+00  4.5991753965015283e+00 2.7642131454476044e+00 0.0000000000000000e+00  1.3612535445912343e+01 1.5036861770368237e+01 0.0000000000000000e+00  1.3011722534477558e+01 1.4246066007068556e+01 0.0000000000000000e+00  1.3867344280949203e+01 1.4131195072081029e+01 0.0000000000000000e+00  1.3536943091432040e+01 1.3752337476485046e+01 0.0000000000000000e+00  1.4190918749026226e+01 1.3274555917976215e+01 0.0000000000000000e+00  1.3787504320231321e+01 1.2792657042006102e+01 0.0000000000000000e+00  1.4643306917734616e+01 1.2633340746053666e+01 0.0000000000000000e+00  1.4106734235790030e+01 1.1958079720583582e+01 0.0000000000000000e+00  1.5239876841134244e+01 1.2204014631054898e+01 0.0000000000000000e+00  1.4554947021306418e+01 1.1312654251446059e+01 0.0000000000000000e+00  1.5921587493456570e+01 1.1867701310217033e+01 0.0000000000000000e+00  1.5147198070917240e+01 1.0848204824773081e+01 0.0000000000000000e+00  1.6625421271163024e+01 1.1710054519556371e+01 0.0000000000000000e+00  1.5824718463744251e+01 1.0657118758724618e+01 0.0000000000000000e+00  1.7288621935369715e+01 1.1418837961535234e+01 0.0000000000000000e+00  1.6524976970705303e+01 1.0426457507661082e+01 0.0000000000000000e+00  1.7856523321874015e+01 1.1031322512523744e+01 0.0000000000000000e+00  1.7184914242451356e+01 1.0180844773087101e+01 0.0000000000000000e+00  1.8290484518801239e+01 1.0437562592655194e+01 0.0000000000000000e+00  1.7750568579161243e+01 9.7872575087654070e+00 0.0000000000000000e+00  1.8576409381209874e+01 9.6637108710496413e+00 0.0000000000000000e+00  1.8183388046958154e+01 9.2340504114217747e+00 0.0000000000000000e+00  1.8717018342571318e+01 8.3716247024091626e+00 0.0000000000000000e+00  1.8469880284187209e+01 8.1587033199639389e+00 0.0000000000000000e+00  1.8731106946841038e+01 7.2739056747458095e+00 0.0000000000000000e+00  1.8612113582227188e+01 7.2483282244034202e+00 0.0000000000000000e+00  1.8658197208686101e+01 5.2514076122215352e+00 0.0000000000000000e+00  1.8631403893381883e+01 5.3557748829096505e+00 0.0000000000000000e+00  1.8531588403056421e+01 3.9995616835123617e+00 0.0000000000000000e+00  1.8563807184711557e+01 4.1797877089536373e+00 0.0000000000000000e+00  1.8399304858449945e+01 1.4853962652571882e+00 0.0000000000000000e+00  1.8448718876823182e+01 1.6755450754846830e+00 0.0000000000000000e+00  1.8281969616952473e+01 5.7144588186882928e-01 0.0000000000000000e+00  1.8326042870756673e+01 7.3093302960529138e-01 0.0000000000000000e+00  1.8210699543459878e+01 -1.8134126006183682e+00 0.0000000000000000e+00  1.8228395205806628e+01 -1.7178952141621491e+00 0.0000000000000000e+00  1.8172538952162970e+01 -1.6631542462641096e+00 0.0000000000000000e+00  1.8171210056232706e+01 -1.6310221242681846e+00 0.0000000000000000e+00  1.8163563195048798e+01 1.1166524823825456e-10 0.0000000000000000e+00  1.8164429339021346e+01 8.6010689474323449e-04 0.0000000000000000e+00  1.8163563200182288e+01 -4.5381445965971058e-19 0.0000000000000000e+00  1.1543092954846969e+01 1.0078908102020374e-03 0.0000000000000000e+00  1.8177152161376370e+01 9.9278869636547196e+00 0.0000000000000000e+00  1.8164421971171762e+01 -8.7385004585218611e-04 0.0000000000000000e+00  1.2947970838630090e+01 -9.4298412056784098e-01 0.0000000000000000e+00  1.1559363054113403e+01 -3.0475469025118751e+00 0.0000000000000000e+00  1.1085854747822422e+01 -5.9958510172267028e+00 0.0000000000000000e+00  1.2965541853686194e+01 -3.2106858033830066e+00 0.0000000000000000e+00  1.0979239344598399e+01 -6.9604001606611154e+00 0.0000000000000000e+00  1.1107923371938549e+01 -6.8055631070055398e+00 0.0000000000000000e+00  1.0055355751108401e+01 -1.0013150568846685e+01 0.0000000000000000e+00  1.1008556489135477e+01 -8.6356684199690115e+00 0.0000000000000000e+00  9.4681432925393558e+00 -1.1164518821022398e+01 0.0000000000000000e+00  1.0093426196718870e+01 -1.0292480863392150e+01 0.0000000000000000e+00  8.7597844901604258e+00 -1.2345595311372929e+01 0.0000000000000000e+00  9.5159585231900756e+00 -1.1293527689632251e+01 0.0000000000000000e+00  8.1710004476164393e+00 -1.2535961250649201e+01 0.0000000000000000e+00  8.8189500208400347e+00 -1.1663455889446034e+01 0.0000000000000000e+00  7.3924194953180775e+00 -1.2489165338074557e+01 0.0000000000000000e+00  8.2423123271030612e+00 -1.1333174614911282e+01 0.0000000000000000e+00  6.8754718656473797e+00 -1.1721946530264741e+01 0.0000000000000000e+00  7.4765914688406614e+00 -1.0958903411154598e+01 0.0000000000000000e+00  6.4823333558898719e+00 -1.0803849811704783e+01 0.0000000000000000e+00  6.9733585834309304e+00 -1.0227012607218541e+01 0.0000000000000000e+00  6.0337283123911165e+00 -9.8624034718791496e+00 0.0000000000000000e+00  6.5944890935155680e+00 -9.2028709623175917e+00 0.0000000000000000e+00  5.5944751777597075e+00 -8.9186667150470527e+00 0.0000000000000000e+00  6.1605725805928566e+00 -8.2735842567511515e+00 0.0000000000000000e+00  5.1685804549560519e+00 -8.0736640918070801e+00 0.0000000000000000e+00  5.7365209499599414e+00 -7.4488286262325571e+00 0.0000000000000000e+00  4.7206732143936083e+00 -7.3006877009912809e+00 0.0000000000000000e+00  5.3261440900855259e+00 -6.6431176482891985e+00 0.0000000000000000e+00  4.2997939358356883e+00 -6.5572346829956425e+00 0.0000000000000000e+00  4.8939507104080811e+00 -5.9403778435320778e+00 0.0000000000000000e+00  3.9167794629002084e+00 -5.8879470596890595e+00 0.0000000000000000e+00  4.4890133551707230e+00 -5.3279397025823130e+00 0.0000000000000000e+00  3.5437078435224847e+00 -5.2581850402548671e+00 0.0000000000000000e+00  4.1220242162494394e+00 -4.7131791961327369e+00 0.0000000000000000e+00  3.2038796143677777e+00 -4.6442292465228139e+00 0.0000000000000000e+00  3.7650158592087211e+00 -4.1490770832347081e+00 0.0000000000000000e+00  2.9093510934207560e+00 -4.0891606110830958e+00 0.0000000000000000e+00  3.4412277678053398e+00 -3.6619421252806403e+00 0.0000000000000000e+00  2.6282901580389657e+00 -3.5209834305732013e+00 0.0000000000000000e+00  3.1627524776161975e+00 -3.1138400392765453e+00 0.0000000000000000e+00  2.3794803072800685e+00 -3.0322564237679126e+00 0.0000000000000000e+00  2.8975229994197291e+00 -2.6735236780757763e+00 0.0000000000000000e+00  2.1582938841945598e+00 -2.4992837442378182e+00 0.0000000000000000e+00  2.6646351361857104e+00 -2.1816466447147760e+00 0.0000000000000000e+00  1.9516010093313341e+00 -2.1508954875765927e+00 0.0000000000000000e+00  2.4588712652638551e+00 -1.8552435436139643e+00 0.0000000000000000e+00  1.7507893964854897e+00 -1.6023539192972636e+00 0.0000000000000000e+00  2.2680434409197789e+00 -1.3147342702994242e+00 0.0000000000000000e+00  1.5512689751097615e+00 -1.5704982599316581e+00 0.0000000000000000e+00  2.0818801330697410e+00 -1.2857736504860184e+00 0.0000000000000000e+00  1.3350031658480501e+00 -9.1835907613215695e-01 0.0000000000000000e+00  1.8985555801161405e+00 -6.0651596458312407e-01 0.0000000000000000e+00  1.0168301885285662e+00 -1.4599896385546929e+00 0.0000000000000000e+00  1.6954236751866567e+00 -9.9825042261088159e-01 0.0000000000000000e+00  5.0491953121002098e-01 -1.2332119590004520e+00 0.0000000000000000e+00  1.3953999253401077e+00 -4.7528473238306129e-01 0.0000000000000000e+00  -6.9783671382904855e-01 -1.8340804692138121e-01 0.0000000000000000e+00  8.9075389921072579e-01 1.6000280532041644e+00 0.0000000000000000e+00  3.0453665496387630e+00 4.7952964684666899e+00 0.0000000000000000e+00  2.6381165938423310e+00 5.5101715461973315e+00 0.0000000000000000e+00  3.4084679653095655e+00 4.7914650311498574e+00 0.0000000000000000e+00  3.8736318677203125e+00 5.4143963860611057e+00 0.0000000000000000e+00  4.4127787108952488e+00 5.6212551114137774e+00 0.0000000000000000e+00  4.8396965792217781e+00 5.9806761953957013e+00 0.0000000000000000e+00  5.1544725533458120e+00 5.9115510669356937e+00 0.0000000000000000e+00  5.5759074422056214e+00 6.0761194793778719e+00 0.0000000000000000e+00  5.8600020464943094e+00 5.9195263830974767e+00 0.0000000000000000e+00  5.8206246058634754e+00 5.3033649588640301e+00 0.0000000000000000e+00  6.5840864354811179e+00 5.6759143823837892e+00 0.0000000000000000e+00  4.6375989875948305e+00 1.6333393700430623e+00 0.0000000000000000e+00  1.3038961148698064e+01 1.2971373212928524e+01 0.0000000000000000e+00  1.3553273553351113e+01 1.2422100207293955e+01 0.0000000000000000e+00  1.3794664711502714e+01 1.1485073732190742e+01 0.0000000000000000e+00  1.4104282532829775e+01 1.0645782499612755e+01 0.0000000000000000e+00  1.4542747033017141e+01 9.9660007318019908e+00 0.0000000000000000e+00  1.5124370722575156e+01 9.6475564754210161e+00 0.0000000000000000e+00  1.5790483626004779e+01 9.3826733640540301e+00 0.0000000000000000e+00  1.6479163637352769e+01 9.1976823231480633e+00 0.0000000000000000e+00  1.7127520660108818e+01 8.9457450245003862e+00 0.0000000000000000e+00  1.7681770214210143e+01 8.5904321134710280e+00 0.0000000000000000e+00  1.8104762181793404e+01 7.7342983233861098e+00 0.0000000000000000e+00  1.8382910678183883e+01 7.0383974926648447e+00 0.0000000000000000e+00  1.8519678175282543e+01 5.3289757974159713e+00 0.0000000000000000e+00  1.8536759540533613e+01 4.2790355897601291e+00 0.0000000000000000e+00  1.8472669037637203e+01 1.8465175169008572e+00 0.0000000000000000e+00  1.8364608059214060e+01 9.0245940021838134e-01 0.0000000000000000e+00  1.8260533808254984e+01 -1.5768189751595392e+00 0.0000000000000000e+00  1.8182348734322915e+01 -1.5748885185670938e+00 0.0000000000000000e+00  1.8166525124948031e+01 1.6410018406039415e-03 0.0000000000000000e+00  1.8181396029990310e+01 9.8691334079455029e+00 0.0000000000000000e+00  1.8166511464220882e+01 -1.7683756944309099e-03 0.0000000000000000e+00  1.8237886018019921e+01 6.8778515468629911e+00 0.0000000000000000e+00  1.1610760388791769e+01 -5.3114014037074648e+00 0.0000000000000000e+00  1.3008057972264259e+01 -4.0184277354957976e+00 0.0000000000000000e+00  1.1150895434532083e+01 -8.4882334467801908e+00 0.0000000000000000e+00  1.1055267698598703e+01 -8.9244245892795320e+00 0.0000000000000000e+00  1.0147720394318593e+01 -1.0431273011709866e+01 0.0000000000000000e+00  9.5783368873490176e+00 -1.0624094091013673e+01 0.0000000000000000e+00  8.8914858052493635e+00 -1.0474583937775380e+01 0.0000000000000000e+00  8.3256952669677826e+00 -9.8169412867080315e+00 0.0000000000000000e+00  7.5714915033050429e+00 -9.4794323693037850e+00 0.0000000000000000e+00  7.0805176323938381e+00 -8.6422929169589242e+00 0.0000000000000000e+00  6.7145829716974843e+00 -7.6304998477085224e+00 0.0000000000000000e+00  6.2940036398632966e+00 -6.8210634722614474e+00 0.0000000000000000e+00  5.8839167906511332e+00 -6.0361635400866742e+00 0.0000000000000000e+00  5.4879590626845376e+00 -5.3007709205742080e+00 0.0000000000000000e+00  5.0704161618807406e+00 -4.7294248968986663e+00 0.0000000000000000e+00  4.6803520075824379e+00 -4.1716945391088895e+00 0.0000000000000000e+00  4.3283411916711136e+00 -3.6224599952463681e+00 0.0000000000000000e+00  3.9862205044004320e+00 -3.1851815122450309e+00 0.0000000000000000e+00  3.6772401433661455e+00 -2.7049049623017978e+00 0.0000000000000000e+00  3.4133543189994113e+00 -2.2843719064880927e+00 0.0000000000000000e+00  3.1624761685179115e+00 -1.8406810759141166e+00 0.0000000000000000e+00  2.9435421927566909e+00 -1.5550494438279254e+00 0.0000000000000000e+00  2.7515156626185462e+00 -1.0362142554677864e+00 0.0000000000000000e+00  2.5737660883844939e+00 -1.0148870968225623e+00 0.0000000000000000e+00  2.4007439711745753e+00 -3.3808097913245960e-01 0.0000000000000000e+00  2.2292990565148911e+00 -7.0258494911721492e-01 0.0000000000000000e+00  2.0390542115588293e+00 -2.9826236048565154e-02 0.0000000000000000e+00  1.7497957325122213e+00 2.3472407829573121e+00 0.0000000000000000e+00  2.9496243365568704e+00 4.1849879183038547e+00 0.0000000000000000e+00  2.5783640060269981e+00 4.9526267395481716e+00 0.0000000000000000e+00  3.3558006013767039e+00 4.2482934661760812e+00 0.0000000000000000e+00  3.7163133240598074e+00 4.7194133815797823e+00 0.0000000000000000e+00  4.1770605479949898e+00 4.8170400025631892e+00 0.0000000000000000e+00  4.7093215784771738e+00 5.3465168985991767e+00 0.0000000000000000e+00  5.1268722896651280e+00 5.4473456812093142e+00 0.0000000000000000e+00  5.4298718540124051e+00 5.4536454779788732e+00 0.0000000000000000e+00  5.8371818622506026e+00 5.5043717917659709e+00 0.0000000000000000e+00  6.1054190390926886e+00 5.3741826882646606e+00 0.0000000000000000e+00  6.0495465492616427e+00 4.5423002379096449e+00 0.0000000000000000e+00  6.7971278059730764e+00 4.5647846930598979e+00 0.0000000000000000e+00  4.8330388379246880e+00 3.8455289986786273e-01 0.0000000000000000e+00  1.3212077937520389e+01 1.1666440691046670e+01 0.0000000000000000e+00  1.3705708418117775e+01 1.1135109956688394e+01 0.0000000000000000e+00  1.3930065471090009e+01 1.0193923100228234e+01 0.0000000000000000e+00  1.4222227683376524e+01 9.3216978710209055e+00 0.0000000000000000e+00  1.4641451140912865e+01 8.7899790635183024e+00 0.0000000000000000e+00  1.5201331999763497e+01 8.3998370046312036e+00 0.0000000000000000e+00  1.5843537762331447e+01 8.1823928890585869e+00 0.0000000000000000e+00  1.6506080401738675e+01 7.9915820668651456e+00 0.0000000000000000e+00  1.7126918142133018e+01 7.7773753486555162e+00 0.0000000000000000e+00  1.7653766735911830e+01 7.1179495534849124e+00 0.0000000000000000e+00  1.8049800191892377e+01 6.6363491411618698e+00 0.0000000000000000e+00  1.8304416473040963e+01 5.1373931651328695e+00 0.0000000000000000e+00  1.8421420057622438e+01 4.2598422927854154e+00 0.0000000000000000e+00  1.8427596369709509e+01 1.9464938489246264e+00 0.0000000000000000e+00  1.8359896207098249e+01 1.0520795278784878e+00 0.0000000000000000e+00  1.8266802807848741e+01 -1.4299149678451855e+00 0.0000000000000000e+00  1.8185123984522232e+01 -1.5065301641937041e+00 0.0000000000000000e+00  1.8169796979173281e+01 2.3476792559702984e-03 0.0000000000000000e+00  1.8175874815524587e+01 9.8169400647302236e+00 0.0000000000000000e+00  1.8169784413719231e+01 -2.5586181595852338e-03 0.0000000000000000e+00  1.8231519249839767e+01 6.7839321139251778e+00 0.0000000000000000e+00  1.8284615462373150e+01 4.6431105167657831e+00 0.0000000000000000e+00  1.1638725023254265e+01 -6.1024727718409029e+00 0.0000000000000000e+00  1.3022842704195170e+01 -5.7038562951013372e+00 0.0000000000000000e+00  1.1167912307352340e+01 -8.7853660648609821e+00 0.0000000000000000e+00  1.1080574294701698e+01 -9.0797019189946901e+00 0.0000000000000000e+00  1.0185375870095392e+01 -9.7799950069078783e+00 0.0000000000000000e+00  9.6296793456177401e+00 -9.4559926862175185e+00 0.0000000000000000e+00  8.9581393055922582e+00 -8.9804759624936548e+00 0.0000000000000000e+00  8.4079831711100681e+00 -8.3610807169551524e+00 0.0000000000000000e+00  7.6702955708663696e+00 -7.9192093985357097e+00 0.0000000000000000e+00  7.1964949909420604e+00 -7.0956924574513520e+00 0.0000000000000000e+00  6.8483507215271988e+00 -6.2048131333542971e+00 0.0000000000000000e+00  6.4463803647837796e+00 -5.4362642643014762e+00 0.0000000000000000e+00  6.0557662778354837e+00 -4.7226385809522515e+00 0.0000000000000000e+00  5.6798878689333030e+00 -4.1192591207181133e+00 0.0000000000000000e+00  5.2828854878211038e+00 -3.6029388871691101e+00 0.0000000000000000e+00  4.9136229107426175e+00 -3.1108600278451335e+00 0.0000000000000000e+00  4.5823869773209402e+00 -2.6883438699129298e+00 0.0000000000000000e+00  4.2608887535061495e+00 -2.2574889950972463e+00 0.0000000000000000e+00  3.9721421478854833e+00 -1.9044065736995834e+00 0.0000000000000000e+00  3.7280707615664253e+00 -1.4796100311575824e+00 0.0000000000000000e+00  3.4962141262663913e+00 -1.2417211033540752e+00 0.0000000000000000e+00  3.2958575066895355e+00 -7.6216457874267585e-01 0.0000000000000000e+00  3.1211641002948287e+00 -7.6260619653098394e-01 0.0000000000000000e+00  2.9606469239676776e+00 -9.0599677316365396e-02 0.0000000000000000e+00  2.8026416502587499e+00 -4.5989789594421082e-01 0.0000000000000000e+00  2.6481542541636616e+00 2.4654306531912942e-01 0.0000000000000000e+00  2.4684156616468402e+00 2.7660181243862567e+00 0.0000000000000000e+00  3.1248523718990229e+00 3.6287865959411190e+00 0.0000000000000000e+00  2.7791822048649908e+00 4.4332328451730456e+00 0.0000000000000000e+00  3.4949374216719851e+00 3.6405692463197057e+00 0.0000000000000000e+00  3.8985676028264451e+00 4.1813339425093341e+00 0.0000000000000000e+00  4.2548889058611428e+00 4.1303112788349265e+00 0.0000000000000000e+00  4.7088114282089855e+00 4.5547356127879732e+00 0.0000000000000000e+00  5.2310928676750628e+00 4.8301850918894988e+00 0.0000000000000000e+00  5.6350554518056546e+00 5.0107761808369204e+00 0.0000000000000000e+00  5.9209702471044645e+00 4.9073098935954622e+00 0.0000000000000000e+00  6.3082649867869183e+00 4.9873678809384749e+00 0.0000000000000000e+00  6.5548294166849912e+00 4.6416155416300970e+00 0.0000000000000000e+00  6.4773533134784200e+00 3.4584852233322807e+00 0.0000000000000000e+00  7.2042063126500162e+00 3.3470251891389498e+00 0.0000000000000000e+00  5.2160600031681845e+00 -8.8134467819218454e-01 0.0000000000000000e+00  1.3565576867383523e+01 1.0414528964132062e+01 0.0000000000000000e+00  1.4034044202049012e+01 9.8719660556062614e+00 0.0000000000000000e+00  1.4238454891103393e+01 8.8987536490714714e+00 0.0000000000000000e+00  1.4509230928151084e+01 8.1783554484294410e+00 0.0000000000000000e+00  1.4903751728582867e+01 7.5810287279032806e+00 0.0000000000000000e+00  1.5433462544634748e+01 7.2432625255648455e+00 0.0000000000000000e+00  1.6040388652064092e+01 7.0255901522994018e+00 0.0000000000000000e+00  1.6662872725790510e+01 6.8765561498928873e+00 0.0000000000000000e+00  1.7239826120659274e+01 6.3600028556318682e+00 0.0000000000000000e+00  1.7720272778236673e+01 6.0742080682609307e+00 0.0000000000000000e+00  1.8070791277611708e+01 4.7872192777729037e+00 0.0000000000000000e+00  1.8281646809327221e+01 4.1091770972435597e+00 0.0000000000000000e+00  1.8363925677999259e+01 1.9593052160745763e+00 0.0000000000000000e+00  1.8343876961336736e+01 1.1565704733970017e+00 0.0000000000000000e+00  1.8273488442576610e+01 -1.2879771200921994e+00 0.0000000000000000e+00  1.8191996888901581e+01 -1.4311119352417594e+00 0.0000000000000000e+00  1.8174118289854128e+01 2.9769561476415914e-03 0.0000000000000000e+00  1.8176364332669635e+01 9.7966244259239552e+00 0.0000000000000000e+00  1.8174106301881572e+01 -3.2573644123947030e-03 0.0000000000000000e+00  1.8190004676680491e+01 6.7016642979558281e+00 0.0000000000000000e+00  1.8236016915868660e+01 4.5677677