<?xml version="1.0"?>
<VTKFile type="UnstructuredGrid"  version="0.1"  >
<UnstructuredGrid>
<Piece  NumberOfPoints="1933" NumberOfCells="3640">
<Points>
<DataArray  type="Float64"  NumberOfComponents="3"  format="ascii">0.2940349197760636 -0.001566985255284022 0  5.294034962492653 -0.00153252025694428 0  5.29398326433106 7.498467587178814 0  0.2939832014935559 7.498433089001026 0  10.29403503127013 -0.001498140041476054 0  10.29398337048653 7.49850197491971 0  15.29403517130798 -0.00146385187112684 0  15.29398353890178 7.49853626217759 0  20.29403542401966 -0.001429631301876711 0  20.29398378608673 7.498570479558503 0  25.29403582312531 -0.001395436730170537 0  25.29398412622606 7.498604670913244 0  30.29403639478184 -0.00136121654187733 0  30.29398457064644 7.498638888610001 0  35.29403715883102 -0.001326912508695545 0  35.29398512741924 7.498673191049739 0  40.294038130135 -0.001292461098141327 0  40.29398580112026 7.498707641718894 0  45.29403931966058 -0.001257793534131418 0  45.29398659262689 7.498742309273282 0  50.29404073522478 -0.001222835035529448 0  50.29398749883123 7.498777268351812 0  55.29404238189441 -0.001187503433701404 0  55.29398851216745 7.49881260096936 0  60.2940442620404 -0.001151707231815784 0  60.29398961986099 7.498848398444873 0  65.29404637503137 -0.001115343071693446 0  65.29399080279462 7.498884763902482 0  70.29404871650416 -0.0010782924915351 0  70.29399203386326 7.498921815455566 0  75.29405127709857 -0.001040417771090831 0  75.29399327563947 7.498959690257793 0  80.29405404044304 -0.001001556552739083 0  80.29399447709702 7.498998549694018 0  85.2940569800398 -0.000961514778066396 0  85.29399556904178 7.499038586095365 0  90.29406005444687 -0.0009200572638616913 0  90.29399645775116 7.499080031506874 0  95.29406319974015 -0.0008768949222786348 0  95.2939970161399 7.49912316921475 0  100.2940663174842 -0.000831667155861298 0  100.2939970715685 7.499168348938074 0  105.2940692551091 -0.0007839172635570489 0  105.2939963892246 7.49921600674449 0  110.2940717731108 -0.0007330577135532025 0  110.2939946500698 7.499266690675665 0  115.2940734889463 -0.0006783208710181817 0  115.293991423094 7.49932109230753 0  120.2940737789417 -0.000618689476079613 0  120.2939861342008 7.499380081929075 0  125.294071603489 -0.0005528009797507874 0  125.2939780410381 7.499444738258146 0  130.2940651904905 -0.000478824586730358 0  130.2939662400966 7.49951634740267 0  135.2940514545934 -0.0003943319850087438 0  135.2939497716168 7.49959630995052 0  140.2940249196065 -0.0002962652558466256 0  140.2939279754757 7.499685824453786 0  145.2939756907951 -0.0001814150485335635 0  145.2939014469766 7.499785115249495 0  150.2938855191312 -4.909834531746512e-05 0  150.2938744053498 7.49989206491649 0  160.2938926261455 9.067909941520638e-19 0  165.293849668964 -9.358724267682274e-05 0  165.2938860403353 7.49988744127816 0  160.293893068488 7.499955650504641 0  170.293839135558 -0.000155467048343478 0  170.2938786010284 7.49983524733539 0  175.2938434591336 -0.0001952524049284716 0  175.2938746553497 7.49979989722787 0  180.2938542788025 -0.0002188346427897046 0  180.2938742493821 7.499778554699616 0  185.2938675122781 -0.0002303527946422623 0  185.2938765160074 7.499768224725663 0  190.2938811695588 -0.0002327989863009478 0  190.293880541078 7.49976642734636 0  195.2938943064783 -0.0002283499706125339 0  195.2938855904515 7.499771238430482 0  200.2939065056062 -0.0002185995653468955 0  200.293891133512 7.499781194848309 0  205.2939176141668 -0.0002047264152588278 0  205.2938968085968 7.499795187364656 0  210.293927610421 -0.0001876132298800668 0  210.2939023795936 7.499812370843107 0  215.2939365351735 -0.0001679304567796104 0  215.2939076987318 7.499832095542289 0  220.2939444566154 -0.0001461947771837745 0  220.2939126784766 7.499853856412535 0  225.2939514523792 -0.0001228101567217606 0  225.2939172715132 7.499877256162959 0  230.2939576005559 -9.809691691454992e-05 0  230.2939214569427 7.499901978395208 0  235.2939629754099 -7.231257889725299e-05 0  235.293925230951 7.499927767957729 0  240.2939676455787 -4.566701866820435e-05 0  240.2939286005866 7.499954416452569 0  245.2939716735942 -1.833364552770349e-05 0  245.2939315796735 7.499981751430959 0  250.2939751161152 9.542241076395687e-06 0  250.2939341861759 7.500009628253548 0  255.2939780245585 3.783713478263935e-05 0  255.2939364405612 7.500037923904457 0  260.2939804459603 6.644451847744655e-05 0  260.2939383648375 7.50006653226955 0  265.2939824240108 9.527122515972199e-05 0  265.2939399820644 7.500095360550486 0  270.2939840002192 0.0001242347496904476 0  270.2939413161881 7.500124326608033 0  275.293985215232 0.0001532614108286513 0  275.2939423920834 7.500153357130253 0  280.2939861102988 0.000182285375542093 0  280.2939432357222 7.500182386616703 0  285.2939867288889 0.0002112486913894217 0  285.2939438743712 7.500211357272182 0  290.2939871183517 0.0002401026556804115 0  290.2939443367237 7.500240220022197 0  295.2939873314016 0.0002688111185379634 0  295.293944652894 7.500268937002652 0  300.2939874267486 0.0002973567092867365 0  300.2939448542447 7.500297486031084 0  305.2939874674044 0.0003257514667322776 0  305.2939449733519 7.500325867715159 0  310.2939875132708 0.0003540534849766626 0  310.2939450452135 7.500354116071983 0  5.293931347973038 14.99846781673755 0  0.2939312843360006 14.99843326825114 0  10.2939314392682 14.99850220249276 0  15.29393157106154 14.99853646979135 0  20.29393174950927 14.99857066357708 0  25.29393197752436 14.99860483304167 0  30.29393225573932 14.99863903199108 0  35.29393258246492 14.99867331863527 0  40.29393295327142 14.99870775561969 0  45.29393336041282 14.99874241049483 0  50.29393379214047 14.99877735663801 0  55.29393423188182 14.99881267461195 0  60.29393465722782 14.99884845396672 0  65.29393503866464 14.99888479552512 0  70.29393533797182 14.9989218142297 0  75.29393550621275 14.99895964266746 0  80.29393548124328 14.99899843542287 0  85.29393518469891 14.99903837443365 0  90.29393451848998 14.99907967552118 0  95.29393336101261 14.99912259619306 0  100.2939315636176 14.99916744459153 0  105.2939289485716 14.99921458891264 0  110.2939253109654 14.99926446542216 0  115.2939204292266 14.99931758072191 0  120.2939140925235 14.99937449903916 0  125.2939061589604 14.99943579605087 0  130.2938966659733 14.99950194391471 0  135.2938860213881 14.99957306311929 0  140.2938753007174 14.99964842957252 0  145.2938666340498 14.99972554953714 0  150.2938634973731 14.99979844721715 0  165.2938881691484 14.99983522802582 0  160.2938860087284 14.99986668479609 0  170.2938853914071 14.99980593257655 0  175.2938812014476 14.99978360699712 0  180.2938775113843 14.9997695289037 0  185.2938750361932 14.99976324949671 0  190.2938738708174 14.99976372332701 0  195.2938738454386 14.99976981693033 0  200.2938747082552 14.9997805021122 0  205.2938762092188 14.99979491010698 0  210.2938781326412 14.99981232987573 0  215.2938803053933 14.99983218728335 0  220.2938825945498 14.99985402046496 0  225.2938849012833 14.99987745716046 0  230.2938871541183 14.99990219571752 0  235.2938893028396 14.99992798983114 0  240.2938913134394 14.99995463652554 0  245.2938931641306 14.99998196676774 0  250.2938948422908 15.00000983815508 0  255.2938963421651 15.00003812921934 0  260.2938976631644 15.00006673499799 0  265.2938988086107 15.00009556361545 0  270.2938997848162 15.00012453369888 0  275.2939006004014 15.0001535725197 0  280.2939012657691 15.00018261480957 0  285.2939017927219 15.00021160224413 0  290.2939021941918 15.0002404836104 0  295.2939024842265 15.00026921564545 0  300.2939026784713 15.00029776439596 0  305.2939027957451 15.0003261065597 0  310.293902861789 15.00035422933267 0  5.293879296657606 22.49846823718783 0  0.2938792367760455 22.49843368951849 0  10.29387936540653 22.49850258694986 0  15.29387944825534 22.4985368039914 0  20.29387954547534 22.49857094518094 0  25.2938796540577 22.49860506501622 0  30.2938797686372 22.49863921869516 0  35.29387988171187 22.49867346370804 0  40.29387998342486 22.49870786086097 0  45.29388006110273 22.49874247519802 0  50.29388009865745 22.49877737704093 0  55.29388007589665 22.49881264324518 0  60.29387996776002 22.49884835872376 0  65.29387974349279 22.49888461827224 0  70.29387936578053 22.49892152872001 0  75.29387878990346 22.49895921142184 0  80.29387796303168 22.49899780507076 0  85.29387682388351 22.49903746874511 0  90.29387530314428 22.4990783849615 0  95.29387332530965 22.49912076224004 0  100.2938708130288 22.49916483620259 0  105.2938676956269 22.49921086737027 0  110.2938639243066 22.49925913236053 0  115.2938594975228 22.49930990276694 0  120.2938545009215 22.49936340219731 0  125.2938491662997 22.49941972638675 0  130.2938439515015 22.49947870423933 0  135.2938396344294 22.49953967150262 0  140.2938373929717 22.49960113213863 0  145.2938387992502 22.49966032089408 0  150.2938455849154 22.49971283208695 0  165.2938702414602 22.49977586825349 0  160.2938650679125 22.49978264958207 0  170.2938708640584 22.49976626874639 0  175.2938687003867 22.49975801563857 0  180.2938653051225 22.49975337003129 0  185.2938617244606 22.49975320748215 0  190.2938585357869 22.49975758228401 0  195.293855990167 22.49976614322568 0  200.2938541431403 22.49977838238913 0  205.2938529469163 22.49979376611254 0  210.2938523077204 22.49981179597066 0  215.2938521184573 22.49983203197954 0  220.2938522757247 22.49985409694519 0  225.2938526875851 22.49987767227472 0  230.2938532761989 22.49990249057461 0  235.2938539778009 22.49992832761883 0  240.2938547414389 22.49995499483613 0  245.2938555272558 22.49998233274141 0  250.2938563047122 22.5000102053952 0  255.2938570509454 22.50003849582709 0  260.2938577493195 22.50006710230975 0  265.2938583881983 22.50009593536338 0  270.2938589599081 22.50012491538432 0  275.2938594598838 22.50015397080776 0  280.29385988598 22.5001830367238 0  285.293860237967 22.50021205385733 0  290.2938605172698 22.50024096777513 0  295.2938607270866 22.50026972807056 0  30
[...]
<PointData  Vectors="v"> 
<DataArray  type="Float64"  Name="v"  NumberOfComponents="3" format="ascii">1.0984813387900827e+00 7.6633742881189786e+00 0.0000000000000000e+00  1.6559196444955913e+00 7.1785417898994535e+00 0.0000000000000000e+00  1.5255297922815163e+00 6.3426574215081795e+00 0.0000000000000000e+00  1.0955122140665428e+00 7.0186329945545731e+00 0.0000000000000000e+00  2.3501770752928222e+00 7.7592843735470511e+00 0.0000000000000000e+00  2.0825372805124047e+00 6.7188694790964973e+00 0.0000000000000000e+00  2.9717683224409219e+00 8.7805704623258318e+00 0.0000000000000000e+00  2.7755480916349717e+00 7.8497191170327358e+00 0.0000000000000000e+00  3.5157341411112277e+00 9.0937221635398728e+00 0.0000000000000000e+00  3.3951514621689038e+00 8.2800764331532903e+00 0.0000000000000000e+00  4.1973719094596280e+00 9.9676819287801717e+00 0.0000000000000000e+00  3.9363368694026679e+00 8.9482277773972658e+00 0.0000000000000000e+00  4.7367874993402941e+00 1.0322352889628714e+01 0.0000000000000000e+00  4.6142738052511225e+00 9.5168574286513650e+00 0.0000000000000000e+00  4.8157624554918135e+00 1.0058710882232335e+01 0.0000000000000000e+00  5.1491628617921865e+00 9.9446589868097242e+00 0.0000000000000000e+00  5.8999284403080843e+00 1.1155112469653556e+01 0.0000000000000000e+00  5.2228612504477612e+00 9.5339522074835283e+00 0.0000000000000000e+00  2.7951652994454963e+00 5.9923858220417587e+00 0.0000000000000000e+00  6.3008084732661755e+00 1.0655376735793517e+01 0.0000000000000000e+00  1.3914106683389427e+01 2.1873176523686855e+01 0.0000000000000000e+00  3.1890926553642092e+00 5.2007172550247409e+00 0.0000000000000000e+00  1.3594623064728943e+01 2.0099818816135514e+01 0.0000000000000000e+00  1.4300582026004813e+01 2.0586290702260627e+01 0.0000000000000000e+00  1.3671997446902333e+01 1.8780829014566073e+01 0.0000000000000000e+00  1.3972568110062426e+01 1.8673002428578471e+01 0.0000000000000000e+00  1.4203218612602479e+01 1.8114121698938344e+01 0.0000000000000000e+00  1.4040116929461270e+01 1.7326845123687104e+01 0.0000000000000000e+00  1.5143447746316941e+01 1.8081597403336353e+01 0.0000000000000000e+00  1.4560143538556339e+01 1.6682158095585340e+01 0.0000000000000000e+00  1.6393676768877040e+01 1.8473207430267639e+01 0.0000000000000000e+00  1.5487333008243237e+01 1.6609803016313894e+01 0.0000000000000000e+00  1.7860274986525461e+01 1.9081934953328830e+01 0.0000000000000000e+00  1.6723045190251067e+01 1.6895406475954079e+01 0.0000000000000000e+00  1.9452660481908396e+01 1.9968953047732924e+01 0.0000000000000000e+00  1.8173794631536079e+01 1.7594995605183986e+01 0.0000000000000000e+00  2.1080380087392303e+01 2.0707978678824979e+01 0.0000000000000000e+00  1.9748477594798306e+01 1.8281845598815380e+01 0.0000000000000000e+00  2.2666717617856381e+01 2.1332425017908619e+01 0.0000000000000000e+00  2.1357344231478184e+01 1.8969788704608227e+01 0.0000000000000000e+00  2.4148101952183957e+01 2.1680554202595708e+01 0.0000000000000000e+00  2.2923496080931756e+01 1.9476147943625886e+01 0.0000000000000000e+00  2.5469103023685314e+01 2.1715877316577739e+01 0.0000000000000000e+00  2.4383445609469220e+01 1.9752998764035418e+01 0.0000000000000000e+00  2.6593972380192469e+01 2.0987072635622056e+01 0.0000000000000000e+00  2.5681598700352453e+01 1.9318888038334240e+01 0.0000000000000000e+00  2.7509066875901119e+01 2.0268367947648184e+01 0.0000000000000000e+00  2.6783622782753081e+01 1.8916338810984822e+01 0.0000000000000000e+00  2.8208733690862019e+01 1.8121464951264549e+01 0.0000000000000000e+00  2.7673469327214114e+01 1.7091437984761683e+01 0.0000000000000000e+00  2.8714928076548869e+01 1.6451584238115878e+01 0.0000000000000000e+00  2.8349624179413954e+01 1.5714737399987017e+01 0.0000000000000000e+00  2.9046449745340610e+01 1.2772409098004673e+01 0.0000000000000000e+00  2.8828541576085737e+01 1.2293989991674060e+01 0.0000000000000000e+00  2.9247295516148768e+01 1.0113114173956502e+01 0.0000000000000000e+00  2.9137332367488291e+01 9.8363604399597264e+00 0.0000000000000000e+00  2.9342342119684179e+01 5.2281342328036944e+00 0.0000000000000000e+00  2.9308825320454758e+01 5.1023327664494236e+00 0.0000000000000000e+00  2.9381791446492358e+01 1.2718294191126935e+00 0.0000000000000000e+00  2.9383384547196979e+01 1.2397590978646627e+00 0.0000000000000000e+00  2.9389262610504549e+01 -3.4924227297922587e-09 0.0000000000000000e+00  2.9389916194798150e+01 6.8474802510235140e-04 0.0000000000000000e+00  2.9389262614639843e+01 -3.2438928742030935e-19 0.0000000000000000e+00  2.0124977518798499e+01 -7.1179517298091826e+00 0.0000000000000000e+00  2.9383849432164890e+01 6.7527972069237752e+00 0.0000000000000000e+00  2.9389904730653058e+01 -6.5390597673870791e-04 0.0000000000000000e+00  2.0749960611535144e+01 -1.3369120829578765e+01 0.0000000000000000e+00  2.0153042489080018e+01 -1.4346570899679030e+01 0.0000000000000000e+00  1.7730751526810522e+01 -2.0809723717286452e+01 0.0000000000000000e+00  2.0815582210536231e+01 -1.6311396365070806e+01 0.0000000000000000e+00  1.6954021483795255e+01 -2.2283985083506781e+01 0.0000000000000000e+00  1.7834637229872566e+01 -2.1153646597759899e+01 0.0000000000000000e+00  1.5274301837920335e+01 -2.5061234161607526e+01 0.0000000000000000e+00  1.7095473323958863e+01 -2.2574523015053611e+01 0.0000000000000000e+00  1.4062964509634133e+01 -2.5273798786973153e+01 0.0000000000000000e+00  1.5452739161302290e+01 -2.3490477996590194e+01 0.0000000000000000e+00  1.2768454503197088e+01 -2.5352969654624285e+01 0.0000000000000000e+00  1.4278680518117175e+01 -2.3443623554435618e+01 0.0000000000000000e+00  1.1653076763503222e+01 -2.4301089384164388e+01 0.0000000000000000e+00  1.3020629513677139e+01 -2.2660985370321537e+01 0.0000000000000000e+00  1.0325484045801806e+01 -2.3133649529683080e+01 0.0000000000000000e+00  1.1941336624232937e+01 -2.1174533886897667e+01 0.0000000000000000e+00  9.3700283013487269e+00 -2.1292933852713158e+01 0.0000000000000000e+00  1.0649647467279161e+01 -1.9891826259431749e+01 0.0000000000000000e+00  8.5866508470345178e+00 -1.9438667408044843e+01 0.0000000000000000e+00  9.7296347057697083e+00 -1.8295471368331853e+01 0.0000000000000000e+00  7.7347337006149015e+00 -1.7746451993719834e+01 0.0000000000000000e+00  8.9813223291406228e+00 -1.6500173286144037e+01 0.0000000000000000e+00  6.9279101004558612e+00 -1.6147937686705298e+01 0.0000000000000000e+00  8.1642683458792256e+00 -1.4968917688120790e+01 0.0000000000000000e+00  6.1700434192877491e+00 -1.4732870072594908e+01 0.0000000000000000e+00  7.3918946109572294e+00 -1.3627091054964840e+01 0.0000000000000000e+00  5.4245619604513529e+00 -1.3438100303650415e+01 0.0000000000000000e+00  6.6681092209464961e+00 -1.2350549913165013e+01 0.0000000000000000e+00  4.7463364482448736e+00 -1.2197946578861441e+01 0.0000000000000000e+00  5.9564037018719729e+00 -1.1210946326670161e+01 0.0000000000000000e+00  4.1431129639217072e+00 -1.1060112410988683e+01 0.0000000000000000e+00  5.3115661340781761e+00 -1.0185328450462009e+01 0.0000000000000000e+00  3.5774031169765914e+00 -9.9720843861601942e+00 0.0000000000000000e+00  4.7413179147062534e+00 -9.1532771377482103e+00 0.0000000000000000e+00  3.0745257152598420e+00 -8.9098776761352845e+00 0.0000000000000000e+00  4.2083022752827439e+00 -8.1849385557196985e+00 0.0000000000000000e+00  2.6434940632942383e+00 -7.9126695237427134e+00 0.0000000000000000e+00  3.7376544734584884e+00 -7.2953108785503247e+00 0.0000000000000000e+00  2.2482544407795864e+00 -6.9090917427594434e+00 0.0000000000000000e+00  3.3386248097017939e+00 -6.3449717513355059e+00 0.0000000000000000e+00  1.9072179281451833e+00 -5.9746347614635678e+00 0.0000000000000000e+00  2.9748267976546576e+00 -5.4917687639455455e+00 0.0000000000000000e+00  1.6199470129645512e+00 -5.0221634252865748e+00 0.0000000000000000e+00  2.6652828109630167e+00 -4.6192527658879632e+00 0.0000000000000000e+00  1.3671282807341805e+00 -4.2076729645786113e+00 0.0000000000000000e+00  2.4084630061992662e+00 -3.8569093812881623e+00 0.0000000000000000e+00  1.1487773801531658e+00 -3.2694017393116708e+00 0.0000000000000000e+00  2.1870124597461764e+00 -2.9687760817384694e+00 0.0000000000000000e+00  9.5764800713852938e-01 -2.7320424635452389e+00 0.0000000000000000e+00  1.9976259377775316e+00 -2.4742259537039137e+00 0.0000000000000000e+00  7.8123138364394262e-01 -1.7824336163605217e+00 0.0000000000000000e+00  1.8386193262727377e+00 -1.5427363155493026e+00 0.0000000000000000e+00  5.4329372933014086e-01 -1.7259290102786795e+00 0.0000000000000000e+00  1.6882761955380685e+00 -1.3999417536279768e+00 0.0000000000000000e+00  1.8242842229094264e-01 -1.2020565476983576e+00 0.0000000000000000e+00  1.4865149260255364e+00 -6.8056964943613563e-01 0.0000000000000000e+00  -6.6127106618790743e-01 -7.3713071782649285e-03 0.0000000000000000e+00  1.1401137133298616e+00 1.2167991621487513e+00 0.0000000000000000e+00  1.8030509035711186e+00 5.6972745231782902e+00 0.0000000000000000e+00  1.3291555674208471e+00 6.3087663636373934e+00 0.0000000000000000e+00  2.2333882157641853e+00 5.8834333885845274e+00 0.0000000000000000e+00  2.7898671182587980e+00 6.8110393954006918e+00 0.0000000000000000e+00  3.4811296658356792e+00 7.3523170696971807e+00 0.0000000000000000e+00  4.0975535990490544e+00 8.1388629030812538e+00 0.0000000000000000e+00  4.6341084439174320e+00 8.5033975965823565e+00 0.0000000000000000e+00  5.3057770378234359e+00 9.1468477962542973e+00 0.0000000000000000e+00  5.8326373463035903e+00 9.4286796517367275e+00 0.0000000000000000e+00  5.8968364478428867e+00 9.0447588243447683e+00 0.0000000000000000e+00  6.9637893578833534e+00 9.8755883306523540e+00 0.0000000000000000e+00  3.8403283451295542e+00 3.9249393913456361e+00 0.0000000000000000e+00  1.4941096855460252e+01 1.9171495315317060e+01 0.0000000000000000e+00  1.4601932638108556e+01 1.7233405633814677e+01 0.0000000000000000e+00  1.4655865253764848e+01 1.5911117884789096e+01 0.0000000000000000e+00  1.5159618145529965e+01 1.5230444999132228e+01 0.0000000000000000e+00  1.6066912270763876e+01 1.5055306454410740e+01 0.0000000000000000e+00  1.7279201735739747e+01 1.5433781494433280e+01 0.0000000000000000e+00  1.8703508958180169e+01 1.5937170094984316e+01 0.0000000000000000e+00  2.0248171646628176e+01 1.6575915758072199e+01 0.0000000000000000e+00  2.1823586988823443e+01 1.7147394660460321e+01 0.0000000000000000e+00  2.3353655566322885e+01 1.7586279944824557e+01 0.0000000000000000e+00  2.4773987199400143e+01 1.7396068672503212e+01 0.0000000000000000e+00  2.6029876896387300e+01 1.7289506832237979e+01 0.0000000000000000e+00  2.7087023684724130e+01 1.5783447711050318e+01 0.0000000000000000e+00  2.7930261224036038e+01 1.4730618223823969e+01 0.0000000000000000e+00  2.8556788202576858e+01 1.1601969367124152e+01 0.0000000000000000e+00  2.8987857910566305e+01 9.4075034595720499e+00 0.0000000000000000e+00  2.9243722110290470e+01 4.8665583395149268e+00 0.0000000000000000e+00  2.9371273402526292e+01 1.1681781551942971e+00 0.0000000000000000e+00  2.9391483888668503e+01 1.3052664206732012e-03 0.0000000000000000e+00  2.9362807669791902e+01 6.8151612888402457e+00 0.0000000000000000e+00  2.9391462847171589e+01 -1.2860112562851560e-03 0.0000000000000000e+00  2.9301252180339997e+01 -5.1302268354219849e-01 0.0000000000000000e+00  2.0104699488588832e+01 -1.7332172207468485e+01 0.0000000000000000e+00  2.0811707976217452e+01 -1.6707709451991732e+01 0.0000000000000000e+00  1.7873254571279876e+01 -2.1492151849108225e+01 0.0000000000000000e+00  1.7177084754496310e+01 -2.1049363106897086e+01 0.0000000000000000e+00  1.5573883970892242e+01 -2.1706942234609368e+01 0.0000000000000000e+00  1.4439211271601133e+01 -2.0796235248218611e+01 0.0000000000000000e+00  1.3218284639219201e+01 -1.9577133872338599e+01 0.0000000000000000e+00  1.2174822299646287e+01 -1.7975486212370203e+01 0.0000000000000000e+00  1.0918038959906191e+01 -1.6936079978287104e+01 0.0000000000000000e+00  1.0032134180216838e+01 -1.5397661120283793e+01 0.0000000000000000e+00  9.3171073588201505e+00 -1.3763284086290348e+01 0.0000000000000000e+00  8.5329927257372145e+00 -1.2488063186997973e+01 0.0000000000000000e+00  7.7929916789195541e+00 -1.1283968332268378e+01 0.0000000000000000e+00  7.1009632302131385e+00 -1.0162303454321835e+01 0.0000000000000000e+00  6.4205308608081202e+00 -9.2365863672099202e+00 0.0000000000000000e+00  5.8063535824451149e+00 -8.3160046035124715e+00 0.0000000000000000e+00  5.2661170215000741e+00 -7.4032027185565976e+00 0.0000000000000000e+00  4.7625274479289104e+00 -6.6068017085138653e+00 0.0000000000000000e+00  4.3207112891030661e+00 -5.7633684601884578e+00 0.0000000000000000e+00  3.9498108357840143e+00 -4.9629064278105464e+00 0.0000000000000000e+00  3.6136680210047039e+00 -4.1710563793745763e+00 0.0000000000000000e+00  3.3309898138615233e+00 -3.4879927173870455e+00 0.0000000000000000e+00  3.1007101569449427e+00 -2.6516090797865637e+00 0.0000000000000000e+00  2.9047008377562058e+00 -2.2065278356012725e+00 0.0000000000000000e+00  2.7410841394450682e+00 -1.3171001693919706e+00 0.0000000000000000e+00  2.6055160185743942e+00 -1.1923841897935399e+00 0.0000000000000000e+00  2.4808034825530343e+00 -3.8703635031507738e-01 0.0000000000000000e+00  2.3005129972707028e+00 1.7169258312143112e+00 0.0000000000000000e+00  2.5161642989674498e+00 4.9856187546704458e+00 0.0000000000000000e+00  2.0880158448148833e+00 5.6680287709307864e+00 0.0000000000000000e+00  2.9912746470149632e+00 5.2370603983674586e+00 0.0000000000000000e+00  3.4228823129937695e+00 5.9766345920538466e+00 0.0000000000000000e+00  3.9788333813865275e+00 6.3171849153009578e+00 0.0000000000000000e+00  4.6675579207346507e+00 7.2177108477367673e+00 0.0000000000000000e+00  5.2790129211338988e+00 7.7042488655378571e+00 0.0000000000000000e+00  5.8075011693586926e+00 8.1470833388709245e+00 0.0000000000000000e+00  6.4680923290693526e+00 8.6484506593206145e+00 0.0000000000000000e+00  6.9807559806721677e+00 8.9609149278450122e+00 0.0000000000000000e+00  7.0275822707311244e+00 8.2891684435115423e+00 0.0000000000000000e+00  8.0753746692155435e+00 8.6245901773811990e+00 0.0000000000000000e+00  4.9340537980928518e+00 2.5319226344293728e+00 0.0000000000000000e+00  1.6020426588693702e+01 1.7753230457676668e+01 0.0000000000000000e+00  1.5667227388373135e+01 1.5844343350784030e+01 0.0000000000000000e+00  1.5702869838995754e+01 1.4493145428114008e+01 0.0000000000000000e+00  1.6181908356884236e+01 1.3717248012666756e+01 0.0000000000000000e+00  1.7057744495280073e+01 1.3643340390643484e+01 0.0000000000000000e+00  1.8231674517983450e+01 1.3833650041121210e+01 0.0000000000000000e+00  1.9610271044600793e+01 1.4296529139671309e+01 0.0000000000000000e+00  2.1102350115482761e+01 1.4826753395911737e+01 0.0000000000000000e+00  2.2618547260719716e+01 1.5338790121537327e+01 0.0000000000000000e+00  2.4081919799369043e+01 1.5316932939350293e+01 0.0000000000000000e+00  2.5429477629149957e+01 1.5462829057165589e+01 0.0000000000000000e+00  2.6605553009876790e+01 1.4257054837993193e+01 0.0000000000000000e+00  2.7578266182613955e+01 1.3531334096654986e+01 0.0000000000000000e+00  2.8330328038151865e+01 1.0725372668847593e+01 0.0000000000000000e+00  2.8865874015437136e+01 8.8346803281568533e+00 0.0000000000000000e+00  2.9198554193686935e+01 4.5392905299614368e+00 0.0000000000000000e+00  2.9368628220313429e+01 1.0609199338839466e+00 0.0000000000000000e+00  2.9393932759034577e+01 1.8678330248619319e-03 0.0000000000000000e+00  2.9344487280730817e+01 6.9762924680029563e+00 0.0000000000000000e+00  2.9393914016445979e+01 -1.8402725438329737e-03 0.0000000000000000e+00  2.9151842299780476e+01 -3.9065379502046144e-01 0.0000000000000000e+00  2.9080566755467853e+01 -3.5785326440222307e+00 0.0000000000000000e+00  1.9941689675881442e+01 -1.7823435704651494e+01 0.0000000000000000e+00  2.0721196016783068e+01 -1.7135167268644313e+01 0.0000000000000000e+00  1.7851828289295963e+01 -2.0057144413395779e+01 0.0000000000000000e+00  1.7221620147647389e+01 -1.9348395923895755e+01 0.0000000000000000e+00  1.5679056433377804e+01 -1.9139187802784114e+01 0.0000000000000000e+00  1.4601754194152022e+01 -1.7787600473218227e+01 0.0000000000000000e+00  1.3433866236797053e+01 -1.6450214635714900e+01 0.0000000000000000e+00  1.2440920133006314e+01 -1.5089051513028339e+01 0.0000000000000000e+00  1.1232434759990024e+01 -1.4106068188905835e+01 0.0000000000000000e+00  1.0393305227772782e+01 -1.2727015708734029e+01 0.0000000000000000e+00  9.7240692345281214e+00 -1.1347596278181996e+01 0.0000000000000000e+00  8.9849915779894260e+00 -1.0209117398335790e+01 0.0000000000000000e+00  8.2891698661533670e+00 -9.1587399043829016e+00 0.0000000000000000e+00  7.6405259130320280e+00 -8.2497006016952934e+00 0.0000000000000000e+00  7.0025270036978995e+00 -7.4278346081860676e+00 0.0000000000000000e+00  6.4297645777631862e+00 -6.6250895336120159e+00 0.0000000000000000e+00  5.9298639530383319e+00 -5.8829309310728792e+00 0.0000000000000000e+00  5.4655717610051351e+00 -5.1312455672069177e+00 0.0000000000000000e+00  5.0618152128185736e+00 -4.4365503941042022e+00 0.0000000000000000e+00  4.7280551687255343e+00 -3.6956397515420369e+00 0.0000000000000000e+00  4.4275936678519461e+00 -3.0926139925078742e+00 0.0000000000000000e+00  4.1799898055966773e+00 -2.3328960908675946e+00 0.0000000000000000e+00  3.9827427337427621e+00 -1.9402867436134885e+00 0.0000000000000000e+00  3.8200785432274613e+00 -1.0951909740711512e+00 0.0000000000000000e+00  3.6858097852201768e+00 -1.0176856211779091e+00 0.0000000000000000e+00  3.5838495643146704e+00 -2.1786263398497610e-01 0.0000000000000000e+00  3.4800597654957941e+00 1.9571978429478831e+00 0.0000000000000000e+00  3.4360382392977709e+00 4.3421192287682446e+00 0.0000000000000000e+00  3.0460095543786747e+00 5.0850259039351720e+00 0.0000000000000000e+00  3.8661911790450896e+00 4.5223616342157316e+00 0.0000000000000000e+00  4.3446128814369480e+00 5.3271474283920464e+00 0.0000000000000000e+00  4.7790768587250714e+00 5.4822478755267054e+00 0.0000000000000000e+00  5.3363300294311626e+00 6.1854278766069140e+00 0.0000000000000000e+00  6.0236426654523187e+00 6.7900693591138772e+00 0.0000000000000000e+00  6.6303163268674616e+00 7.3602187794116070e+00 0.0000000000000000e+00  7.1500373191212478e+00 7.6665303580107382e+00 0.0000000000000000e+00  7.7973693021014423e+00 8.2039292638950396e+00 0.0000000000000000e+00  8.2924380431719893e+00 8.2337953935188235e+00 0.0000000000000000e+00  8.3186097402764219e+00 7.0685600039889405e+00 0.0000000000000000e+00  9.3457118633137188e+00 7.2568246171451625e+00 0.0000000000000000e+00  6.1893480758946300e+00 1.1302692260903149e+00 0.0000000000000000e+00  1.7268637816473905e+01 1.6379176378154117e+01 0.0000000000000000e+00  1.6909214893231326e+01 1.4448456530697051e+01 0.0000000000000000e+00  1.6932483484869692e+01 1.3013653758232303e+01 0.0000000000000000e+00  1.7390188927665228e+01 1.2351921369704419e+01 0.0000000000000000e+00  1.8233911412572084e+01 1.2102107923384818e+01 0.0000000000000000e+00  1.9365351318081341e+01 1.2265823497970858e+01 0.0000000000000000e+00  2.0690769653203489e+01 1.2633194030430321e+01 0.0000000000000000e+00  2.2118653537890832e+01 1.3116668491812105e+01 0.0000000000000000e+00  2.3559657012210259e+01 1.3181380159002009e+01 0.0000000000000000e+00  2.4937404813125266e+01 1.3509713341263147e+01 0.0000000000000000e+00  2.6187311087779015e+01 1.2566195241800392e+01 0.0000000000000000e+00  2.7257101947295705e+01 1.2155824568375632e+01 0.0000000000000000e+00  2.8111950544428908e+01 9.6800790012146756e+00 0.0000000000000000e+00  2.8743433660764577e+01 8.1281591741972257e+00 0.0000000000000000e+00  2.9147085738018973e+01 4.1181226955025840e+00 0.0000000000000000e+00  2.9361996984835873e+01 9.1654094846291245e-01 0.0000000000000000e+00  2.9397169019163112e+01 2.3696068243971888e-03 0.0000000000000000e+00  2.9330404420971888e+01 7.2255009728256230e+00 0.0000000000000000e+00  2.9397151597052481e+01 -2.3316800192519889e-03 0.0000000000000000e+00  2.9032348557542399e+01 5.5329594505133823e-03 0.0000000000000000e+00  2.8736579840358605e+01 -3.44868393005