<?xml version="1.0"?>
<VTKFile type="UnstructuredGrid"  version="0.1"  >
<UnstructuredGrid>
<Piece  NumberOfPoints="1933" NumberOfCells="3640">
<Points>
<DataArray  type="Float64"  NumberOfComponents="3"  format="ascii">-0.2935387334421146 -0.003392467914875741 0  4.706461333615606 -0.003304290100193416 0  4.706329038459347 7.496695862895128 0  -0.2936710489501462 7.496607653536428 0  9.706461449563587 -0.003216223280453567 0  9.706329179930588 7.496783932009508 0  14.70646167359159 -0.003128248634476145 0  14.70632939537056 7.496871900751286 0  19.70646205310361 -0.003040311106328957 0  19.70632969990497 7.496959831117714 0  24.7064626216504 -0.002952337810382497 0  24.70633010387554 7.497047798145057 0  29.70646340069323 -0.00286424631641158 0  29.70633061219158 7.497135884720349 0  34.70646440193076 -0.002775948044869489 0  34.7063312238414 7.49722417929513 0  39.70646562919245 -0.002687349103922735 0  39.70633193151239 7.497312775454157 0  44.70646707966672 -0.002598349686686968 0  44.70633272114275 7.497401772657208 0  49.7064687444631 -0.002508842566248287 0  49.70633357124012 7.497491277776897 0  54.70647060855399 -0.002418710919396681 0  54.70633445183699 7.497581407261558 0  59.70647265011031 -0.002327825531173238 0  59.70633532295414 7.497672289890318 0  64.70647483919788 -0.00223604131134653 0  64.70633613242299 7.497764070188988 0  69.70647713571439 -0.002143192952214767 0  69.70633681287494 7.497856912662556 0  74.70647948635522 -0.002049089448977752 0  74.70633727762909 7.497951007089959 0  79.70648182023101 -0.001953507067032618 0  79.70633741509747 7.498046575233306 0  84.70648404253066 -0.001856180150187115 0  84.70633708118572 7.498143879445986 0  89.70648602521551 -0.001756788887679147 0  89.70633608895369 7.498243233829696 0  94.70648759306759 -0.001654942752239553 0  94.70633419455311 7.498345018780558 0  99.70648850222075 -0.001550157729122925 0  99.70633107819907 7.498449699938376 0  104.7064884062138 -0.001441824615149527 0  104.7063263187436 7.498557852584637 0  109.7064868007662 -0.001329164549255804 0  109.7063193606642 7.498670192092336 0  114.7064829315001 -0.001211166675211318 0  114.7063094736813 7.49878760933291 0  119.70647563585 -0.001086502100546442 0  119.7062957095482 7.49891120519793 0  124.7064630663131 -0.0009534103647721166 0  124.7062768717697 7.499042306677718 0  129.7064421972013 -0.0008095664024492569 0  129.7062515405282 7.49918242003765 0  134.7064079329987 -0.0006519787558580194 0  134.7062182548414 7.499333018728066 0  139.7063514778679 -0.0004771133809924442 0  139.706176084512 7.499494951043128 0  144.7062573148182 -0.0002819404605270629 0  144.7061261083406 7.499667089423157 0  149.7060974486063 -6.856818378608444e-05 0  149.7060749659526 7.499843940498032 0  159.7061073738523 1.001119865048206e-18 0  164.706084880991 -9.599172322994541e-05 0  164.7061059316616 7.499880560650591 0  159.7061019474885 7.499946232297896 0  169.7060971485213 -0.0001444446728330733 0  169.7061095067611 7.499844182402486 0  174.706123325929 -0.0001598448410832218 0  174.7061165849286 7.499834374760879 0  179.7061538512643 -0.0001513624589704401 0  179.7061268993632 7.499845657496975 0  184.7061843539103 -0.0001253580556381119 0  184.7061392952496 7.499873119421639 0  189.7062129343822 -8.63465486790427e-05 0  189.7061526747435 7.499912906069403 0  194.7062388773163 -3.756408303442547e-05 0  194.7061662168556 7.499962106611957 0  199.7062620269927 1.864621654597151e-05 0  199.7061793738356 7.500018544507074 0  204.7062824817565 8.0566575342912e-05 0  204.7061918108749 7.500080589202096 0  209.7063004447623 0.0001469198334986021 0  209.7062033435099 7.500147009974262 0  214.7063161519845 0.0002167423651408387 0  214.7062138875438 7.500216868314138 0  219.7063298385111 0.0002892963936392378 0  219.7062234228815 7.500289440260122 0  224.7063417237831 0.0003640089777716019 0  224.7062319687564 7.500364160612849 0  229.7063520061418 0.0004404290379744591 0  229.7062395673194 7.500440582723714 0  234.7063608618737 0.0005181966543240236 0  234.7062462730472 7.500518349272475 0  239.7063684463601 0.0005970208001754042 0  239.7062521460797 7.500597170806657 0  244.7063748961521 0.0006766629564367329 0  244.7062572481792 7.500676809804259 0  249.7063803313969 0.0007569248965725907 0  249.7062616404206 7.500757068715139 0  254.7063848583655 0.0008376394932058291 0  254.7062653820282 7.500837780919648 0  259.7063885719763 0.0009186637764198005 0  259.7062685299636 7.500918803880372 0  264.7063915583117 0.0009998737401813547 0  264.7062711390078 7.50100001400571 0  269.706393897137 0.001081160593882813 0  269.706273262164 7.501081302928504 0  274.7063956644716 0.001162428325558275 0  274.7062749512317 7.501162575055759 0  279.7063969352358 0.001243592611607792 0  279.7062762574456 7.501243746388262 0  284.7063977859466 0.001324581304761564 0  284.7062772320594 7.501324744758461 0  289.7063982972844 0.001405336992418455 0  289.7062779267281 7.501405511802724 0  294.7063985560899 0.001485822478790536 0  294.7062783936062 7.501486007170586 0  299.7063986556548 0.001566030518804525 0  299.7062786851412 7.501566215660255 0  304.7063986918883 0.001645999554550252 0  304.7062788540415 7.501646158121807 0  309.7063987499984 0.001725836489108679 0  309.7062789550931 7.501725907263384 0  4.706196498876976 14.99669617776767 0  -0.293803585892888 14.99660794512623 0  9.706196608520003 14.99678421711228 0  14.70619675284152 14.99687214286677 0  19.70619693314207 14.99696003149698 0  24.70619714614234 14.99704796201534 0  29.70619738477708 14.99713601718675 0  34.70619763781657 14.99722428387717 0  39.70619788907421 14.99731285363303 0  44.70619811643385 14.99740182373571 0  49.70619829071978 14.99749129874482 0  54.70619837435576 14.99758139251359 0  59.70619831972952 14.99767223068947 0  64.70619806717175 14.99776395375455 0  69.70619754245125 14.99785672070268 0  74.70619665369662 14.99795071348869 0  79.70619528767016 14.99804614241225 0  84.70619330538491 14.998143252602 0  89.70619053718752 14.9982423317134 0  94.70618677773078 14.99834371877642 0  99.70618178181658 14.9984478136936 0  104.7061752631869 14.99855508592525 0  109.7061669002589 14.99866607890472 0  114.7061563561536 14.99878140276615 0  119.706143325795 14.99890170038475 0  124.7061276309909 14.99902755775241 0  129.7061093947742 14.99915930512467 0  134.7060893346365 14.99929661492895 0  139.7060692052935 14.99943774222104 0  144.706052350479 14.99957817308542 0  149.7060440649014 14.99970830304616 0  164.7060836302397 14.99981515799509 0  159.7060766344158 14.99982925041808 0  169.7060847163786 14.99980892761126 0  174.7060844186886 14.99981570279185 0  179.7060848875606 14.99983597266102 0  184.7060867853473 14.99986829007309 0  189.7060900694719 14.99991069564902 0  194.7060944322222 14.99996130155287 0  199.7060995125632 15.00001848340312 0  204.7061049849392 15.00008091003966 0  209.7061105878016 15.00014751417777 0  214.7061161252126 15.00021744725094 0  219.7061214580959 15.00029003523317 0  224.7061264928539 15.00036474090138 0  229.706131170597 15.00044113342164 0  234.7061354581352 15.00051886449532 0  239.7061393408848 15.00059764987344 0  244.7061428175047 15.00067725508944 0  249.7061458959464 15.000757484452 0  254.706148590599 15.00083817255043 0  259.7061509202713 15.00091917771694 0  264.706152906771 15.00100037704689 0  269.706154573925 15.00108166270853 0  274.7061559468897 15.00116293937948 0  279.706157051661 15.00124412273488 0  284.7061579147465 15.00132513897847 0  289.706158563004 15.00140592544084 0  294.7061590238669 15.00148643222665 0  299.7061593263449 15.00156662470412 0  304.7061595037343 15.00164648613286 0  309.7061595996612 15.00172601862254 0  4.70606390097629 22.49669672324512 0  -0.2939361767920547 22.49660856406771 0  9.70606397697791 22.49678466827356 0  14.706064049959 22.49687249666509 0  19.70606411380337 22.49696029390313 0  24.70606415873047 22.49704814128994 0  29.70606417186567 22.49713612011433 0  34.70606413710121 22.49722431391584 0  39.70606403452556 22.49731281001432 0  44.7060638396275 22.49740170088889 0  49.70606352238227 22.49749108566673 0  54.70606304625856 22.49758107183284 0  59.70606236716659 22.4976717772095 0  64.70606143236648 22.49776333223026 0  69.70606017939195 22.49785588251413 0  74.70605853510359 22.49794959171601 0  79.70605641509017 22.49804464456331 0  84.70605372380605 22.49814124986208 0  89.70605035610002 22.49823964301348 0  94.7060462012097 22.49834008714516 0  99.70604115091437 22.4984428711897 0  104.7060351144306 22.49854830192021 0  109.7060280438116 22.49865668474285 0  114.7060199749631 22.49876828449642 0  119.706011090445 22.49888325210199 0  124.706001809798 22.49900149539317 0  129.7059929084475 22.49912246382322 0  134.7059856519852 22.49924481181545 0  139.7059818997087 22.49936591928445 0  144.7059840680138 22.49948132123829 0  149.705994747685 22.49958434508339 0  164.7060290633212 22.49973994971239 0  159.7060230736573 22.4997184858684 0  169.7060297203709 22.499760725442 0  174.7060274204538 22.49978603143603 0  179.7060240984441 22.49981831068672 0  184.7060209504348 22.49985816676976 0  189.706018561969 22.49990521236408 0  194.7060171235372 22.49995863168818 0  199.7060166065036 22.50001749315598 0  204.7060168792134 22.50008090151569 0  209.7060177750764 22.50014806018667 0  214.7060191286637 22.50021828779137 0  219.7060207925108 22.50029101346471 0  224.7060226431073 22.50036576375772 0  229.7060245812799 22.50044214740983 0  234.7060265299751 22.50051984080693 0  239.7060284310801 22.50059857520723 0  244.7060302421268 22.50067812598734 0  249.7060319332562 22.50075830380458 0  254.7060334846035 22.50083894744124 0  259.7060348840985 22.50091991807738 0  264.706036125672 22.5010010947628 0  269.7060372077938 22.50108237089808 0  274.7060381323042 22.50116365157083 0  279.7060389035255 22.5012448516146 0  284.7060395276642 22.50132589424642 0  289.7060400126173 22.50140671007631 0  294.7060403683933 22.50148723611699 0  299.7060406084829 
[...]
<PointData  Vectors="v"> 
<DataArray  type="Float64"  Name="v"  NumberOfComponents="3" format="ascii">-3.6606255444798648e+00 1.6118806793923410e+00 0.0000000000000000e+00  -3.5150125617747250e+00 1.8445069297264585e+00 0.0000000000000000e+00  -2.8979961234503189e+00 1.6260939737060118e+00 0.0000000000000000e+00  -3.0050471674930854e+00 1.4520457804088018e+00 0.0000000000000000e+00  -3.2703263986184554e+00 2.3595234997817820e+00 0.0000000000000000e+00  -2.7523192130690419e+00 1.9929139698919649e+00 0.0000000000000000e+00  -2.9646656444000739e+00 3.0911075577115898e+00 0.0000000000000000e+00  -2.5079354345772993e+00 2.6331159876864167e+00 0.0000000000000000e+00  -2.6062809080908034e+00 3.8030358902974486e+00 0.0000000000000000e+00  -2.2028007146367767e+00 3.2664948294168563e+00 0.0000000000000000e+00  -2.2000042318590372e+00 4.6444168072670307e+00 0.0000000000000000e+00  -1.8452724278676245e+00 4.0365424582814375e+00 0.0000000000000000e+00  -1.8041325594886972e+00 5.4007265364109189e+00 0.0000000000000000e+00  -1.4406717759300469e+00 4.8087852835523828e+00 0.0000000000000000e+00  -1.6321038507447709e+00 5.8222420206339613e+00 0.0000000000000000e+00  -1.0470038495203045e+00 5.5669733297995467e+00 0.0000000000000000e+00  -1.1324347481323842e+00 6.6858333911808980e+00 0.0000000000000000e+00  -8.7786437421314112e-01 5.9398073430273355e+00 0.0000000000000000e+00  -3.0268178035116042e+00 3.9575456234506508e+00 0.0000000000000000e+00  -3.8225103762320101e-01 6.8032338223131630e+00 0.0000000000000000e+00  1.3452287285541091e+00 1.0503868920400325e+01 0.0000000000000000e+00  -2.2815896290975841e+00 3.9508299646627094e+00 0.0000000000000000e+00  -2.9114852888019144e-02 8.2003387061324933e+00 0.0000000000000000e+00  2.0856294144955938e+00 1.0267451562897630e+01 0.0000000000000000e+00  -3.1635592880029517e-01 7.5316396371930292e+00 0.0000000000000000e+00  7.0476163979741857e-01 7.9703798744682830e+00 0.0000000000000000e+00  1.9564557768793515e-02 7.8390403609680277e+00 0.0000000000000000e+00  4.0849525129701730e-01 7.3450055375292642e+00 0.0000000000000000e+00  8.0890255195511374e-01 8.8241925984431955e+00 0.0000000000000000e+00  7.3333312819606999e-01 7.6524516626324699e+00 0.0000000000000000e+00  1.8665602339726888e+00 1.0152640760123621e+01 0.0000000000000000e+00  1.5083287076336227e+00 8.5798212028729086e+00 0.0000000000000000e+00  3.1365586377605732e+00 1.1681765515753474e+01 0.0000000000000000e+00  2.5494855781284733e+00 9.7934397555003656e+00 0.0000000000000000e+00  4.5742936738755802e+00 1.3372192110266365e+01 0.0000000000000000e+00  3.8006223668656069e+00 1.1234703371643025e+01 0.0000000000000000e+00  6.1349424479619055e+00 1.5039216067192118e+01 0.0000000000000000e+00  5.2154980687691737e+00 1.2719327364550075e+01 0.0000000000000000e+00  7.7828277325541873e+00 1.6676539104318511e+01 0.0000000000000000e+00  6.7509230157380671e+00 1.4229788829183363e+01 0.0000000000000000e+00  9.4776123998957615e+00 1.8200819178095596e+01 0.0000000000000000e+00  8.3697828909066754e+00 1.5686202015518340e+01 0.0000000000000000e+00  1.1152416168926370e+01 1.9510236945039164e+01 0.0000000000000000e+00  1.0031732857199243e+01 1.7029407849187269e+01 0.0000000000000000e+00  1.2744991886382184e+01 2.0422060100359548e+01 0.0000000000000000e+00  1.1668645468372311e+01 1.8067361784419973e+01 0.0000000000000000e+00  1.4202864743470837e+01 2.1035742370331509e+01 0.0000000000000000e+00  1.3221632902711480e+01 1.8889458400453748e+01 0.0000000000000000e+00  1.5452925249738518e+01 2.0835684501523026e+01 0.0000000000000000e+00  1.4630226618410857e+01 1.9000152180399350e+01 0.0000000000000000e+00  1.6476841320365349e+01 2.0159728359750019e+01 0.0000000000000000e+00  1.5833656843486827e+01 1.8675823508520690e+01 0.0000000000000000e+00  1.7227301960324944e+01 1.8277118675262514e+01 0.0000000000000000e+00  1.6794782868703017e+01 1.7195303015094737e+01 0.0000000000000000e+00  1.7742160992809726e+01 1.5453883310461920e+01 0.0000000000000000e+00  1.7492936180167224e+01 1.4747977133879028e+01 0.0000000000000000e+00  1.8011284177331277e+01 1.1411094668152606e+01 0.0000000000000000e+00  1.7928432682081592e+01 1.1052951354987924e+01 0.0000000000000000e+00  1.8136907552117531e+01 4.7722822035251760e+00 0.0000000000000000e+00  1.8141642051630523e+01 4.6683487489387749e+00 0.0000000000000000e+00  1.8163558468571644e+01 -3.2712796800158597e-05 0.0000000000000000e+00  1.8163235005530730e+01 -3.7068967539000467e-04 0.0000000000000000e+00  1.8163563200049790e+01 2.5245871853050632e-19 0.0000000000000000e+00  1.3886583673992781e+01 -1.1545642026782742e+01 0.0000000000000000e+00  1.8132907931071713e+01 -5.1655677947556455e+00 0.0000000000000000e+00  1.8163249644747921e+01 2.9279542437290177e-04 0.0000000000000000e+00  1.2624974638168322e+01 -2.0106845442427769e+01 0.0000000000000000e+00  1.3905595489933880e+01 -1.8283648583473195e+01 0.0000000000000000e+00  1.0752048468654021e+01 -2.3968797696881538e+01 0.0000000000000000e+00  1.2702690047399738e+01 -2.1195910858741076e+01 0.0000000000000000e+00  9.6683362514567843e+00 -2.4786673931435026e+01 0.0000000000000000e+00  1.0884420368536727e+01 -2.3209144961278330e+01 0.0000000000000000e+00  8.4453807492206128e+00 -2.4339747793622053e+01 0.0000000000000000e+00  9.8497602069853745e+00 -2.2545069372524800e+01 0.0000000000000000e+00  7.4357430895601508e+00 -2.2819192122545264e+01 0.0000000000000000e+00  8.6725068883076268e+00 -2.1345059188547800e+01 0.0000000000000000e+00  6.4874888751145274e+00 -2.1035528233393244e+01 0.0000000000000000e+00  7.7074236796076017e+00 -1.9648689038146120e+01 0.0000000000000000e+00  5.6357031263678499e+00 -1.9025436290899783e+01 0.0000000000000000e+00  6.7998083754612271e+00 -1.7783834229214158e+01 0.0000000000000000e+00  4.7476082508141024e+00 -1.7212477732625526e+01 0.0000000000000000e+00  5.9867636335263974e+00 -1.5913338447759065e+01 0.0000000000000000e+00  4.0382233206344464e+00 -1.5475892784207364e+01 0.0000000000000000e+00  5.1359584744666371e+00 -1.4443676557266485e+01 0.0000000000000000e+00  3.4066740699121270e+00 -1.3962033475167820e+01 0.0000000000000000e+00  4.4617304125563191e+00 -1.3045437776348068e+01 0.0000000000000000e+00  2.7539961602614773e+00 -1.2748068819591522e+01 0.0000000000000000e+00  3.8638318705052273e+00 -1.1798523741749369e+01 0.0000000000000000e+00  2.1591728172273128e+00 -1.1689331534017141e+01 0.0000000000000000e+00  3.2437977111279452e+00 -1.0825268326966267e+01 0.0000000000000000e+00  1.6219719202988594e+00 -1.0767516292145245e+01 0.0000000000000000e+00  2.6801180278104511e+00 -9.9892359077608948e+00 0.0000000000000000e+00  1.1404322640785789e+00 -9.9238251228954173e+00 0.0000000000000000e+00  2.1729537625795952e+00 -9.2280139352901465e+00 0.0000000000000000e+00  7.2400102457385929e-01 -9.1206388421240518e+00 0.0000000000000000e+00  1.7206391865838579e+00 -8.5216736209429289e+00 0.0000000000000000e+00  3.6765644573588363e-01 -8.3629103945941790e+00 0.0000000000000000e+00  1.3324354436347690e+00 -7.8535279077878011e+00 0.0000000000000000e+00  5.5913098622403637e-02 -7.6218636470555508e+00 0.0000000000000000e+00  1.0035167977055581e+00 -7.1787674946991267e+00 0.0000000000000000e+00  -2.0796197022953564e-01 -6.8969724089401820e+00 0.0000000000000000e+00  7.1868311392787354e-01 -6.5250815098570660e+00 0.0000000000000000e+00  -4.2890042189814831e-01 -6.1819183507993696e+00 0.0000000000000000e+00  4.8100259993973282e-01 -5.8741544473492890e+00 0.0000000000000000e+00  -6.1373082702086013e-01 -5.4778233208244353e+00 0.0000000000000000e+00  2.8587085554871222e-01 -5.2236984813889276e+00 0.0000000000000000e+00  -7.6306314803157482e-01 -4.7569754661081198e+00 0.0000000000000000e+00  1.2629773037655651e-01 -4.5559620368235958e+00 0.0000000000000000e+00  -8.7010290337704088e-01 -4.0785679754644537e+00 0.0000000000000000e+00  2.1602368674823332e-03 -3.9404203474243071e+00 0.0000000000000000e+00  -9.4488280637706912e-01 -3.3247617165142591e+00 0.0000000000000000e+00  -8.0564209101446946e-02 -3.2353697456624326e+00 0.0000000000000000e+00  -9.7339846520631101e-01 -2.6945603994048946e+00 0.0000000000000000e+00  -1.3025597319651766e-01 -2.6733084653790904e+00 0.0000000000000000e+00  -9.6001459195490257e-01 -1.8769466390144489e+00 0.0000000000000000e+00  -1.3561312864940928e-01 -1.9202020828093314e+00 0.0000000000000000e+00  -8.9569356727354932e-01 -1.3961392199159530e+00 0.0000000000000000e+00  -9.6449793257042296e-02 -1.5126348846047102e+00 0.0000000000000000e+00  -7.6611010771050125e-01 -4.2851944218869392e-01 0.0000000000000000e+00  -1.1204006671500460e-02 -6.4783041269316333e-01 0.0000000000000000e+00  -5.2209474146243517e-01 5.1187490884820719e-02 0.0000000000000000e+00  1.4756246151469790e-01 -3.3081722990098378e-01 0.0000000000000000e+00  5.9422180225747398e-02 2.8485052702731251e-01 0.0000000000000000e+00  4.0325038656182199e-01 -6.2088854494427681e-01 0.0000000000000000e+00  -2.0119661717822237e+00 1.4645109193899228e+00 0.0000000000000000e+00  -2.1197360956361715e+00 1.2926632262440021e+00 0.0000000000000000e+00  -1.9032342437365763e+00 1.7730681100807331e+00 0.0000000000000000e+00  -1.7553189619590166e+00 2.2653493699049640e+00 0.0000000000000000e+00  -1.5087496018557871e+00 2.8076909086725399e+00 0.0000000000000000e+00  -1.2017224621685909e+00 3.4990753510169696e+00 0.0000000000000000e+00  -8.4256635564152438e-01 4.2014187521044200e+00 0.0000000000000000e+00  -4.3720893574960884e-01 4.9767585413179241e+00 0.0000000000000000e+00  -4.4136176963122206e-02 5.6866201874283693e+00 0.0000000000000000e+00  1.2328502559175708e-01 6.0620030729634289e+00 0.0000000000000000e+00  6.1464996648850878e-01 6.8038998019855272e+00 0.0000000000000000e+00  -1.2899426378918308e+00 3.7166309756260958e+00 0.0000000000000000e+00  3.0780281603720878e+00 1.0041032023903936e+01 0.0000000000000000e+00  1.6967706201417485e+00 7.7935909821849112e+00 0.0000000000000000e+00  1.3933124376594679e+00 7.1702958597161812e+00 0.0000000000000000e+00  1.7073732291705563e+00 7.4269959196980579e+00 0.0000000000000000e+00  2.4659513262280246e+00 8.2435099509411636e+00 0.0000000000000000e+00  3.4864078575700477e+00 9.3712602868665869e+00 0.0000000000000000e+00  4.7132181233828065e+00 1.0614407883486463e+01 0.0000000000000000e+00  6.0982559216081302e+00 1.1947180994082686e+01 0.0000000000000000e+00  7.5982934622687681e+00 1.3279767260659735e+01 0.0000000000000000e+00  9.1772240884735812e+00 1.4564949702146290e+01 0.0000000000000000e+00  1.0790969094220838e+01 1.5642846596761695e+01 0.0000000000000000e+00  1.2373003534448319e+01 1.6596831274179319e+01 0.0000000000000000e+00  1.3862213322827719e+01 1.6927105119210221e+01 0.0000000000000000e+00  1.5198975976478813e+01 1.6922858149513893e+01 0.0000000000000000e+00  1.6316421275129205e+01 1.5798908204233417e+01 0.0000000000000000e+00  1.7188773559662447e+01 1.3776487460917593e+01 0.0000000000000000e+00  1.7771180062684241e+01 1.0443143684993496e+01 0.0000000000000000e+00  1.8104105261921951e+01 4.4616399166529828e+00 0.0000000000000000e+00  1.8162460764740519e+01 -7.0458117338940886e-04 0.0000000000000000e+00  1.8092153396917833e+01 -4.9695997017585478e+00 0.0000000000000000e+00  1.8162478964284809e+01 5.7392043422628081e-04 0.0000000000000000e+00  1.7901121960166702e+01 -1.1961372046013361e+01 0.0000000000000000e+00  1.3744342173535973e+01 -1.9449031237138044e+01 0.0000000000000000e+00  1.2627779156250803e+01 -2.0524204802967148e+01 0.0000000000000000e+00  1.0877515690585271e+01 -2.1033173249549357e+01 0.0000000000000000e+00  9.9063876486225908e+00 -1.9608903772455477e+01 0.0000000000000000e+00  8.7808311311157716e+00 -1.8234189990456944e+01 0.0000000000000000e+00  7.8664035511457930e+00 -1.6448594610100585e+01 0.0000000000000000e+00  7.0024261818140712e+00 -1.4718319117156755e+01 0.0000000000000000e+00  6.2298073073737861e+00 -1.3191051126093170e+01 0.0000000000000000e+00  5.4168433669614737e+00 -1.2055700790194779e+01 0.0000000000000000e+00  4.7779674701845574e+00 -1.0921448575788572e+01 0.0000000000000000e+00  4.2129956529697106e+00 -9.9148751502234269e+00 0.0000000000000000e+00  3.6246758499363736e+00 -9.1618616473721968e+00 0.0000000000000000e+00  3.0907795243508032e+00 -8.4842239588818256e+00 0.0000000000000000e+00  2.6116669330685700e+00 -7.8597513865509638e+00 0.0000000000000000e+00  2.1862462309433806e+00 -7.2867879404736007e+00 0.0000000000000000e+00  1.8235856052549959e+00 -6.7001097068869422e+00 0.0000000000000000e+00  1.5189904367873275e+00 -6.1122148427186778e+00 0.0000000000000000e+00  1.2576787288733586e+00 -5.5314506682435480e+00 0.0000000000000000e+00  1.0426894575456156e+00 -4.9442052025764633e+00 0.0000000000000000e+00  8.6946411574768945e-01 -4.3297746756897020e+00 0.0000000000000000e+00  7.3141745125681656e-01 -3.7667561407226917e+00 0.0000000000000000e+00  6.2816975023663812e-01 -3.1240027127036925e+00 0.0000000000000000e+00  5.6616356352961228e-01 -2.6105574331706021e+00 0.0000000000000000e+00  5.3646965527085877e-01 -1.9251538743278944e+00 0.0000000000000000e+00  5.5155472671634509e-01 -1.5816026859508925e+00 0.0000000000000000e+00  6.0940849529931951e-01 -7.9015388633019112e-01 0.0000000000000000e+00  7.1528764205291817e-01 -5.7629766468560306e-01 0.0000000000000000e+00  8.9139991568756138e-01 -1.0201186595181264e+00 0.0000000000000000e+00  -7.0305875591419287e-01 1.3006103220385239e+00 0.0000000000000000e+00  -7.9500021201789883e-01 1.1581974769933026e+00 0.0000000000000000e+00  -5.9157497189211394e-01 1.6061708364822318e+00 0.0000000000000000e+00  -4.7659186962622735e-01 2.0395262126896525e+00 0.0000000000000000e+00  -3.2239022348634744e-01 2.4334034476428195e+00 0.0000000000000000e+00  -6.8780346132596176e-02 3.0341188702224930e+00 0.0000000000000000e+00  2.4536148301051336e-01 3.6590012091475574e+00 0.0000000000000000e+00  6.1052292782111917e-01 4.3655873795144409e+00 0.0000000000000000e+00  1.0208116244759597e+00 5.0955087764666516e+00 0.0000000000000000e+00  1.4165739092080800e+00 5.8119911416331558e+00 0.0000000000000000e+00  1.5825737322740343e+00 6.0707987614716989e+00 0.0000000000000000e+00  2.0686285925446373e+00 6.5778439647581308e+00 0.0000000000000000e+00  1.6361946174260381e-01 3.4835202432804850e+00 0.0000000000000000e+00  4.5444216263131070e+00 9.8578061489823003e+00 0.0000000000000000e+00  3.1739252593503302e+00 7.6286989689588580e+00 0.0000000000000000e+00  2.8684390971521934e+00 6.9652116487158846e+00 0.0000000000000000e+00  3.1707579946570901e+00 7.1209858848281851e+00 0.0000000000000000e+00  3.9095735650384027e+00 7.8618280440942137e+00 0.0000000000000000e+00  4.9031458232153140e+00 8.8010670861557543e+00 0.0000000000000000e+00  6.0946803988345524e+00 9.9017904663568004e+00 0.0000000000000000e+00  7.4369298887004014e+00 1.1068723905142273e+01 0.0000000000000000e+00  8.8856807265841589e+00 1.2243955538293077e+01 0.0000000000000000e+00  1.0401029513792468e+01 1.3275974709858334e+01 0.0000000000000000e+00  1.1940650684021719e+01 1.4291700419171981e+01 0.0000000000000000e+00  1.3431612495862110e+01 1.4767304133184952e+01 0.0000000000000000e+00  1.4816195653693216e+01 1.5013394774715435e+01 0.0000000000000000e+00  1.6023067482828623e+01 1.4218741698403457e+01 0.0000000000000000e+00  1.6999159343430588e+01 1.2607506238637578e+01 0.0000000000000000e+00  1.7688084865697363e+01 9.6758677525642298e+00 0.0000000000000000e+00  1.8095461692039670e+01 4.1774268900607865e+00 0.0000000000000000e+00  1.8161253034591105e+01 -1.0064910822906023e-03 0.0000000000000000e+00  1.8071574826435100e+01 -4.6245176620236244e+00 0.0000000000000000e+00  1.8161269312772131e+01 8.1979763009383587e-04 0.0000000000000000e+00  1.7669853438935629e+01 -1.1611409168615443e+01 0.0000000000000000e+00  1.7468594257126565e+01 -1.3303160682785517e+01 0.0000000000000000e+00  1.3435501639694023e+01 -1.8957923471931281e+01 0.0000000000000000e+00  1.2457560053711372e+01 -1.8487692618098503e+01 0.0000000000000000e+00  1.0815478008292441e+01 -1.8229319649560431e+01 0.0000000000000000e+00  9.9376625122364324e+00 -1.6604955248274010e+01 0.0000000000000000e+00  8.8902424994864973e+00 -1.5133565939841496e+01 0.0000000000000000e+00  8.0464977418052630e+00 -1.3471172082784099e+01 0.0000000000000000e+00  7.2435641283132819e+00 -1.2076935796960059e+01 0.0000000000000000e+00  6.5273804617595097e+00 -1.0877018659098511e+01 0.0000000000000000e+00  5.7658381198156894e+00 -1.0001773230390784e+01 0.0000000000000000e+00  5.1748558158167439e+00 -9.1032853637604987e+00 0.0000000000000000e+00  4.6551854167659101e+00 -8.3134907131544384e+00 0.0000000000000000e+00  4.1096243155913275e+00 -7.7156013155459258e+00 0.0000000000000000e+00  3.6157013070094028e+00 -7.1712915597855744e+00 0.0000000000000000e+00  3.1742940070538039e+00 -6.6771537426614884e+00 0.0000000000000000e+00  2.7842948988750962e+00 -6.1832261612033301e+00 0.0000000000000000e+00  2.4549854131716895e+00 -5.6809248378084050e+00 0.0000000000000000e+00  2.1820383127652043e+00 -5.1640281811407771e+00 0.0000000000000000e+00  1.9509427008887894e+00 -4.6452567339943061e+00 0.0000000000000000e+00  1.7647944018087725e+00 -4.0928006702057846e+00 0.0000000000000000e+00  1.6196030315725454e+00 -3.5816118390945606e+00 0.0000000000000000e+00  1.5085101231584128e+00 -2.9910832742391475e+00 0.0000000000000000e+00  1.4319578293205164e+00 -2.5381213107032741e+00 0.0000000000000000e+00  1.3953479717083168e+00 -1.9023494521649806e+00 0.0000000000000000e+00  1.3917337197893118e+00 -1.6227746734788355e+00 0.0000000000000000e+00  1.4299948644609750e+00 -8.9988246810038353e-01 0.0000000000000000e+00  1.5148037101581167e+00 -7.4950847400894094e-01 0.0000000000000000e+00  1.6375607778728936e+00 -1.3086102810774733e+00 0.0000000000000000e+00  5.0199262683900314e-01 1.1594983166169075e+00 0.0000000000000000e+00  4.3027727945758348e-01 1.0553443176929862e+00 0.0000000000000000e+00  5.9908987010997083e-01 1.4331610821629863e+00 0.0000000000000000e+00  7.2005858734565542e-01 1.8593462354047123e+00 0.0000000000000000e+00  8.4643971889321090e-01 2.1933583156740450e+00 0.0000000000000000e+00  1.0137970076182827e+00 2.6443174563613945e+00 0.0000000000000000e+00  1.2812685951236871e+00 3.1778159128295878e+00 0.0000000000000000e+00  1.6096637122580413e+00 3.8085171932313417e+00 0.0000000000000000e+00  1.9882844841422012e+00 4.4720859519316303e+00 0.0000000000000000e+00  2.4095079108752890e+00 5.2126270687195442e+00 0.0000000000000000e+00  2.8118679125637254e+00 5.8207379140438373e+00 0.0000000000000000e+00  2.9794008487600285e+00 5.8497125375770764e+00 0.0000000000000000e+00  3.4655181213623223e+00 6.3353800017594351e+00 0.0000000000000000e+00  1.5750999479106893e+00 3.2639946292078679e+00 0.0000000000000000e+00  5.9922182921717422e+00 9.6604259901326408e+00 0.0000000000000000e+00  4.6523755847286976e+00 7.4140234400392568e+00 0.0000000000000000e+00  4.3591483275235863e+00 6.6669431017967247e+00 0.0000000000000000e+00  4.6615606211151617e+00 6.7618837069077529e+00 0.0000000000000000e+00  5.3883886993765593e+00 7.3241971052813701e+00 0.0000000000000000e+00  6.3620318041139230e+00 8.1355399557942238e+00 0.0000000000000000e+00  7.5246104399646461e+00 9.0824316543336767e+00 0.0000000000000000e+00  8.8278109424193048e+00 1.0106000030005639e+01 0.0000000000000000e+00  1.0225903234334876e+01 1.1046921394259508e+01 0.0000000000000000e+00  1.1677797096098791e+01 1.2041016822798150e+01 0.0000000000000000e+00  1.3133054944833395e+01 1.2597991580486484e+01 0.0000000000000000e+00  1.4522864140074889e+01 1.3031517884324790e+01 0.0000000000000000e+00  1.5772915192404078e+01 1.2506652256256142e+01 0.0000000000000000e+00  1.6827137052164797e+01 1.1295218887866529e+01 0.0000000000000000e+00  1.7594158171515627e+01 8.7646958905465286e+00 0.0000000000000000e+00  1.8073776761090549e+01 3.8217324323174293e+00 0.0000000000000000e+00  1.8159659643165352e+01 -1.2745027833813644e-03 0.0000000000000000e+00  1.8048157702207650e+01 -4.1884938554870637e+00 0.0000000000000000e+00  1.8159674442456186e+01 1.0367798074227992e-03 0.0000000000000000e+00  1.7543826366260042e+01 -1.0837321300613823e+01 0.