<?xml version="1.0"?>
<VTKFile type="UnstructuredGrid"  version="0.1"  >
<UnstructuredGrid>
<Piece  NumberOfPoints="1933" NumberOfCells="3640">
<Points>
<DataArray  type="Float64"  NumberOfComponents="3"  format="ascii">0.2935725779298067 0.002276485651165168 0  5.2935725805517 0.002190925268531158 0  5.293700989197385 7.5021909726441 0  0.2937009565229824 7.502276478487024 0  10.29357256603923 0.00210530109848002 0  10.29370106107379 7.502105372921861 0  15.29357256833752 0.002019537208062751 0  15.29370119856618 7.502019620065136 0  20.29357263553285 0.001933594579735208 0  20.29370143025058 7.501933682501481 0  25.29357281936319 0.001847458558071241 0  25.29370178732036 7.501847549238507 0  30.2935731713866 0.001761130798417199 0  30.29370230308355 7.501761223821505 0  35.29357374223297 0.001674624106244888 0  35.2937030126075 7.501674720071041 0  40.29357458228395 0.001587959283815244 0  40.29370395272277 7.501588059375647 0  45.29357574300487 0.001501163409447736 0  45.29370516235198 7.501501269205177 0  50.2935772785812 0.001414269173773218 0  50.29370668308133 7.501414382575816 0  55.29357924772086 0.001327315043220944 0  55.29370855989887 7.501327438289817 0  60.29358171559284 0.001240346132018106 0  60.29371084204363 7.50124048185893 0  65.29358475592757 0.001153415753320014 0  65.29371358392112 7.501153567097744 0  70.29358845333375 0.001066587699807901 0  70.29371684604806 7.501066758446688 0  75.29359290591266 0.0009799393859774991 0  75.29372069598048 7.500980134162493 0  80.29359822826191 0.000893566081742087 0  80.29372520915859 7.50089379060886 0  85.29360455498298 0.0008075865971703794 0  85.29373046955939 7.500807848004846 0  90.29361204480793 0.0007221509666291617 0  90.29373656997686 7.500722458165451 0  95.29362088546617 0.0006374509680651503 0  95.2937436116309 7.500637815027794 0  100.2936312993558 0.0005537347677202699 0  100.2937517026239 7.500554169142782 0  105.2936435499441 0.0004713277192354107 0  105.2937609544812 7.50047184789458 0  110.2936579484378 0.0003906625741101632 0  110.2937714756076 7.500391284079216 0  115.2936748593687 0.0003123244427213738 0  115.2937833599794 7.50031305674895 0  120.293694701689 0.0002371194383560567 0  120.2937966688899 7.500237950011289 0  125.2937179374285 0.0001661822276212276 0  125.2938114036185 7.500167037739533 0  130.2937450299446 0.0001011487923291037 0  130.2938274690691 7.500101804461056 0  135.2937763317268 4.443977069640438e-05 0  135.2938446371634 7.500044313712857 0  140.293811812072 -2.720464068135863e-07 0  140.2938625464016 7.499997433507042 0  145.2938504169278 -2.732811506197437e-05 0  145.2938808565528 7.499965137237094 0  150.2938885348717 -2.826385399240695e-05 0  150.293899934218 7.499953055539705 0  160.2938926261462 1.38176382274783e-18 0  165.2937714380972 -0.000143701533066636 0  165.2938705825914 7.499837858507343 0  160.2939097286599 7.499955206381579 0  170.2936959763896 -0.0002784051684476253 0  170.2938308344572 7.499712181291111 0  175.293646755893 -0.000406306486585264 0  175.2937965770969 7.499588329258677 0  180.2936134950925 -0.0005281992380145585 0  180.2937686919196 7.499468564510545 0  185.2935903843382 -0.0006449182090715918 0  185.293746547915 7.499353053082515 0  190.2935739893645 -0.0007573021840929706 0  190.2937291668236 7.499241383905145 0  195.2935621995767 -0.0008660938618885879 0  195.2937156048404 7.499133029101525 0  200.2935536675092 -0.0009719081754698191 0  200.293705061934 7.499027490072468 0  205.2935474998183 -0.001075239856618234 0  205.2936968939896 7.498924337348462 0  210.2935430824793 -0.001176483961669874 0  210.2936905934083 7.498823213297968 0  215.2935399793339 -0.001275957227362767 0  215.2936857629785 7.498723823069263 0  220.2935378715398 -0.001373916147642771 0  220.2936820917547 7.498625923236774 0  225.2935365203061 -0.001470571085438253 0  225.2936793352954 7.49852931142456 0  230.2935357432042 -0.001566096918555955 0  230.2936773002837 7.498433817761537 0  235.2935353986023 -0.001660640981516108 0  235.2936758328259 7.498339298136951 0  240.2935353751015 -0.001754329002722338 0  240.2936748096196 7.498245628956433 0  245.2935355841547 -0.001847269591160578 0  245.2936741312863 7.498152703064653 0  250.2935359547655 -0.001939557685649629 0  250.2936737173214 7.498060426543931 0  255.293536429604 -0.00203127726662844 0  255.2936735022512 7.497968716157945 0  260.2935369621112 -0.002122503546732253 0  260.2936734326887 7.497877497264199 0  265.2935375143389 -0.002213304796140309 0  265.2936734650828 7.497786702063347 0  270.2935380553432 -0.002303743914581543 0  270.2936735640045 7.497696268088963 0  275.2935385600657 -0.00239387982631911 0  275.2936737008503 7.497606136872126 0  280.2935390086463 -0.002483768738278019 0  280.2936738529002 7.49751625274652 0  285.2935393862126 -0.002573465251013693 0  285.2936740026518 7.497426561800704 0  290.2935396832014 -0.002663023221637865 0  290.2936741373808 7.497337011046674 0  295.2935398963617 -0.002752496093041311 0  295.2936742488637 7.497247547975375 0  300.2935400305762 -0.002841936000535528 0  300.2936743331945 7.497158120831432 0  305.2935401015678 -0.002931390035489468 0  305.2936743907053 7.497068680159646 0  310.2935401391223 -0.003020889731860186 0  310.2936744263351 7.496979182324774 0  5.293829131042999 15.00219110694558 0  0.2938290885929998 15.00227646909355 0  10.29382922248021 15.0021055732995 0  15.29382938995072 15.00201984745148 0  20.29382965487436 15.00193391933439 0  25.29383003708972 15.0018477894826 0  30.29383055674915 15.00176146751561 0  35.29383123510362 15.00167497044463 0  40.293832094802 15.00158832137789 0  45.29383316000989 15.00150154880445 0  50.29383445647589 15.00141468648018 0  55.29383601157846 15.00132777389939 0  60.29383785433953 15.00124085734812 0  65.29384001536397 15.0011539915701 0  70.2938425266412 15.0010672421244 0  75.29384542112625 15.00098068857401 0  80.293848731984 15.00089442871877 0  85.29385249134921 15.00080858418159 0  90.29385672840449 15.00072330778124 0  95.29386146653353 15.00063879328521 0  100.2938667192666 15.00055528833403 0  105.2938724847576 15.00047311154927 0  110.2938787386791 15.00039267501733 0  115.2938854258979 15.00031451330338 0  120.2938924524125 15.0002393194459 0  125.2938996814158 15.00016798594977 0  130.2939069419591 15.00010164214715 0  135.2939140667693 15.0000416625061 0  140.2939209876436 14.99998957842398 0  145.2939279261287 14.99994671416917 0  150.2939356844832 14.9999130234951 0  165.2939392823339 14.99978827941379 0  160.2939474915421 14.99988469199168 0  170.2939255139338 14.99968054099672 0  175.2939093225295 14.99956835067494 0  180.2938931632317 14.99945577997785 0  185.2938783248267 14.99934468950793 0  190.2938653240101 14.9992357703376 0  195.2938542539341 14.99912915968589 0  200.2938450011419 14.99902475318508 0  205.2938373665834 14.99892235504146 0  210.2938311286188 14.99882174725624 0  215.2938260734212 14.99872271952227 0  220.2938220079025 14.998625080482 0  225.2938187636959 14.99852866047313 0  230.2938161968385 14.99843331063832 0  235.2938141856085 14.99833890068796 0  240.293812627746 14.99824531634527 0  245.2938114376569 14.99815245690023 0  250.2938105438595 14.99806023301923 0  255.2938098867617 14.99796856483259 0  260.2938094167781 14.99787738027287 0  265.2938090927591 14.99778661362106 0  270.2938088806943 14.99769620421868 0  275.2938087526367 14.99760609531216 0  280.2938086858038 14.99751623300761 0  285.2938086618146 14.99742656532976 0  290.2938086659989 14.99733704138882 0  295.2938086867742 14.99724761064918 0  300.2938087150843 14.9971582222061 0  305.2938087440246 14.99706882364613 0  310.2938087689184 14.99697935802663 0  5.293956877082047 22.50219143288002 0  0.2939568322883275 22.50227661581434 0  10.29395696169219 22.50210598953672 0  15.29395711010298 22.50202030465969 0  20.29395733851355 22.50193439356494 0  25.29395765910203 22.50184827236534 0  30.29395808230978 22.50176195994157 0  35.2939586180644 22.50167547871581 0  40.29395927631799 22.50158885497343 0  45.29396006716704 22.50150211915685 0  50.29396100071639 22.50141530636107 0  55.29396208676481 22.501328457157 0  60.29396333433734 22.50124161882782 0  65.29396475105187 22.50115484709683 0  70.29396634228016 22.50106820844032 0  75.29396811004952 22.50098178310836 0  80.29397005161526 22.50089566901416 0  85.29397215763572 22.50080998669555 0  90.29397440989358 22.50072488559492 0  95.29397677855495 22.50064055192933 0  100.2939792190647 22.50055721839922 0  105.2939816689869 22.50047517584576 0  110.2939840454901 22.50039478657508 0  115.2939862448373 22.50031649816264 0  120.2939881462742 22.50024085463762 0  125.2939896241678 22.5001684981224 0  130.2939905738508 22.50010014669051 0  135.2939909572276 22.50003652087225 0  140.2939908702876 22.49997816866493 0  145.2939906172487 22.49992510742094 0  150.2939907254384 22.49987619174603 0  165.2940078025256 22.4997340825605 0  160.294000787497 22.49981901705625 0  170.2940093987144 22.49963904776239 0  175.2940068586214 22.49953789248603 0  180.2940017150009 22.49943378180818 0  185.2939952715383 22.49932882530488 0  190.2939884435033 22.49922425386727 0  195.2939817991787 22.4991207077241 0  200.2939756531537 22.49901846984747 0  205.2939701523819 22.49891762102877 0  210.2939653404751 22.49881813421283 0  215.2939612013441 22.4987199290911 0  220.2939576871802 22.4986229025656 0  225.2939547356539 22.49852694514489 0  230.2939522800694 22.49843194935465 0  235.2939502550856 22.49833781371071 0  240.2939485997192 22.49824444427911 0  245.2939472587262 22.49815175495806 0  250.2939461830428 22.49805966710873 0  255.2939453297077 22.49796810887529 0  260.2939446615034 22.49787701437501 0  265.2939441464731 22.49778632285093 0  270.29394375738 22.49769597783315 0  275.2939434711561 22.49760592632894 0  280.2939432683465 22.49751611804832 0  285.2939431325499 22.4974265046578 0  290.2939430498485 22.49733703903108 0  295.293943008227 22.49724767440784 0  300.293942996969 22.49715836323623 
[...]
<PointData  Vectors="v"> 
<DataArray  type="Float64"  Name="v"  NumberOfComponents="3" format="ascii">3.6579057479413328e+00 -1.6114924983930619e+00 0.0000000000000000e+00  3.5124968515685353e+00 -1.8376049695797820e+00 0.0000000000000000e+00  2.8952080979870169e+00 -1.6194907938198204e+00 0.0000000000000000e+00  3.0023352078220267e+00 -1.4515327890083489e+00 0.0000000000000000e+00  3.2683861353290213e+00 -2.3501634551432264e+00 0.0000000000000000e+00  2.7497315720762163e+00 -1.9844238310775226e+00 0.0000000000000000e+00  2.9632477304946008e+00 -3.0822686439448268e+00 0.0000000000000000e+00  2.5059197636155770e+00 -2.6250777279123203e+00 0.0000000000000000e+00  2.6052602048390066e+00 -3.7927526394649980e+00 0.0000000000000000e+00  2.2013099361487551e+00 -3.2568250878999914e+00 0.0000000000000000e+00  2.1995823077800556e+00 -4.6337099628988963e+00 0.0000000000000000e+00  1.8441770922278011e+00 -4.0267580039193120e+00 0.0000000000000000e+00  1.8040700928233531e+00 -5.3891918824094400e+00 0.0000000000000000e+00  1.4401768532172419e+00 -4.7978103328820350e+00 0.0000000000000000e+00  1.6318430171444791e+00 -5.8113478632340074e+00 0.0000000000000000e+00  1.0468680185846275e+00 -5.5557826308438241e+00 0.0000000000000000e+00  1.1325424657708794e+00 -6.6742998632032720e+00 0.0000000000000000e+00  8.7753116932659403e-01 -5.9288544671170822e+00 0.0000000000000000e+00  3.0273548737752778e+00 -3.9458292772172943e+00 0.0000000000000000e+00  3.8228594989262255e-01 -6.7919781382837305e+00 0.0000000000000000e+00  -1.3458170523314577e+00 -1.0493611927156110e+01 0.0000000000000000e+00  2.2820573159285238e+00 -3.9392510491010704e+00 0.0000000000000000e+00  2.8613947841481920e-02 -8.1897763036606701e+00 0.0000000000000000e+00  -2.0862824374571880e+00 -1.0256867222783036e+01 0.0000000000000000e+00  3.1587677579153040e-01 -7.5207901472636500e+00 0.0000000000000000e+00  -7.0532753408102145e-01 -7.9595067359098017e+00 0.0000000000000000e+00  -2.0030425585420730e-02 -7.8280455779157370e+00 0.0000000000000000e+00  -4.0904107944901602e-01 -7.3340319995515664e+00 0.0000000000000000e+00  -8.0935847597501798e-01 -8.8128828787036415e+00 0.0000000000000000e+00  -7.3386652727127566e-01 -7.6411993875540887e+00 0.0000000000000000e+00  -1.8670033727634163e+00 -1.0141202248360669e+01 0.0000000000000000e+00  -1.5088517486505990e+00 -8.5684670274415691e+00 0.0000000000000000e+00  -3.1369892587732275e+00 -1.1670371929913363e+01 0.0000000000000000e+00  -2.5499941487325515e+00 -9.7821456847681052e+00 0.0000000000000000e+00  -4.5747146709624662e+00 -1.3360713144491394e+01 0.0000000000000000e+00  -3.8011177985879949e+00 -1.1223332638287738e+01 0.0000000000000000e+00  -6.1353539036512750e+00 -1.5027725839072342e+01 0.0000000000000000e+00  -5.2159802158341719e+00 -1.2707949626152217e+01 0.0000000000000000e+00  -7.7832308099986323e+00 -1.6665215282975652e+01 0.0000000000000000e+00  -6.7513936984079752e+00 -1.4218579242251812e+01 0.0000000000000000e+00  -9.4780065750481537e+00 -1.8189212124001461e+01 0.0000000000000000e+00  -8.3702428855227566e+00 -1.5674709026526301e+01 0.0000000000000000e+00  -1.1152798367059690e+01 -1.9498543917945486e+01 0.0000000000000000e+00  -1.0032181966226140e+01 -1.7017826396894680e+01 0.0000000000000000e+00  -1.2745354605835351e+01 -2.0409895530145057e+01 0.0000000000000000e+00  -1.1669078225255795e+01 -1.8055303060635186e+01 0.0000000000000000e+00  -1.4203206034014091e+01 -2.1023178922907828e+01 0.0000000000000000e+00  -1.3222047397580649e+01 -1.8876989392997885e+01 0.0000000000000000e+00  -1.5453230411281362e+01 -2.0821544530266390e+01 0.0000000000000000e+00  -1.4630608557316952e+01 -1.8986088574294573e+01 0.0000000000000000e+00  -1.6477112330883305e+01 -2.0145205313084201e+01 0.0000000000000000e+00  -1.5834002741663268e+01 -1.8661348014442503e+01 0.0000000000000000e+00  -1.7227524143267207e+01 -1.8259397598202121e+01 0.0000000000000000e+00  -1.6795073758908131e+01 -1.7177592075405791e+01 0.0000000000000000e+00  -1.7742336157209234e+01 -1.5435139893346056e+01 0.0000000000000000e+00  -1.7493164109779400e+01 -1.4729199301516584e+01 0.0000000000000000e+00  -1.8011416172034572e+01 -1.1389164849198949e+01 0.0000000000000000e+00  -1.7928590370886770e+01 -1.1030942331586992e+01 0.0000000000000000e+00  -1.8136942794634095e+01 -4.7415774684771703e+00 0.0000000000000000e+00  -1.8141698928701153e+01 -4.6376128999677215e+00 0.0000000000000000e+00  -1.8163563201215698e+01 2.3578990383442991e-11 0.0000000000000000e+00  -1.8163229806409714e+01 3.1823064783403736e-04 0.0000000000000000e+00  -1.8163563200136281e+01 -1.2498019729286935e-19 0.0000000000000000e+00  -1.3885347312898508e+01 1.1509196319994931e+01 0.0000000000000000e+00  -1.8132848517521165e+01 5.1273063163011630e+00 0.0000000000000000e+00  -1.8163230958123648e+01 -3.3661234891817926e-04 0.0000000000000000e+00  -1.2623215365822967e+01 2.0107906412272637e+01 0.0000000000000000e+00  -1.3904238024326592e+01 1.8284055016512379e+01 0.0000000000000000e+00  -1.0751245470550494e+01 2.3970455860669801e+01 0.0000000000000000e+00  -1.2700859353579848e+01 2.1199084346870261e+01 0.0000000000000000e+00  -9.6667031652782338e+00 2.4798218586671812e+01 0.0000000000000000e+00  -1.0883557961153207e+01 2.3219472910459192e+01 0.0000000000000000e+00  -8.4437690839123771e+00 2.4352425849640756e+01 0.0000000000000000e+00  -9.8480871700038470e+00 2.2557780828652515e+01 0.0000000000000000e+00  -7.4338471806872874e+00 2.2833961299568067e+01 0.0000000000000000e+00  -8.6708646425881089e+00 2.1359371587077487e+01 0.0000000000000000e+00  -6.4854241254076452e+00 2.1051175459830652e+01 0.0000000000000000e+00  -7.7054979286925454e+00 1.9664044141260515e+01 0.0000000000000000e+00  -5.6333300040087888e+00 1.9041149770666891e+01 0.0000000000000000e+00  -6.7977136956696720e+00 1.7799037588755471e+01 0.0000000000000000e+00  -4.7449653519704533e+00 1.7227718424030972e+01 0.0000000000000000e+00  -5.9843562996068522e+00 1.5928135113092937e+01 0.0000000000000000e+00  -4.0354459862215109e+00 1.5490591709634273e+01 0.0000000000000000e+00  -5.1332724530323963e+00 1.4458134605414529e+01 0.0000000000000000e+00  -3.4041343698275903e+00 1.3975450697379378e+01 0.0000000000000000e+00  -4.4589015678716244e+00 1.3059179665798606e+01 0.0000000000000000e+00  -2.7516218050771495e+00 1.2760366718599938e+01 0.0000000000000000e+00  -3.8612342024439816e+00 1.1811050560975620e+01 0.0000000000000000e+00  -2.1569322182261708e+00 1.1700617801237714e+01 0.0000000000000000e+00  -3.2413596264720366e+00 1.0836741746496832e+01 0.0000000000000000e+00  -1.6198267845116485e+00 1.0777995132914434e+01 0.0000000000000000e+00  -2.6778084760443024e+00 9.9998493657712473e+00 0.0000000000000000e+00  -1.1383759224735241e+00 9.9334590741400586e+00 0.0000000000000000e+00  -2.1707361164055361e+00 9.2377751094053533e+00 0.0000000000000000e+00  -7.2200656372718908e-01 9.1295577178443654e+00 0.0000000000000000e+00  -1.7185074300648322e+00 8.5306802061944182e+00 0.0000000000000000e+00  -3.6572675697172036e-01 8.3712462851738536e+00 0.0000000000000000e+00  -1.3303627572865806e+00 7.8619569501864097e+00 0.0000000000000000e+00  -5.4058732853650496e-02 7.6295502564070485e+00 0.0000000000000000e+00  -1.0015074569518478e+00 7.1865633810553584e+00 0.0000000000000000e+00  2.0973182876184771e-01 6.9040770296419165e+00 0.0000000000000000e+00  -7.1674756843228882e-01 6.5323093402063659e+00 0.0000000000000000e+00  4.3056556776258575e-01 6.1885145671205750e+00 0.0000000000000000e+00  -4.7915038734244808e-01 5.8809041811717808e+00 0.0000000000000000e+00  6.1527435792858765e-01 5.4838358891960883e+00 0.0000000000000000e+00  -2.8412243359821865e-01 5.2298901018622015e+00 0.0000000000000000e+00  7.6445707489524195e-01 4.7624595123968563e+00 0.0000000000000000e+00  -1.2467073442369400e-01 4.5616662125549565e+00 0.0000000000000000e+00  8.7134088560604928e-01 4.0835298907654147e+00 0.0000000000000000e+00  -6.8085690415778041e-04 3.9456131193614992e+00 0.0000000000000000e+00  9.4591761837750521e-01 3.3291926685952471e+00 0.0000000000000000e+00  8.1886198234785657e-02 3.2400992403809257e+00 0.0000000000000000e+00  9.7424830285974873e-01 2.6984157438746617e+00 0.0000000000000000e+00  1.3137902942885363e-01 2.6774393076294207e+00 0.0000000000000000e+00  9.6060118897965152e-01 1.8803548549997386e+00 0.0000000000000000e+00  1.3654728674666752e-01 1.9239954142344036e+00 0.0000000000000000e+00  8.9607031878665666e-01 1.3988096439874946e+00 0.0000000000000000e+00  9.7130602984655742e-02 1.5156227236459319e+00 0.0000000000000000e+00  7.6618349025518939e-01 4.3095365967180366e-01 0.0000000000000000e+00  1.1664333020598890e-02 6.5070230968348541e-01 0.0000000000000000e+00  5.2164277877592047e-01 -5.0149788917582719e-02 0.0000000000000000e+00  -1.4738947554283832e-01 3.3264208580224019e-01 0.0000000000000000e+00  -5.9029830938461370e-02 -2.8477454025334004e-01 0.0000000000000000e+00  -4.0358311411694892e-01 6.1969886969114807e-01 0.0000000000000000e+00  2.0092557160763489e+00 -1.4577767459973741e+00 0.0000000000000000e+00  2.1170914452173126e+00 -1.2920345669865909e+00 0.0000000000000000e+00  1.9004440409273859e+00 -1.7648704940540654e+00 0.0000000000000000e+00  1.7527257118673158e+00 -2.2581746488920267e+00 0.0000000000000000e+00  1.5067309244991789e+00 -2.7988153137311444e+00 0.0000000000000000e+00  1.2002269902630609e+00 -3.4898977304915184e+00 0.0000000000000000e+00  8.4146797846771371e-01 -4.1913593508162634e+00 0.0000000000000000e+00  4.3671062279839512e-01 -4.9661205088229226e+00 0.0000000000000000e+00  4.3997930026182776e-02 -5.6753635463414147e+00 0.0000000000000000e+00  -1.2362110570924566e-01 -6.0513206635816310e+00 0.0000000000000000e+00  -6.1461506122752951e-01 -6.7927745089890994e+00 0.0000000000000000e+00  1.2904168014559652e+00 -3.7047161506993094e+00 0.0000000000000000e+00  -3.0786764788151855e+00 -1.0030129552380819e+01 0.0000000000000000e+00  -1.6973333219154128e+00 -7.7825858355351203e+00 0.0000000000000000e+00  -1.3938555183307129e+00 -7.1590561130763710e+00 0.0000000000000000e+00  -1.7079033421635021e+00 -7.4156897714211771e+00 0.0000000000000000e+00  -2.4664692680864744e+00 -8.2322900843898648e+00 0.0000000000000000e+00  -3.4869105856049916e+00 -9.3599781540608760e+00 0.0000000000000000e+00  -4.7137042221707297e+00 -1.0603126779918103e+01 0.0000000000000000e+00  -6.0987268095887970e+00 -1.1936071464358557e+01 0.0000000000000000e+00  -7.5987504914835142e+00 -1.3268375178832649e+01 0.0000000000000000e+00  -9.1776684705010343e+00 -1.4553468175272451e+01 0.0000000000000000e+00  -1.0791398131101209e+01 -1.5630884867585513e+01 0.0000000000000000e+00  -1.2373416761508059e+01 -1.6584453067869656e+01 0.0000000000000000e+00  -1.3862597657878855e+01 -1.6913123304208927e+01 0.0000000000000000e+00  -1.5199326923821502e+01 -1.6908449347263495e+01 0.0000000000000000e+00  -1.6316717441674577e+01 -1.5781246746714642e+01 0.0000000000000000e+00  -1.7189002774721423e+01 -1.3757739300242111e+01 0.0000000000000000e+00  -1.7771327497009736e+01 -1.0421148487037117e+01 0.0000000000000000e+00  -1.8104142170303710e+01 -4.4309339116391495e+00 0.0000000000000000e+00  -1.8162421569005911e+01 6.0657098864277709e-04 0.0000000000000000e+00  -1.8092018162112090e+01 4.9313427287832141e+00 0.0000000000000000e+00  -1.8162423643118924e+01 -6.9196500457606219e-04 0.0000000000000000e+00  -1.7900929295674395e+01 1.1960054555454569e+01 0.0000000000000000e+00  -1.3742885087526034e+01 1.9451561192182133e+01 0.0000000000000000e+00  -1.2625868362715542e+01 2.0536051415935415e+01 0.0000000000000000e+00  -1.0876589728590922e+01 2.1044665015869299e+01 0.0000000000000000e+00  -9.9046618818585088e+00 1.9623247400860571e+01 0.0000000000000000e+00  -8.7791370916964659e+00 1.8249087025892145e+01 0.0000000000000000e+00  -7.8644267817785716e+00 1.6463505207990771e+01 0.0000000000000000e+00  -7.0002770199474229e+00 1.4732605302698872e+01 0.0000000000000000e+00  -6.2273376819855697e+00 1.3205064587158638e+01 0.0000000000000000e+00  -5.4140873948448842e+00 1.2069201058877105e+01 0.0000000000000000e+00  -4.7750628766272785e+00 1.0934299049183196e+01 0.0000000000000000e+00  -4.2103170401014918e+00 9.9265761249432565e+00 0.0000000000000000e+00  -3.6221520580822175e+00 9.1726606183467059e+00 0.0000000000000000e+00  -3.0883810413258042e+00 8.4941178880592663e+00 0.0000000000000000e+00  -2.6093576663210598e+00 7.8688831557805017e+00 0.0000000000000000e+00  -2.1840202438779852e+00 7.2953024732953846e+00 0.0000000000000000e+00  -1.8214173958656956e+00 6.7079963698032987e+00 0.0000000000000000e+00  -1.5168841199027290e+00 6.1195494195804425e+00 0.0000000000000000e+00  -1.2556450928261709e+00 5.5383209273609664e+00 0.0000000000000000e+00  -1.0407382560700926e+00 4.9505474983060438e+00 0.0000000000000000e+00  -8.6761649221440218e-01 4.3356549256183978e+00 0.0000000000000000e+00  -7.2968923853399592e-01 3.7721658935119518e+00 0.0000000000000000e+00  -6.2659053437677603e-01 3.1289598018122935e+00 0.0000000000000000e+00  -5.6473742277648842e-01 2.6149833660272486e+00 0.0000000000000000e+00  -5.3524627694321125e-01 1.9292191743513047e+00 0.0000000000000000e+00  -5.5051025395613551e-01 1.5849718687710692e+00 0.0000000000000000e+00  -6.0862790646423137e-01 7.9333942435132221e-01 0.0000000000000000e+00  -7.1471129263835531e-01 5.7855613983777854e-01 0.0000000000000000e+00  -8.9109172829347294e-01 1.0197119170756435e+00 0.0000000000000000e+00  7.0046447236677833e-01 -1.2937491111944655e+00 0.0000000000000000e+00  7.9253114553884196e-01 -1.1573510954726014e+00 0.0000000000000000e+00  5.8891122948300700e-01 -1.5978308423930552e+00 0.0000000000000000e+00  4.7384506949641425e-01 -2.0326324949488548e+00 0.0000000000000000e+00  3.1984315444114786e-01 -2.4253796625846178e+00 0.0000000000000000e+00  6.6806333611163060e-02 -3.0257234094126284e+00 0.0000000000000000e+00  -2.4681047761111150e-01 -3.6495363469053657e+00 0.0000000000000000e+00  -6.1157501629238820e-01 -4.3558522434892080e+00 0.0000000000000000e+00  -1.0212626148786113e+00 -5.0847917871794017e+00 0.0000000000000000e+00  -1.4166653319637734e+00 -5.8009916940219153e+00 0.0000000000000000e+00  -1.5828601692474420e+00 -6.0602333164713365e+00 0.0000000000000000e+00  -2.0685379046738843e+00 -6.5663704773474176e+00 0.0000000000000000e+00  -1.6308914695351340e-01 -3.4712710988117399e+00 0.0000000000000000e+00  -4.5450162742487175e+00 -9.8467586433259662e+00 0.0000000000000000e+00  -3.1744347824089272e+00 -7.6174134528900757e+00 0.0000000000000000e+00  -2.8689279927777034e+00 -6.9539023551022883e+00 0.0000000000000000e+00  -3.1712318348897406e+00 -7.1097969226996485e+00 0.0000000000000000e+00  -3.9100343910724047e+00 -7.8506016364144733e+00 0.0000000000000000e+00  -4.9035880773411886e+00 -8.7898549000128963e+00 0.0000000000000000e+00  -6.0951042965370927e+00 -9.8907566112303620e+00 0.0000000000000000e+00  -7.4373365678693668e+00 -1.1057409698259884e+01 0.0000000000000000e+00  -8.8860720208662674e+00 -1.2232551531901764e+01 0.0000000000000000e+00  -1.0401404230805756e+01 -1.3264088633715033e+01 0.0000000000000000e+00  -1.1941011122918214e+01 -1.4279394101726890e+01 0.0000000000000000e+00  -1.3431947646182119e+01 -1.4753389552053264e+01 0.0000000000000000e+00  -1.4816502032742282e+01 -1.4999045826294465e+01 0.0000000000000000e+00  -1.6023324194905321e+01 -1.4201132661931746e+01 0.0000000000000000e+00  -1.6999352579339636e+01 -1.2588802683800346e+01 0.0000000000000000e+00  -1.7688195048845234e+01 -9.6539102599046931e+00 0.0000000000000000e+00  -1.8095456287429997e+01 -4.1467616470650439e+00 0.0000000000000000e+00  -1.8161163078768180e+01 8.6605624073975553e-04 0.0000000000000000e+00  -1.8071376900580866e+01 4.5862343554233602e+00 0.0000000000000000e+00  -1.8161165189777400e+01 -1.0058237199634037e-03 0.0000000000000000e+00  -1.7669553421257046e+01 1.1610147680845863e+01 0.0000000000000000e+00  -1.7468311247910002e+01 1.3304011709079417e+01 0.0000000000000000e+00  -1.3433966933444621e+01 1.8969129638235973e+01 0.0000000000000000e+00  -1.2455596106754632e+01 1.8500704152449636e+01 0.0000000000000000e+00  -1.0814509759978485e+01 1.8242441273906628e+01 0.0000000000000000e+00  -9.9358982735225130e+00 1.6619883336765440e+01 0.0000000000000000e+00  -8.8885121006911021e+00 1.5148019452173262e+01 0.0000000000000000e+00  -8.0444829513104832e+00 1.3485167811825177e+01 0.0000000000000000e+00  -7.2413707559508085e+00 1.2090441996904808e+01 0.0000000000000000e+00  -6.5248606895621997e+00 1.0890078135215230e+01 0.0000000000000000e+00  -5.7630274221051341e+00 1.0014386214799140e+01 0.0000000000000000e+00  -5.1718925123746402e+00 9.1153143550910745e+00 0.0000000000000000e+00  -4.6524444723499681e+00 8.3245217279436741e+00 0.0000000000000000e+00  -4.1070359059576900e+00 7.7256853766561067e+00 0.0000000000000000e+00  -3.6132363426588068e+00 7.1805608176559250e+00 0.0000000000000000e+00  -3.1719163765539591e+00 6.6857982933758136e+00 0.0000000000000000e+00  -2.7819998739093363e+00 6.1912032647159165e+00 0.0000000000000000e+00  -2.4527472770180929e+00 5.6883552346638941e+00 0.0000000000000000e+00  -2.1798614490204278e+00 5.1710103118843938e+00 0.0000000000000000e+00  -1.9488380586466927e+00 4.6517247549040546e+00 0.0000000000000000e+00  -1.7627723584991666e+00 4.0988368744945358e+00 0.0000000000000000e+00  -1.6176829094922514e+00 3.5872029867361492e+00 0.0000000000000000e+00  -1.5067110578671090e+00 2.9962627629720666e+00 0.0000000000000000e+00  -1.4303037564883212e+00 2.5427802701462143e+00 0.0000000000000000e+00  -1.3938509629537041e+00 1.9067154215980637e+00 0.0000000000000000e+00  -1.3904298150695042e+00 1.6264213424954792e+00 0.0000000000000000e+00  -1.4288804005466773e+00 9.0345514852812170e-01 0.0000000000000000e+00  -1.5139374020411909e+00 7.5208617425839219e-01 0.0000000000000000e+00  -1.6368792912795773e+00 1.3086430019236523e+00 0.0000000000000000e+00  -5.0439351606154981e-01 -1.1524225955244465e+00 0.0000000000000000e+00  -4.3262058166257589e-01 -1.0543828448811927e+00 0.0000000000000000e+00  -6.0161953970930326e-01 -1.4246973262548610e+00 0.0000000000000000e+00  -7.2266081157661666e-01 -1.8523134721127859e+00 0.0000000000000000e+00  -8.4912199280140022e-01 -2.1856187991540272e+00 0.0000000000000000e+00  -1.0162807072858642e+00 -2.6367768594951078e+00 0.0000000000000000e+00  -1.2831770225074208e+00 -3.1691359905376895e+00 0.0000000000000000e+00  -1.6110469321011776e+00 -3.7993790098589910e+00 0.0000000000000000e+00  -1.9892693864259436e+00 -4.4622738153653829e+00 0.0000000000000000e+00  -2.4098918926913089e+00 -5.2021687792379883e+00 0.0000000000000000e+00  -2.8118893991844551e+00 -5.8098568832846222e+00 0.0000000000000000e+00  -2.9796110518224777e+00 -5.8388003881579378e+00 0.0000000000000000e+00  -3.4653501760587777e+00 -6.3235754795453749e+00 0.0000000000000000e+00  -1.5744923392183221e+00 -3.2515979170393972e+00 0.0000000000000000e+00  -5.9927360629748279e+00 -9.6491008443152193e+00 0.0000000000000000e+00  -4.6528069485979673e+00 -7.4026693823560219e+00 0.0000000000000000e+00  -4.3595559151693069e+00 -6.6557497020072622e+00 0.0000000000000000e+00  -4.6619512844818818e+00 -6.7506845940765832e+00 0.0000000000000000e+00  -5.3887620135148504e+00 -7.3130350226090002e+00 0.0000000000000000e+00  -6.3623841876457208e+00 -8.1245674932005869e+00 0.0000000000000000e+00  -7.5249418724092427e+00 -9.0711836575773592e+00 0.0000000000000000e+00  -8.8281231709688974e+00 -1.0094662590411366e+01 0.0000000000000000e+00  -1.0226196019293612e+01 -1.1035099953661886e+01 0.0000000000000000e+00  -1.1678074263314345e+01 -1.2028771496169723e+01 0.0000000000000000e+00  -1.3133308694442418e+01 -1.2584134129196388e+01 0.0000000000000000e+00  -1.4523093396409983e+01 -1.3017221449845714e+01 0.0000000000000000e+00  -1.5773100468200829e+01 -1.2489091515526281e+01 0.0000000000000000e+00  -1.6827265918891133e+01 -1.1276560371878890e+01 0.0000000000000000e+00  -1.7594207779036068e+01 -8.7427799506107586e+00 0.0000000000000000e+00  -1.8073710707167127e+01 -3.7911073241919477e+00 0.0000000000000000e+00  -1.8159505258402341e+01 1.0955979838086088e-03 0.0000000000