<?xml version="1.0"?>
<VTKFile type="UnstructuredGrid"  version="0.1"  >
<UnstructuredGrid>
<Piece  NumberOfPoints="1933" NumberOfCells="3640">
<Points>
<DataArray  type="Float64"  NumberOfComponents="3"  format="ascii">-0.0002681115920383226 0.001889281434166722 0  4.999731893225412 0.00181701532237928 0  4.999840350839548 7.501817062340311 0  -0.0001596809427882318 7.501889279705765 0  9.999731884805609 0.00174468958193109 0  9.999840418769072 7.501744758030947 0  14.99973189488477 0.001672238563841133 0  14.99984054661779 7.501672316437372 0  19.99973196713019 0.001599630141437087 0  19.99984075987522 7.501599712180408 0  24.99973214790448 0.00152685409510042 0  24.99984108614542 7.501526938315736 0  29.99973248298034 0.001453914785382411 0  29.99984155468481 7.501454000870829 0  34.99973301696845 0.001380826522874711 0  34.99984219607481 7.50138091503847 0  39.99973379397791 0.001307610780993777 0  39.99984304221225 7.501307702793456 0  44.99973485882296 0.001234294710140769 0  44.99984412658188 7.501234391616151 0  49.99973625847268 0.001160910605985783 0  49.99984548473314 7.501161014074482 0  54.99973804362426 0.001087496122784469 0  54.99984715489062 7.501087608103489 0  59.99974027037506 0.001014095125823092 0  59.99984917864525 7.50101421790144 0  64.99974300201461 0.000940759159280546 0  64.99985160168247 7.500940895432464 0  69.99974631098121 0.0008675495788680982 0  69.99985447450896 7.500867702592786 0  74.99975028104706 0.0007945404737438453 0  74.99985785312889 7.500794714168959 0  79.99975500980092 0.000721822591816012 0  79.99986179959997 7.500722021802836 0  84.99976061150913 0.0006495086025962544 0  84.99986638235706 7.500649739291606 0  89.99976722042366 0.0005777402055502608 0  89.99987167612183 7.500578009711341 0  94.99977499459034 0.0005066978565290345 0  94.99987776110665 7.500507015085237 0  99.99978412012241 0.0004366143018023592 0  99.99988472105132 7.500436989661786 0  104.9997948157153 0.0003677937829158028 0  104.9998926393798 7.50036823837897 0  109.9998073367217 0.000300639886764374 0  109.999901592416 7.500301162837408 0  114.9998219770965 0.0002356968793927607 0  114.9999116381967 7.500236298167737 0  119.9998390653155 0.000173712533667013 0  119.9999227991181 7.500174365585861 0  124.9998589456192 0.0001157359098987264 0  124.9999350370604 7.500116347039123 0  129.9998819257275 6.32728985243768e-05 0  129.9999482223894 7.500063589498721 0  134.9999081501598 1.853775720306474e-05 0  134.9999621078131 7.500017945450824 0  139.9999373098108 -1.514054985469778e-05 0  139.9999763464337 7.499981950854907 0  144.9999679854778 -3.270480090657078e-05 0  144.9999906746044 7.499959042958669 0  149.999996124153 -2.677565360622374e-05 0  150.0000056248711 7.499953954183549 0  159.9999999999999 1.290288411324167e-18 0  164.999892920866 -0.0001293781768815084 0  164.9999807000474 7.499853635925007 0  160.0000148106451 7.499958717504152 0  169.9998271324508 -0.00024926619379854 0  169.9999460079947 7.499742096006354 0  174.9997848334228 -0.0003621090219638696 0  174.999916236843 7.499632994501304 0  179.9997566848249 -0.000468905884955041 0  179.9998921572575 7.499528156973819 0  184.9997374441546 -0.0005705938822897997 0  184.9998731794046 7.499427576106414 0  189.9997240344658 -0.000668053518554795 0  189.9998584096149 7.499330768969346 0  194.999714579207 -0.0007620402622943634 0  194.999846993185 7.49923717926974 0  199.9997078899782 -0.0008531691769851354 0  199.9998382103601 7.499146299426667 0  204.9997031854067 -0.0009419300229530699 0  204.9998314850908 7.499057699763576 0  209.9996999328599 -0.001028711081979377 0  209.9998263660047 7.49897102633875 0  214.9996977570304 -0.001113821896481554 0  214.9998225018642 7.498885989627585 0  219.9996963856633 -0.001197511897535421 0  219.9998196192322 7.498802352116458 0  224.9996956163397 -0.001279984718713091 0  224.9998175043258 7.49871991743441 0  229.9996952954821 -0.001361408903211784 0  229.9998159889859 7.498638521578459 0  234.9996953046437 -0.001441925852697566 0  234.9998149400617 7.498558026062986 0  239.9996955512593 -0.001521655751290161 0  239.9998142514408 7.498478312630088 0  244.9996959622253 -0.001600702030784658 0  244.9998138380649 7.498399279158118 0  249.9996964793184 -0.001679154792981217 0  249.9998136314207 7.498320836465214 0  254.9996970558662 -0.00175709348827186 0  254.9998135761286 7.498242905772181 0  259.9996976542853 -0.001834589064256641 0  259.9998136273453 7.498165416647371 0  264.9996982442678 -0.001911705736842817 0  264.9998137487905 7.498088305303002 0  269.9996988014551 -0.001988502491145789 0  269.9998139112573 7.498011513149303 0  274.9996993065419 -0.002065034382751789 0  274.9998140914929 7.497934985544897 0  279.9996997447631 -0.002141353672525877 0  279.9998142713943 7.497858670714121 0  284.9997001058007 -0.002217510777155599 0  284.9998144374414 7.497782518842831 0  289.9997003841516 -0.002293554929193537 0  289.9998145803249 7.497706481424926 0  294.9997005800726 -0.002369534265873449 0  294.9998146947026 7.497630511027037 0  299.9997007011808 -0.00244549469626981 0  299.9998147790303 7.497554561786934 0  304.9997007646799 -0.002521476066187889 0  304.9998148354871 7.497478591159153 0  309.999700799699 -0.00259750214124039 0  309.9998148703619 7.497402563562013 0  4.999948566813249 15.00181719099098 0  -5.147341446715137e-05 15.00188928203698 0  9.999948650708101 15.00174494333096 0  14.9999488022404 15.0016725237936 0  19.99994904016506 15.00159992629426 0  24.99994938169305 15.00152715409779 0  29.99994984417473 15.00145421853401 0  34.99995044577256 15.00138113752812 0  39.99995120569525 15.001307934487 0  44.99995214426841 15.00123463770709 0  49.99995328295409 15.00116128032468 0  54.99995464434657 15.00108790079344 0  59.99995625212934 15.00101454388579 0  64.99995813095477 15.00094126224705 0  69.99996030618696 15.00086811857428 0  74.99996280343341 15.00079518854596 0  79.99996564776038 15.00072256469439 0  84.99996886246335 15.00065036149625 0  89.9999724672229 15.00057872206424 0  94.99997647544754 15.00050782695716 0  99.9999808905861 15.00043790578496 0  104.9999857012493 15.00036925244837 0  109.9999908751663 15.00030224494621 0  114.9999963525298 15.00023737052371 0  120.0000020404325 15.00017525607683 0  125.0000078124404 15.00011670114874 0  130.0000135217174 15.00006270424387 0  135.0000190434317 15.00001445718092 0  140.0000243722456 14.99997324346371 0  145.0000298064245 14.99994007626752 0  150.0000362129915 14.99991460722143 0  165.0000404105426 14.99980802777215 0  160.0000473018926 14.99989317778203 0  170.000028446987 14.99971318895401 0  175.0000142997575 14.99961485499188 0  180.0000001951018 14.99951662112042 0  184.9999872879697 14.99942007740393 0  189.9999760321665 14.99932576895679 0  194.9999665006379 14.99923375602933 0  199.9999585829154 14.99914389475899 0  204.9999520943285 14.99905597017741 0  209.9999468323042 14.99896975616016 0  214.9999426031526 14.99888504029621 0  219.9999392331619 14.99880163239732 0  224.9999365717473 14.99871936572376 0  229.9999344908367 14.9986380952414 0  234.999932882692 14.99855769489947 0  239.9999316572449 14.99847805479693 0  244.9999307394738 14.9983990785768 0  249.9999300670371 14.99832068114818 0  254.9999295882318 14.99824278673198 0  259.9999292602769 14.99816532718989 0  264.9999290478891 14.99808824058625 0  269.9999289221146 14.99801146993808 0  274.9999288593619 14.99793496211893 0  279.9999288405979 14.99785866689543 0  284.9999288506679 14.9977825360912 0  289.9999288776839 14.99770652288275 0  294.9999289124874 14.99763058122146 0  299.9999289481926 14.99755466529248 0  304.9999289799545 14.99747872861366 0  309.9999290052511 14.99740272142826 0  5.000056435035638 22.50181749515486 0  5.639300645743361e-05 22.50188943227649 0  10.00005651178762 22.50174532301395 0  15.00005664417137 22.50167293579104 0  20.00005684612341 22.50160034989315 0  25.00005712793806 22.50152758227589 0  30.00005749828298 22.50145465230962 0  35.00005796526295 22.50138158253253 0  40.00005853687036 22.5013083989829 0  45.00005922106237 22.50123513150128 0  50.00006002561046 22.50116181421222 0  55.00006095779133 22.50108848629952 0  60.00006202394184 22.50101519315095 0  65.00006322886729 22.50094198794205 0  70.00006457507021 22.50086893374054 0  75.00006606175616 22.50079610623845 0  80.00006768356137 22.50072359724913 0  85.00006942895661 22.50065151914072 0  90.00007127829664 22.50058001040658 0  95.00007320154376 22.50050924258196 0  100.0000751558042 22.50043942867122 0  105.0000770830309 22.50037083308632 0  110.0000789086232 22.50030378268404 0  115.0000805422778 22.5002386775842 0  120.0000818833807 22.50017599860332 0  125.0000828344917 22.50011630455094 0  130.0000833277269 22.50006020596147 0  135.0000833689072 22.50000829001402 0  140.0000830998655 22.49996095210795 0  145.0000828620435 22.499918064469 0  150.0000831972175 22.49987841225431 0  165.0000990344135 22.49975807484274 0  160.0000926294079 22.49983205290513 0  170.0001005135221 22.49967522931473 0  175.0000982641319 22.49958716753121 0  180.0000936914686 22.49949674260685 0  185.0000879780727 22.49940582494902 0  190.0000819466527 22.49931548243008 0  195.0000761027821 22.49922625063506 0  200.0000707222538 22.49913834768934 0  205.0000659303092 22.49905181530048 0  210.000061760263 22.49896660361244 0  215.0000581929862 22.49888261969593 0  220.0000551820238 22.49879975416563 0  225.0000526688992 22.49871789516937 0  230.0000505920512 22.49863693529233 0  235.0000488917937 22.49855677458276 0  240.0000475128562 22.49847732151304 0  245.0000464054957 22.49839849288129 0  250.000045525789 22.49832021320178 0  255.0000448354835 22.49824241387576 0  260.0000443016133 22.49816503229425 0  265.0000438960173 22.49808801094656 0  270.0000435948208 22.49801129656965 0  275.0000433779121 22.49793483935095 0  280.0000432284284 22.49785859218655 0  285.0000431322458 22.49778250998376 0  290.0000430774747 22.49770654897349 0  295.0000430539682 22.49763066594176 0  300.
[...]
<PointData  Vectors="v"> 
<DataArray  type="Float64"  Name="v"  NumberOfComponents="3" format="ascii">1.5808641313544751e+00 -5.7322578229474468e+00 0.0000000000000000e+00  1.1465671181319106e+00 -5.5696202500489322e+00 0.0000000000000000e+00  8.4551954430864307e-01 -4.9183303728649772e+00 0.0000000000000000e+00  1.1775135595579047e+00 -5.2348736748596716e+00 0.0000000000000000e+00  5.6684347114896949e-01 -6.2443228292824111e+00 0.0000000000000000e+00  4.1142949491364245e-01 -5.3756242901955025e+00 0.0000000000000000e+00  -5.7045586540776733e-03 -7.3282378803580706e+00 0.0000000000000000e+00  -1.6735031587385424e-01 -6.4707199297823159e+00 0.0000000000000000e+00  -5.6297573539581014e-01 -7.9602554615013554e+00 0.0000000000000000e+00  -7.3833126575553054e-01 -7.1264364551359130e+00 0.0000000000000000e+00  -1.2347395703058410e+00 -9.0200037843394778e+00 0.0000000000000000e+00  -1.2933632733179607e+00 -8.0152141325871398e+00 0.0000000000000000e+00  -1.8123962499352149e+00 -9.7057621955170958e+00 0.0000000000000000e+00  -1.9617970457796245e+00 -8.8427001304203650e+00 0.0000000000000000e+00  -1.9676818128894633e+00 -9.8039800489366922e+00 0.0000000000000000e+00  -2.5352962093710758e+00 -9.5754781664973727e+00 0.0000000000000000e+00  -2.9461932539826732e+00 -1.1014697052412670e+01 0.0000000000000000e+00  -2.6855317011171254e+00 -9.5522900844906289e+00 0.0000000000000000e+00  1.4430541214299361e-01 -6.1371895851081417e+00 0.0000000000000000e+00  -3.6576944138671195e+00 -1.0778736836356094e+01 0.0000000000000000e+00  -9.4318439048497051e+00 -2.0000418625522297e+01 0.0000000000000000e+00  -5.5982771948002608e-01 -5.6439380105268322e+00 0.0000000000000000e+00  -8.3847204407263831e+00 -1.7480190902734510e+01 0.0000000000000000e+00  -1.0128376927276385e+01 -1.9058637042619068e+01 0.0000000000000000e+00  -8.2548593150421361e+00 -1.6251279844857287e+01 0.0000000000000000e+00  -9.0719471231650992e+00 -1.6455943868155028e+01 0.0000000000000000e+00  -8.7906907384582240e+00 -1.6028999601612821e+01 0.0000000000000000e+00  -8.9304366559481227e+00 -1.5237226762633984e+01 0.0000000000000000e+00  -9.8595756997068538e+00 -1.6617425894620023e+01 0.0000000000000000e+00  -9.4525016797119275e+00 -1.5028459748436399e+01 0.0000000000000000e+00  -1.1285903294843697e+01 -1.7680376353192734e+01 0.0000000000000000e+00  -1.0504463115587434e+01 -1.5556787537345178e+01 0.0000000000000000e+00  -1.2977201217389517e+01 -1.9001730917163776e+01 0.0000000000000000e+00  -1.1911618146743274e+01 -1.6483450373776087e+01 0.0000000000000000e+00  -1.4849919466841188e+01 -2.0594653314136121e+01 0.0000000000000000e+00  -1.3581466172100361e+01 -1.7806546622627511e+01 0.0000000000000000e+00  -1.6820439414116120e+01 -2.2081720539716606e+01 0.0000000000000000e+00  -1.5429110012521029e+01 -1.9148639697845095e+01 0.0000000000000000e+00  -1.8819298935636382e+01 -2.3479804593799166e+01 0.0000000000000000e+00  -1.7372387584177588e+01 -2.0507561349509650e+01 0.0000000000000000e+00  -2.0782275293171299e+01 -2.4636788505653076e+01 0.0000000000000000e+00  -1.9340829955058130e+01 -2.1720388235699033e+01 0.0000000000000000e+00  -2.2633774072482186e+01 -2.5467861152772254e+01 0.0000000000000000e+00  -2.1270264010976277e+01 -2.2721607718120602e+01 0.0000000000000000e+00  -2.4313219124839470e+01 -2.5580529907313565e+01 0.0000000000000000e+00  -2.3084212035513652e+01 -2.3094348247013532e+01 0.0000000000000000e+00  -2.5779770617737753e+01 -2.5515278594536415e+01 0.0000000000000000e+00  -2.4725079517973821e+01 -2.3353277266488153e+01 0.0000000000000000e+00  -2.6984711877082372e+01 -2.4063154699248475e+01 0.0000000000000000e+00  -2.6145540608108497e+01 -2.2292190724490442e+01 0.0000000000000000e+00  -2.7930338973830992e+01 -2.2612991382636796e+01 0.0000000000000000e+00  -2.7307147897209617e+01 -2.1240499036036951e+01 0.0000000000000000e+00  -2.8598965436327354e+01 -1.9172250330882022e+01 0.0000000000000000e+00  -2.8197060709109607e+01 -1.8207940954538870e+01 0.0000000000000000e+00  -2.9041258869197701e+01 -1.5782760443598834e+01 0.0000000000000000e+00  -2.8819324889067257e+01 -1.5175356763756783e+01 0.0000000000000000e+00  -2.9266258519440019e+01 -1.0261706163379651e+01 0.0000000000000000e+00  -2.9194374287147323e+01 -9.9625033862214174e+00 0.0000000000000000e+00  -2.9368186673615831e+01 -3.7041782844027220e+00 0.0000000000000000e+00  -2.9372131158371072e+01 -3.6200750581533838e+00 0.0000000000000000e+00  -2.9389262613979245e+01 -1.3845731271889508e-11 0.0000000000000000e+00  -2.9389474445197738e+01 -2.1072587514502192e-04 0.0000000000000000e+00  -2.9389262614624659e+01 1.2880871101471608e-19 0.0000000000000000e+00  -2.1018924812596239e+01 1.1496882535492132e+01 0.0000000000000000e+00  -2.9366976210543054e+01 -1.0208620850197911e+00 0.0000000000000000e+00  -2.9389472734299879e+01 2.1399676796118213e-04 0.0000000000000000e+00  -2.0624920012767785e+01 2.0691433962826803e+01 0.0000000000000000e+00  -2.1047777674134714e+01 2.0168119293455735e+01 0.0000000000000000e+00  -1.7602367339004505e+01 2.7677009333602836e+01 0.0000000000000000e+00  -2.0713356149803889e+01 2.3184803992377887e+01 0.0000000000000000e+00  -1.6451673282137943e+01 2.9104169306645620e+01 0.0000000000000000e+00  -1.7748260796372168e+01 2.7429361860557048e+01 0.0000000000000000e+00  -1.4657728772771673e+01 3.0545456859054688e+01 0.0000000000000000e+00  -1.6651112563985734e+01 2.7899512988951678e+01 0.0000000000000000e+00  -1.3284790081402479e+01 2.9739241600658918e+01 0.0000000000000000e+00  -1.4908305530190114e+01 2.7725575013690001e+01 0.0000000000000000e+00  -1.1898508653041535e+01 2.8686670970215989e+01 0.0000000000000000e+00  -1.3585945560767207e+01 2.6649247018674227e+01 0.0000000000000000e+00  -1.0682422257953247e+01 2.6794296376963128e+01 0.0000000000000000e+00  -1.2247327360257318e+01 2.5012793387387845e+01 0.0000000000000000e+00  -9.3127723607963375e+00 2.4951758520966685e+01 0.0000000000000000e+00  -1.1077490094363510e+01 2.2937592213788690e+01 0.0000000000000000e+00  -8.2837288292879094e+00 2.2740253917274952e+01 0.0000000000000000e+00  -9.7530712396089250e+00 2.1236145483158008e+01 0.0000000000000000e+00  -7.4095396752601221e+00 2.0657249134099370e+01 0.0000000000000000e+00  -8.7676500036012275e+00 1.9384597714136554e+01 0.0000000000000000e+00  -6.4798403174802681e+00 1.8859931081662008e+01 0.0000000000000000e+00  -7.9359239504951642e+00 1.7503084938089827e+01 0.0000000000000000e+00  -5.6137318136798857e+00 1.7216570711074073e+01 0.0000000000000000e+00  -7.0479391739093575e+00 1.5954078395713090e+01 0.0000000000000000e+00  -4.8134487748408992e+00 1.5771429410293399e+01 0.0000000000000000e+00  -6.2223613332620200e+00 1.4607161768018697e+01 0.0000000000000000e+00  -4.0552119197294907e+00 1.4448877071395462e+01 0.0000000000000000e+00  -5.4617005833691925e+00 1.3346836855908826e+01 0.0000000000000000e+00  -3.3787518099760860e+00 1.3185246206905378e+01 0.0000000000000000e+00  -4.7423959329584946e+00 1.2205161856617284e+01 0.0000000000000000e+00  -2.7857838189104789e+00 1.2013085834955234e+01 0.0000000000000000e+00  -4.1040106497145068e+00 1.1157727375564967e+01 0.0000000000000000e+00  -2.2435753814688910e+00 1.0881947066127735e+01 0.0000000000000000e+00  -3.5483702250564297e+00 1.0102167692067358e+01 0.0000000000000000e+00  -1.7697930737473935e+00 9.7768195502435695e+00 0.0000000000000000e+00  -3.0429962674400066e+00 9.0990754905384215e+00 0.0000000000000000e+00  -1.3669706981780296e+00 8.7180222808140559e+00 0.0000000000000000e+00  -2.6053185720150029e+00 8.1464312863295092e+00 0.0000000000000000e+00  -1.0086021878455333e+00 7.6619822785584937e+00 0.0000000000000000e+00  -2.2382231236293149e+00 7.1564710175026667e+00 0.0000000000000000e+00  -7.0570011714324032e-01 6.6383655431030668e+00 0.0000000000000000e+00  -1.9148941349323516e+00 6.2159397396280474e+00 0.0000000000000000e+00  -4.6217233546484610e-01 5.6298521273506292e+00 0.0000000000000000e+00  -1.6470249417070275e+00 5.2957051708136635e+00 0.0000000000000000e+00  -2.5992137726223025e-01 4.6600115645014926e+00 0.0000000000000000e+00  -1.4373427518786634e+00 4.3882974753680593e+00 0.0000000000000000e+00  -1.0754858190880943e-01 3.6900112623814243e+00 0.0000000000000000e+00  -1.2699829745911186e+00 3.4913707603779125e+00 0.0000000000000000e+00  2.0315727564644199e-03 2.8521088285504224e+00 0.0000000000000000e+00  -1.1498187591263369e+00 2.7199101211405554e+00 0.0000000000000000e+00  7.1085374978296895e-02 1.9672624255036386e+00 0.0000000000000000e+00  -1.0760256762321574e+00 1.8914526310893691e+00 0.0000000000000000e+00  1.3775838318205363e-01 1.3340801508561950e+00 0.0000000000000000e+00  -1.0360108915495416e+00 1.2686000811895937e+00 0.0000000000000000e+00  2.0943517050260083e-01 7.1236547669457451e-01 0.0000000000000000e+00  -1.0097347104005745e+00 6.2698142457761408e-01 0.0000000000000000e+00  3.7239466952331168e-01 -1.7139440736403708e-01 0.0000000000000000e+00  -9.5422450710514350e-01 -3.6957666179075521e-01 0.0000000000000000e+00  1.2642206676860068e-01 -4.4194592317290979e+00 0.0000000000000000e+00  4.8596883840972194e-01 -4.6975265314787160e+00 0.0000000000000000e+00  -2.0682826379859945e-01 -4.7237156798274151e+00 0.0000000000000000e+00  -6.4198867391525105e-01 -5.6023682616029262e+00 0.0000000000000000e+00  -1.2210255875471083e+00 -6.2703168017922071e+00 0.0000000000000000e+00  -1.7912198692174672e+00 -7.1834576603745282e+00 0.0000000000000000e+00  -2.3443894502287232e+00 -7.8419180074872674e+00 0.0000000000000000e+00  -3.0094192910593360e+00 -8.7182210785254473e+00 0.0000000000000000e+00  -3.5775856926083525e+00 -9.3304892404078146e+00 0.0000000000000000e+00  -3.7208899693990056e+00 -9.3257974764286331e+00 0.0000000000000000e+00  -4.6836252336651478e+00 -1.0297379388972656e+01 0.0000000000000000e+00  -1.5752385205711559e+00 -4.7103766720755127e+00 0.0000000000000000e+00  -1.1137627862553272e+01 -1.8043995304557306e+01 0.0000000000000000e+00  -1.0074068106916831e+01 -1.5456855394071246e+01 0.0000000000000000e+00  -9.9196998377361876e+00 -1.4254050598353375e+01 0.0000000000000000e+00  -1.0425046927537718e+01 -1.3991909756605866e+01 0.0000000000000000e+00  -1.1454563877087496e+01 -1.4388397399644310e+01 0.0000000000000000e+00  -1.2834452120634822e+01 -1.5319274818920864e+01 0.0000000000000000e+00  -1.4472918468367565e+01 -1.6398744061366351e+01 0.0000000000000000e+00  -1.6283567084895790e+01 -1.7617443507133849e+01 0.0000000000000000e+00  -1.8184297417134793e+01 -1.8793985877880761e+01 0.0000000000000000e+00  -2.0105760179597599e+01 -1.9859483269817559e+01 0.0000000000000000e+00  -2.1980905657727803e+01 -2.0407641850953269e+01 0.0000000000000000e+00  -2.3734824562030759e+01 -2.0931000232532615e+01 0.0000000000000000e+00  -2.5308512090551670e+01 -2.0202662916554871e+01 0.0000000000000000e+00  -2.6655787116994318e+01 -1.9548932386158750e+01 0.0000000000000000e+00  -2.7733537558394588e+01 -1.6917255250897334e+01 0.0000000000000000e+00  -2.8539025018233612e+01 -1.4309893003832078e+01 0.0000000000000000e+00  -2.9056999872601711e+01 -9.4398934415743287e+00 0.0000000000000000e+00  -2.9341483202245925e+01 -3.4480865528078963e+00 0.0000000000000000e+00  -2.9389987349804983e+01 -4.0238182805582020e-04 0.0000000000000000e+00  -2.9328823536783222e+01 -1.1805530878267356e+00 0.0000000000000000e+00  -2.9389984135469987e+01 4.3344746580355122e-04 0.0000000000000000e+00  -2.9172593896407118e+01 7.7092331381064980e+00 0.0000000000000000e+00  -2.0918178417423789e+01 2.2735439287419542e+01 0.0000000000000000e+00  -2.0664649923554425e+01 2.3023890831092622e+01 0.0000000000000000e+00  -1.7767848937833289e+01 2.6294909568921863e+01 0.0000000000000000e+00  -1.6736570735971629e+01 2.5143976704053244e+01 0.0000000000000000e+00  -1.5050147952176378e+01 2.4701258645662062e+01 0.0000000000000000e+00  -1.3783449337623855e+01 2.3034820546399938e+01 0.0000000000000000e+00  -1.2494747971237976e+01 2.1211271242434968e+01 0.0000000000000000e+00  -1.1372034635490181e+01 1.9277162412620832e+01 0.0000000000000000e+00  -1.0092564525239011e+01 1.7932524267459783e+01 0.0000000000000000e+00  -9.1500658899887508e+00 1.6280001724804887e+01 0.0000000000000000e+00  -8.3592539266617489e+00 1.4646548093910001e+01 0.0000000000000000e+00  -7.5112185994962406e+00 1.3392059142625477e+01 0.0000000000000000e+00  -6.7240500761413049e+00 1.2228108687807769e+01 0.0000000000000000e+00  -6.0003480164463507e+00 1.1148109931035727e+01 0.0000000000000000e+00  -5.3169864976193111e+00 1.0221201536932419e+01 0.0000000000000000e+00  -4.7133339155013587e+00 9.2889786613185485e+00 0.0000000000000000e+00  -4.1912712255857505e+00 8.3608873424430179e+00 0.0000000000000000e+00  -3.7186170132478988e+00 7.5092376075465443e+00 0.0000000000000000e+00  -3.3127809505747909e+00 6.6244468975714126e+00 0.0000000000000000e+00  -2.9766064702630137e+00 5.7494816787488032e+00 0.0000000000000000e+00  -2.6836711797634982e+00 4.9116053946977676e+00 0.0000000000000000e+00  -2.4453142802350309e+00 4.0917073922689760e+00 0.0000000000000000e+00  -2.2648382605723048e+00 3.2568814185718185e+00 0.0000000000000000e+00  -2.1255559792726908e+00 2.5578104895455982e+00 0.0000000000000000e+00  -2.0339535524840264e+00 1.7950290851973827e+00 0.0000000000000000e+00  -1.9861899001895460e+00 1.2286115840949554e+00 0.0000000000000000e+00  -1.9747698193147931e+00 5.9772765902006020e-01 0.0000000000000000e+00  -1.9724975338145794e+00 -4.3111867446255153e-01 0.0000000000000000e+00  -1.1231996104326221e+00 -3.8781962373738392e+00 0.0000000000000000e+00  -8.0164481906930118e-01 -4.2181858288133069e+00 0.0000000000000000e+00  -1.4858125413551373e+00 -4.2209302387164467e+00 0.0000000000000000e+00  -1.8237252417659051e+00 -4.9473843875857488e+00 0.0000000000000000e+00  -2.2624316711632955e+00 -5.4001086284848281e+00 0.0000000000000000e+00  -2.8442603926671057e+00 -6.3275996885915644e+00 0.0000000000000000e+00  -3.4157746834140230e+00 -7.0133961728210235e+00 0.0000000000000000e+00  -3.9676732380564017e+00 -7.7235315389883841e+00 0.0000000000000000e+00  -4.6289023508396792e+00 -8.4835238640323194e+00 0.0000000000000000e+00  -5.1899593659851977e+00 -9.1191820545687055e+00 0.0000000000000000e+00  -5.3216419138447053e+00 -8.8643986428526844e+00 0.0000000000000000e+00  -6.2692409557829301e+00 -9.3841467102477782e+00 0.0000000000000000e+00  -3.1495578195053762e+00 -3.7050298214385111e+00 0.0000000000000000e+00  -1.2710985683173508e+01 -1.7054090544293935e+01 0.0000000000000000e+00  -1.1645407246941812e+01 -1.4496204381265001e+01 0.0000000000000000e+00  -1.1478483698912440e+01 -1.3250920348916649e+01 0.0000000000000000e+00  -1.1961299211302906e+01 -1.2867746744320193e+01 0.0000000000000000e+00  -1.2959164363270784e+01 -1.3279915742663329e+01 0.0000000000000000e+00  -1.4298726511727173e+01 -1.3978067222893127e+01 0.0000000000000000e+00  -1.5887141177052808e+01 -1.4944661534201154e+01 0.0000000000000000e+00  -1.7638845824825971e+01 -1.5993328272597678e+01 0.0000000000000000e+00  -1.9471280713233917e+01 -1.7036080459162740e+01 0.0000000000000000e+00  -2.1312218230199001e+01 -1.7659929954037949e+01 0.0000000000000000e+00  -2.3096584898397232e+01 -1.8377467776850072e+01 0.0000000000000000e+00  -2.4744865506427907e+01 -1.7924529277790260e+01 0.0000000000000000e+00  -2.6201722057058898e+01 -1.7627667877941281e+01 0.0000000000000000e+00  -2.7412331919917140e+01 -1.5398930671637004e+01 0.0000000000000000e+00  -2.8346504894848120e+01 -1.3233423795239926e+01 0.0000000000000000e+00  -2.8977781366780114e+01 -8.7634450498318319e+00 0.0000000000000000e+00  -2.9334549848109237e+01 -3.2061592809691071e+00 0.0000000000000000e+00  -2.9390789108248033e+01 -5.7641963130213969e-04 0.0000000000000000e+00  -2.9304827681482685e+01 -1.4934259680669311e+00 0.0000000000000000e+00  -2.9390786163646908e+01 6.2799399555780620e-04 0.0000000000000000e+00  -2.8937344128653169e+01 7.4173508408409026e+00 0.0000000000000000e+00  -2.8768882265742594e+01 1.0435051366631869e+01 0.0000000000000000e+00  -2.0626569759917860e+01 2.2744819801142437e+01 0.0000000000000000e+00  -2.0503538161844833e+01 2.2030608182335992e+01 0.0000000000000000e+00  -1.7716321643785719e+01 2.3676858194246332e+01 0.0000000000000000e+00  -1.6783483921156829e+01 2.2236768335996459e+01 0.0000000000000000e+00  -1.5182839392965176e+01 2.1197522914910479e+01 0.0000000000000000e+00  -1.3995285178012706e+01 1.9334229013360982e+01 0.0000000000000000e+00  -1.2777085441001377e+01 1.7645421924889902e+01 0.0000000000000000e+00  -1.1720460911088919e+01 1.6062079641834998e+01 0.0000000000000000e+00  -1.0502614511051362e+01 1.4913133402990566e+01 0.0000000000000000e+00  -9.6186171030747065e+00 1.3504881557013778e+01 0.0000000000000000e+00  -8.8840947178455973e+00 1.2163139909406542e+01 0.0000000000000000e+00  -8.0903149423297140e+00 1.1088984524898089e+01 0.0000000000000000e+00  -7.3551506269619917e+00 1.0102529822423911e+01 0.0000000000000000e+00  -6.6815588431362185e+00 9.2346386015776272e+00 0.0000000000000000e+00  -6.0463115121661763e+00 8.4207070192439630e+00 0.0000000000000000e+00  -5.4888636864214932e+00 7.6135417085887589e+00 0.0000000000000000e+00  -5.0112856882893642e+00 6.8349044304267181e+00 0.0000000000000000e+00  -4.5815919744975826e+00 6.0491508309377746e+00 0.0000000000000000e+00  -4.2171000938652892e+00 5.2778876469615534e+00 0.0000000000000000e+00  -3.9212034941225058e+00 4.5035519440360874e+00 0.0000000000000000e+00  -3.6669766434887352e+00 3.7654400462839459e+00 0.0000000000000000e+00  -3.4667946351435681e+00 3.0153874505702483e+00 0.0000000000000000e+00  -3.3224243948015979e+00 2.3794916951114620e+00 0.0000000000000000e+00  -3.2198701854966645e+00 1.6836222312260127e+00 0.0000000000000000e+00  -3.1607217207819494e+00 1.1888695551308441e+00 0.0000000000000000e+00  -3.1503908009447366e+00 6.0055972235626809e-01 0.0000000000000000e+00  -3.1623461966677686e+00 -4.0086348291868590e-01 0.0000000000000000e+00  -2.4363276598883052e+00 -3.3930397072271572e+00 0.0000000000000000e+00  -2.1509047022517662e+00 -3.7941682192843609e+00 0.0000000000000000e+00  -2.7623276701348982e+00 -3.6721552990688204e+00 0.0000000000000000e+00  -3.1328629231839176e+00 -4.4344631542667896e+00 0.0000000000000000e+00  -3.4795724817435634e+00 -4.7360037322653135e+00 0.0000000000000000e+00  -3.9272234895549798e+00 -5.4495611686644905e+00 0.0000000000000000e+00  -4.5167406633113885e+00 -6.1518138473646014e+00 0.0000000000000000e+00  -5.0941121506079536e+00 -6.8935417014295810e+00 0.0000000000000000e+00  -5.6489087177749209e+00 -7.4922858903183416e+00 0.0000000000000000e+00  -6.3087040085102917e+00 -8.2814761861780060e+00 0.0000000000000000e+00  -6.8629586540235081e+00 -8.6753439327708044e+00 0.0000000000000000e+00  -6.9828112515372567e+00 -7.9730136235603828e+00 0.0000000000000000e+00  -7.9176603310361910e+00 -8.3886218248522617e+00 0.0000000000000000e+00  -4.7977010544460423e+00 -2.7029378958582972e+00 0.0000000000000000e+00  -1.4377202058733888e+01 -1.6082628217979231e+01 0.0000000000000000e+00  -1.3326726669095097e+01 -1.3500787070414933e+01 0.0000000000000000e+00  -1.3159733292646463e+01 -1.2152362315179094e+01 0.0000000000000000e+00  -1.3629427404057449e+01 -1.1802032263303174e+01 0.0000000000000000e+00  -1.4600034221251050e+01 -1.1995219654481085e+01 0.0000000000000000e+00  -1.5901020934619469e+01 -1.2598073389928329e+01 0.0000000000000000e+00  -1.7438674144263988e+01 -1.3410096886399133e+01 0.0000000000000000e+00  -1.9126571781081047e+01 -1.4341462103292310e+01 0.0000000000000000e+00  -2.0881218256170396e+01 -1.4962510324087308e+01 0.0000000000000000e+00  -2.2630029637858151e+01 -1.5779427374616253e+01 0.0000000000000000e+00  -2.4301882693601002e+01 -1.5538858683128247e+01 0.0000000000000000e+00  -2.5821976354685088e+01 -1.5552730137555615e+01 0.0000000000000000e+00  -2.7122807148860907e+01 -1.3694810361361483e+01 0.0000000000000000e+00  -2.8164568031757049e+01 -1.1985761546658468e+01 0.0000000000000000e+00  -2.8887974381397374e+01 -7.9400369398655126e+00 0.0000000000000000e+00  -2.9317098854979935e+01 -2.8971131003486796e+00 0.0000000000000000e+00  -2.9391849849