<?xml version="1.0"?>
<VTKFile type="UnstructuredGrid"  version="0.1"  >
<UnstructuredGrid>
<Piece  NumberOfPoints="1933" NumberOfCells="3640">
<Points>
<DataArray  type="Float64"  NumberOfComponents="3"  format="ascii">-0.475254354175084 -0.002591831171532753 0  4.524745696599233 -0.002524020858966188 0  4.524643958236371 7.497476094270375 0  -0.4753561074154747 7.49740826104722 0  9.524745784826747 -0.002456293610557971 0  9.524644064188964 7.497543822791054 0  14.5247459548057 -0.002388633676270278 0  14.52464422505368 7.497611478021577 0  19.52474624160798 -0.002320998484615157 0  19.52464445176392 7.49767910766134 0  24.52474666970202 -0.002253332379971201 0  24.52464475156037 7.497746768929165 0  29.52474725435862 -0.002185572765394403 0  29.52464512750537 7.497814524732867 0  34.52474800342591 -0.002117652590059078 0  34.52464557811606 7.497882442006587 0  39.52474891874901 -0.002049500934421748 0  39.52464609707438 7.497950591425094 0  44.52474999707225 -0.001981042531501914 0  44.52464667287884 7.498019047983666 0  49.52475123043038 -0.001912196625822921 0  49.52464728831692 7.498087892161667 0  54.52475260606547 -0.001842875341816989 0  54.52464791965842 7.498157211542642 0  59.5247541058816 -0.001772981600190903 0  59.5246485354762 7.498227102866514 0  64.52475570541161 -0.001702406531046665 0  64.52464909498094 7.498297674564545 0  69.52475737220469 -0.001631026257405005 0  69.52464954572716 7.498369049892318 0  74.52475906347365 -0.001558697843051839 0  74.52464982048876 7.498441370841592 0  79.52476072271617 -0.001485254097737865 0  79.52464983301978 7.498514803090247 0  84.52476227485054 -0.001410496792431043 0  84.52464947230872 7.498589542346187 0  89.52476361910107 -0.001334187633824328 0  89.52464859477844 7.498665822561447 0  94.52476461836676 -0.001256036048598831 0  94.52464701369811 7.498743926630021 0  99.52476508291137 -0.001175682392501493 0  99.52464448488355 7.498824200304608 0  104.5247647446419 -0.001092674583190326 0  104.5246406876266 7.498907070077516 0  109.5247632153618 -0.001006435342248794 0  109.5246351999895 7.498993065417086 0  114.5247599171525 -0.000916216328820765 0  114.5246274686673 7.499082844442081 0  119.5247539633084 -0.00082103496973963 0  119.5246167769002 7.499177218497028 0  124.524743950214 -0.0007195914577585423 0  124.5246022223661 7.499277162206601 0  129.5247275869023 -0.0006101724251210158 0  129.524582736927 7.499383775234678 0  134.5247010262586 -0.000490580076181412 0  134.5245572249402 7.499498118158201 0  139.5246576437351 -0.000358232595288216 0  139.524524994535 7.499620759180694 0  144.5245857791273 -0.000210951893854758 0  144.524486867853 7.499750740619463 0  149.5244644488089 -5.038344146733996e-05 0  149.5244478369891 7.499883717980732 0  159.5244717418521 6.752158337351912e-19 0  164.5244567185071 -7.005746060473903e-05 0  164.5244709337337 7.49991251509733 0  159.5244671630258 7.499959757304802 0  169.5244671633811 -0.0001043881514307587 0  169.5244743280892 7.499887198401973 0  174.5244876637054 -0.0001139692285153851 0  174.5244802536295 7.499881769974783 0  179.5245111874524 -0.0001056966486873569 0  179.5244885074417 7.499892114839864 0  184.5245345396388 -8.433499790237234e-05 0  184.5244982336258 7.4999145524152 0  189.5245563452619 -5.326001151026606e-05 0  189.5245086227982 7.499946198354789 0  194.5245760981936 -1.488915269545017e-05 0  194.5245190726821 7.499984876444241 0  199.5245937009352 2.902786032872974e-05 0  199.5245291839331 7.500028960232486 0  204.5246092400035 7.72083701836203e-05 0  204.5245387147208 7.500077231500347 0  209.5246228765719 0.0001286986165116534 0  209.5245475340459 7.500128770747723 0  214.5246347939576 0.0001827788229629247 0  214.5245555845524 7.500182876705003 0  219.5246451732091 0.0002388977575304901 0  219.5245628557506 7.500239008306657 0  224.5246541825558 0.0002966272141218183 0  224.5245693657207 7.500296743036229 0  229.5246619736431 0.0003556299559785987 0  229.5245751490226 7.500355746908844 0  234.5246686810269 0.0004156368116901174 0  234.5245802489179 7.500415752658376 0  239.5246744231746 0.0004764300613367149 0  239.5245847124964 7.500476543717256 0  244.5246793041208 0.000537831207682175 0  244.5245885877397 7.50053794231783 0  249.5246834153572 0.0005996918581478155 0  249.5245919218579 7.50059980056294 0  254.5246868377847 0.0006618868616464101 0  254.5245947604736 7.500661993674587 0  259.5246896436472 0.0007243091272227742 0  259.5245971473533 7.500724414881145 0  264.5246918984564 0.0007868657502119013 0  264.5245991245036 7.500786971585392 0  269.5246936629081 0.0008494752215140451 0  269.5246007324998 7.500849582593084 0  274.5246949948398 0.00091206562258566 0  274.5246020109366 7.500912176296619 0  279.5246959512332 0.0009745738350580484 0  279.5246029989248 7.500974689815136 0  284.5246965902566 0.001036945941878108 0  284.5246037355369 7.501037069204886 0  289.5246969731913 0.00109913919247858 0  289.524604260102 7.501099270979229 0  294.524697165925 0.00116112617510477 0  294.5246046122788 7.501161265317353 0  299.5246972391329 0.001222902192357706 0  299.5246048318953 7.501223041479159 0  304.5246972653139 0.001284497141014909 0  304.5246049589237 7.501284616055271 0  309.5246973086294 0.00134599261586196 0  309.5246050348428 7.501346044900797 0  4.524542039384773 14.99747633065784 0  -0.4754580240790161 14.99740848249265 0  9.524542120812555 14.99754403529498 0  14.52454222714385 14.99761165732423 0  19.52454235896335 14.99767925502233 0  24.52454251340215 14.99774688841014 0  29.52454268470386 14.9978146201895 0  34.52454286392224 14.9978825160319 0  39.52454303831473 14.99795064503346 0  44.52454319060297 14.99801908051789 0  49.52454329811622 14.99808790119703 0  54.52454333177646 14.99815719267549 0  59.5245432548617 14.99822704930864 0  64.52454302148136 14.9982975764534 0  69.52454257468921 14.99836889318235 0  74.52454184416955 14.99844113555914 0  79.52454074344259 14.99851446059229 0  84.52453916658611 14.99858905098396 0  89.52453698456975 14.99866512074897 0  94.52453404152807 14.99874292164106 0  99.52453015171483 14.99882274999129 0  104.524525098713 14.99890495283232 0  109.5245186399075 14.99898993067591 0  114.524510521748 14.9990781313285 0  119.5245005153847 14.99917002343301 0  124.5244884883226 14.99926602794652 0  129.5244745354279 14.99936636738026 0  134.5244591986649 14.9994707625062 0  139.5244437977513 14.99957786181326 0  144.5244308397093 14.99968423148623 0  149.5244242806426 14.99978263894132 0  164.5244531109295 14.9998642248389 0  159.524447664645 14.99987332436187 0  169.5244542266021 14.99986122588113 0  174.5244543310558 14.99986805913635 0  179.5244550016582 14.99988503749615 0  184.5244567185498 14.99991105132715 0  189.5244594435025 14.9999446211538 0  194.5244629449567 14.99998432803236 0  199.52446695405 15.00002895366243 0  204.5244712296291 15.00007750082116 0  209.5244755788095 15.0001291704767 0  214.5244798577772 15.0001833275524 0  219.524483965061 15.00023946766768 0  224.5244878329491 15.00029718881586 0  229.52449141942 15.00035616857655 0  234.5244947014218 15.00041614626003 0  239.5244976695931 15.00047690907749 0  244.5245003242807 15.00053828147043 0  249.5245026726122 15.00060011687995 0  254.5245047263879 15.00066229139594 0  259.5245065005925 15.00072469887116 0  264.5245080123518 15.00078724720196 0  269.5245092802153 15.00084985557641 0  274.5245103236563 15.00091245256867 0  279.5245111627104 15.00097497502496 0  284.5245118177463 15.00103736773598 0  289.5245123093509 15.00109958391463 0  294.5245126585088 15.00116158646626 0  299.5245128873722 15.0012233498964 0  304.5245130213175 15.00128486232917 0  309.5245130935273 15.00134612628923 0  4.524440083772925 22.49747673850969 0  -0.4755599743378949 22.49740894952211 0  9.524440139818788 22.49754436976661 0  14.52444019241664 22.49761191698382 0  19.52444023663556 22.49767944480919 0  24.52444026483507 22.49774701471342 0  29.52444026705573 22.49781468810853 0  34.52444023089172 22.49788252804404 0  39.52444014104938 22.49795060035358 0  44.52443997874296 22.49801897468613 0  49.52443972100619 22.49808772561549 0  54.52443933994825 22.49815693390871 0  59.52443880196784 22.49822668798838 0  64.52443806694176 22.4982970856058 0  69.52443708742889 22.49836823572599 0  74.52443580797723 22.4984402606039 0  79.52443416470082 22.49851329797965 0  84.5244320854181 22.49858750322446 0  89.52442949084818 22.4986630510856 0  94.52442629767279 22.49874013634934 0  99.52442242473511 22.49881897215992 0  104.524417804314 22.4988997837408 0  109.524412401287 22.49898279360873 0  114.5244062439957 22.49906819172044 0  119.5243994713985 22.4991560799654 0  124.5243924007265 22.49924637485242 0  129.5243856162879 22.49933864591765 0  134.5243800692927 22.49943186401667 0  139.5243771538558 22.49952404469742 0  144.5243786771071 22.49961182832246 0  149.5243865701696 22.49969022581189 0  164.5244112121781 22.49980868228495 0  159.5244068217559 22.49979135535671 0  169.5244117054494 22.49982570524149 0  174.5244100530918 22.49984625684333 0  179.5244076760296 22.49987211197818 0  184.524405449157 22.49990368808477 0  189.5244037970581 22.49994067414211 0  194.5244028537741 22.49998244683297 0  199.5244025929477 22.50002830131303 0  204.5244029135019 22.50007756301146 0  209.524403689713 22.50012963301722 0  214.5244047976282 22.5001839996949 0  219.5244061272525 22.500240234731 0  224.5244075867892 22.50029798307629 0  229.5244091027773 22.50035695140205 0  234.5244106183452 22.50041689713202 0  239.5244120907825 22.50047761883277 0  244.5244134890464 22.50053894813688 0  249.5244147914782 22.50060074311178 0  254.5244159838415 22.50066288289467 0  259.5244170576762 22.50072526340155 0  264.5244180089589 22.50078779393717 0  269.5244188370112 22.50085039456334 0  274.5244195436334 22.50091299411041 0  279.5244201324401 22.50097552873204 0  284.5244206084241 22.50103794089631 0  289.5244209778187 22.50110017865634 0  294.5244212484327 22.50116219492188 0  299.5244214306984 22.5
[...]
<PointData  Vectors="v"> 
<DataArray  type="Float64"  Name="v"  NumberOfComponents="3" format="ascii">-4.3399598674072237e+00 -3.1243670329646354e+00 0.0000000000000000e+00  -4.5388428614770184e+00 -2.5911940172235686e+00 0.0000000000000000e+00  -3.8412415249122973e+00 -2.2930304534675896e+00 0.0000000000000000e+00  -3.6825126504310499e+00 -2.8857054025111770e+00 0.0000000000000000e+00  -4.7231531041837176e+00 -2.4347996880373772e+00 0.0000000000000000e+00  -4.0397985341126477e+00 -2.1585198102053744e+00 0.0000000000000000e+00  -4.8015805503228020e+00 -2.3345287715801732e+00 0.0000000000000000e+00  -4.2236430109944303e+00 -2.2173422610912956e+00 0.0000000000000000e+00  -4.7793343719960246e+00 -1.8158836946004109e+00 0.0000000000000000e+00  -4.3013649837177477e+00 -1.8496380574538074e+00 0.0000000000000000e+00  -4.7942453278118515e+00 -1.5146222065869430e+00 0.0000000000000000e+00  -4.2782584677613711e+00 -1.4925726146039844e+00 0.0000000000000000e+00  -4.7316766827708028e+00 -9.7733613281126996e-01 0.0000000000000000e+00  -4.2925567742882897e+00 -1.0715623434898713e+00 0.0000000000000000e+00  -4.6084806870215624e+00 -3.9299193571682006e-01 0.0000000000000000e+00  -4.2293946026802445e+00 -5.7773249021824713e-01 0.0000000000000000e+00  -4.7787919622934920e+00 -2.0688130956822484e-01 0.0000000000000000e+00  -4.1058260419232466e+00 4.8912671547865896e-02 0.0000000000000000e+00  -4.7541998988230061e+00 2.5570156290452556e-01 0.0000000000000000e+00  -4.2763496516611319e+00 2.1932422609240884e-01 0.0000000000000000e+00  -7.2544785107944909e+00 -3.0134279459891480e+00 0.0000000000000000e+00  -4.2524152101301667e+00 7.3824282120810503e-01 0.0000000000000000e+00  -8.4314100511055443e+00 -4.2209368549086728e+00 0.0000000000000000e+00  -6.7529144002947357e+00 -2.4544506633123162e+00 0.0000000000000000e+00  -8.7664328034909396e+00 -4.0743385765121758e+00 0.0000000000000000e+00  -7.9310969871028929e+00 -3.5690197028102597e+00 0.0000000000000000e+00  -8.7587818102269459e+00 -3.3548070254579803e+00 0.0000000000000000e+00  -8.2690717202150079e+00 -3.3623373462373665e+00 0.0000000000000000e+00  -8.5504980247470623e+00 -2.3494578365000605e+00 0.0000000000000000e+00  -8.2655845066295122e+00 -2.6563460719903351e+00 0.0000000000000000e+00  -8.2654971603083638e+00 -1.2629979139762681e+00 0.0000000000000000e+00  -8.0635840846119127e+00 -1.6841991233135867e+00 0.0000000000000000e+00  -7.9018864885184739e+00 -1.1008971640500644e-01 0.0000000000000000e+00  -7.7861120021921950e+00 -6.4708280086870829e-01 0.0000000000000000e+00  -7.4482856519336016e+00 1.0321363858622030e+00 0.0000000000000000e+00  -7.4315686100811345e+00 3.6182692017645379e-01 0.0000000000000000e+00  -6.8936119442277164e+00 2.2424096665172466e+00 0.0000000000000000e+00  -6.9898863089863168e+00 1.4219537188336524e+00 0.0000000000000000e+00  -6.2261279512070127e+00 3.4937577608837103e+00 0.0000000000000000e+00  -6.4487849275619871e+00 2.5072021156046280e+00 0.0000000000000000e+00  -5.4468795019946112e+00 4.8029184562051386e+00 0.0000000000000000e+00  -5.7978508159871813e+00 3.6507065661842746e+00 0.0000000000000000e+00  -4.5884900406101847e+00 6.0904981922617019e+00 0.0000000000000000e+00  -5.0381897679252887e+00 4.8228040575121289e+00 0.0000000000000000e+00  -3.6911107111873083e+00 7.4528290592168362e+00 0.0000000000000000e+00  -4.2035689639540950e+00 6.1291346957427555e+00 0.0000000000000000e+00  -2.7987866394662260e+00 8.5107354639131767e+00 0.0000000000000000e+00  -3.3316601019824024e+00 7.2000574133895725e+00 0.0000000000000000e+00  -1.9811288186884424e+00 9.6378331034264182e+00 0.0000000000000000e+00  -2.4730077844162901e+00 8.4388919395779869e+00 0.0000000000000000e+00  -1.2700449178205837e+00 9.9939451774263617e+00 0.0000000000000000e+00  -1.6874533266563225e+00 8.9654265655152976e+00 0.0000000000000000e+00  -7.2445382851934825e-01 1.0385770513449405e+01 0.0000000000000000e+00  -1.0222979766228177e+00 9.5996063824362441e+00 0.0000000000000000e+00  -3.3370723851665551e-01 9.2062270506870210e+00 0.0000000000000000e+00  -5.1497724911531784e-01 8.6713187464879091e+00 0.0000000000000000e+00  -1.2329350104214357e-01 8.1828216712879485e+00 0.0000000000000000e+00  -1.8544964061110741e-01 7.9023562622411525e+00 0.0000000000000000e+00  -2.2040238173376057e-02 3.9908771672656354e+00 0.0000000000000000e+00  -1.8313142241854666e-02 3.9066988918874275e+00 0.0000000000000000e+00  -1.0693042255486329e-05 -7.3881128118555335e-05 0.0000000000000000e+00  -7.4071473554070599e-04 -8.3733322416422191e-04 0.0000000000000000e+00  -5.4535741934108884e-11 2.3721503541919138e-19 0.0000000000000000e+00  1.4487856914425525e+00 -7.1523410514839165e+00 0.0000000000000000e+00  -2.7291950396918018e-02 -9.3450336410604056e+00 0.0000000000000000e+00  -7.0761493713180127e-04 6.6112628545453550e-04 0.0000000000000000e+00  -1.9897989329957372e-01 -1.1843402691528180e+01 0.0000000000000000e+00  1.4505336393333514e+00 -9.4162524364582492e+00 0.0000000000000000e+00  -2.0613113899850119e-01 -1.1107880540046782e+01 0.0000000000000000e+00  -1.6174924817603861e-01 -1.1114768801652222e+01 0.0000000000000000e+00  -8.0961010839989300e-01 -1.1012746482913489e+01 0.0000000000000000e+00  -1.3789958596318158e-01 -1.0134077978284912e+01 0.0000000000000000e+00  -9.9446860950412364e-01 -8.8494706388078335e+00 0.0000000000000000e+00  -7.1553816423402761e-01 -8.5915906643011155e+00 0.0000000000000000e+00  -1.2553931568281405e+00 -7.1971719177869433e+00 0.0000000000000000e+00  -8.7756058576203133e-01 -6.8252714868205366e+00 0.0000000000000000e+00  -1.4035696825104309e+00 -5.3644857902877039e+00 0.0000000000000000e+00  -1.1169712832241432e+00 -5.1577059076513851e+00 0.0000000000000000e+00  -1.5659587841568019e+00 -4.0044767052887629e+00 0.0000000000000000e+00  -1.2470470605856279e+00 -3.7765847764968257e+00 0.0000000000000000e+00  -1.6335134522914021e+00 -2.9131201012670243e+00 0.0000000000000000e+00  -1.3930008052734639e+00 -2.8248342250780367e+00 0.0000000000000000e+00  -1.7523715644031412e+00 -2.3142300791729871e+00 0.0000000000000000e+00  -1.4454588018437307e+00 -2.1479774902961064e+00 0.0000000000000000e+00  -1.8998150013161517e+00 -1.9465713380798155e+00 0.0000000000000000e+00  -1.5510660010986530e+00 -1.7364382369006408e+00 0.0000000000000000e+00  -2.0260060696309008e+00 -1.7786047068120072e+00 0.0000000000000000e+00  -1.6865317243572815e+00 -1.5992644032981931e+00 0.0000000000000000e+00  -2.1222103179374425e+00 -1.7079441837840619e+00 0.0000000000000000e+00  -1.8016263549548113e+00 -1.5725208907571138e+00 0.0000000000000000e+00  -2.1910413499485948e+00 -1.6607905710523549e+00 0.0000000000000000e+00  -1.8879780230235070e+00 -1.5658962640444836e+00 0.0000000000000000e+00  -2.2118656006358517e+00 -1.6174241189395564e+00 0.0000000000000000e+00  -1.9478359317964609e+00 -1.5937326602183088e+00 0.0000000000000000e+00  -2.2091427578116387e+00 -1.5807869310133171e+00 0.0000000000000000e+00  -1.9603095604453746e+00 -1.5918056764792119e+00 0.0000000000000000e+00  -2.1926879248386788e+00 -1.5263504917011241e+00 0.0000000000000000e+00  -1.9499934597103892e+00 -1.5575968052598306e+00 0.0000000000000000e+00  -2.1548178925339667e+00 -1.4578274729207752e+00 0.0000000000000000e+00  -1.9264921225255545e+00 -1.5207622525962075e+00 0.0000000000000000e+00  -2.1079130327358611e+00 -1.3894911221212607e+00 0.0000000000000000e+00  -1.8819180847229846e+00 -1.4656161499874465e+00 0.0000000000000000e+00  -2.0624771852767445e+00 -1.2908088075657089e+00 0.0000000000000000e+00  -1.8287367171781030e+00 -1.3645682928183469e+00 0.0000000000000000e+00  -2.0030556538211735e+00 -1.2070357349242691e+00 0.0000000000000000e+00  -1.7772722530375942e+00 -1.3015286236174841e+00 0.0000000000000000e+00  -1.9416388827930875e+00 -1.0637811323410142e+00 0.0000000000000000e+00  -1.7120242842920803e+00 -1.1611616636235325e+00 0.0000000000000000e+00  -1.8711577612852890e+00 -9.7409888492321517e-01 0.0000000000000000e+00  -1.6448761469245996e+00 -1.0849319461446791e+00 0.0000000000000000e+00  -1.7897158462676781e+00 -7.2374140602238679e-01 0.0000000000000000e+00  -1.5688975850597138e+00 -8.5108946976343769e-01 0.0000000000000000e+00  -1.6833067720460466e+00 -6.7349662782770359e-01 0.0000000000000000e+00  -1.4817557370019643e+00 -8.3800820343414406e-01 0.0000000000000000e+00  -1.5518317219991038e+00 -1.8803513585499473e-01 0.0000000000000000e+00  -1.3700847329124854e+00 -3.9057559329599256e-01 0.0000000000000000e+00  -1.3785051329742761e+00 -2.9422064755418526e-01 0.0000000000000000e+00  -1.2326886693438563e+00 -5.5882200001316107e-01 0.0000000000000000e+00  -1.1018874793299771e+00 6.3848612346146105e-01 0.0000000000000000e+00  -1.0545427011885389e+00 2.1774518257711428e-01 0.0000000000000000e+00  -6.3493802045649272e-01 7.9421149820080406e-01 0.0000000000000000e+00  -7.7110944880674026e-01 9.0052907413597102e-02 0.0000000000000000e+00  4.6818993180016111e-01 2.8945709707681183e-01 0.0000000000000000e+00  -3.0144184065327978e-01 -1.3731256919993429e+00 0.0000000000000000e+00  -3.1266901775682876e+00 -2.0557207841022076e+00 0.0000000000000000e+00  -2.9415720877754792e+00 -2.6063577322155504e+00 0.0000000000000000e+00  -3.2839399731686947e+00 -1.8620665898593127e+00 0.0000000000000000e+00  -3.4799341913701145e+00 -1.9432922885651644e+00 0.0000000000000000e+00  -3.6605096343170995e+00 -1.7351753296497590e+00 0.0000000000000000e+00  -3.7343757555658410e+00 -1.5298993538455168e+00 0.0000000000000000e+00  -3.7067780353723578e+00 -1.0527102645530617e+00 0.0000000000000000e+00  -3.7164456999655173e+00 -6.7498209197357339e-01 0.0000000000000000e+00  -3.6489158697713759e+00 -1.3917320713814113e-01 0.0000000000000000e+00  -3.5211944792286629e+00 4.7339716821257066e-01 0.0000000000000000e+00  -3.6891706320284130e+00 7.0190363489300311e-01 0.0000000000000000e+00  -3.6632301356755037e+00 1.2925732413752709e+00 0.0000000000000000e+00  -6.1563498886740931e+00 -1.8064251185563425e+00 0.0000000000000000e+00  -7.3280298360315692e+00 -2.8560662484228763e+00 0.0000000000000000e+00  -7.6647809789073831e+00 -2.6620336089492631e+00 0.0000000000000000e+00  -7.6620129117197600e+00 -1.9845841501540802e+00 0.0000000000000000e+00  -7.4641338204192875e+00 -1.0597989069692160e+00 0.0000000000000000e+00  -7.1928866994737364e+00 -1.6593078816483744e-01 0.0000000000000000e+00  -6.8463272690468093e+00 7.6611410384151402e-01 0.0000000000000000e+00  -6.4159293348457629e+00 1.7040866668706369e+00 0.0000000000000000e+00  -5.8895410089830449e+00 2.6835223563739974e+00 0.0000000000000000e+00  -5.2562350978131382e+00 3.6974556385100552e+00 0.0000000000000000e+00  -4.5202918854449328e+00 4.8929922702242967e+00 0.0000000000000000e+00  -3.7144300262704819e+00 5.9128719676371571e+00 0.0000000000000000e+00  -2.8785595363463621e+00 7.1742275236054560e+00 0.0000000000000000e+00  -2.0629358658210304e+00 7.8206749959802062e+00 0.0000000000000000e+00  -1.3326910898442146e+00 8.6308887507595546e+00 0.0000000000000000e+00  -7.2674692275259101e-01 7.9648520523799684e+00 0.0000000000000000e+00  -3.0245940468946347e-01 7.4382273517804283e+00 0.0000000000000000e+00  -4.8362824399935958e-02 3.7441907371689904e+00 0.0000000000000000e+00  -2.4887472675214810e-03 -1.5921583008560339e-03 0.0000000000000000e+00  -5.5062087862022893e-02 -9.1876755205501333e+00 0.0000000000000000e+00  -2.4475797862531954e-03 1.2963793884978535e-03 0.0000000000000000e+00  -2.0800594220728263e-01 -1.1643768343502728e+01 0.0000000000000000e+00  1.3191871329100682e+00 -8.7371656954282528e+00 0.0000000000000000e+00  -2.3424342152698868e-01 -1.0196538678699095e+01 0.0000000000000000e+00  -1.6864260168360254e-01 -7.7489093942270619e+00 0.0000000000000000e+00  -7.0932765364292050e-01 -6.5977339658234611e+00 0.0000000000000000e+00  -8.4408731086665079e-01 -4.8166139303721334e+00 0.0000000000000000e+00  -1.0571891059435852e+00 -3.5938419384029645e+00 0.0000000000000000e+00  -1.1665748900316268e+00 -2.6171317738987736e+00 0.0000000000000000e+00  -1.2942506056154703e+00 -2.0797682584621082e+00 0.0000000000000000e+00  -1.3304414354293612e+00 -1.5868824588235753e+00 0.0000000000000000e+00  -1.4217779964616850e+00 -1.4035074284097351e+00 0.0000000000000000e+00  -1.5448893882975685e+00 -1.4072121479031450e+00 0.0000000000000000e+00  -1.6486273195393306e+00 -1.4424452124146254e+00 0.0000000000000000e+00  -1.7252032940867248e+00 -1.5091032163049143e+00 0.0000000000000000e+00  -1.7766363391429532e+00 -1.5779568493824823e+00 0.0000000000000000e+00  -1.7815434790812081e+00 -1.5771958393563912e+00 0.0000000000000000e+00  -1.7646331088886489e+00 -1.5595498122183113e+00 0.0000000000000000e+00  -1.7353562060788519e+00 -1.5358689216994381e+00 0.0000000000000000e+00  -1.6854457152409767e+00 -1.4473654107810647e+00 0.0000000000000000e+00  -1.6273919578460752e+00 -1.3814606174922501e+00 0.0000000000000000e+00  -1.5714049069187590e+00 -1.2618015230511346e+00 0.0000000000000000e+00  -1.5017224760932784e+00 -1.1882346206435870e+00 0.0000000000000000e+00  -1.4302866941610264e+00 -9.6769361284540001e-01 0.0000000000000000e+00  -1.3499943158930943e+00 -9.7123329193092656e-01 0.0000000000000000e+00  -1.2585738778088911e+00 -5.6094050303369225e-01 0.0000000000000000e+00  -1.1423928868443824e+00 -7.6718616167809583e-01 0.0000000000000000e+00  -1.0007833364768906e+00 -5.2820487335147714e-02 0.0000000000000000e+00  -8.1785393960712216e-01 -3.3679978330218840e-01 0.0000000000000000e+00  -5.3035950062601456e-01 -2.0813080491806071e+00 0.0000000000000000e+00  -2.2585012813539755e+00 -1.7797863063138404e+00 0.0000000000000000e+00  -2.0858145242677391e+00 -2.3447977342996755e+00 0.0000000000000000e+00  -2.4406605843764781e+00 -1.6294601349298927e+00 0.0000000000000000e+00  -2.5924465773856906e+00 -1.6534547006091702e+00 0.0000000000000000e+00  -2.7818252886482178e+00 -1.4698398363084333e+00 0.0000000000000000e+00  -2.9537931834088864e+00 -1.4256739618274750e+00 0.0000000000000000e+00  -3.0174720868879104e+00 -1.1013027408963989e+00 0.0000000000000000e+00  -2.9788837461318129e+00 -6.6840043351678813e-01 0.0000000000000000e+00  -2.9767730046054619e+00 -2.4818757152008600e-01 0.0000000000000000e+00  -2.8977792837892209e+00 2.7524102532284089e-01 0.0000000000000000e+00  -2.7607411680612786e+00 9.4914944795054212e-01 0.0000000000000000e+00  -2.9221844801784660e+00 1.2490604458912615e+00 0.0000000000000000e+00  -2.8856214324453000e+00 1.9204458906659685e+00 0.0000000000000000e+00  -5.3570106019192272e+00 -1.1130954392146439e+00 0.0000000000000000e+00  -6.5092545164661164e+00 -2.1624269862442840e+00 0.0000000000000000e+00  -6.8367297420983970e+00 -1.9907556743397645e+00 0.0000000000000000e+00  -6.8304293281641764e+00 -1.3554103812882006e+00 0.0000000000000000e+00  -6.6328714326478151e+00 -5.6884378000795055e-01 0.0000000000000000e+00  -6.3648007915124332e+00 2.5279774629175333e-01 0.0000000000000000e+00  -6.0252662182288441e+00 1.0674205398858472e+00 0.0000000000000000e+00  -5.6051575138395675e+00 1.9067064669584766e+00 0.0000000000000000e+00  -5.0934563486431292e+00 2.7654824752441214e+00 0.0000000000000000e+00  -4.4825096003931320e+00 3.8110937556805231e+00 0.0000000000000000e+00  -3.7757138945895048e+00 4.7366875518209586e+00 0.0000000000000000e+00  -3.0115926283813654e+00 5.9577848449176773e+00 0.0000000000000000e+00  -2.2281684956014955e+00 6.6524018946106569e+00 0.0000000000000000e+00  -1.4860814545832381e+00 7.5924755438302256e+00 0.0000000000000000e+00  -8.4096778555329299e-01 7.1498759871454833e+00 0.0000000000000000e+00  -3.5763770585909244e-01 6.8731875710156070e+00 0.0000000000000000e+00  -5.5372857088764382e-02 3.5262373464359671e+00 0.0000000000000000e+00  -5.2169581952263271e-03 -2.2756673641399147e-03 0.0000000000000000e+00  -6.4342895024373639e-02 -8.9422374077017714e+00 0.0000000000000000e+00  -5.1800660316920089e-03 1.8527854703041444e-03 0.0000000000000000e+00  -3.4697220454685873e-01 -1.1369503282061626e+01 0.0000000000000000e+00  -5.0413016138672095e-01 -1.1091705018709325e+01 0.0000000000000000e+00  1.1111023872918040e+00 -7.9408532311082691e+00 0.0000000000000000e+00  -3.4850685148155064e-01 -7.8958529932752182e+00 0.0000000000000000e+00  -2.1742769975150680e-01 -5.8316456642421217e+00 0.0000000000000000e+00  -7.0556784854903598e-01 -4.6449657363597918e+00 0.0000000000000000e+00  -7.9967146478926332e-01 -3.3030030071867005e+00 0.0000000000000000e+00  -9.7755098598479451e-01 -2.4759945618581942e+00 0.0000000000000000e+00  -1.0586759511098227e+00 -1.9083919083766241e+00 0.0000000000000000e+00  -1.1611381830244765e+00 -1.5497799073856435e+00 0.0000000000000000e+00  -1.1757587555415585e+00 -1.2821119609872151e+00 0.0000000000000000e+00  -1.2481111168443280e+00 -1.2360002140636104e+00 0.0000000000000000e+00  -1.3542213006255932e+00 -1.2988841928842985e+00 0.0000000000000000e+00  -1.4430350694528866e+00 -1.4047410349722271e+00 0.0000000000000000e+00  -1.5069419339269887e+00 -1.5097111135830823e+00 0.0000000000000000e+00  -1.5474822476303780e+00 -1.5774679600162771e+00 0.0000000000000000e+00  -1.5431928172859837e+00 -1.5915706090024579e+00 0.0000000000000000e+00  -1.5185267315613045e+00 -1.5854627655131772e+00 0.0000000000000000e+00  -1.4825299061656341e+00 -1.5273008184073680e+00 0.0000000000000000e+00  -1.4266902957581240e+00 -1.4731654630309996e+00 0.0000000000000000e+00  -1.3633166484402879e+00 -1.3501091947405233e+00 0.0000000000000000e+00  -1.3022497339186168e+00 -1.2968873696167296e+00 0.0000000000000000e+00  -1.2276639316124287e+00 -1.0790990846125512e+00 0.0000000000000000e+00  -1.1512115143768127e+00 -1.0957418875712164e+00 0.0000000000000000e+00  -1.0659337247511593e+00 -7.0263945978979248e-01 0.0000000000000000e+00  -9.6904754275934768e-01 -9.4547327320031693e-01 0.0000000000000000e+00  -8.4781960923856381e-01 -2.7046557082292394e-01 0.0000000000000000e+00  -7.0003498297075206e-01 -6.1453132017486123e-01 0.0000000000000000e+00  -5.1317355017739807e-01 -2.5182559389962216e+00 0.0000000000000000e+00  -1.6219431965074906e+00 -1.5231636358620850e+00 0.0000000000000000e+00  -1.4525997319183326e+00 -2.0873200636921263e+00 0.0000000000000000e+00  -1.7907171356367377e+00 -1.3607521760622689e+00 0.0000000000000000e+00  -1.9654403162176934e+00 -1.4322043479410020e+00 0.0000000000000000e+00  -2.1075907215519631e+00 -1.1938933762077120e+00 0.0000000000000000e+00  -2.2846201975955083e+00 -1.1776115101317062e+00 0.0000000000000000e+00  -2.4418523943869817e+00 -1.0176138199576077e+00 0.0000000000000000e+00  -2.4883232419569317e+00 -7.3923609620751241e-01 0.0000000000000000e+00  -2.4308563383377555e+00 -2.6488456679918793e-01 0.0000000000000000e+00  -2.4096160150526278e+00 1.4360995428164466e-01 0.0000000000000000e+00  -2.3131492294505835e+00 7.3334981238384023e-01 0.0000000000000000e+00  -2.1618117186236816e+00 1.4824958843791254e+00 0.0000000000000000e+00  -2.3104049204280437e+00 1.8519747259478401e+00 0.0000000000000000e+00  -2.2499533080993435e+00 2.5672099466767349e+00 0.0000000000000000e+00  -4.6806467705738495e+00 -4.6121939831491510e-01 0.0000000000000000e+00  -5.7983900818043628e+00 -1.5143886893351575e+00 0.0000000000000000e+00  -6.1059596876650373e+00 -1.3746704889166868e+00 0.0000000000000000e+00  -6.0863828180795947e+00 -8.7069992443591582e-01 0.0000000000000000e+00  -5.8809656252480620e+00 -1.5395519308424149e-01 0.0000000000000000e+00  -5.6065642272499181e+00 5.5619150366436454e-01 0.0000000000000000e+00  -5.2631194883788011e+00 1.2760924030525285e+00 0.0000000000000000e+00  -4.8423846888291715e+00 2.0008628635460965e+00 0.0000000000000000e+00  -4.3348676964219353e+00 2.9018766225745867e+00 0.0000000000000000e+00  -3.7344572276405597e+00 3.6930878747652178e+00 0.0000000000000000e+00  -3.0516687950524108e+00 4.8334724160359537e+00 0.0000000000000000e+00  -2.3230149074798949e+00 5.5206262723322457e+00 0.0000000000000000e+00  -1.6012734313500532e+00 6.5263988673978757e+00 0.0000000000000000e+00  -9.3732097922611812e-01 6.2742251173105670e+00 0.0000000000000000e+00  -4.1975769482629838e-01 6.2222898267700648e+00 0.0000000000000000e+00  -7.2963418639776192e-02 3.2597488173067006e+