<?xml version="1.0"?>
<VTKFile type="UnstructuredGrid"  version="0.1"  >
<UnstructuredGrid>
<Piece  NumberOfPoints="1933" NumberOfCells="3640">
<Points>
<DataArray  type="Float64"  NumberOfComponents="3"  format="ascii">0.4754527309948903 0.0004686322354608915 0  5.475452737402775 0.0004478288581774685 0  5.475483963323554 7.500447858069702 0  0.4754839447877411 7.500468639897207 0  10.47545274227453 0.0004269936890455121 0  10.47548400012921 7.500427031505802 0  15.47545276254973 0.0004061023234879428 0  15.4754840660519 7.50040614338947 0  20.47545281896812 0.0003851463052473932 0  20.47548417224045 7.500385188435478 0  25.47545293225835 0.0003641271814239847 0  25.47548433028808 7.500364169639324 0  30.4754531219548 0.0003430529918939634 0  30.47548455198919 7.500343095729681 0  35.47545340632485 0.0003219361794170855 0  35.47548484916204 7.500321979484635 0  40.47545380274894 0.000300792411673098 0  40.47548523360418 7.500300836742533 0  45.47545432826447 0.0002796400186550758 0  45.47548571715394 7.50027968593184 0  50.4754550001531 0.0002584998676736205 0  50.47548631181441 7.500258547993012 0  55.47545583652631 0.0002373955745913301 0  55.47548702990251 7.50023744661442 0  60.47545685689887 0.0002163540028909301 0  60.47548788419294 7.500216408745098 0  65.47545808275501 0.0001954060423761156 0  65.47548888802909 7.500195465381423 0  70.47545953811374 0.0001745876940359925 0  70.47549005537267 7.500174652656234 0  75.47546125010145 0.0001539415229755438 0  75.47549140075489 7.500154013291502 0  80.47546324952928 0.0001335185834518726 0  80.47549293907679 7.500133598514171 0  85.47546557146018 0.0001133809765257006 0  85.47549468518206 7.500113470585163 0  90.47546825571797 9.360528222556526e-05 0  90.47549665308391 7.500093706159751 0  95.47547134723762 7.428723075861494e-05 0  95.47549885467515 7.500074400793564 0  100.475474896038 5.554816706641478e-05 0  100.4755012976679 7.500055675042273 0  105.4754789563835 3.754416138233374e-05 0  105.4755039824111 7.500037682785138 0  110.4754835842638 2.047909171856233e-05 0  110.4755068971283 7.500020622633744 0  115.475488831465 4.623775572316262e-06 0  115.4755100110821 7.500004753538316 0  120.47549473279 -9.655589708691995e-06 0  120.4755132653824 7.499990415854832 0  125.4755012795795 -2.185460736385601e-05 0  125.4755165621217 7.499978058844468 0  130.4755083658414 -3.126581970679804e-05 0  130.4755197554405 7.499968273980457 0  135.4755156795042 -3.688117193903238e-05 0  135.4755226558773 7.499961828610318 0  140.4755224830658 -3.725138754954709e-05 0  140.4755250788398 7.499959683049607 0  145.475527167615 -3.031594141882322e-05 0  145.4755270166467 7.49996295503249 0  150.4755263211198 -1.338171412483185e-05 0  150.4755291410699 7.499972807449852 0  160.4755282581476 6.961680139772167e-19 0  165.4754863080383 -5.473867502616878e-05 0  165.4755200462178 7.49993717997939 0  160.4755327119749 7.499979819606646 0  170.4754621669372 -0.0001025097288979654 0  170.4755070242409 7.499893502957436 0  175.4754477406976 -0.0001454940276524478 0  175.4754960853681 7.499852307803371 0  180.475438918739 -0.0001847095348412668 0  180.4754875172854 7.499814005803443 0  185.4754334645424 -0.0002209136680739317 0  185.4754810242379 7.499778306438664 0  190.4754301065168 -0.0002547148059905816 0  190.4754761986036 7.499744796893546 0  195.4754280947054 -0.0002865932504079193 0  195.4754726651497 7.499713092570047 0  200.4754269707245 -0.0003169219905846177 0  200.4754701167058 7.499682871064834 0  205.4754264441365 -0.0003459893693248579 0  205.4754683135095 7.499653871820593 0  210.4754263242869 -0.000374019338602463 0  210.4754670721038 7.499625886524395 0  215.4754264817884 -0.0004011876377116085 0  215.4754662530126 7.499598748427586 0  220.4754268261753 -0.0004276340076846607 0  220.4754657501299 7.49957232307248 0  225.4754272925578 -0.0004534711781220197 0  225.4754654823861 7.499546500909697 0  230.4754278334024 -0.0004787914243176906 0  230.475465387471 7.499521191629094 0  235.4754284133063 -0.0005036713622849825 0  235.4754654171905 7.499496319863558 0  240.4754290055688 -0.0005281754865550215 0  240.4754655340545 7.499471821936418 0  245.4754295898817 -0.0005523588150135759 0  245.4754657087681 7.49944764338305 0  250.4754301507317 -0.0005762688978625999 0  250.4754659183825 7.499423737041771 0  255.4754306762821 -0.0005999473704769752 0  255.4754661449296 7.499400061563035 0  260.4754311575849 -0.0006234311752588345 0  260.4754663744067 7.499376580228332 0  265.4754315880392 -0.0006467535386235062 0  265.4754665960311 7.499353260002091 0  270.4754319630363 -0.0006699447601341186 0  270.4754668016951 7.499330070765039 0  275.4754322797789 -0.0006930328464287285 0  275.4754669855728 7.499306984698994 0  280.4754325372505 -0.0007160439976328218 0  280.475467143854 7.499283975814402 0  285.4754327363539 -0.0007390029214400071 0  285.4754672745593 7.499261019637283 0  290.4754328802237 -0.0007619328984019649 0  290.4754673774215 7.499238093106808 0  295.4754329747218 -0.0007848554296186012 0  295.475467453794 7.499215174784245 0  300.4754330290799 -0.0008077891213544926 0  300.475467506567 7.499192245544203 0  305.4754330565046 -0.0008307471069692654 0  305.4754675401316 7.499169290006634 0  310.4754330741901 -0.000853731569476998 0  310.4754675606461 7.499146299042238 0  5.475515075877345 15.00044793154289 0  0.4755150542139751 15.0004686618848 0  10.4755151166128 15.00042712501843 0  15.47551518661449 15.00040624225918 0  20.47551529337558 15.00038528665153 0  25.47551544341866 15.00036426550682 0  30.47551564301248 15.0003431896312 0  35.47551589840464 15.00032207275602 0  40.47551621585209 15.00030093112327 0  45.47551660157441 15.00027978330771 0  50.47551706167739 15.00025865028418 0  55.47551760205305 15.00023755573066 0  60.47551822824585 15.00021652656382 0  65.47551894526427 15.00019559371897 0  70.47551975730899 15.00017479320474 0  75.47552066738459 15.00015416748546 0  80.47552167675155 15.00013376726973 0  85.47552278417226 15.00011365381354 0  90.47552398489927 15.00009390188099 0  95.47552526936451 15.00007460354019 0  100.4755266215649 15.00005587299693 0  105.475528017232 15.00003785265681 0  110.4755294220819 15.00002072049556 0  115.4755307908633 15.0000046984746 0  120.4755320687107 14.99999006088587 0  125.4755331977123 14.99997713958173 0  130.4755341338495 14.9999663189099 0  135.4755348825527 14.99995800453917 0  140.4755355637539 14.99995253228751 0  145.4755365134933 14.99994994265972 0  150.4755383960056 14.99994943793917 0  165.4755403075776 14.99991613575022 0  160.4755427636263 14.9999486321718 0  170.4755356785236 14.99988051372993 0  175.4755301708022 14.99984436285559 0  180.475524749174 14.99980908159145 0  185.4755198883646 14.99977518910065 0  190.4755157548724 14.99974277455079 0  195.4755123550385 14.9997117468236 0  200.4755096228569 14.99968195314907 0  205.4755074667009 14.99965323135113 0  210.4755057922978 14.99962543074497 0  215.4755045129085 14.99959841881938 0  220.4755035529615 14.99957208181579 0  225.475502848534 14.99954632295436 0  230.4755023464572 14.99952105998126 0  235.4755020029391 14.99949622273694 0  240.4755017821215 14.99947175099937 0  245.4755016547561 14.9994475926611 0  250.4755015970649 14.99942370222034 0  255.4755015897885 14.99940003954111 0  260.4755016174075 14.99937656883455 0  265.4755016675118 14.99935325781975 0  270.4755017302935 14.99933007703228 0  275.4755017981315 14.99930699925897 0  280.4755018652526 14.99928399908813 0  285.4755019274482 14.99926105257443 0  290.475501981826 14.99923813702306 0  295.4755020266164 14.99921523089118 0  300.4755020610622 14.99919231375806 0  305.475502085508 14.9991693661614 0  310.4755021019165 14.99914636864926 0  5.475546047122133 22.50044809140857 0  0.4755460252551441 22.50046876656376 0  10.47554608261667 22.50042730747608 0  15.47554613994964 22.50040642989259 0  20.47554622421486 22.50038547157674 0  25.47554633878768 22.50036444540704 0  30.47554648616237 22.50034336524746 0  35.47554666836365 22.50032224639389 0  40.47554688708629 22.50030110579901 0  45.47554714367242 22.50027996227121 0  50.47554743899307 22.50025883674837 0  55.47554777326402 22.50023775269722 0  60.47554814580758 22.5002167366697 0  65.47554855475914 22.50019581904264 0  70.47554899670992 22.50017503496929 0  75.47554946627942 22.50015442557868 0  80.4755499556132 22.50013403946421 0  85.47555045381604 22.50011393450671 0  90.47555094635703 22.50009418006969 0  95.47555141453208 22.50007485957678 0  100.4755518351512 22.50005607341057 0  105.4755521807595 22.50003794191942 0  110.475552420914 22.50002060801564 0  115.4755525253534 22.50000423827466 0  120.4755524702965 22.49998902040764 0  125.4755522495116 22.49997515318013 0  130.4755518918823 22.49996282189376 0  135.4755514861632 22.49995214809162 0  140.4755512096473 22.49994309657594 0  145.4755513468959 22.49993532003802 0  150.4755522617044 22.49992794127454 0  165.475558217386 22.49989291996314 0  160.4755557956472 22.4999192046618 0  170.4755585512656 22.49986335234581 0  175.4755573630488 22.49983215033602 0  180.4755552786032 22.49980051800938 0  185.4755528053904 22.49976919100137 0  190.4755502826711 22.49973854604217 0  195.4755479081405 22.49970873407636 0  200.4755457806252 22.49967977954484 0  205.4755439366275 22.49965164261059 0  210.4755423763622 22.49962425486257 0  215.4755410807092 22.49959753857087 0  220.4755400216173 22.49957141643274 0  225.4755391681815 22.49954581606297 0  230.4755384899944 22.4995206716911 0  235.4755379588539 22.49949592443952 0  240.4755375495069 22.49947152192889 0  245.4755372398533 22.49944741760335 0  250.4755370108583 22.49942356997585 0  255.4755368463281 22.49939994188916 0  260.4755367326212 22.4993764998353 0  265.4755366583502 22.49935321334772 0  270.4755366140892 22.49933005446895 0  275.4755365920993 22.49930699728951 0  280.4755365860721 22.49928401755189 0  285.4755365908966 22.49926109230621 0  290.4755366024519 22.49923819959166 0  295.4755366174455 2
[...]
<PointData  Vectors="v"> 
<DataArray  type="Float64"  Name="v"  NumberOfComponents="3" format="ascii">3.3598972026246274e+00 6.6680609924991634e+00 0.0000000000000000e+00  3.8273903208341364e+00 6.0397564512870359e+00 0.0000000000000000e+00  3.3156188582481603e+00 5.3387819843645730e+00 0.0000000000000000e+00  2.9517492637742651e+00 6.1220765803503427e+00 0.0000000000000000e+00  4.3704981861538821e+00 6.3023763621028577e+00 0.0000000000000000e+00  3.7826483370288124e+00 5.4884348291010312e+00 0.0000000000000000e+00  4.8032547122102036e+00 6.8715861592097793e+00 0.0000000000000000e+00  4.3247005941568197e+00 6.2236897477092707e+00 0.0000000000000000e+00  5.1257906587704092e+00 6.7448481495473587e+00 0.0000000000000000e+00  4.7557899041527198e+00 6.2627088075059341e+00 0.0000000000000000e+00  5.5564043012564364e+00 7.0988924323768572e+00 0.0000000000000000e+00  5.0760776333252418e+00 6.4550313457075674e+00 0.0000000000000000e+00  5.8512145571981318e+00 6.9862230999668489e+00 0.0000000000000000e+00  5.5040241651659425e+00 6.5464841139431060e+00 0.0000000000000000e+00  5.8238445661588267e+00 6.4620256323539751e+00 0.0000000000000000e+00  5.7956706777315352e+00 6.5057699530531607e+00 0.0000000000000000e+00  6.5993106644833350e+00 7.0248501247593991e+00 0.0000000000000000e+00  5.7648089595726333e+00 5.8646051475601446e+00 0.0000000000000000e+00  4.6650292145796088e+00 3.5478858707882028e+00 0.0000000000000000e+00  6.5365633841266879e+00 6.4525463834003354e+00 0.0000000000000000e+00  1.3082588701825557e+01 1.5383615573148649e+01 0.0000000000000000e+00  4.5983901212213079e+00 2.7603533046137456e+00 0.0000000000000000e+00  1.3612345986518390e+01 1.5033686064176260e+01 0.0000000000000000e+00  1.3011479291440734e+01 1.4242833172111608e+01 0.0000000000000000e+00  1.3867189941559639e+01 1.4127897065019368e+01 0.0000000000000000e+00  1.3536737706612280e+01 1.3748986068149529e+01 0.0000000000000000e+00  1.4190795986881609e+01 1.3271201030425653e+01 0.0000000000000000e+00  1.3787333960516806e+01 1.2789254015550581e+01 0.0000000000000000e+00  1.4643211933678106e+01 1.2629870168492992e+01 0.0000000000000000e+00  1.4106595425305962e+01 1.1954566849425817e+01 0.0000000000000000e+00  1.5239805683035003e+01 1.2200505565685814e+01 0.0000000000000000e+00  1.4554835977743078e+01 1.1309109023327970e+01 0.0000000000000000e+00  1.5921536321896722e+01 1.1864221190999563e+01 0.0000000000000000e+00  1.5147110871302466e+01 1.0844694400840808e+01 0.0000000000000000e+00  1.6625386675222277e+01 1.1706546919902475e+01 0.0000000000000000e+00  1.5824651521567159e+01 1.0653586281820100e+01 0.0000000000000000e+00  1.7288600643329755e+01 1.1415329590539180e+01 0.0000000000000000e+00  1.6524926686144973e+01 1.0422928900262411e+01 0.0000000000000000e+00  1.7856512727176259e+01 1.1027872412254183e+01 0.0000000000000000e+00  1.7184877550401222e+01 1.0177378066221172e+01 0.0000000000000000e+00  1.8290482520080875e+01 1.0433991673903749e+01 0.0000000000000000e+00  1.7750542818081545e+01 9.7836723899116418e+00 0.0000000000000000e+00  1.8576414515663391e+01 9.6600805421881368e+00 0.0000000000000000e+00  1.8183371189546016e+01 9.2304071166595225e+00 0.0000000000000000e+00  1.8717028861236827e+01 8.3677894350471842e+00 0.0000000000000000e+00  1.8469869990621422e+01 8.1548549074545313e+00 0.0000000000000000e+00  1.8731123366666075e+01 7.2698564124793537e+00 0.0000000000000000e+00  1.8612109838117938e+01 7.2442648982446238e+00 0.0000000000000000e+00  1.8658215856161426e+01 5.2467007726149664e+00 0.0000000000000000e+00  1.8631403204239021e+01 5.3510525701520359e+00 0.0000000000000000e+00  1.8531612439828674e+01 3.9946073358139684e+00 0.0000000000000000e+00  1.8563811949157067e+01 4.1748163267462139e+00 0.0000000000000000e+00  1.8399324640213948e+01 1.4790958473196520e+00 0.0000000000000000e+00  1.8448722517070046e+01 1.6692297540200365e+00 0.0000000000000000e+00  1.8281993667478059e+01 5.6465378604641570e-01 0.0000000000000000e+00  1.8326050651552688e+01 7.2412580620539035e-01 0.0000000000000000e+00  1.8210706041445956e+01 -1.8217370554795422e+00 0.0000000000000000e+00  1.8228397069134360e+01 -1.7262166155359946e+00 0.0000000000000000e+00  1.8172537701725574e+01 -1.6746282272456758e+00 0.0000000000000000e+00  1.8171210168064505e+01 -1.6424831357091070e+00 0.0000000000000000e+00  1.8163563198813900e+01 2.8694926476939614e-11 0.0000000000000000e+00  1.8164429349908225e+01 8.6011671654738226e-04 0.0000000000000000e+00  1.8163563200133073e+01 -3.0363956793472929e-19 0.0000000000000000e+00  1.1542647271897073e+01 1.5592221047826064e-02 0.0000000000000000e+00  1.8177145378448152e+01 9.9431745625949315e+00 0.0000000000000000e+00  1.8164421977375067e+01 -8.7385668103067402e-04 0.0000000000000000e+00  1.2947404914775797e+01 -9.4300746725137152e-01 0.0000000000000000e+00  1.1559014539308945e+01 -3.0473905162572819e+00 0.0000000000000000e+00  1.1085627294337948e+01 -5.9967862879561835e+00 0.0000000000000000e+00  1.2965066623496089e+01 -3.2120578880569486e+00 0.0000000000000000e+00  1.0978734127034423e+01 -6.9651331402114147e+00 0.0000000000000000e+00  1.1107773022032969e+01 -6.8098687043178963e+00 0.0000000000000000e+00  1.0054829194163627e+01 -1.0018501247399822e+01 0.0000000000000000e+00  1.1008132865056345e+01 -8.6409545597676107e+00 0.0000000000000000e+00  9.4675048949933984e+00 -1.1170673002170931e+01 0.0000000000000000e+00  1.0092971349331000e+01 -1.0298454615113910e+01 0.0000000000000000e+00  8.7590496785071981e+00 -1.2352153006796252e+01 0.0000000000000000e+00  9.5153894662263312e+00 -1.1299928975833447e+01 0.0000000000000000e+00  8.1701270581502836e+00 -1.2542532220891045e+01 0.0000000000000000e+00  8.8182797502196344e+00 -1.1669814209761103e+01 0.0000000000000000e+00  7.3914073360043817e+00 -1.2495563667516301e+01 0.0000000000000000e+00  8.2415004163884902e+00 -1.1339360665524879e+01 0.0000000000000000e+00  6.8743861579085044e+00 -1.1728115381704017e+01 0.0000000000000000e+00  7.4756384376998994e+00 -1.0964961734808259e+01 0.0000000000000000e+00  6.4813248533933203e+00 -1.0809500201606783e+01 0.0000000000000000e+00  6.9723309777128151e+00 -1.0232779342593107e+01 0.0000000000000000e+00  6.0327701774991880e+00 -9.8675946473038607e+00 0.0000000000000000e+00  6.5935375669566207e+00 -9.2081379219942168e+00 0.0000000000000000e+00  5.5935535504402925e+00 -8.9234449661928537e+00 0.0000000000000000e+00  6.1596705442820037e+00 -8.2784173933836609e+00 0.0000000000000000e+00  5.1676855947897229e+00 -8.0781110989808038e+00 0.0000000000000000e+00  5.7356547539504090e+00 -7.4533156537246406e+00 0.0000000000000000e+00  4.7198000265151627e+00 -7.3047852756960383e+00 0.0000000000000000e+00  5.3253039356712639e+00 -6.6472473884655932e+00 0.0000000000000000e+00  4.2989339105318427e+00 -6.5610297759247294e+00 0.0000000000000000e+00  4.8931315651938645e+00 -5.9441923236981582e+00 0.0000000000000000e+00  3.9159378566250731e+00 -5.8914940163878589e+00 0.0000000000000000e+00  4.4882068045649408e+00 -5.3315138902420660e+00 0.0000000000000000e+00  3.5428881379817776e+00 -5.2614527748860773e+00 0.0000000000000000e+00  4.1212354903811157e+00 -4.7164793586402132e+00 0.0000000000000000e+00  3.2030874457980310e+00 -4.6472421848552754e+00 0.0000000000000000e+00  3.7642484755792340e+00 -4.1521309386351133e+00 0.0000000000000000e+00  2.9085982848394911e+00 -4.0919511775444368e+00 0.0000000000000000e+00  3.4404874312702631e+00 -3.6647913484700827e+00 0.0000000000000000e+00  2.6275834724788729e+00 -3.5235175444897844e+00 0.0000000000000000e+00  3.1620509676704516e+00 -3.1164429916324274e+00 0.0000000000000000e+00  2.3788322866554337e+00 -3.0345600472291627e+00 0.0000000000000000e+00  2.8968671673704791e+00 -2.6759149297422491e+00 0.0000000000000000e+00  2.1577113090246596e+00 -2.5013573930891164e+00 0.0000000000000000e+00  2.6640374746584969e+00 -2.1838181606134643e+00 0.0000000000000000e+00  1.9511010046973454e+00 -2.1527445896776469e+00 0.0000000000000000e+00  2.4583386803497391e+00 -1.8572160868283649e+00 0.0000000000000000e+00  1.7503697966187708e+00 -1.6039500974733429e+00 0.0000000000000000e+00  2.2675928772470870e+00 -1.3164508050204839e+00 0.0000000000000000e+00  1.5509589415896587e+00 -1.5719145574563065e+00 0.0000000000000000e+00  2.0815097828196243e+00 -1.2873536830789107e+00 0.0000000000000000e+00  1.3347883400501384e+00 -9.1946119331265319e-01 0.0000000000000000e+00  1.8982940545378706e+00 -6.0776073945702314e-01 0.0000000000000000e+00  1.0167480008499854e+00 -1.4609884357959608e+00 0.0000000000000000e+00  1.6952574606148125e+00 -9.9944708171425078e-01 0.0000000000000000e+00  5.0505256348689365e-01 -1.2336539304864014e+00 0.0000000000000000e+00  1.3953653662783705e+00 -4.7604902135634786e-01 0.0000000000000000e+00  -6.9799303984472838e-01 -1.8340559606121665e-01 0.0000000000000000e+00  8.9093351682003841e-01 1.6004651224272175e+00 0.0000000000000000e+00  3.0455807080189259e+00 4.7932349569957449e+00 0.0000000000000000e+00  2.6382802651773591e+00 5.5106911314744567e+00 0.0000000000000000e+00  3.4087379631018311e+00 4.7887927455217927e+00 0.0000000000000000e+00  3.8738597626074514e+00 5.4121969939311567e+00 0.0000000000000000e+00  4.4128087338878359e+00 5.6184048680324024e+00 0.0000000000000000e+00  4.8395521128735464e+00 5.9777434989824725e+00 0.0000000000000000e+00  5.1542013824359625e+00 5.9083018388954311e+00 0.0000000000000000e+00  5.5754129450650369e+00 6.0726465778684435e+00 0.0000000000000000e+00  5.8593979748682123e+00 5.9158405459937438e+00 0.0000000000000000e+00  5.8200996271309959e+00 5.2998784974859827e+00 0.0000000000000000e+00  6.5834839564559502e+00 5.6723302262860225e+00 0.0000000000000000e+00  4.6368098446210295e+00 1.6293060910166677e+00 0.0000000000000000e+00  1.3038714677052241e+01 1.2967964684504915e+01 0.0000000000000000e+00  1.3553064783321574e+01 1.2418643665075436e+01 0.0000000000000000e+00  1.3794490826982491e+01 1.1481512622352422e+01 0.0000000000000000e+00  1.4104140054329978e+01 1.0642194917486211e+01 0.0000000000000000e+00  1.4542632192724415e+01 9.9624541227936856e+00 0.0000000000000000e+00  1.5124279869049488e+01 9.6439937441802588e+00 0.0000000000000000e+00  1.5790412982395194e+01 9.3791199065980582e+00 0.0000000000000000e+00  1.6479109828457766e+01 9.1941953903766720e+00 0.0000000000000000e+00  1.7127480584301438e+01 8.9421432675126695e+00 0.0000000000000000e+00  1.7681741295575499e+01 8.5867745921976955e+00 0.0000000000000000e+00  1.8104741613400979e+01 7.7304369963754453e+00 0.0000000000000000e+00  1.8382897627498938e+01 7.0343213600824201e+00 0.0000000000000000e+00  1.8519669355060032e+01 5.3242408633302007e+00 0.0000000000000000e+00  1.8536756075331866e+01 4.2740506404888228e+00 0.0000000000000000e+00  1.8472666547496090e+01 1.8401914989046306e+00 0.0000000000000000e+00  1.8364609210255111e+01 8.9564160571177176e-01 0.0000000000000000e+00  1.8260533756055935e+01 -1.5851408897204344e+00 0.0000000000000000e+00  1.8182348814314199e+01 -1.5863461789978885e+00 0.0000000000000000e+00  1.8166525173291994e+01 1.6410190589077399e-03 0.0000000000000000e+00  1.8181390042700649e+01 9.8843986660939578e+00 0.0000000000000000e+00  1.8166511501874467e+01 -1.7683915100475073e-03 0.0000000000000000e+00  1.8237900701799703e+01 6.8786751777306421e+00 0.0000000000000000e+00  1.1610420282226750e+01 -5.3125957134868100e+00 0.0000000000000000e+00  1.3007586974137865e+01 -4.0231843182829907e+00 0.0000000000000000e+00  1.1150750065142846e+01 -8.4930981330407249e+00 0.0000000000000000e+00  1.1054843189573504e+01 -8.9303374575974210e+00 0.0000000000000000e+00  1.0147262667529251e+01 -1.0437495126718741e+01 0.0000000000000000e+00  9.5777613575909299e+00 -1.0630295767168066e+01 0.0000000000000000e+00  8.8908065058544707e+00 -1.0480556242239958e+01 0.0000000000000000e+00  8.3248725865559123e+00 -9.8227863305705299e+00 0.0000000000000000e+00  7.5705267794429778e+00 -9.4850874937869634e+00 0.0000000000000000e+00  7.0794773640938988e+00 -8.6476751848950126e+00 0.0000000000000000e+00  6.7136181480965638e+00 -7.6354079078167478e+00 0.0000000000000000e+00  6.2930878418859839e+00 -6.8256046505454666e+00 0.0000000000000000e+00  5.8830362904608915e+00 -6.0403326522419114e+00 0.0000000000000000e+00  5.4871041330253547e+00 -5.3046169824352978e+00 0.0000000000000000e+00  5.0695818476009764e+00 -4.7330179323877717e+00 0.0000000000000000e+00  4.6795298483939343e+00 -4.1750214304230688e+00 0.0000000000000000e+00  4.3275364560889003e+00 -3.6255458005290775e+00 0.0000000000000000e+00  3.9854367724191344e+00 -3.1880711911406041e+00 0.0000000000000000e+00  3.6764830566901257e+00 -2.7075661337742569e+00 0.0000000000000000e+00  3.4126357529361449e+00 -2.2868315638935415e+00 0.0000000000000000e+00  3.1618029078744585e+00 -1.8429398025514729e+00 0.0000000000000000e+00  2.9429268587011883e+00 -1.5571194323689503e+00 0.0000000000000000e+00  2.7509649570464498e+00 -1.0380538328681748e+00 0.0000000000000000e+00  2.5732973315957577e+00 -1.0165870509624684e+00 0.0000000000000000e+00  2.4003547653130930e+00 -3.3948911091536399e-01 0.0000000000000000e+00  2.2290188758885807e+00 -7.0392381487330646e-01 0.0000000000000000e+00  2.0388684769395007e+00 -3.0787982852347309e-02 0.0000000000000000e+00  1.7497404616339889e+00 2.3473557297716541e+00 0.0000000000000000e+00  2.9497945153666434e+00 4.1828502899381421e+00 0.0000000000000000e+00  2.5784551224861554e+00 4.9530272486390885e+00 0.0000000000000000e+00  3.3560215766888337e+00 4.2455374983353931e+00 0.0000000000000000e+00  3.7165902810539113e+00 4.7172777066029186e+00 0.0000000000000000e+00  4.1772950621354079e+00 4.8144869002787596e+00 0.0000000000000000e+00  4.7093582297314702e+00 5.3438463531052074e+00 0.0000000000000000e+00  5.1267341590083362e+00 5.4442865999903356e+00 0.0000000000000000e+00  5.4296068543478144e+00 5.4505078845973394e+00 0.0000000000000000e+00  5.8366932543054935e+00 5.5008503591280915e+00 0.0000000000000000e+00  6.1048206135704310e+00 5.3705771520282859e+00 0.0000000000000000e+00  6.0490267843888512e+00 4.5388330307080240e+00 0.0000000000000000e+00  6.7965300585343087e+00 4.5610268920987771e+00 0.0000000000000000e+00  4.8322537623992208e+00 3.8034580210974095e-01 0.0000000000000000e+00  1.3211836304000327e+01 1.1662927295139163e+01 0.0000000000000000e+00  1.3705504202962249e+01 1.1131495564306306e+01 0.0000000000000000e+00  1.3929895777885369e+01 1.0190287530078702e+01 0.0000000000000000e+00  1.4222089019128303e+01 9.3181091755746532e+00 0.0000000000000000e+00  1.4641339977488512e+01 8.7863804385393074e+00 0.0000000000000000e+00  1.5201244505515906e+01 8.3962535610948663e+00 0.0000000000000000e+00  1.5843470371275581e+01 8.1788813442513248e+00 0.0000000000000000e+00  1.6506029714861949e+01 7.9879603062843945e+00 0.0000000000000000e+00  1.7126881138249047e+01 7.7737014459122449e+00 0.0000000000000000e+00  1.7653740216450021e+01 7.1140745656695170e+00 0.0000000000000000e+00  1.8049782515613117e+01 6.6322608507579517e+00 0.0000000000000000e+00  1.8304404405561108e+01 5.1326477107631527e+00 0.0000000000000000e+00  1.8421413467471456e+01 4.2548470297508283e+00 0.0000000000000000e+00  1.8427592072412669e+01 1.9401604603070093e+00 0.0000000000000000e+00  1.8359895084486769e+01 1.0452549551342234e+00 0.0000000000000000e+00  1.8266802323303438e+01 -1.4382379585127487e+00 0.0000000000000000e+00  1.8185124150827519e+01 -1.5179868901575291e+00 0.0000000000000000e+00  1.8169797086944726e+01 2.3477024020488869e-03 0.0000000000000000e+00  1.8175876043912350e+01 9.8322077819402978e+00 0.0000000000000000e+00  1.8169784507713310e+01 -2.5586406724637011e-03 0.0000000000000000e+00  1.8231518960001903e+01 6.7847311811028481e+00 0.0000000000000000e+00  1.8284633846320826e+01 4.6425521570925188e+00 0.0000000000000000e+00  1.1638378266914021e+01 -6.1070481472067817e+00 0.0000000000000000e+00  1.3022368325494899e+01 -5.7091817852331994e+00 0.0000000000000000e+00  1.1167758517400282e+01 -8.7908577906135488e+00 0.0000000000000000e+00  1.1080140610962555e+01 -9.0858648842902880e+00 0.0000000000000000e+00  1.0184906109318050e+01 -9.7860169180647194e+00 0.0000000000000000e+00  9.6290898814176984e+00 -9.4618072762078818e+00 0.0000000000000000e+00  8.9574445993275731e+00 -8.9861057966151137e+00 0.0000000000000000e+00  8.4071444344641328e+00 -8.3665214755599457e+00 0.0000000000000000e+00  7.6693138622277433e+00 -7.9244787897189344e+00 0.0000000000000000e+00  7.1954371550129252e+00 -7.1007146238192762e+00 0.0000000000000000e+00  6.8473679692410894e+00 -6.2094282312847895e+00 0.0000000000000000e+00  6.4454461775827792e+00 -5.4404866191196160e+00 0.0000000000000000e+00  6.0548669887808213e+00 -4.7265231879482839e+00 0.0000000000000000e+00  5.6790138306299438e+00 -4.1228829906160582e+00 0.0000000000000000e+00  5.2820316797909213e+00 -3.6062839187774625e+00 0.0000000000000000e+00  4.9127808999577045e+00 -3.1139718865941175e+00 0.0000000000000000e+00  4.5815620932486221e+00 -2.6912648509181754e+00 0.0000000000000000e+00  4.2600844952988481e+00 -2.2601899922936917e+00 0.0000000000000000e+00  3.9713642477573270e+00 -1.9069238282417951e+00 0.0000000000000000e+00  3.7273310138810265e+00 -1.4819365551471049e+00 0.0000000000000000e+00  3.4955194435933503e+00 -1.2438776820297510e+00 0.0000000000000000e+00  3.2952202738779612e+00 -7.6410100296743289e-01 0.0000000000000000e+00  3.1205914167041158e+00 -7.6442854364026103e-01 0.0000000000000000e+00  2.9601554578341651e+00 -9.2127149468577044e-02 0.0000000000000000e+00  2.8022299256485308e+00 -4.6139940444323785e-01 0.0000000000000000e+00  2.6478505705580715e+00 2.4543963771924901e-01 0.0000000000000000e+00  2.4682052066643556e+00 2.7659362899333364e+00 0.0000000000000000e+00  3.1249552020432909e+00 3.6265298434544655e+00 0.0000000000000000e+00  2.7792357979842617e+00 4.4335588766835157e+00 0.0000000000000000e+00  3.4951196284980401e+00 3.6377371602143054e+00 0.0000000000000000e+00  3.8988007380537284e+00 4.1791146572567293e+00 0.0000000000000000e+00  4.2551776580423919e+00 4.1278220265477055e+00 0.0000000000000000e+00  4.7090577130972022e+00 4.5523624230106110e+00 0.0000000000000000e+00  5.2311409427685298e+00 4.8273884226201540e+00 0.0000000000000000e+00  5.6349285137212135e+00 5.0078290448805589e+00 0.0000000000000000e+00  5.9207160692221761e+00 4.9041241328138900e+00 0.0000000000000000e+00  6.3077868665732604e+00 4.9839271554386446e+00 0.0000000000000000e+00  6.5542409540262661e+00 4.6380296827447687e+00 0.0000000000000000e+00  6.4768428249113876e+00 3.4548448739398356e+00 0.0000000000000000e+00  7.2036173273143538e+00 3.3430939213115911e+00 0.0000000000000000e+00  5.2152828870348031e+00 -8.8565588819501784e-01 0.0000000000000000e+00  1.3565343885592789e+01 1.0410858238917719e+01 0.0000000000000000e+00  1.4033848136428464e+01 9.8682777654709302e+00 0.0000000000000000e+00  1.4238292757417289e+01 8.8951175360681241e+00 0.0000000000000000e+00  1.4509099420356838e+01 8.1747152677235544e+00 0.0000000000000000e+00  1.4903647143217825e+01 7.5774098462357209e+00 0.0000000000000000e+00  1.5433381232274604e+01 7.2397213398457234e+00 0.0000000000000000e+00  1.6040327033479173e+01 7.0219440216948836e+00 0.0000000000000000e+00  1.6662827473922260e+01 6.8728624158650113e+00 0.0000000000000000e+00  1.7239793762424227e+01 6.3561119200061720e+00 0.0000000000000000e+00  1.7720250960599046e+01 6.0701065406133079e+00 0.0000000000000000e+00  1.8070776744423441e+01 4.7824634316126442e+00 0.0000000000000000e+00  1.8281638336561500e+01 4.1041728478226167e+00 0.0000000000000000e+00  1.8363920621961515e+01 1.9529658939244503e+00 0.0000000000000000e+00  1.8343874936861432e+01 1.1497411211803188e+00 0.0000000000000000e+00  1.8273487878361625e+01 -1.2963012688192139e+00 0.0000000000000000e+00  1.8191997133244723e+01 -1.4425685000937263e+00 0.0000000000000000e+00  1.8174118471635225e+01 2.9769835504447370e-03 0.0000000000000000e+00  1.8176364874552181e+01 9.8118908738037742e+00 0.0000000000000000e+00  1.8174106467711105e+01 -3.2573918655793041e-03 0.0000000000000000e+00  1.8190004851590313e+01 6.7024683566650234e+00 0.0000000000000000e+00  1.8236013796415182e+01 4.5671838