<?xml version="1.0"?>
<VTKFile type="UnstructuredGrid"  version="0.1"  >
<UnstructuredGrid>
<Piece  NumberOfPoints="1933" NumberOfCells="3640">
<Points>
<DataArray  type="Float64"  NumberOfComponents="3"  format="ascii">0.2935654977993601 0.002521344058791221 0  5.293565485738279 0.002434678957402324 0  5.293695543721352 7.502434685415411 0  0.2936955356606296 7.502521312923291 0  10.29356545023617 0.002347984551567692 0  10.29369557258944 7.502348010201779 0  15.29356540686774 0.00226119610098071 0  15.29369563955441 7.502261231773149 0  20.29356538489555 0.002174271387498171 0  20.29369576457917 7.502174312519365 0  25.29356541923558 0.002087184268062437 0  25.29369597065937 7.502087228815277 0  30.2935655470157 0.001999919836333271 0  30.29369628354109 7.501999967182726 0  35.29356580650227 0.001912470935731909 0  35.29369673152657 7.501912521305487 0  40.29356623726067 0.001824835776307053 0  40.29369734554705 7.501824889924078 0  45.2935668809719 0.001737016414855779 0  45.29369815951168 7.501737075476443 0  50.29356778262486 0.001649017902085024 0  50.29369921089782 7.501649083342025 0  55.29356899196449 0.001560847956565232 0  55.29370054154893 7.501560921579654 0  60.29357056516749 0.001472517078430346 0  60.29370219866034 7.501472601090573 0  65.29357256677382 0.001384039062899154 0  65.29370423594807 7.501384136179426 0  70.29357507194129 0.00129543191660391 0  70.29370671500999 7.5012955455266 0  75.29357816913101 0.001206719222701295 0  75.29370970689932 7.50120685362944 0  80.29358196337461 0.001117932049859902 0  80.29371329393284 7.501118092822677 0  85.29358658033695 0.001029111564125072 0  85.29371757175987 7.501029306060383 0  90.29359217147582 0.0009403125949064082 0  90.2937226516955 7.50094055074739 0  95.2935989207368 0.000851608550130847 0  95.29372866328794 7.50085190407344 0  100.2936070534249 0.0007630983131034458 0  100.293735756995 7.500763470573004 0  105.2936168482122 0.0006749161646747706 0  105.2937441066607 7.500675393086561 0  110.293628653725 0.0005872465156458149 0  110.2937539111164 7.500587869075974 0  115.2936429118769 0.0005003466227383207 0  115.2937653935428 7.500501175600221 0  120.2936601911593 0.0004145831566556848 0  120.2937787959457 7.500415708634816 0  125.2936812344456 0.0003304939094437575 0  125.2937943638618 7.500332046597368 0  130.2937070271766 0.00024889721268568 0  130.2938123127152 7.500251055223216 0  135.2937388916147 0.0001710959760673775 0  135.2938327619667 7.500174063354549 0  140.2937786063935 9.927739680768443e-05 0  140.2938556183236 7.500103159720486 0  145.2938285228103 3.73313303735918e-05 0  145.2938803958378 7.500041694478083 0  150.2938915508043 -7.428784866692742e-06 0  150.2939060252947 7.499995137788355 0  160.2938926261462 5.402525121556312e-19 0  165.2937999629889 -9.547977468366391e-05 0  165.2938749380043 7.499894462719229 0  160.2939070588239 7.499974403222266 0  170.2937368285262 -0.0001934112842576487 0  170.2938423131854 7.499801387411125 0  175.2936918654227 -0.0002927506289451632 0  175.2938133525217 7.499704151760771 0  180.2936588118302 -0.0003922552989050111 0  180.2937888341251 7.499605771613398 0  185.2936339188173 -0.000491266857798097 0  185.2937684942753 7.499507423476789 0  190.2936148268194 -0.0005895102774111802 0  190.2937517766697 7.499409590760785 0  195.2935999899924 -0.0006869012995916078 0  195.2937380945579 7.499312462469151 0  200.2935883574594 -0.0007834412752786329 0  200.29372691942 7.499216095670445 0  205.2935791896462 -0.0008791670794342893 0  205.2937178033386 7.499120487496261 0  210.2935719494199 -0.0009741286111077676 0  210.2937103765445 7.499025608286169 0  215.2935662358041 -0.00106837906503033 0  215.2937043369536 7.498931417108402 0  220.2935617424419 -0.001161970888040404 0  220.2936994383968 7.498837869089825 0  225.2935582307543 -0.001254954196917151 0  225.2936954799553 7.498744918892491 0  230.2935555120355 -0.001347376235949683 0  230.2936922970561 7.498652522358614 0  235.2935534351264 -0.001439281264747547 0  235.2936897542947 7.498560637270936 0  240.2935518776666 -0.0015307106246173 0  240.2936877397342 7.49846922367241 0  245.29355073971 -0.001621702886419231 0  245.2936861603926 7.498378243952201 0  250.2935499389421 -0.001712294048520666 0  250.2936849386655 7.498287662792598 0  255.2935494070192 -0.001802517781571181 0  255.2936840094769 7.498197447017061 0  260.2935490867058 -0.001892405729889576 0  260.2936833179983 7.498107565351942 0  265.2935489296068 -0.001981987887135998 0  265.2936828178196 7.498017988098809 0  270.293548894353 -0.002071293070671666 0  270.2936824694848 7.49792868670397 0  275.293548945164 -0.002160349525797697 0  275.2936822393316 7.497839633204635 0  280.2935490507529 -0.002249185696684884 0  280.2936820985982 7.497750799526775 0  285.2935491836004 -0.002337831200391936 0  285.2936820227658 7.497662156612123 0  290.2935493196904 -0.002426318020232154 0  290.2936819911225 7.497573673367731 0  295.2935494389053 -0.00251468185886748 0  295.2936819865151 7.497485315475534 0  300.2935495264257 -0.002602963362317173 0  300.2936819952359 7.497397044191662 0  305.2935495756707 -0.002691208260616501 0  305.2936820069603 7.49730881541157 0  310.2935495935555 -0.002779463462444024 0  310.2936820146701 7.497220579337629 0  5.293825435666115 15.00243472970293 0  0.2938254192225142 15.00252124631129 0  10.29382548658004 15.00234811346576 0  15.29382559177797 15.00226136518129 0  20.29382576822744 15.00217446166034 0  25.29382603252014 15.00208738775797 0  30.29382640223578 15.00200013490475 0  35.29382689664689 15.0019126996638 0  40.29382753711615 15.00182508256089 0  45.29382834738568 15.00173728728278 0  50.29382935385618 15.00164932025933 0  55.29383058589463 15.00156119061794 0  60.29383207617587 15.00147291050289 0  65.2938338610445 15.00138449577137 0  70.29383598086693 15.00129596710761 0  75.29383848032558 15.00120735163637 0  80.29384140857945 15.00111868517009 0  85.29384481917543 15.00103001529919 0  90.2938487695293 15.00094140564367 0  95.29385331969759 15.00085294174725 0  100.2938585300157 15.00076473934046 0  105.2938644569689 15.00067695607135 0  110.2938711463876 15.00058980835226 0  115.2938786227415 15.00050359575216 0  120.2938868730795 15.00041873635755 0  125.2938958243605 15.00033581745831 0  130.2939053144185 15.00025566567196 0  135.2939150613893 15.00017943558106 0  140.2939246474378 15.00010869501862 0  145.293933553939 15.00004541389271 0  150.293941311209 14.99999152837878 0  165.2939345356075 14.99986846420869 0  160.2939426140732 14.99994281197131 0  170.2939232808466 14.99978340482133 0  175.2939103697138 14.99969203699117 0  180.2938973214627 14.9995975395371 0  185.2938850343047 14.99950171803049 0  190.293873933196 14.99940554189842 0  195.2938641577539 14.99930951861552 0  200.2938556924545 14.99921390528438 0  205.2938484454019 14.99911882343325 0  210.2938422930465 14.99902432099125 0  215.2938371043211 14.99893040591638 0  220.2938327528921 14.99883706460771 0  225.2938291227663 14.9987442721021 0  230.2938261103107 14.99865199779273 0  235.2938236244129 14.99856020867281 0  240.2938215857401 14.99846887118534 0  245.2938199256195 14.99837795226601 0  250.2938185848158 14.99828741990105 0  255.2938175123425 14.99819724337697 0  260.2938166643708 14.99810739331875 0  265.2938160032631 14.9980178415673 0  270.2938154967334 14.99792856092033 0  275.293815117126 14.99783952474499 0  280.2938148407933 14.99775070646238 0  285.2938146475469 14.99766207890174 0  290.2938145201347 14.99757361352439 0  295.2938144436941 14.99748527951662 0  300.2938144050968 14.997397042718 0  305.2938143920992 14.99730886418504 0  310.2938143921892 14.9972206975721 0  5.293955020968999 22.50243488240558 0  0.2939550012414075 22.50252124037602 0  10.29395507311109 22.50234835735942 0  15.29395517723861 22.50226166110996 0  20.29395534762111 22.50217478909416 0  25.29395559601489 22.50208773824512 0  30.29395593338769 22.50200050773745 0  35.29395637093138 22.50191309914789 0  40.2939569206109 22.50182551639693 0  45.29395759542229 22.5017377656962 0  50.29395840946967 22.50164985563324 0  55.29395937791564 22.50156179747241 0  60.29396051682237 22.5014736057286 0  65.29396184286895 22.50138529907137 0  70.29396337290292 22.50129690163098 0  75.29396512325941 22.50120844480846 0  80.29396710874811 22.50111996973389 0  85.29396934117349 22.50103153057847 0  90.29397182720953 22.50094319900842 0  95.29397456540119 22.50085507017864 0  100.2939775420212 22.50076727080484 0  105.2939807254949 22.50067997001404 0  110.2939840591719 22.50059339381848 0  115.2939874524617 22.50050784407129 0  120.2939907709517 22.50042372236246 0  125.2939938273511 22.50034155783684 0  130.2939963773203 22.50026203392785 0  135.2939981276112 22.50018599953626 0  140.2939987675813 22.50011442973719 0  145.293998034403 22.50004826185949 0  150.2939958026181 22.49998797654953 0  165.294000909339 22.49984087171828 0  160.2939966342876 22.49991360179906 0  170.2940020008591 22.49976025680736 0  175.2940004196938 22.49967382191623 0  180.2939969766035 22.49958358026534 0  185.2939924613378 22.49949109452178 0  190.2939874832275 22.4993974327371 0  195.2939824571594 22.49930327912607 0  200.2939776408128 22.49920905529538 0  205.2939731791186 22.49911501274365 0  210.2939691414845 22.49902129554188 0  215.2939655492139 22.49892798073785 0  220.2939623944268 22.49883510384041 0  225.2939596526029 22.49874267476687 0  230.2939572906526 22.49865068781871 0  235.2939552719745 22.49855912794284 0  240.2939535595327 22.49846797467809 0  245.2939521176579 22.4983772046458 0  250.2939509130365 22.49828679311194 0  255.2939499151957 22.49819671494337 0  260.2939490966738 22.49810694515876 0  265.2939484330071 22.49801745919697 0  270.2939479025987 22.49792823298077 0  275.2939474865188 22.49783924282535 0  280.2939471682418 22.49775046522483 0  285.2939469333208 22.49766187654171 0  290.2939467689724 22.49757345261628 0  295.293946663525 22.49748516829997 0  300.2939466056609 22.49739699687
[...]
<PointData  Vectors="v"> 
<DataArray  type="Float64"  Name="v"  NumberOfComponents="3" format="ascii">3.6536372194961757e+00 -1.6065460639969713e+00 0.0000000000000000e+00  3.5084571862879317e+00 -1.8347108060400645e+00 0.0000000000000000e+00  2.8909545299421673e+00 -1.6169398697856818e+00 0.0000000000000000e+00  2.9978601834451939e+00 -1.4469185383243328e+00 0.0000000000000000e+00  3.2644221771927961e+00 -2.3477964013508310e+00 0.0000000000000000e+00  2.7457068031172809e+00 -1.9821703215922890e+00 0.0000000000000000e+00  2.9594355802822974e+00 -3.0792597927568699e+00 0.0000000000000000e+00  2.5019705547677105e+00 -2.6222965732108476e+00 0.0000000000000000e+00  2.6017059330508281e+00 -3.7898999871540284e+00 0.0000000000000000e+00  2.1975123392717753e+00 -3.2543591988060769e+00 0.0000000000000000e+00  2.1961231186737065e+00 -4.6306819025873072e+00 0.0000000000000000e+00  1.8406371062492377e+00 -4.0238724990641357e+00 0.0000000000000000e+00  1.8007958754123554e+00 -5.3862568526491996e+00 0.0000000000000000e+00  1.4367316304640851e+00 -4.7951526255770593e+00 0.0000000000000000e+00  1.6289627302103580e+00 -5.8079503546389173e+00 0.0000000000000000e+00  1.0436073873771661e+00 -5.5529756876281562e+00 0.0000000000000000e+00  1.1298427406953349e+00 -6.6709716380750361e+00 0.0000000000000000e+00  8.7466404888778237e-01 -5.9257969069610157e+00 0.0000000000000000e+00  3.0248826502726960e+00 -3.9424113168094439e+00 0.0000000000000000e+00  3.7959891038167137e-01 -6.7888997523657020e+00 0.0000000000000000e+00  -1.3481279099671424e+00 -1.0490263861368287e+01 0.0000000000000000e+00  2.2795973354703705e+00 -3.9361472657099217e+00 0.0000000000000000e+00  2.6632458725018838e-02 -8.1863719397143573e+00 0.0000000000000000e+00  -2.0885816615217054e+00 -1.0253955209185195e+01 0.0000000000000000e+00  3.1420193691417825e-01 -7.5173883799649275e+00 0.0000000000000000e+00  -7.0729789449922986e-01 -7.9565639305553688e+00 0.0000000000000000e+00  -2.1425064420900409e-02 -7.8246463518368135e+00 0.0000000000000000e+00  -4.1070537827120424e-01 -7.3310525242462345e+00 0.0000000000000000e+00  -8.1050150141078281e-01 -8.8096043308361534e+00 0.0000000000000000e+00  -7.3525125877702768e-01 -7.6382981301303126e+00 0.0000000000000000e+00  -1.8679249937237736e+00 -1.0138044240809519e+01 0.0000000000000000e+00  -1.5099855639708499e+00 -8.5656413315022721e+00 0.0000000000000000e+00  -3.1377192272457237e+00 -1.1667324384277832e+01 0.0000000000000000e+00  -2.5509072872430565e+00 -9.7793861193368450e+00 0.0000000000000000e+00  -4.5752814027674331e+00 -1.3357887814906059e+01 0.0000000000000000e+00  -3.8018400851562690e+00 -1.1220753044878515e+01 0.0000000000000000e+00  -6.1357841753222733e+00 -1.5025122555106682e+01 0.0000000000000000e+00  -5.2165400933182484e+00 -1.2705552226234744e+01 0.0000000000000000e+00  -7.7835490394612386e+00 -1.6662812881555219e+01 0.0000000000000000e+00  -6.7518180504363503e+00 -1.4216346447485355e+01 0.0000000000000000e+00  -9.4782343460567500e+00 -1.8187167533324573e+01 0.0000000000000000e+00  -8.3705562058828935e+00 -1.5672802010641828e+01 0.0000000000000000e+00  -1.1152954899444248e+01 -1.9496825698329015e+01 0.0000000000000000e+00  -1.0032405968979106e+01 -1.7016217129182245e+01 0.0000000000000000e+00  -1.2745456478980591e+01 -2.0408552070672471e+01 0.0000000000000000e+00  -1.1669232135821634e+01 -1.8054043431947257e+01 0.0000000000000000e+00  -1.4203267639086814e+01 -2.1022296707003349e+01 0.0000000000000000e+00  -1.3222148125605287e+01 -1.8876169190050351e+01 0.0000000000000000e+00  -1.5453263679067735e+01 -2.0821291871003954e+01 0.0000000000000000e+00  -1.4630669894777789e+01 -1.8985877921731124e+01 0.0000000000000000e+00  -1.6477128384453518e+01 -2.0145388113263092e+01 0.0000000000000000e+00  -1.5834037263501910e+01 -1.8661554230809458e+01 0.0000000000000000e+00  -1.7227530907221148e+01 -1.8260572493942146e+01 0.0000000000000000e+00  -1.6795090802248286e+01 -1.7178772701204863e+01 0.0000000000000000e+00  -1.7742341027586498e+01 -1.5436911705224958e+01 0.0000000000000000e+00  -1.7493171673056459e+01 -1.4730959702821984e+01 0.0000000000000000e+00  -1.8011424546075322e+01 -1.1391831733705374e+01 0.0000000000000000e+00  -1.7928594410733783e+01 -1.1033582742292994e+01 0.0000000000000000e+00  -1.8136944818431456e+01 -4.7462378630805517e+00 0.0000000000000000e+00  -1.8141698968611578e+01 -4.6422538323450961e+00 0.0000000000000000e+00  -1.8163563200418032e+01 6.1975137955353876e-12 0.0000000000000000e+00  -1.8163229801021252e+01 3.1823570781965509e-04 0.0000000000000000e+00  -1.8163563200134309e+01 -1.8284116372906235e-19 0.0000000000000000e+00  -1.3884928145370534e+01 1.1517704236614072e+01 0.0000000000000000e+00  -1.8132849917425307e+01 5.1351159184887107e+00 0.0000000000000000e+00  -1.8163230953700293e+01 -3.3661697184759657e-04 0.0000000000000000e+00  -1.2623374207753828e+01 2.0106584164066810e+01 0.0000000000000000e+00  -1.3903832047487480e+01 1.8283540312426037e+01 0.0000000000000000e+00  -1.0751195016152270e+01 2.3969163820219102e+01 0.0000000000000000e+00  -1.2701005995014489e+01 2.1197444082485525e+01 0.0000000000000000e+00  -9.6670950096703852e+00 2.4793848470805742e+01 0.0000000000000000e+00  -1.0883483712323619e+01 2.3215753524063985e+01 0.0000000000000000e+00  -8.4442725284409015e+00 2.4347811623524276e+01 0.0000000000000000e+00  -9.8484458648837698e+00 2.2553327352472230e+01 0.0000000000000000e+00  -7.4345872305777032e+00 2.2828515371956200e+01 0.0000000000000000e+00  -8.6713283585365755e+00 2.1354278907294251e+01 0.0000000000000000e+00  -6.4863504579383058e+00 2.1045309695736378e+01 0.0000000000000000e+00  -7.7061937388264941e+00 1.9658456815237209e+01 0.0000000000000000e+00  -5.6344636287559897e+00 1.9035177802083684e+01 0.0000000000000000e+00  -6.7985917372143270e+00 1.7793376018735358e+01 0.0000000000000000e+00  -4.7462880805155088e+00 1.7221789928887596e+01 0.0000000000000000e+00  -5.9854382039555043e+00 1.5922488789796546e+01 0.0000000000000000e+00  -4.0369240783485605e+00 1.5484747136967526e+01 0.0000000000000000e+00  -5.1345403984925611e+00 1.4452521572785814e+01 0.0000000000000000e+00  -3.4056503294175098e+00 1.3969966096396789e+01 0.0000000000000000e+00  -4.4603219219876014e+00 1.3053749958837221e+01 0.0000000000000000e+00  -2.7531963173673137e+00 1.2755240285159433e+01 0.0000000000000000e+00  -3.8626894550001301e+00 1.1806009490588595e+01 0.0000000000000000e+00  -2.1585580200652621e+00 1.1695871699114443e+01 0.0000000000000000e+00  -3.2428704730247979e+00 1.0832069988239358e+01 0.0000000000000000e+00  -1.6214891236448790e+00 1.0773602334361557e+01 0.0000000000000000e+00  -2.6793676961026121e+00 9.9955087264282909e+00 0.0000000000000000e+00  -1.1400703834960479e+00 9.9294811056993595e+00 0.0000000000000000e+00  -2.1723289710523268e+00 9.2338426953569357e+00 0.0000000000000000e+00  -7.2372596015044977e-01 9.1259755503911286e+00 0.0000000000000000e+00  -1.7201295531987217e+00 8.5271328722716415e+00 0.0000000000000000e+00  -3.6744672723700728e-01 8.3680193018600608e+00 0.0000000000000000e+00  -1.3320070152242796e+00 7.8587283121394149e+00 0.0000000000000000e+00  -5.5770803584933755e-02 7.6267205992770108e+00 0.0000000000000000e+00  -1.0031495186789587e+00 7.1837194106105695e+00 0.0000000000000000e+00  2.0804442956558514e-01 6.9016064533124553e+00 0.0000000000000000e+00  -7.1837901128298831e-01 6.5297993468849409e+00 0.0000000000000000e+00  4.2892692739605626e-01 6.1863644708328795e+00 0.0000000000000000e+00  -4.8075448770583717e-01 5.8786785780061432e+00 0.0000000000000000e+00  6.1369667658473825e-01 5.4820092715324336e+00 0.0000000000000000e+00  -2.8567513316734927e-01 5.2279697281057924e+00 0.0000000000000000e+00  7.6295802978643701e-01 4.7609296087123525e+00 0.0000000000000000e+00  -1.2615988734807468e-01 4.5600160618016075e+00 0.0000000000000000e+00  8.6994127501633156e-01 4.0822236671225465e+00 0.0000000000000000e+00  -2.0888102099376697e-03 3.9441555071181660e+00 0.0000000000000000e+00  9.4463326329974495e-01 3.3281655500557390e+00 0.0000000000000000e+00  8.0580183880830186e-02 3.2388969993292056e+00 0.0000000000000000e+00  9.7309121887696115e-01 2.6975337111354767e+00 0.0000000000000000e+00  1.3019078704317294e-01 2.6763642179980649e+00 0.0000000000000000e+00  9.5960535430762484e-01 1.8797628122043675e+00 0.0000000000000000e+00  1.3548870887385275e-01 1.9231592598791494e+00 0.0000000000000000e+00  8.9523963386007488e-01 1.3982667068870027e+00 0.0000000000000000e+00  9.6235793655712512e-02 1.5148300245130830e+00 0.0000000000000000e+00  7.6558150032629657e-01 4.3085683986708073e-01 0.0000000000000000e+00  1.0936893279479167e-02 6.5026010978643689e-01 0.0000000000000000e+00  5.2142779142240314e-01 -4.9926988378486400e-02 0.0000000000000000e+00  -1.4788543171202082e-01 3.3228278832768976e-01 0.0000000000000000e+00  -5.8868353912007072e-02 -2.8465944814538047e-01 0.0000000000000000e+00  -4.0369108387946440e-01 6.1924588440301265e-01 0.0000000000000000e+00  2.0048167323551391e+00 -1.4555578281416033e+00 0.0000000000000000e+00  2.1124765658230991e+00 -1.2876841942813169e+00 0.0000000000000000e+00  1.8962263331590075e+00 -1.7629599679303307e+00 0.0000000000000000e+00  1.7487364415702813e+00 -2.2555066286141705e+00 0.0000000000000000e+00  1.5028167206664023e+00 -2.7965765670922194e+00 0.0000000000000000e+00  1.1964637285925734e+00 -3.4873983357928542e+00 0.0000000000000000e+00  8.3796153537132401e-01 -4.1888434221005424e+00 0.0000000000000000e+00  4.3329800876263302e-01 -4.9635899959652887e+00 0.0000000000000000e+00  4.0768852746685305e-02 -5.6728955598859434e+00 0.0000000000000000e+00  -1.2645783638260247e-01 -6.0485118891472061e+00 0.0000000000000000e+00  -6.1727295184423436e-01 -6.7900087712326780e+00 0.0000000000000000e+00  1.2879847908400581e+00 -3.7020479298505324e+00 0.0000000000000000e+00  -3.0809493322890487e+00 -1.0027677492269593e+01 0.0000000000000000e+00  -1.6992786264954303e+00 -7.7800638235792619e+00 0.0000000000000000e+00  -1.3954962160220457e+00 -7.1565732363545491e+00 0.0000000000000000e+00  -1.7092659905980554e+00 -7.4132399857839761e+00 0.0000000000000000e+00  -2.4675826069488993e+00 -8.2298614419540979e+00 0.0000000000000000e+00  -3.4878049637621480e+00 -9.3576852222110247e+00 0.0000000000000000e+00  -4.7144094429361836e+00 -1.0600973682659355e+01 0.0000000000000000e+00  -6.0992714454360986e+00 -1.1934043042686330e+01 0.0000000000000000e+00  -7.5991614971878878e+00 -1.3266636230570965e+01 0.0000000000000000e+00  -9.1779703866171722e+00 -1.4551994682857860e+01 0.0000000000000000e+00  -1.0791612665708753e+01 -1.5629732142310175e+01 0.0000000000000000e+00  -1.2373563412690343e+01 -1.6583714444178497e+01 0.0000000000000000e+00  -1.3862692728447847e+01 -1.6912972187063669e+01 0.0000000000000000e+00  -1.5199384699518976e+01 -1.6908695082304359e+01 0.0000000000000000e+00  -1.6316749205300777e+01 -1.5782449797279554e+01 0.0000000000000000e+00  -1.7189017943002913e+01 -1.3759507155726782e+01 0.0000000000000000e+00  -1.7771333459574155e+01 -1.0423785778578283e+01 0.0000000000000000e+00  -1.8104142705922108e+01 -4.4355713699529584e+00 0.0000000000000000e+00  -1.8162421548118058e+01 6.0658036053158376e-04 0.0000000000000000e+00  -1.8092019964687331e+01 4.9391449478100631e+00 0.0000000000000000e+00  -1.8162423624442233e+01 -6.9197502817035564e-04 0.0000000000000000e+00  -1.7900933945270435e+01 1.1958862261142611e+01 0.0000000000000000e+00  -1.3742465903090300e+01 1.9450733259272354e+01 0.0000000000000000e+00  -1.2625994091590314e+01 2.0531985054083854e+01 0.0000000000000000e+00  -1.0876486998583886e+01 2.1040857449151570e+01 0.0000000000000000e+00  -9.9049866571210092e+00 1.9618310131483526e+01 0.0000000000000000e+00  -8.7795626429212170e+00 1.8243847548157561e+01 0.0000000000000000e+00  -7.8650805192501538e+00 1.6458117006994904e+01 0.0000000000000000e+00  -7.0011095343649696e+00 1.4727264732466793e+01 0.0000000000000000e+00  -6.2283709655149444e+00 1.3199729600089098e+01 0.0000000000000000e+00  -5.4153036348868584e+00 1.2063998979590636e+01 0.0000000000000000e+00  -4.7764284601168576e+00 1.0929309141785705e+01 0.0000000000000000e+00  -4.2117145061512611e+00 9.9219861836160863e+00 0.0000000000000000e+00  -3.6236021496677404e+00 9.1683908796665694e+00 0.0000000000000000e+00  -3.0898765756848645e+00 8.4902342716889638e+00 0.0000000000000000e+00  -2.6108839807780750e+00 7.8653781125519062e+00 0.0000000000000000e+00  -2.1855730692732100e+00 7.2921054804380674e+00 0.0000000000000000e+00  -1.8229896664846097e+00 6.7051476278053910e+00 0.0000000000000000e+00  -1.5184516008009290e+00 6.1170220804713882e+00 0.0000000000000000e+00  -1.2571994515265097e+00 5.5360529464001580e+00 0.0000000000000000e+00  -1.0422628489936794e+00 4.9485487234612711e+00 0.0000000000000000e+00  -8.6908733988977005e-01 4.3339081966837627e+00 0.0000000000000000e+00  -7.3109428728482018e-01 3.7705852698696276e+00 0.0000000000000000e+00  -6.2791217576763814e-01 3.1276034725015807e+00 0.0000000000000000e+00  -5.6595502256623575e-01 2.6137304906134666e+00 0.0000000000000000e+00  -5.3634401325485970e-01 1.9281873621354293e+00 0.0000000000000000e+00  -5.5147635586255261e-01 1.5839324977660270e+00 0.0000000000000000e+00  -6.0942824075508051e-01 7.9264491587556107e-01 0.0000000000000000e+00  -7.1534235358458187e-01 5.7784886566718219e-01 0.0000000000000000e+00  -8.9148976371171673e-01 1.0186751274423320e+00 0.0000000000000000e+00  6.9592838825273617e-01 -1.2917936836167132e+00 0.0000000000000000e+00  7.8777011287464593e-01 -1.1533381563879379e+00 0.0000000000000000e+00  5.8455072769152239e-01 -1.5962517099377682e+00 0.0000000000000000e+00  4.6970518691689950e-01 -2.0303064580742163e+00 0.0000000000000000e+00  3.1593077497867311e-01 -2.4232526894620539e+00 0.0000000000000000e+00  6.2967736214450495e-02 -3.0234494402109133e+00 0.0000000000000000e+00  -2.5049970982090713e-01 -3.6474044586682735e+00 0.0000000000000000e+00  -6.1500932770665007e-01 -4.3534611453859551e+00 0.0000000000000000e+00  -1.0246052530871301e+00 -5.0825975754456474e+00 0.0000000000000000e+00  -1.4198268433132486e+00 -5.7987695332213782e+00 0.0000000000000000e+00  -1.5856319469071787e+00 -6.0577340325027045e+00 0.0000000000000000e+00  -2.0711336109084266e+00 -6.5640367113452323e+00 0.0000000000000000e+00  -1.6546176158332171e-01 -3.4690598531967112e+00 0.0000000000000000e+00  -4.5472330304639108e+00 -9.8447236439678836e+00 0.0000000000000000e+00  -3.1763269193265486e+00 -7.6153842090643975e+00 0.0000000000000000e+00  -2.8705186477522417e+00 -6.9518670139608725e+00 0.0000000000000000e+00  -3.1725477234901707e+00 -7.1077401672728140e+00 0.0000000000000000e+00  -3.9111043938388059e+00 -7.8486354613445597e+00 0.0000000000000000e+00  -4.9044425561647298e+00 -8.7879841475280216e+00 0.0000000000000000e+00  -6.0957731839730593e+00 -9.8889680331210084e+00 0.0000000000000000e+00  -7.4378484614009146e+00 -1.1055870433160335e+01 0.0000000000000000e+00  -8.8864538939612334e+00 -1.2231241130943161e+01 0.0000000000000000e+00  -1.0401680584468203e+01 -1.3263066458175384e+01 0.0000000000000000e+00  -1.1941203808495411e+01 -1.4278756704465172e+01 0.0000000000000000e+00  -1.3432075681173844e+01 -1.4753314283650573e+01 0.0000000000000000e+00  -1.4816582015720773e+01 -1.4999345153204418e+01 0.0000000000000000e+00  -1.6023369595657279e+01 -1.4202370517814892e+01 0.0000000000000000e+00  -1.6999374752216031e+01 -1.2590589517123213e+01 0.0000000000000000e+00  -1.7688203311672162e+01 -9.6565553319774473e+00 0.0000000000000000e+00  -1.8095457162772568e+01 -4.1514008356575349e+00 0.0000000000000000e+00  -1.8161163033400154e+01 8.6606937964778816e-04 0.0000000000000000e+00  -1.8071377767479657e+01 4.5940384978234681e+00 0.0000000000000000e+00  -1.8161165147254366e+01 -1.0058382789685215e-03 0.0000000000000000e+00  -1.7669559821742862e+01 1.1608951342619900e+01 0.0000000000000000e+00  -1.7468314681781592e+01 1.3302511823315813e+01 0.0000000000000000e+00  -1.3433537902394590e+01 1.8965871282501077e+01 0.0000000000000000e+00  -1.2455704936862791e+01 1.8496543930543400e+01 0.0000000000000000e+00  -1.0814383538280065e+01 1.8238141676845210e+01 0.0000000000000000e+00  -9.9361938824735319e+00 1.6614791230847846e+01 0.0000000000000000e+00  -8.8889029208874053e+00 1.5142970944909081e+01 0.0000000000000000e+00  -8.0450967201758949e+00 1.3480092796358496e+01 0.0000000000000000e+00  -7.2421583504617573e+00 1.2085405317098825e+01 0.0000000000000000e+00  -6.5258441615287266e+00 1.0885147050881429e+01 0.0000000000000000e+00  -5.7641889559352384e+00 1.0009617100081572e+01 0.0000000000000000e+00  -5.1731986072695753e+00 9.1107689840205115e+00 0.0000000000000000e+00  -4.6537777952735144e+00 8.3203274659412347e+00 0.0000000000000000e+00  -4.1084172927946669e+00 7.7218665430296252e+00 0.0000000000000000e+00  -3.6146587682448144e+00 7.1770986693810235e+00 0.0000000000000000e+00  -3.1733653630837058e+00 6.6826379088654448e+00 0.0000000000000000e+00  -2.7834713158439515e+00 6.1883807020135997e+00 0.0000000000000000e+00  -2.4542343044754538e+00 5.6858178768990539e+00 0.0000000000000000e+00  -2.1813400199247277e+00 5.1687199416689946e+00 0.0000000000000000e+00  -1.9503000184761534e+00 4.6496787731889491e+00 0.0000000000000000e+00  -1.7642012417347137e+00 4.0970070853205920e+00 0.0000000000000000e+00  -1.6190549141915158e+00 3.5855213364908916e+00 0.0000000000000000e+00  -1.5080142695634537e+00 2.9947790770148814e+00 0.0000000000000000e+00  -1.4315207316372103e+00 2.5413692036496642e+00 0.0000000000000000e+00  -1.3949611725467999e+00 1.9055016798839193e+00 0.0000000000000000e+00  -1.3914175840193532e+00 1.6251825807448099e+00 0.0000000000000000e+00  -1.4297340591369303e+00 9.0250980917312851e-01 0.0000000000000000e+00  -1.5146227544026369e+00 7.5112342622453276e-01 0.0000000000000000e+00  -1.6373938957269685e+00 1.3072538256631512e+00 0.0000000000000000e+00  -5.0903322946236318e-01 -1.1508041878879522e+00 0.0000000000000000e+00  -4.3744657109190305e-01 -1.0506494295963409e+00 0.0000000000000000e+00  -6.0603471805732567e-01 -1.4233809352822018e+00 0.0000000000000000e+00  -7.2690131238759348e-01 -1.8503174609173982e+00 0.0000000000000000e+00  -8.5314317723263888e-01 -2.1838318602328424e+00 0.0000000000000000e+00  -1.0200762061616651e+00 -2.6346120985812420e+00 0.0000000000000000e+00  -1.2869010285169820e+00 -3.1672263783668479e+00 0.0000000000000000e+00  -1.6146243578272468e+00 -3.7973682348721529e+00 0.0000000000000000e+00  -1.9925951151786405e+00 -4.4602147898210029e+00 0.0000000000000000e+00  -2.4131296008732175e+00 -5.2002157120999621e+00 0.0000000000000000e+00  -2.8149499768150017e+00 -5.8079390672672284e+00 0.0000000000000000e+00  -2.9822861711501774e+00 -5.8367275959293421e+00 0.0000000000000000e+00  -3.4678538322985593e+00 -6.3216930129626805e+00 0.0000000000000000e+00  -1.5767774560408356e+00 -3.2497981345839331e+00 0.0000000000000000e+00  -5.9948703656572073e+00 -9.6475527244129253e+00 0.0000000000000000e+00  -4.6546213685512141e+00 -7.4010815472584186e+00 0.0000000000000000e+00  -4.3610738452055227e+00 -6.6541010082848508e+00 0.0000000000000000e+00  -4.6631996397616149e+00 -6.7490836999132329e+00 0.0000000000000000e+00  -5.3897697831113911e+00 -7.3114843000868435e+00 0.0000000000000000e+00  -6.3631818252901651e+00 -8.1230543007479099e+00 0.0000000000000000e+00  -7.5255593279847188e+00 -9.0698770936716571e+00 0.0000000000000000e+00  -8.8285890661936222e+00 -1.0093544570355592e+01 0.0000000000000000e+00  -1.0226537220401870e+01 -1.1034233323954938e+01 0.0000000000000000e+00  -1.1678315306749504e+01 -1.2028256758385957e+01 0.0000000000000000e+00  -1.3133471091217626e+01 -1.2584152327230038e+01 0.0000000000000000e+00  -1.4523196250694198e+01 -1.3017588579942842e+01 0.0000000000000000e+00  -1.5773159902196788e+01 -1.2490375926804607e+01 0.0000000000000000e+00  -1.6827295381083530e+01 -1.1278375520103161e+01 0.0000000000000000e+00  -1.7594218815866505e+01 -8.7454399779164707e+00 0.0000000000000000e+00  -1.8073712062844805e+01 -3.7957512670400537e+00 0.0000000000000000e+00  -1.8159505181541689e+01 1.0956142897556266e-03 0.0000000000