<?xml version="1.0"?>
<VTKFile type="UnstructuredGrid"  version="0.1"  >
<UnstructuredGrid>
<Piece  NumberOfPoints="1933" NumberOfCells="3640">
<Points>
<DataArray  type="Float64"  NumberOfComponents="3"  format="ascii">-0.475434591025096 -0.0008942742435790953 0  4.524565429696819 -0.0008723566202865462 0  4.524532547670795 7.499127692944765 0  -0.4754674808583372 7.499105762824761 0  9.524565464865699 -0.0008504767608773494 0  9.524532594983077 7.499149574699285 0  14.52456553462164 -0.0008286324457932521 0  14.52453266857662 7.499171417681609 0  19.52456565609199 -0.0008068083152021305 0  19.524532774545 7.499193239778312 0  24.5245658422177 -0.0007849822286919955 0  24.52453291758825 7.499215063978943 0  29.52456610210041 -0.000763128255942818 0  29.52453310077734 7.499236916448046 0  34.52456644167657 -0.0007412180062109016 0  34.52453332537719 7.499258825584887 0  39.52456686432716 -0.0007192210663877239 0  39.52453359072237 7.49928082173358 0  44.52456737131173 -0.0006971049249921678 0  44.52453389408874 7.499302937313805 0  49.52456796200951 -0.0006748345694261725 0  49.52453423050621 7.499325207240134 0  54.52456863397435 -0.0006523718418437734 0  54.52453459246874 7.499347669565861 0  59.52456938280714 -0.0006296745786831294 0  59.52453496950011 7.499370366333636 0  64.52457020183661 -0.0006066955179314847 0  64.52453534752864 7.499393344649672 0  69.52457108157516 -0.0005833809240640002 0  69.52453570801207 7.499416658027629 0  74.52457200889015 -0.0005596688449785605 0  74.52453602673005 7.499440368078329 0  79.52457296578187 -0.0005354868708441664 0  79.52453627213046 7.499464546656504 0  84.52457392759158 -0.0005107492034747867 0  84.52453640306871 7.499489278619787 0  89.52457486034196 -0.0004853527561517592 0  89.52453636571546 7.499514665410297 0  94.52457571671653 -0.0004591718731395273 0  94.52453608933239 7.49954082973451 0  99.52457642982417 -0.0004320510660197889 0  99.52453548052813 7.49956792168197 0  104.5245769032694 -0.0004037948876609093 0  104.5245344155468 7.49959612665206 0  109.5245769948939 -0.0003741536878590602 0  109.5245327301979 7.499625675354689 0  114.5245764894399 -0.0003428035423009901 0  114.5245302074457 7.499656855685885 0  119.5245750514453 -0.0003093182868049636 0  119.5245265639575 7.499690024916835 0  124.524572142334 -0.0002731319251529866 0  124.5245214402809 7.499725617192268 0  129.524566871892 -0.0002334925817103479 0  129.5245144073617 7.499764133282005 0  134.5245577285154 -0.0001894202947432377 0  134.5245050203507 7.499806081805701 0  139.524542084022 -0.0001397182289489294 0  139.5244929906562 7.499851805114359 0  144.5245152750142 -8.321373628418722e-05 0  144.52447863396 7.499901062273356 0  149.5244688640538 -1.988094470082695e-05 0  149.5244639460325 7.499952209143851 0  159.5244717418524 1.098542748837516e-18 0  164.5244586116891 -3.615589492238549e-05 0  164.524469845466 7.499955757764683 0  159.5244704256669 7.499980568882044 0  169.5244582620972 -5.754198328431958e-05 0  169.5244689337047 7.499938586833831 0  174.5244634237146 -6.882334965639661e-05 0  174.524469310858 7.499929193283768 0  179.5244707270563 -7.277423926764265e-05 0  179.5244709719832 7.49992618001582 0  184.52447857735 -7.130083309770817e-05 0  184.5244735491098 7.499928144159022 0  189.5244862314718 -6.576339704770308e-05 0  189.5244766684488 7.49993394615814 0  194.5244933634502 -5.714452578202135e-05 0  194.5244800383409 7.499942710640553 0  199.5244998520657 -4.616104858452266e-05 0  199.5244834546046 7.499953775622698 0  204.5245056752159 -3.334220032164508e-05 0  204.5244867836881 7.499966640732986 0  209.5245108570039 -1.908414841759185e-05 0  209.5244899433975 7.499980925301135 0  214.5245154412294 -3.687843737683718e-06 0  214.5244928868991 7.499996336849665 0  219.5245194782179 1.261468039918294e-05 0  219.5244955908809 7.500012648067386 0  224.5245230184211 2.964191147938509e-05 0  224.5244980472573 7.500029680129285 0  229.5245261094736 4.724984638269859e-05 0  229.5245002575426 7.50004729059853 0  234.5245287950116 6.532266293684901e-05 0  234.524502229115 7.500065364591117 0  239.5245311143867 8.376593270496293e-05 0  239.5245039727826 7.500083808259697 0  244.5245331028361 0.0001025016100201055 0  244.5245055012288 7.500102543934915 0  249.5245347918757 0.0001214642831507351 0  249.5245068280542 7.500121506464611 0  254.524536209812 0.000140598341101709 0  254.5245079672208 7.500140640433397 0  259.5245373823116 0.0001598558234772034 0  259.5245089327646 7.500159898045482 0  264.5245383330204 0.0001791948012199137 0  264.5245097386959 7.500179237526267 0  269.5245390842139 0.0001985781969272426 0  269.524510399023 7.50019862195379 0  274.5245396575056 0.0002179730053968618 0  274.5245109278486 7.500218018477915 0  279.5245400745979 0.0002373499273631691 0  279.5245113395101 7.500237397929341 0  284.5245403580838 0.000256683491784827 0  284.5245116487069 7.500256734867656 0  289.5245405322364 0.0002759528265022545 0  289.5245118705915 7.500276008172179 0  294.5245406236609 0.0002951433579867087 0  294.5245120207692 7.500295202341592 0  299.524540661463 0.0003142498886262715 0  299.5245121152154 7.500314309733977 0  304.5245406761869 0.0003332816802540575 0  304.524512170247 7.50033333403706 0  309.5245406958485 0.0003522700756327375 0  309.5245122030922 7.500352295355849 0  4.524499576406191 14.99912779728583 0  -0.4755004517785901 14.99910585290837 0  9.524499614765967 14.99914967290573 0  14.52449966770099 14.99917150366012 0  19.52449973667118 14.99919331299961 0  24.52449982161291 14.9992151257206 0  29.52449992127675 14.99923696824975 0  34.52450003314681 14.99925886864989 0  39.52450015320908 14.99928085671459 0  44.52450027565629 14.99930296423481 0  49.52450039254396 14.99932522544192 0  54.52450049338252 14.9993476776189 0  59.52450056464046 14.99937036188107 0  64.52450058912952 14.99939332414152 0  69.52450054523914 14.99941661629109 0  74.52450040599263 14.99944029763638 0  79.52450013789498 14.99946443665035 0  84.52449969956875 14.99948911309369 0  89.52449904020477 14.99951442055457 0  94.52449809794666 14.99954046940617 0  99.52449679849279 14.99956739005806 0  104.5244950545252 14.9995953360974 0  109.5244927671525 14.99962448632514 0  114.5244898315682 14.99965504350719 0  119.5244861507789 14.99968722536474 0  124.5244816637465 14.99972123905037 0  129.5244763975052 14.99975722273025 0  134.5244705554433 14.99979512510307 0  139.5244646512958 14.99983447410138 0  144.5244596764038 14.99987395925924 0  149.5244572073825 14.99991071101235 0  164.5244668664095 14.99993412805775 0  159.5244651738339 14.99994338605639 0  169.5244665958672 14.99992662045546 0  174.5244657768352 14.99992267101324 0  179.5244651687992 14.99992265920815 0  184.524465039644 14.99992627504283 0  189.5244654079403 14.99993298887488 0  194.5244661904106 14.99994225832333 0  199.5244672761531 14.9999536029302 0  204.5244685595125 14.99996662180746 0  209.5244699520389 14.99998098926693 0  214.5244713847322 14.99999644353612 0  219.5244728062705 15.00001277465709 0  224.5244741799514 15.00002981374262 0  229.5244754805609 15.00004742412957 0  234.5244766916448 15.00006549434296 0  239.5244778032954 15.0000839325882 0  244.5244788104365 15.00010266246578 0  249.5244797115325 15.00012161964207 0  254.5244805076335 15.00014074926309 0  259.5244812016795 15.00016000395103 0  264.5244817979977 15.00017934226718 0  269.5244823019449 15.00019872756315 0  274.5244827196412 15.00021812717365 0  279.5244830577748 15.00023751193008 0  284.524483323463 15.00025685599532 0  289.5244835241617 15.00027613702889 0  294.5244836677015 15.00029533667865 0  299.5244837625645 15.00031444133038 0  304.5244838186977 15.00033344287515 0  309.5244838493812 15.00035233885542 0  4.524466567647891 22.49912798299168 0  -0.4755334584841785 22.49910605279409 0  9.524466595253191 22.49914983343757 0  14.52446662517241 22.49917163551592 0  19.52446665633936 22.49919341674332 0  24.52446668633839 22.49921520340598 0  29.52446671169591 22.49923702193557 0  34.52446672790013 22.4992588996332 0  39.52446672925411 22.4992808651407 0  44.52446670863902 22.4993029488604 0  49.52446665723012 22.49932518341496 0  54.52446656418118 22.49934760418585 0  59.52446641628463 22.49937024994846 0  64.52446619761426 22.49939316361333 0  69.52446588916391 22.49941639307723 0  74.52446546851544 22.49943999218035 0  79.52446490959727 22.49946402174742 0  84.52446418264637 22.49948855065426 0  89.5244632545681 22.49951365678992 0  94.52446209000981 22.49953942765658 0  99.52446065365794 22.49956596011721 0  104.5244589145339 22.49959335840303 0  109.5244568534318 22.4996217288204 0  114.5244544750579 22.49965116850829 0  119.5244518267772 22.49968174392096 0  124.5244490257776 22.49971345234562 0  129.5244462950914 22.49974615696355 0  134.5244440046285 22.49977948413346 0  139.5244427033669 22.49981267527833 0  144.5244431094236 22.49984440781619 0  149.524445995088 22.49987267601499 0  164.5244547615793 22.49990947137217 0  159.5244526916759 22.49990794466006 0  169.5244550459371 22.49991039163449 0  174.5244542776576 22.49991238556405 0  179.5244530835377 22.499916310656 0  184.5244518745589 22.49992244838153 0  189.5244508677652 22.49993074866895 0  194.5244501480924 22.4999410054804 0  199.5244497235134 22.49995295965085 0  204.5244495631229 22.49996635150113 0  209.5244496203183 22.49998094416631 0  214.5244498456378 22.4999965314474 0  219.5244501931619 22.50001293816115 0  224.5244506231951 22.50003001726152 0  229.5244511029336 22.50004764589051 0  234.5244516061352 22.50006572137439 0  239.5244521123601 22.50008415759336 0  244.5244526060858 22.50010288186262 0  249.5244530758478 22.50012183233143 0  254.5244535134706 22.50014095585233 0  259.5244539134051 22.50016020625895 0  264.5244542721762 22.50017954299167 0  269.5244545879222 22.50019893001994 0  274.5244548600231 22.50021833501876 0  279.5244550888054 22.5002377287614 0  284.5244552753377 22.50025708468633 0  289.5244554213469 22.50027637857414 0  294.5244555293
[...]
<PointData  Vectors="v"> 
<DataArray  type="Float64"  Name="v"  NumberOfComponents="3" format="ascii">-3.3618348636820299e+00 -6.6671974470684772e+00 0.0000000000000000e+00  -3.8292204080583159e+00 -6.0366866384960298e+00 0.0000000000000000e+00  -3.3175330326186887e+00 -5.3358680322391843e+00 0.0000000000000000e+00  -2.9536632708960342e+00 -6.1212029505906411e+00 0.0000000000000000e+00  -4.3720991155446196e+00 -6.2984781126450162e+00 0.0000000000000000e+00  -3.7844648364075999e+00 -5.4848929113242297e+00 0.0000000000000000e+00  -4.8046316982406010e+00 -6.8678427823952379e+00 0.0000000000000000e+00  -4.3262938986253170e+00 -6.2202994535737028e+00 0.0000000000000000e+00  -5.1269833039305306e+00 -6.7405020474883450e+00 0.0000000000000000e+00  -4.7571523363572501e+00 -6.2586416769147570e+00 0.0000000000000000e+00  -5.5573592227543163e+00 -7.0944134556697209e+00 0.0000000000000000e+00  -5.0772595954211752e+00 -6.4509221225671496e+00 0.0000000000000000e+00  -5.8519665579146389e+00 -6.9813422613387761e+00 0.0000000000000000e+00  -5.5049648093775936e+00 -6.5419102299152563e+00 0.0000000000000000e+00  -5.8246380745539668e+00 -6.4573873598568587e+00 0.0000000000000000e+00  -5.7964090253067910e+00 -6.5010599660752284e+00 0.0000000000000000e+00  -6.5998691529760753e+00 -7.0198377975790835e+00 0.0000000000000000e+00  -5.7655869210619848e+00 -5.8599673801679621e+00 0.0000000000000000e+00  -4.6653685562574001e+00 -3.5427803058553589e+00 0.0000000000000000e+00  -6.5371063122902235e+00 -6.4476782791758636e+00 0.0000000000000000e+00  -1.3083722655572723e+01 -1.5379447736270013e+01 0.0000000000000000e+00  -4.5987105210233983e+00 -2.7553346156329885e+00 0.0000000000000000e+00  -1.3613471797652261e+01 -1.5029415518565798e+01 0.0000000000000000e+00  -1.3012589773271594e+01 -1.4238576547583003e+01 0.0000000000000000e+00  -1.3868210365577108e+01 -1.4123398841610927e+01 0.0000000000000000e+00  -1.3537837612883163e+01 -1.3744633205713658e+01 0.0000000000000000e+00  -1.4191703490892817e+01 -1.3266535220485062e+01 0.0000000000000000e+00  -1.3788327249616158e+01 -1.2784746843918024e+01 0.0000000000000000e+00  -1.4644015512952652e+01 -1.2624997982828322e+01 0.0000000000000000e+00  -1.4107475465604091e+01 -1.1949845816641174e+01 0.0000000000000000e+00  -1.5240526810372414e+01 -1.2195538418750637e+01 0.0000000000000000e+00  -1.4555611498501996e+01 -1.1304267206319663e+01 0.0000000000000000e+00  -1.5922191067610431e+01 -1.1859252302583405e+01 0.0000000000000000e+00  -1.5147802828277385e+01 -1.0839829836607727e+01 0.0000000000000000e+00  -1.6625989302085280e+01 -1.1701557554348573e+01 0.0000000000000000e+00  -1.5825278202052734e+01 -1.0648683876407036e+01 0.0000000000000000e+00  -1.7289159476603785e+01 -1.1410356777861889e+01 0.0000000000000000e+00  -1.6525499585852248e+01 -1.0418027742850411e+01 0.0000000000000000e+00  -1.7857033744040319e+01 -1.1023001948143547e+01 0.0000000000000000e+00  -1.7185406381007294e+01 -1.0172567241380603e+01 0.0000000000000000e+00  -1.8290966927212182e+01 -1.0429049582937363e+01 0.0000000000000000e+00  -1.7751032753753755e+01 -9.7787824938431207e+00 0.0000000000000000e+00  -1.8576863761499581e+01 -9.6551590272608809e+00 0.0000000000000000e+00  -1.8183824087650660e+01 -9.2255303912743258e+00 0.0000000000000000e+00  -1.8717438415752078e+01 -8.3627026572794314e+00 0.0000000000000000e+00  -1.8470282849350195e+01 -8.1498080628267822e+00 0.0000000000000000e+00  -1.8731496073417670e+01 -7.2646860180434265e+00 0.0000000000000000e+00  -1.8612486528761337e+01 -7.2391322634442661e+00 0.0000000000000000e+00  -1.8658539740434733e+01 -5.2408990508450151e+00 0.0000000000000000e+00  -1.8631732258625380e+01 -5.3452894465879357e+00 0.0000000000000000e+00  -1.8531895911759946e+01 -3.9887401835577325e+00 0.0000000000000000e+00  -1.8564100982268467e+01 -4.1689886914147483e+00 0.0000000000000000e+00  -1.8399547650191501e+01 -1.4719626900964966e+00 0.0000000000000000e+00  -1.8448955724209320e+01 -1.6621473197069818e+00 0.0000000000000000e+00  -1.8282169445213409e+01 -5.5717831465084500e-01 0.0000000000000000e+00  -1.8326238875051981e+01 -7.1670824540105471e-01 0.0000000000000000e+00  -1.8210809676210520e+01 1.8301172627980820e+00 0.0000000000000000e+00  -1.8228522435867646e+01 1.7345160303240073e+00 0.0000000000000000e+00  -1.8172578671646814e+01 1.6867496404512068e+00 0.0000000000000000e+00  -1.8171281499780687e+01 1.6545085007058982e+00 0.0000000000000000e+00  -1.8163571107987114e+01 -5.4635332395064843e-05 0.0000000000000000e+00  -1.8164444446245369e+01 -9.6815369184430464e-04 0.0000000000000000e+00  -1.8163563200132756e+01 7.4628415472466475e-19 0.0000000000000000e+00  -1.1542159801535522e+01 -2.8869234435981987e-02 0.0000000000000000e+00  -1.8177119263981986e+01 -9.9572153634019234e+00 0.0000000000000000e+00  -1.8164414105816100e+01 8.2215683027607206e-04 0.0000000000000000e+00  -1.2946675589865254e+01 9.4442868146705206e-01 0.0000000000000000e+00  -1.1558350492243152e+01 3.0484615990452726e+00 0.0000000000000000e+00  -1.1085349833679134e+01 5.9969352141394907e+00 0.0000000000000000e+00  -1.2964175705220963e+01 3.2129833458519554e+00 0.0000000000000000e+00  -1.0978058008299968e+01 6.9693233376476487e+00 0.0000000000000000e+00  -1.1107345505815690e+01 6.8134800216399949e+00 0.0000000000000000e+00  -1.0054201416092676e+01 1.0022760106442194e+01 0.0000000000000000e+00  -1.1007295564709711e+01 8.6453542613975252e+00 0.0000000000000000e+00  -9.4667386863364449e+00 1.1175762569561723e+01 0.0000000000000000e+00  -1.0092199415331882e+01 1.0303365703790869e+01 0.0000000000000000e+00  -8.7582349638909207e+00 1.2357460685625806e+01 0.0000000000000000e+00  -9.5144804722655998e+00 1.1305195812443728e+01 0.0000000000000000e+00  -8.1691907091423630e+00 1.2547871380749100e+01 0.0000000000000000e+00  -8.8173325461082808e+00 1.1674982021491365e+01 0.0000000000000000e+00  -7.3903871503426419e+00 1.2500682606262535e+01 0.0000000000000000e+00  -8.2404381168686189e+00 1.1344362821977471e+01 0.0000000000000000e+00  -6.8733307492158877e+00 1.1733030606332399e+01 0.0000000000000000e+00  -7.4744962181454131e+00 1.0969815721460717e+01 0.0000000000000000e+00  -6.4803865648172749e+00 1.0813923941894744e+01 0.0000000000000000e+00  -6.9711526160907251e+00 1.0237366061651841e+01 0.0000000000000000e+00  -6.0319154804060435e+00 9.8716170990462668e+00 0.0000000000000000e+00  -6.5924773135368389e+00 9.2122735628771490e+00 0.0000000000000000e+00  -5.5927747563384829e+00 8.9271033105589996e+00 0.0000000000000000e+00  -6.1586932638217551e+00 8.2821775219872773e+00 0.0000000000000000e+00  -5.1669600024047249e+00 8.0814921865016309e+00 0.0000000000000000e+00  -5.7347513180875440e+00 7.4567665520750230e+00 0.0000000000000000e+00  -4.7191282440197133e+00 7.3078772516569339e+00 0.0000000000000000e+00  -5.3244527060586346e+00 6.6504120693343349e+00 0.0000000000000000e+00  -4.2983029646050523e+00 6.5638861017219021e+00 0.0000000000000000e+00  -4.8923327251996751e+00 5.9471023903318505e+00 0.0000000000000000e+00  -3.9153444964980677e+00 5.8941619818940527e+00 0.0000000000000000e+00  -4.4874465617589587e+00 5.3342319450206963e+00 0.0000000000000000e+00  -3.5423370155783722e+00 5.2639107526709648e+00 0.0000000000000000e+00  -4.1205116006382712e+00 4.7189952868423362e+00 0.0000000000000000e+00  -3.2025797232328683e+00 4.6495161589115632e+00 0.0000000000000000e+00  -3.7635654286009737e+00 4.1544647181282714e+00 0.0000000000000000e+00  -2.9081364098577906e+00 4.0940652861988251e+00 0.0000000000000000e+00  -3.4398455737269082e+00 3.6669697215428814e+00 0.0000000000000000e+00  -2.6271732988115550e+00 3.5254474941840193e+00 0.0000000000000000e+00  -3.1614543068150223e+00 3.1184457722559893e+00 0.0000000000000000e+00  -2.3784808972479574e+00 3.0363222124717031e+00 0.0000000000000000e+00  -2.8963199679600868e+00 2.6777618919791681e+00 0.0000000000000000e+00  -2.1574155189949376e+00 2.5029581247394823e+00 0.0000000000000000e+00  -2.6635485083995758e+00 2.1854979061844948e+00 0.0000000000000000e+00  -1.9508763081168965e+00 2.1541729367990627e+00 0.0000000000000000e+00  -2.4579020379685388e+00 1.8587502799662996e+00 0.0000000000000000e+00  -1.7502042863423739e+00 1.6052032695233132e+00 0.0000000000000000e+00  -2.2672291972856766e+00 1.3177882223457318e+00 0.0000000000000000e+00  -1.5508736947372146e+00 1.5730244319561519e+00 0.0000000000000000e+00  -2.0811979586757290e+00 1.2885895797179476e+00 0.0000000000000000e+00  -1.3347643587258595e+00 9.2033370700848449e-01 0.0000000000000000e+00  -1.8980702042504571e+00 6.0871923419317975e-01 0.0000000000000000e+00  -1.0167854947032458e+00 1.4618294919015242e+00 0.0000000000000000e+00  -1.6950808071911723e+00 1.0003989437291234e+00 0.0000000000000000e+00  -5.0527632137371470e-01 1.2339886757466951e+00 0.0000000000000000e+00  -1.3952631662677224e+00 4.7666981385426238e-01 0.0000000000000000e+00  6.9815874883818385e-01 1.8348900268277529e-01 0.0000000000000000e+00  -8.9104117481208667e-01 -1.6009666804893401e+00 0.0000000000000000e+00  -3.0474481621239602e+00 -4.7903092020828844e+00 0.0000000000000000e+00  -2.6401524476009195e+00 -5.5098147907087185e+00 0.0000000000000000e+00  -3.4106154915550682e+00 -4.7854050482573802e+00 0.0000000000000000e+00  -3.8756455359639883e+00 -5.4091614431600696e+00 0.0000000000000000e+00  -4.4143643543224602e+00 -5.6146893174806305e+00 0.0000000000000000e+00  -4.8408807045552136e+00 -5.9739119399428828e+00 0.0000000000000000e+00  -5.1553457989139089e+00 -5.9040964293824185e+00 0.0000000000000000e+00  -5.5763165652762821e+00 -6.0682423647581052e+00 0.0000000000000000e+00  -5.8600973636938578e+00 -5.9111302029090966e+00 0.0000000000000000e+00  -5.8208383990645460e+00 -5.2953838853960162e+00 0.0000000000000000e+00  -6.5839845323965971e+00 -5.6675485640821508e+00 0.0000000000000000e+00  -4.6370828777916309e+00 -1.6241959971102788e+00 0.0000000000000000e+00  -1.3039775054124028e+01 -1.2963625659455996e+01 0.0000000000000000e+00  -1.3554112765843382e+01 -1.2414281521253212e+01 0.0000000000000000e+00  -1.3795431886993471e+01 -1.1476950314138985e+01 0.0000000000000000e+00  -1.4104967057515411e+01 -1.0637504100161745e+01 0.0000000000000000e+00  -1.4543353539701936e+01 -9.9577148996019158e+00 0.0000000000000000e+00  -1.5124918638837247e+01 -9.6391961306327385e+00 0.0000000000000000e+00  -1.5790984393793716e+01 -9.3743060511461778e+00 0.0000000000000000e+00  -1.6479626799130546e+01 -9.1894568456768457e+00 0.0000000000000000e+00  -1.7127952043187623e+01 -8.9373145057665386e+00 0.0000000000000000e+00  -1.7682172624635633e+01 -8.5819516291457223e+00 0.0000000000000000e+00  -1.8105130592556755e+01 -7.7254377128364089e+00 0.0000000000000000e+00  -1.8383249160265066e+01 -7.0292321664806865e+00 0.0000000000000000e+00  -1.8519973698548103e+01 -5.3185213445826705e+00 0.0000000000000000e+00  -1.8537019817627638e+01 -4.2682665355318710e+00 0.0000000000000000e+00  -1.8472875681530351e+01 -1.8331589020064361e+00 0.0000000000000000e+00  -1.8364774851724452e+01 -8.8828025277452549e-01 0.0000000000000000e+00  -1.8260640059942094e+01 1.5933707910839381e+00 0.0000000000000000e+00  -1.8182407396518499e+01 1.5982888513849609e+00 0.0000000000000000e+00  -1.8166536183529395e+01 -1.8422579275232745e-03 0.0000000000000000e+00  -1.8181343288459779e+01 -9.8985470441194732e+00 0.0000000000000000e+00  -1.8166495047085064e+01 1.6137923177727913e-03 0.0000000000000000e+00  -1.8237768948485758e+01 -6.8783446919489197e+00 0.0000000000000000e+00  -1.1609640693174068e+01 5.3131708229112808e+00 0.0000000000000000e+00  -1.3006597989618559e+01 4.0275679048157969e+00 0.0000000000000000e+00  -1.1150213700075033e+01 8.4969165701007423e+00 0.0000000000000000e+00  -1.1053913756189271e+01 8.9353877408507731e+00 0.0000000000000000e+00  -1.0146400688094785e+01 1.0442582758349760e+01 0.0000000000000000e+00  -9.5767727230779318e+00 1.0635422892322053e+01 0.0000000000000000e+00  -8.8897866146502675e+00 1.0485387914396288e+01 0.0000000000000000e+00  -8.3237421961679043e+00 9.8275242284267570e+00 0.0000000000000000e+00  -7.5693163452479100e+00 9.4896137052030678e+00 0.0000000000000000e+00  -7.0782324755288810e+00 8.6519745407315227e+00 0.0000000000000000e+00  -6.7124914945935581e+00 7.6392816995345960e+00 0.0000000000000000e+00  -6.2920428222700986e+00 6.8291575652519949e+00 0.0000000000000000e+00  -5.8820647652665325e+00 6.0435672557498608e+00 0.0000000000000000e+00  -5.4861840249163452e+00 5.3075997078059185e+00 0.0000000000000000e+00  -5.0687124933280128e+00 4.7357895287467082e+00 0.0000000000000000e+00  -4.6786984001215570e+00 4.1775871710793648e+00 0.0000000000000000e+00  -4.3267404807247161e+00 3.6279371552058128e+00 0.0000000000000000e+00  -3.9846799103490609e+00 3.1903088875912116e+00 0.0000000000000000e+00  -3.6757671618945094e+00 2.7096326400941804e+00 0.0000000000000000e+00  -3.4119632167901979e+00 2.2887507320607128e+00 0.0000000000000000e+00  -3.1611796465860622e+00 1.8447036479423122e+00 0.0000000000000000e+00  -2.9423588801175717e+00 1.5587318668254275e+00 0.0000000000000000e+00  -2.7504514698247089e+00 1.0394962643716261e+00 0.0000000000000000e+00  -2.5728497253041724e+00 1.0179062714836096e+00 0.0000000000000000e+00  -2.3999669756711524e+00 3.4057266099744288e-01 0.0000000000000000e+00  -2.2287051367532213e+00 7.0496060220083401e-01 0.0000000000000000e+00  -2.0386151793692764e+00 3.1518427825428436e-02 0.0000000000000000e+00  -1.7495851271905543e+00 -2.3475721127964273e+00 0.0000000000000000e+00  -2.9516324675204828e+00 -4.1799191852008235e+00 0.0000000000000000e+00  -2.5802788894075492e+00 -4.9521155898728342e+00 0.0000000000000000e+00  -3.3578646453915026e+00 -4.2421353793179302e+00 0.0000000000000000e+00  -3.7184493221065389e+00 -4.7143938341330953e+00 0.0000000000000000e+00  -4.1790554551900412e+00 -4.8111237667154541e+00 0.0000000000000000e+00  -4.7108922745559170e+00 -5.3403641830743203e+00 0.0000000000000000e+00  -5.1280374578069683e+00 -5.4403568350797480e+00 0.0000000000000000e+00  -5.4307264850414523e+00 -5.4464703706565718e+00 0.0000000000000000e+00  -5.8375700508957360e+00 -5.4964442000473452e+00 0.0000000000000000e+00  -6.1054928670888140e+00 -5.3660084992331383e+00 0.0000000000000000e+00  -6.0497352031899601e+00 -4.5344230952342821e+00 0.0000000000000000e+00  -6.7969956684448887e+00 -4.5561532392210742e+00 0.0000000000000000e+00  -4.8324894115999033e+00 -3.7515053176304614e-01 0.0000000000000000e+00  -1.3212856474985042e+01 -1.1658579470656408e+01 0.0000000000000000e+00  -1.3706510608492323e+01 -1.1127077718816018e+01 0.0000000000000000e+00  -1.3930794640865093e+01 -1.0185754964690757e+01 0.0000000000000000e+00  -1.4222872970340587e+01 -9.3135207780860423e+00 0.0000000000000000e+00  -1.4642019437294962e+01 -8.7817082063038523e+00 0.0000000000000000e+00  -1.5201839424854363e+01 -8.3915449498694290e+00 0.0000000000000000e+00  -1.5843997223849149e+01 -8.1742311790339279e+00 0.0000000000000000e+00  -1.6506500315274401e+01 -7.9832053346619185e+00 0.0000000000000000e+00  -1.7127304540301086e+01 -7.7689417788929358e+00 0.0000000000000000e+00  -1.7654117710823925e+01 -7.1091325440553739e+00 0.0000000000000000e+00  -1.8050119210311802e+01 -6.6272230138048771e+00 0.0000000000000000e+00  -1.8304692115105027e+01 -5.1269776005169714e+00 0.0000000000000000e+00  -1.8421659597052596e+01 -4.2491122364456881e+00 0.0000000000000000e+00  -1.8427782351833859e+01 -1.9331797469043484e+00 0.0000000000000000e+00  -1.8360041512541159e+01 -1.0379492957040015e+00 0.0000000000000000e+00  -1.8266889970553216e+01 1.4464039457075506e+00 0.0000000000000000e+00  -1.8185167623831287e+01 1.5298566155868114e+00 0.0000000000000000e+00  -1.8169801138738976e+01 -2.6338468743693430e-03 0.0000000000000000e+00  -1.8175848499440590e+01 -9.8464860356523367e+00 0.0000000000000000e+00  -1.8169764357342174e+01 2.3072318463241868e-03 0.0000000000000000e+00  -1.8231394443060697e+01 -6.7844870632536267e+00 0.0000000000000000e+00  -1.8284437267722041e+01 -4.6426985705957113e+00 0.0000000000000000e+00  -1.1637540705932972e+01 6.1110823679803996e+00 0.0000000000000000e+00  -1.3021315988976390e+01 5.7137749881086783e+00 0.0000000000000000e+00  -1.1167173937839841e+01 8.7953285774128176e+00 0.0000000000000000e+00  -1.1079166517876816e+01 9.0910930829313319e+00 0.0000000000000000e+00  -1.0184010154654484e+01 9.7909664274127159e+00 0.0000000000000000e+00  -9.6280747340261996e+00 9.4665998591133214e+00 0.0000000000000000e+00  -8.9564032963488209e+00 8.9906747608799620e+00 0.0000000000000000e+00  -8.4059931429699297e+00 8.3709328517648753e+00 0.0000000000000000e+00  -7.6680846473554993e+00 7.9287188643016888e+00 0.0000000000000000e+00  -7.1941740345234839e+00 7.1047532053311180e+00 0.0000000000000000e+00  -6.8462221330733763e+00 6.2130956824245178e+00 0.0000000000000000e+00  -6.4443819301660596e+00 5.4438240086009468e+00 0.0000000000000000e+00  -6.0538757292079284e+00 4.7295765015506923e+00 0.0000000000000000e+00  -5.6780726170284117e+00 4.1257278085186551e+00 0.0000000000000000e+00  -5.2811407538716111e+00 3.6089036927831097e+00 0.0000000000000000e+00  -4.9119271912776403e+00 3.1164134815206039e+00 0.0000000000000000e+00  -4.5807422919913998e+00 2.6935604819289378e+00 0.0000000000000000e+00  -4.2593037065282990e+00 2.2623161430641194e+00 0.0000000000000000e+00  -3.9706226840477803e+00 1.9089069850822853e+00 0.0000000000000000e+00  -3.7266326809846624e+00 1.4837728461304098e+00 0.0000000000000000e+00  -3.4948674742617154e+00 1.2455743877594907e+00 0.0000000000000000e+00  -3.2946257552835174e+00 7.6562185663444215e-01 0.0000000000000000e+00  -3.1200442971380133e+00 7.6585284425104660e-01 0.0000000000000000e+00  -2.9596821349392699e+00 9.3294173815718806e-02 0.0000000000000000e+00  -2.8018024303585167e+00 4.6256116733449582e-01 0.0000000000000000e+00  -2.6475102921059985e+00 -2.4462406906177425e-01 0.0000000000000000e+00  -2.4679487774283424e+00 -2.7660431742307838e+00 0.0000000000000000e+00  -3.1267340067359375e+00 -3.6235606265614368e+00 0.0000000000000000e+00  -2.7810212852311036e+00 -4.4326391694832052e+00 0.0000000000000000e+00  -3.4969223988891636e+00 -3.6343268944912923e+00 0.0000000000000000e+00  -3.9006145318470926e+00 -4.1762135973991574e+00 0.0000000000000000e+00  -4.2570006326015477e+00 -4.1246078293272532e+00 0.0000000000000000e+00  -4.7107860037090807e+00 -4.5492300052199273e+00 0.0000000000000000e+00  -5.2326394301176933e+00 -4.8238055791630936e+00 0.0000000000000000e+00  -5.6361969645784784e+00 -5.0040647811110244e+00 0.0000000000000000e+00  -5.9217990642534639e+00 -4.9000824051849969e+00 0.0000000000000000e+00  -6.3086270076280160e+00 -4.9796605426685074e+00 0.0000000000000000e+00  -6.5548735884662506e+00 -4.6335431988797886e+00 0.0000000000000000e+00  -6.4775073310151017e+00 -3.4503397396275974e+00 0.0000000000000000e+00  -7.2040378458193333e+00 -3.3381341499879986e+00 0.0000000000000000e+00  -5.2154724282474039e+00 8.9086294600990212e-01 0.0000000000000000e+00  -1.3566315154041133e+01 -1.0406454335649626e+01 0.0000000000000000e+00  -1.4034804291067505e+01 -9.8638876103771018e+00 0.0000000000000000e+00  -1.4239141355149988e+01 -8.8906850709269918e+00 0.0000000000000000e+00  -1.4509835357678401e+01 -8.1701916459527606e+00 0.0000000000000000e+00  -1.4904278078688723e+01 -7.5728252290574272e+00 0.0000000000000000e+00  -1.5433927900208582e+01 -7.2351752645185021e+00 0.0000000000000000e+00  -1.6040804721590288e+01 -7.0172769783538387e+00 0.0000000000000000e+00  -1.6663248095937345e+01 -6.8681770757302694e+00 0.0000000000000000e+00  -1.7240161925812103e+01 -6.3512345001056918e+00 0.0000000000000000e+00  -1.7720575016562524e+01 -6.0651278705891434e+00 0.0000000000000000e+00  -1.8071048924266403e+01 -4.7768485312361557e+00 0.0000000000000000e+00  -1.8281867138148957e+01 -4.0984910215484911e+00 0.0000000000000000e+00  -1.8364092432564977e+01 -1.9460395862826934e+00 0.0000000000000000e+00  -1.8344002138363670e+01 -1.1424914237748025e+00 0.0000000000000000e+00  -1.8273555369273236e+01 1.3044076652970813e+00 0.0000000000000000e+00  -1.8192023103058801e+01 1.4543728621792213e+00 0.0000000000000000e+00  -1.8174