<?xml version="1.0"?>
<VTKFile type="UnstructuredGrid"  version="0.1"  >
<UnstructuredGrid>
<Piece  NumberOfPoints="1933" NumberOfCells="3640">
<Points>
<DataArray  type="Float64"  NumberOfComponents="3"  format="ascii">0.2940399858314837 -0.001741928330642395 0  5.294040039016967 -0.00170667276336586 0  5.293987160529738 7.49829346387058 0  0.2939870801305744 7.498258163019837 0  10.29404012276915 -0.001671526609174366 0  10.29398729738642 7.498328621304279 0  15.29404029540918 -0.001636505123673232 0  15.29398751615973 7.498363642600227 0  20.29404061179556 -0.001601581575641074 0  20.29398783951134 7.498398562677949 0  25.29404111766347 -0.001566706155297547 0  25.29398828748095 7.498433434412211 0  30.2940418494761 -0.001531815418186336 0  30.29398887679576 7.498468322331241 0  35.29404283590543 -0.001496836877014305 0  35.29398962035878 7.498503299219676 0  40.29404409953847 -0.001461690861737203 0  40.29399052695851 7.498538444741285 0  45.29404565832985 -0.00142629072357629 0  45.29399160105261 7.498573845431897 0  50.29404752666428 -0.001390541938475294 0  50.29399284246687 7.498609595670979 0  55.29404971600948 -0.001354340374970899 0  55.29399424588046 7.49864579943295 0  60.29405223515807 -0.001317569811850436 0  60.29399579997738 7.498682572758414 0  65.29405509004154 -0.001280098663847925 0  65.2939974861313 7.498720046992752 0  70.29405828304577 -0.001241775764899077 0  70.29399927646305 7.498758372934795 0  75.29406181169406 -0.001202424943909137 0  75.29400113104556 7.498797726137393 0  80.29406566644536 -0.001161837985406774 0  80.29400299393792 7.498838313719876 0  85.29406982718218 -0.001119765371231275 0  85.29400478760617 7.498880383201949 0  90.29407425765511 -0.001075903915011362 0  90.29400640509476 7.498924234063569 0  95.29407889663851 -0.001029879979399855 0  95.29400769907954 7.498970232980732 0  100.2940836436153 -0.0009812263369518262 0  100.2940084666622 7.499018833968443 0  105.2940883351485 -0.0009293498069333419 0  105.2940084285105 7.499070604909265 0  110.2940927049974 -0.0008734854724766483 0  110.2940072009866 7.499126261938156 0  115.2940963153341 -0.0008126315191661652 0  115.2940042607813 7.499186712337278 0  120.2940984356548 -0.0007454568020577476 0  120.2939989047037 7.499253103628437 0  125.2940978257236 -0.0006701724377607687 0  125.2939902159157 7.499326868420439 0  130.2940923404883 -0.0005843636047398813 0  130.2939770690908 7.499409734806547 0  135.2940782018425 -0.0004848036349428898 0  135.2939582562138 7.499503628141375 0  140.2940486411339 -0.0003673735170591034 0  140.293932925592 7.499610303577674 0  145.2939913311797 -0.0002276006317733002 0  145.2939017766694 7.499730430550727 0  150.2938833650384 -6.397975985668809e-05 0  150.2938700544128 7.499862006063538 0  160.2938926261449 7.966314185799667e-19 0  165.2938292959908 -0.0001280290275152966 0  165.293882929604 7.499847012544807 0  160.2938949751629 7.499941939643912 0  170.2938099586436 -0.0002161727670553054 0  170.2938704030012 7.499771533244398 0  175.2938112421031 -0.0002763578536586963 0  175.2938626747203 7.499717173073384 0  180.2938219144428 -0.0003159299854245555 0  180.2938598645705 7.499680557398367 0  185.2938364215067 -0.0003400947365161636 0  185.2938608430768 7.499657969456464 0  190.293852005688 -0.0003526397909653739 0  190.2938643947029 7.499646290395567 0  195.2938673194496 -0.0003563325742292397 0  195.2938695302813 7.499643084039933 0  200.293881733525 -0.0003532051717484813 0  200.2938755252723 7.499646490361318 0  205.2938949853131 -0.000344763266631032 0  205.2938818778831 7.499655095412678 0  210.293906998159 -0.0003321361086897928 0  210.2938882535599 7.499667819793508 0  215.2939177877428 -0.0003161823899604592 0  215.2938944365908 7.499683832390888 0  220.2939274133415 -0.0002975645401617848 0  220.2939002931785 7.499702486331207 0  225.293935952441 -0.0002768009871616891 0  225.2939057449245 7.499723272152662 0  230.2939434876187 -0.000254303219998149 0  230.2939107504021 7.499745783660687 0  235.2939500999473 -0.0002304023854208168 0  235.2939152925945 7.499769692921728 0  240.2939558658965 -0.0002053686365318464 0  240.2939193704341 7.499794731796049 0  245.2939608561423 -0.0001794254103944876 0  245.2939229931782 7.499820678159508 0  250.2939651354302 -0.0001527601072346358 0  250.2939261767219 7.499847345515016 0  255.2939687630456 -0.000125532169365853 0  255.2939289412494 7.499874575089144 0  260.2939717936529 -9.78792344505699e-05 0  260.2939313098001 7.499902229789583 0  265.2939742784042 -6.99218101253182e-05 0  265.2939333074783 7.499930189602659 0  270.2939762662587 -4.176674627858628e-05 0  270.2939349611065 7.499958348165473 0  275.2939778055212 -1.350963782539697e-05 0  275.2939362991751 7.499986610375779 0  280.2939789456066 1.476385162208112e-05 0  280.2939373519717 7.500014891024226 0  285.2939797390162 4.297792434601469e-05 0  285.2939381517762 7.500043114563324 0  290.2939802434253 7.106825375500906e-05 0  290.2939387329881 7.500071216279367 0  295.2939805235975 9.898601884913592e-05 0  295.2939391321008 7.500099145315 0  300.2939806523154 0.0001267056430931954 0  300.2939393874793 7.500126870194388 0  305.2939807085244 0.0001542381940975359 0  305.2939395393113 7.500154387704138 0  310.2939807684603 0.0001816527495511833 0  310.2939396311368 7.500181736264379 0  5.293933991874969 14.99829375769417 0  0.2939339096821633 14.99825838311125 0  10.29393411209582 14.99832891821237 0  15.29393428835026 14.99836391730872 0  20.29393452997419 14.99839880930046 0  25.29393484219925 14.99843365457913 0  30.29393522749492 14.99846851994308 0  35.29393568558454 14.99850347820816 0  40.29393621295622 14.9985386081502 0  45.29393680216564 14.99857399503564 0  50.29393744099755 14.99860973176026 0  55.29393811145788 14.99864592057732 0  60.29393878852726 14.99868267542364 0  65.29393943859066 14.99872012489783 0  70.29394001744264 14.99875841599549 0  75.29394046776792 14.99879771875899 0  80.29394071599604 14.99883823204883 0  85.29394066846568 14.99888019068227 0  90.29394020691761 14.99892387419302 0  95.29393918354938 14.99896961739007 0  100.2939374162756 14.99901782263553 0  105.2939346856925 14.99906897310461 0  110.2939307367723 14.99912364482795 0  115.2939252910772 14.9991825122591 0  120.293918079876 14.99924633601611 0  125.2939089157212 14.99931590978195 0  130.2938978297759 14.99939192193173 0  135.2938853117269 14.99947465000199 0  140.2938726868539 14.99956334384931 0  145.2938626139978 14.99965504851377 0  150.2938594777686 14.99974237209132 0  165.2938915591829 14.99977795713283 0  160.2938894920765 14.99982517365894 0  170.2938869863044 14.99973246361425 0  175.2938804537278 14.99969526622834 0  180.293874541946 14.9996682801321 0  185.2938702448695 14.99965109579408 0  190.2938677229508 14.99964246892897 0  195.2938667731764 14.99964100160279 0  200.2938670737956 14.99964540742905 0  205.2938682982247 14.99965459098458 0  210.2938701607167 14.99966765128228 0  215.2938724290336 14.99968385828315 0  220.2938749225731 14.99970262315269 0  225.2938775051012 14.99972347027334 0  230.293880076339 14.9997460135272 0  235.2938825642103 14.99976993712064 0  240.2938849183335 14.99979498042001 0  245.2938871048363 14.99982092607318 0  250.2938891023511 14.99984759073407 0  255.2938908989771 14.99987481782227 0  260.2938924900155 14.99990247188016 0  265.2938938762804 14.99993043420319 0  270.2938950628537 14.99995859952087 0  275.293896058148 14.9999868735895 0  280.2938968731862 15.00001517162987 0  285.2938975210621 15.00004341759995 0  290.2938980165524 15.00007154432164 0  295.293898376049 15.0000994944451 0  300.2938986181057 15.00012722205701 0  305.2938987653564 15.00015469423425 0  310.2938988491392 15.0001818906043 0  5.293880624577181 22.4982943018476 0  0.2938805468118649 22.49825891338748 0  10.29388071649803 22.49832942573643 0  15.29388083095856 22.49836436667162 0  20.29388096960776 22.49839919572119 0  25.29388112973751 22.49843398108288 0  30.2938813056061 22.49846879203035 0  35.29388148880795 22.49850370094357 0  40.2938816680478 22.49853878460348 0  45.29388182858041 22.49857412536183 0  50.29388195146047 22.49860981247396 0  55.29388201266335 22.49864594372849 0  60.29388198210131 22.49868262744408 0  65.29388182254625 22.49871998488285 0  70.29388148848547 22.4987581531209 0  75.29388092497797 22.49879728840465 0  80.29388006665336 22.49883756998583 0  85.29387883712376 22.4988792043467 0  90.29387714929281 22.49892242955731 0  95.29387490738334 22.49896751918102 0  100.293872012022 22.49901478454171 0  105.2938683704874 22.49906457309756 0  110.2938639152793 22.49911725881701 0  115.2938586354604 22.49917321737866 0  120.2938526264323 22.49923277412956 0  125.2938461640367 22.49929610549858 0  130.2938398058924 22.49936306512527 0  135.293834512171 22.49943289705136 0  140.2938317512397 22.49950380016095 0  145.2938335002944 22.49957235203838 0  150.2938419573057 22.49963298549466 0  165.2938751639749 22.49969959507612 0  160.2938680333377 22.49971509311874 0  170.293876147121 22.49967969667008 0  175.2938732986717 22.49966093022271 0  180.2938686889761 22.49964637950466 0  185.2938637312896 22.49963731066884 0  190.2938592214999 22.49963389429301 0  195.2938555202271 22.49963574773308 0  200.2938527236531 22.49964226403946 0  205.2938507854302 22.4996527876134 0  210.2938495933582 22.49966669779494 0  215.2938490136341 22.49968344220158 0  220.293848914338 22.49970254463339 0  225.2938491765273 22.49972360120459 0  230.2938496983603 22.4997462718237 0  235.2938503955457 22.49977027052727 0  240.2938512000275 22.49979535626276 0  245.2938520579685 22.49982132474197 0  250.2938529275803 22.49984800152131 0  255.2938537770812 22.49987523625645 0  260.2938545828678 22.49990289800418 0  265.2938553279529 22.49993087143008 0  270.2938560006358 22.49995905379243 0  275.2938565933953 22.49998735259184 0  280.2938571019944 22.50001568378666 0  285.2938575248083 22.50004397046144 0  290.2938578624534 22.50007214177818 0  295.293858117881 22.5
[...]
<PointData  Vectors="v"> 
<DataArray  type="Float64"  Name="v"  NumberOfComponents="3" format="ascii">1.0981787036303023e+00 7.6633286173186645e+00 0.0000000000000000e+00  1.6556480445194235e+00 7.1794752918972975e+00 0.0000000000000000e+00  1.5252327637234779e+00 6.3435444394766600e+00 0.0000000000000000e+00  1.0952246970785315e+00 7.0186017312699231e+00 0.0000000000000000e+00  2.3499830460737434e+00 7.7606036572173984e+00 0.0000000000000000e+00  2.0822711658316226e+00 6.7200722159336186e+00 0.0000000000000000e+00  2.9716458061330893e+00 8.7818359237454580e+00 0.0000000000000000e+00  2.7753594788445612e+00 7.8508770430523578e+00 0.0000000000000000e+00  3.5156779968028649e+00 9.0951715972737190e+00 0.0000000000000000e+00  3.3950344614205732e+00 8.2814262153727007e+00 0.0000000000000000e+00  4.1974036283944258e+00 9.9692173686084260e+00 0.0000000000000000e+00  3.9362862025623468e+00 8.9496311936503705e+00 0.0000000000000000e+00  4.7368665125333109e+00 1.0323979154828368e+01 0.0000000000000000e+00  4.6143110630885289e+00 9.5184126630800989e+00 0.0000000000000000e+00  4.8158326785371077e+00 1.0060285880032302e+01 0.0000000000000000e+00  5.1492474193381019e+00 9.9462472702583931e+00 0.0000000000000000e+00  5.9000396275002389e+00 1.1156747499733344e+01 0.0000000000000000e+00  5.2229370565011628e+00 9.5355254956110294e+00 0.0000000000000000e+00  2.7953308952496969e+00 5.9940634439513563e+00 0.0000000000000000e+00  6.3009252512426492e+00 1.0656974290120209e+01 0.0000000000000000e+00  1.3914092093690144e+01 2.1874571005246484e+01 0.0000000000000000e+00  3.1892639608360605e+00 5.2023771468450715e+00 0.0000000000000000e+00  1.3594607609382006e+01 2.0101262524664730e+01 0.0000000000000000e+00  1.4300573005977776e+01 2.0587736328814138e+01 0.0000000000000000e+00  1.3671981676308121e+01 1.8782323067079485e+01 0.0000000000000000e+00  1.3972558292389376e+01 1.8674497477589732e+01 0.0000000000000000e+00  1.4203202964355160e+01 1.8115643811412141e+01 0.0000000000000000e+00  1.4040106829732014e+01 1.7328367378833736e+01 0.0000000000000000e+00  1.5143432557363756e+01 1.8083160913198018e+01 0.0000000000000000e+00  1.4560133555503056e+01 1.6683720991569157e+01 0.0000000000000000e+00  1.6393662324986046e+01 1.8474783875316557e+01 0.0000000000000000e+00  1.5487323460537880e+01 1.6611378194513584e+01 0.0000000000000000e+00  1.7860261539958234e+01 1.9083499467229458e+01 0.0000000000000000e+00  1.6723036343383221e+01 1.6896969165230935e+01 0.0000000000000000e+00  1.9452648166869405e+01 1.9970519890592325e+01 0.0000000000000000e+00  1.8173786607884225e+01 1.7596560129918810e+01 0.0000000000000000e+00  2.1080369106109774e+01 2.0709536854656587e+01 0.0000000000000000e+00  1.9748470604047469e+01 1.8283401124540479e+01 0.0000000000000000e+00  2.2666708016145098e+01 2.1333958532537604e+01 0.0000000000000000e+00  2.1357338345837341e+01 1.8971319442702892e+01 0.0000000000000000e+00  2.4148093700197936e+01 2.1682116444827329e+01 0.0000000000000000e+00  2.2923491332774059e+01 1.9477707590531818e+01 0.0000000000000000e+00  2.5469095902453549e+01 2.1717457078492977e+01 0.0000000000000000e+00  2.4383441889778538e+01 1.9754576539997220e+01 0.0000000000000000e+00  2.6593966351515476e+01 2.0988712991644505e+01 0.0000000000000000e+00  2.5681596128169634e+01 1.9320527654651823e+01 0.0000000000000000e+00  2.7509060829619113e+01 2.0270088472139822e+01 0.0000000000000000e+00  2.6783620488645397e+01 1.8918060404388324e+01 0.0000000000000000e+00  2.8208728335573017e+01 1.8123396603702890e+01 0.0000000000000000e+00  2.7673468037167371e+01 1.7093373264865590e+01 0.0000000000000000e+00  2.8714920841575921e+01 1.6453633218007379e+01 0.0000000000000000e+00  2.8349621946741333e+01 1.5716793440350374e+01 0.0000000000000000e+00  2.9046443630377397e+01 1.2774910148545779e+01 0.0000000000000000e+00  2.8828540403365967e+01 1.2296500956501850e+01 0.0000000000000000e+00  2.9247285937693810e+01 1.0115802549999410e+01 0.0000000000000000e+00  2.9137329432801597e+01 9.8390633773707190e+00 0.0000000000000000e+00  2.9342336526445361e+01 5.2314894872685658e+00 0.0000000000000000e+00  2.9308823895182009e+01 5.1057001686910235e+00 0.0000000000000000e+00  2.9381791114077110e+01 1.2760275185949037e+00 0.0000000000000000e+00  2.9383384573562175e+01 1.2439612611182198e+00 0.0000000000000000e+00  2.9389262609262406e+01 -4.5509520627872537e-09 0.0000000000000000e+00  2.9389916191853992e+01 6.8474540548773904e-04 0.0000000000000000e+00  2.9389262614651088e+01 -4.3674281249230683e-19 0.0000000000000000e+00  2.0125191046608457e+01 -7.1228052425147093e+00 0.0000000000000000e+00  2.9383851280042826e+01 6.7475803568249457e+00 0.0000000000000000e+00  2.9389904729069759e+01 -6.5390432750018330e-04 0.0000000000000000e+00  2.0750182762125078e+01 -1.3369449268541221e+01 0.0000000000000000e+00  2.0153211348837793e+01 -1.4346936741852083e+01 0.0000000000000000e+00  1.7730878079311978e+01 -2.0809110811722718e+01 0.0000000000000000e+00  2.0815771864140626e+01 -1.6310681186067978e+01 0.0000000000000000e+00  1.6954211104603012e+01 -2.2282235796045061e+01 0.0000000000000000e+00  1.7834740181626980e+01 -2.1152000285208587e+01 0.0000000000000000e+00  1.5274514884966477e+01 -2.5059116504699507e+01 0.0000000000000000e+00  1.7095640258816889e+01 -2.2572454640566377e+01 0.0000000000000000e+00  1.4063210363797564e+01 -2.5271432095322638e+01 0.0000000000000000e+00  1.5452934772036297e+01 -2.3488164794394905e+01 0.0000000000000000e+00  1.2768737663111597e+01 -2.5350451558169155e+01 0.0000000000000000e+00  1.4278910374366928e+01 -2.3441165082492599e+01 0.0000000000000000e+00  1.1653409681210332e+01 -2.4298573073128875e+01 0.0000000000000000e+00  1.3020898854492970e+01 -2.2658544471178867e+01 0.0000000000000000e+00  1.0325867573555744e+01 -2.3131200826339917e+01 0.0000000000000000e+00  1.1941656967194591e+01 -2.1172162051037056e+01 0.0000000000000000e+00  9.3704343820480513e+00 -2.1290587721642144e+01 0.0000000000000000e+00  1.0650019239995757e+01 -1.9889513418706141e+01 0.0000000000000000e+00  8.5870311886424631e+00 -1.9436512506511029e+01 0.0000000000000000e+00  9.7300293042388954e+00 -1.8293277225442996e+01 0.0000000000000000e+00  7.7350909229487197e+00 -1.7744477280427830e+01 0.0000000000000000e+00  8.9816915188819806e+00 -1.6498163635181559e+01 0.0000000000000000e+00  6.9282513009450337e+00 -1.6146120279889562e+01 0.0000000000000000e+00  8.1646146610853361e+00 -1.4967076098883952e+01 0.0000000000000000e+00  6.1703727508370756e+00 -1.4731182562936706e+01 0.0000000000000000e+00  7.3922250647568521e+00 -1.3625385727776166e+01 0.0000000000000000e+00  5.4248815116846014e+00 -1.3436542892752291e+01 0.0000000000000000e+00  6.6684279975055132e+00 -1.2348977905646136e+01 0.0000000000000000e+00  4.7466490206166867e+00 -1.2196503087641098e+01 0.0000000000000000e+00  5.9567128622090451e+00 -1.1209492432960817e+01 0.0000000000000000e+00  4.1434179640637350e+00 -1.1058764041617538e+01 0.0000000000000000e+00  5.3118684362747945e+00 -1.0183968795325796e+01 0.0000000000000000e+00  3.5776988464380488e+00 -9.9708383168307826e+00 0.0000000000000000e+00  4.7416127796125842e+00 -9.1520172352598994e+00 0.0000000000000000e+00  3.0748101704317756e+00 -8.9087262563739991e+00 0.0000000000000000e+00  4.2085879847754031e+00 -8.1837702753401480e+00 0.0000000000000000e+00  2.6437638315443488e+00 -7.9116026330884450e+00 0.0000000000000000e+00  3.7379289965527471e+00 -7.2942219985037884e+00 0.0000000000000000e+00  2.2485064385940179e+00 -6.9081188463775485e+00 0.0000000000000000e+00  3.3388847486527991e+00 -6.3439722225242265e+00 0.0000000000000000e+00  1.9074481557222482e+00 -5.9737491306151904e+00 0.0000000000000000e+00  2.9750690369578843e+00 -5.4908505015466220e+00 0.0000000000000000e+00  1.6201527471620831e+00 -5.0213647191194690e+00 0.0000000000000000e+00  2.6655033591492789e+00 -4.6184173211682671e+00 0.0000000000000000e+00  1.3673042611507635e+00 -4.2069605966194183e+00 0.0000000000000000e+00  2.4086591075853354e+00 -3.8561524115854886e+00 0.0000000000000000e+00  1.1489227549969514e+00 -3.2687836333715135e+00 0.0000000000000000e+00  2.1871788952363742e+00 -2.9681120546522206e+00 0.0000000000000000e+00  9.5775493986006677e-01 -2.7315000356897161e+00 0.0000000000000000e+00  1.9977617574371558e+00 -2.4736259520660280e+00 0.0000000000000000e+00  7.8130301692923765e-01 -1.7820029273452704e+00 0.0000000000000000e+00  1.8387168382896983e+00 -1.5422526545212385e+00 0.0000000000000000e+00  5.4331386763758149e-01 -1.7255553967610655e+00 0.0000000000000000e+00  1.6883383202992139e+00 -1.3994911363307183e+00 0.0000000000000000e+00  1.8238841423382521e-01 -1.2018760099512584e+00 0.0000000000000000e+00  1.4865257427358658e+00 -6.8029901478289712e-01 0.0000000000000000e+00  -6.6122653107770046e-01 -7.3891868828344903e-03 0.0000000000000000e+00  1.1400646529016438e+00 1.2166543837147441e+00 0.0000000000000000e+00  1.8027647117648897e+00 5.6981759986586109e+00 0.0000000000000000e+00  1.3288847678157745e+00 6.3087583581004631e+00 0.0000000000000000e+00  2.2330923787676364e+00 5.8845896720456601e+00 0.0000000000000000e+00  2.7896021131988462e+00 6.8120807837988027e+00 0.0000000000000000e+00  3.4809422653140354e+00 7.3535593329157054e+00 0.0000000000000000e+00  4.0974377607716121e+00 8.1401666704180542e+00 0.0000000000000000e+00  4.6340590009087590e+00 8.5048208050461458e+00 0.0000000000000000e+00  5.3058155178340902e+00 9.1483650464639528e+00 0.0000000000000000e+00  5.8327231647839559e+00 9.4302662670102269e+00 0.0000000000000000e+00  5.8969135297105435e+00 9.0462945784224296e+00 0.0000000000000000e+00  6.9639074721400940e+00 9.8771685785531425e+00 0.0000000000000000e+00  3.8405012251041866e+00 3.9266491665433501e+00 0.0000000000000000e+00  1.4941089016126620e+01 1.9172992475604204e+01 0.0000000000000000e+00  1.4601924063567505e+01 1.7234929043420525e+01 0.0000000000000000e+00  1.4655856425798863e+01 1.5912681026008563e+01 0.0000000000000000e+00  1.5159609446522580e+01 1.5232019616158432e+01 0.0000000000000000e+00  1.6066903997942390e+01 1.5056867900189166e+01 0.0000000000000000e+00  1.7279194018194847e+01 1.5435344183908441e+01 0.0000000000000000e+00  1.8703501995988553e+01 1.5938723316716418e+01 0.0000000000000000e+00  2.0248165516917730e+01 1.6577443893066402e+01 0.0000000000000000e+00  2.1823581753122337e+01 1.7148951645608822e+01 0.0000000000000000e+00  2.3353651184319524e+01 1.7587855319028229e+01 0.0000000000000000e+00  2.4773983873099130e+01 1.7397706577966318e+01 0.0000000000000000e+00  2.6029874038226581e+01 1.7291227979822203e+01 0.0000000000000000e+00  2.7087021938006764e+01 1.5785384007372512e+01 0.0000000000000000e+00  2.7930259308777828e+01 1.4732677654784958e+01 0.0000000000000000e+00  2.8556787367127441e+01 1.1604484858797253e+01 0.0000000000000000e+00  2.8987856507910191e+01 9.4102132646927696e+00 0.0000000000000000e+00  2.9243721541888672e+01 4.8699305404716924e+00 0.0000000000000000e+00  2.9371273401211941e+01 1.1723815288962631e+00 0.0000000000000000e+00  2.9391483875526344e+01 1.3052618873258151e-03 0.0000000000000000e+00  2.9362809197082790e+01 6.8099500992038999e+00 0.0000000000000000e+00  2.9391462837124845e+01 -1.2860072901299262e-03 0.0000000000000000e+00  2.9301243751041053e+01 -5.1372696677402752e-01 0.0000000000000000e+00  2.0104868860726786e+01 -1.7331489903222224e+01 0.0000000000000000e+00  2.0811901636369250e+01 -1.6705953047524755e+01 0.0000000000000000e+00  1.7873363045551830e+01 -2.1490184480107501e+01 0.0000000000000000e+00  1.7177260303077816e+01 -2.1047098338132038e+01 0.0000000000000000e+00  1.5574089284646139e+01 -2.1704537334368283e+01 0.0000000000000000e+00  1.4439452366832588e+01 -2.0793854491089412e+01 0.0000000000000000e+00  1.3218566169797201e+01 -1.9574838122790581e+01 0.0000000000000000e+00  1.2175155317985746e+01 -1.7973250661828956e+01 0.0000000000000000e+00  1.0918423592820325e+01 -1.6933919506223397e+01 0.0000000000000000e+00  1.0032541854542469e+01 -1.5395612532024366e+01 0.0000000000000000e+00  9.3174897161883727e+00 -1.3761407743622881e+01 0.0000000000000000e+00  8.5333522458039113e+00 -1.2486333798209122e+01 0.0000000000000000e+00  7.7933354223345477e+00 -1.1282378588781860e+01 0.0000000000000000e+00  7.1012953567875936e+00 -1.0160835014306167e+01 0.0000000000000000e+00  6.4208533992124863e+00 -9.2352163450267959e+00 0.0000000000000000e+00  5.8066693181740892e+00 -8.3147334388935619e+00 0.0000000000000000e+00  5.2664253583305438e+00 -7.4020206194548308e+00 0.0000000000000000e+00  4.7628266454979880e+00 -6.6056959796918706e+00 0.0000000000000000e+00  4.3209993428511506e+00 -5.7623469481359475e+00 0.0000000000000000e+00  3.9500843163182870e+00 -4.9619615387527336e+00 0.0000000000000000e+00  3.6139238297045559e+00 -4.1701883078680604e+00 0.0000000000000000e+00  3.3312239296226172e+00 -3.4871990175790928e+00 0.0000000000000000e+00  3.1009198765662171e+00 -2.6509004561622249e+00 0.0000000000000000e+00  2.9048808397853878e+00 -2.2058819328128880e+00 0.0000000000000000e+00  2.7412336380525844e+00 -1.3165589440307899e+00 0.0000000000000000e+00  2.6056270913968858e+00 -1.1918806333193015e+00 0.0000000000000000e+00  2.4808793352123164e+00 -3.8668873540311333e-01 0.0000000000000000e+00  2.3005378383780317e+00 1.7168711631609703e+00 0.0000000000000000e+00  2.5158936415060382e+00 4.9865435680780656e+00 0.0000000000000000e+00  2.0877662511779671e+00 5.6680526399544302e+00 0.0000000000000000e+00  2.9909884511559750e+00 5.2382312048058353e+00 0.0000000000000000e+00  3.4225863770081153e+00 5.9776295711660214e+00 0.0000000000000000e+00  3.9785683785029917e+00 6.3183106812329202e+00 0.0000000000000000e+00  4.6673704633567192e+00 7.2189071235622189e+00 0.0000000000000000e+00  5.2788970864413667e+00 7.7055724563313790e+00 0.0000000000000000e+00  5.8074517245184749e+00 8.1484685791350948e+00 0.0000000000000000e+00  6.4681308446459944e+00 8.6499662657997085e+00 0.0000000000000000e+00  6.9808418425783527e+00 8.9624640601378083e+00 0.0000000000000000e+00  7.0276594882335530e+00 8.2906868859019216e+00 0.0000000000000000e+00  8.0754930363236763e+00 8.6262206441649454e+00 0.0000000000000000e+00  4.9342271481948075e+00 2.5336831799873667e+00 0.0000000000000000e+00  1.6020418683836116e+01 1.7754756128594444e+01 0.0000000000000000e+00  1.5667218820182818e+01 1.5845907779733475e+01 0.0000000000000000e+00  1.5702861084267763e+01 1.4494720411723206e+01 0.0000000000000000e+00  1.6181899782385248e+01 1.3718809025004607e+01 0.0000000000000000e+00  1.7057736267983572e+01 1.3644901985342990e+01 0.0000000000000000e+00  1.8231666842424762e+01 1.3835201634881130e+01 0.0000000000000000e+00  1.9610264001774592e+01 1.4298055259627164e+01 0.0000000000000000e+00  2.1102343776074868e+01 1.4828308170674324e+01 0.0000000000000000e+00  2.2618541630283808e+01 1.5340363340947349e+01 0.0000000000000000e+00  2.4081915097868805e+01 1.5318568982325353e+01 0.0000000000000000e+00  2.5429473516198151e+01 1.5464549144546977e+01 0.0000000000000000e+00  2.6605550020436148e+01 1.4258990830483302e+01 0.0000000000000000e+00  2.7578263578381708e+01 1.3533394751271130e+01 0.0000000000000000e+00  2.8330326566357559e+01 1.0727889825107765e+01 0.0000000000000000e+00  2.8865872781285404e+01 8.8373931183660055e+00 0.0000000000000000e+00  2.9198553672665629e+01 4.5426645520070714e+00 0.0000000000000000e+00  2.9368628132855672e+01 1.0651237158251505e+00 0.0000000000000000e+00  2.9393932729773287e+01 1.8678270063690868e-03 0.0000000000000000e+00  2.9344486802105962e+01 6.9710805027789577e+00 0.0000000000000000e+00  2.9393913991168382e+01 -1.8402669778462197e-03 0.0000000000000000e+00  2.9151840730089280e+01 -3.9134842669039310e-01 0.0000000000000000e+00  2.9080557195330869e+01 -3.5781712727641479e+00 0.0000000000000000e+00  1.9941863528226861e+01 -1.7821712264912946e+01 0.0000000000000000e+00  2.0721393744193826e+01 -1.7133085413004224e+01 0.0000000000000000e+00  1.7851943362416471e+01 -2.0054980930320600e+01 0.0000000000000000e+00  1.7221802706414508e+01 -1.9346039120599642e+01 0.0000000000000000e+00  1.5679269926440973e+01 -1.9136861191968219e+01 0.0000000000000000e+00  1.4602004095982132e+01 -1.7785365490785210e+01 0.0000000000000000e+00  1.3434156922527448e+01 -1.6448055804221404e+01 0.0000000000000000e+00  1.2441262329403548e+01 -1.5086968683703603e+01 0.0000000000000000e+00  1.1232828736298437e+01 -1.4104053648100926e+01 0.0000000000000000e+00  1.0393722273878542e+01 -1.2725100740470239e+01 0.0000000000000000e+00  9.7244609108547504e+00 -1.1345832332825536e+01 0.0000000000000000e+00  8.9853604273307521e+00 -1.0207503739772868e+01 0.0000000000000000e+00  8.2895229319948918e+00 -9.1572538384476694e+00 0.0000000000000000e+00  7.6408673247339873e+00 -8.2483161100362690e+00 0.0000000000000000e+00  7.0028588273048191e+00 -7.4265531384856063e+00 0.0000000000000000e+00  6.4300895874184345e+00 -6.6238962246491564e+00 0.0000000000000000e+00  5.9301815320578832e+00 -5.8818114275848732e+00 0.0000000000000000e+00  5.4658802031100642e+00 -5.1302072473776148e+00 0.0000000000000000e+00  5.0621124849368266e+00 -4.4355835634781489e+00 0.0000000000000000e+00  4.7283378636300091e+00 -3.6947450965169351e+00 0.0000000000000000e+00  4.4278586597184404e+00 -3.0917877165801868e+00 0.0000000000000000e+00  4.1802331360884368e+00 -2.3321507915239903e+00 0.0000000000000000e+00  3.9829615934242280e+00 -1.9395963176313680e+00 0.0000000000000000e+00  3.8202677938515865e+00 -1.0946039194011281e+00 0.0000000000000000e+00  3.6859683976155835e+00 -1.0171246076850815e+00 0.0000000000000000e+00  3.5839699310647748e+00 -2.1746216852615105e-01 0.0000000000000000e+00  3.4801452108224580e+00 1.9572200474730621e+00 0.0000000000000000e+00  3.4357891617982919e+00 4.3430759412098352e+00 0.0000000000000000e+00  3.0457724541752929e+00 5.0850680610931249e+00 0.0000000000000000e+00  3.8659208827146934e+00 4.5235557968056046e+00 0.0000000000000000e+00  4.3443269446540436e+00 5.3281569436984073e+00 0.0000000000000000e+00  4.7787812767100561e+00 5.4833272428619022e+00 0.0000000000000000e+00  5.3360653117248447e+00 6.1865076548298923e+00 0.0000000000000000e+00  6.0234555458609353e+00 6.7912854606468445e+00 0.0000000000000000e+00  6.6302008138599522e+00 7.3615044026728169e+00 0.0000000000000000e+00  7.1499882244380091e+00 7.6679139510480985e+00 0.0000000000000000e+00  7.7974081618210223e+00 8.2054073858211947e+00 0.0000000000000000e+00  8.2925243182381418e+00 8.2353272303608307e+00 0.0000000000000000e+00  8.3186875110517153e+00 7.0701286611972272e+00 0.0000000000000000e+00  9.3458308129997345e+00 7.2585059416433708e+00 0.0000000000000000e+00  6.1895222136676207e+00 1.1320581489346730e+00 0.0000000000000000e+00  1.7268630124575825e+01 1.6380743075311031e+01 0.0000000000000000e+00  1.6909206626800902e+01 1.4450032815523857e+01 0.0000000000000000e+00  1.6932475113934558e+01 1.3015215178729079e+01 0.0000000000000000e+00  1.7390180704664484e+01 1.2353482632091286e+01 0.0000000000000000e+00  1.8233903569645268e+01 1.2103658604602076e+01 0.0000000000000000e+00  1.9365343957018947e+01 1.2267348286401104e+01 0.0000000000000000e+00  2.0690762849977560e+01 1.2634747216201173e+01 0.0000000000000000e+00  2.2118647320047462e+01 1.3118240067963248e+01 0.0000000000000000e+00  2.3559651580420660e+01 1.3183014641725642e+01 0.0000000000000000e+00  2.4937399998837616e+01 1.3511432334956785e+01 0.0000000000000000e+00  2.6187307308815569e+01 1.2568130482522493e+01 0.0000000000000000e+00  2.7257098848156275e+01 1.2157885408354479e+01 0.0000000000000000e+00  2.8111948559413239e+01 9.6825964926568702e+00 0.0000000000000000e+00  2.8743432347781610e+01 8.1308730675858136e+00 0.0000000000000000e+00  2.9147085143312321e+01 4.1214972753738026e+00 0.0000000000000000e+00  2.9361996835278266e+01 9.2074480703316097e-01 0.0000000000000000e+00  2.9397168969995523e+01 2.3695998050745431e-03 0.0000000000000000e+00  2.9330404096191764e+01 7.2202892819750835e+00 0.0000000000000000e+00  2.9397151552494915e+01 -2.3316733566400563e-03 0.0000000000000000e+00  2.9032347394198656e+01 4.8374797684144480e-03 0.0000000000000000e+00  2.8736578256673106e+01 -3.44831150152