<?xml version="1.0"?>
<VTKFile type="UnstructuredGrid"  version="0.1"  >
<UnstructuredGrid>
<Piece  NumberOfPoints="1933" NumberOfCells="3640">
<Points>
<DataArray  type="Float64"  NumberOfComponents="3"  format="ascii">0.4754719773395251 -0.0001961561077015108 0  5.475472023562038 -0.0002139552086168105 0  5.47549876407429 7.499786185005187 0  0.4754986787708006 7.499803916561222 0  10.4754720853695 -0.0002318796966871981 0  10.4754989175767 7.499768283387207 0  15.47547222956389 -0.0002499843517760471 0  15.47549917489086 7.499750184727717 0  20.4754725279762 -0.0002682689392020138 0  20.47549957054261 7.499731900132534 0  25.47547304699261 -0.0002867007285089866 0  25.47550013837444 7.499713466888273 0  30.47547384531215 -0.000305226724763828 0  30.47550091070364 7.499694939931698 0  35.47547497475752 -0.0003237803011227596 0  35.47550191770884 7.499676386699019 0  40.47547648206427 -0.0003422844671853245 0  40.47550318719696 7.499657884502516 0  45.47547841082421 -0.0003606529766544541 0  45.47550474461162 7.499639519714956 0  50.47548080327695 -0.0003787899390118692 0  50.47550661310488 7.499621388291157 0  55.47548370185833 -0.0003965882794935659 0  55.47550881352533 7.499603597366104 0  60.47548715048605 -0.0004139271817676962 0  60.47551136419074 7.499586267831586 0  65.47549119558452 -0.0004306684928612058 0  65.47551428031126 7.49956953792515 0  70.47549588681936 -0.0004466519353008032 0  70.47551757290779 7.499553567985004 0  75.47550127747583 -0.0004616888304542052 0  75.47552124701392 7.499538546650767 0  80.4755074243219 -0.0004755538638701366 0  80.47552529885671 7.49952469894124 0  85.47551438666648 -0.0004879741870534203 0  85.47552971158937 7.499512296834962 0  90.47552222406635 -0.0004986148075439446 0  90.47553444894272 7.499501673241135 0  95.47553099171269 -0.0005070587066150596 0  95.4755394459044 7.499493240597944 0  100.4755407317155 -0.000512779344993171 0  100.4755445952059 7.499487515787135 0  105.4755514570462 -0.0005151020294056772 0  105.4755497280255 7.499485153586346 0  110.4755631220984 -0.0005131488186006513 0  110.4755545871166 7.499486991363297 0  115.4755755685815 -0.000505759012927331 0  115.4755587910132 7.499494107753267 0  120.4755884253513 -0.0004913736522007188 0  120.4755617902791 7.499507896597637 0  125.4756009213784 -0.000467868268733776 0  125.4755628239767 7.499530151942618 0  130.4756115334678 -0.0004323161017160995 0  130.4755609033573 7.499563144803121 0  135.4756173171258 -0.0003806753304172931 0  135.4755548955999 7.499609636635514 0  140.4756126235458 -0.0003074644937631674 0  140.475543888135 7.499672702834414 0  145.4755866004846 -0.0002058225969214511 0  145.4755282689376 7.499755152526771 0  150.4755181353468 -6.993223924387293e-05 0  150.4755126073812 7.49985858355894 0  160.4755282581469 8.893787372463013e-19 0  165.4754088897984 -0.0001856190473906282 0  165.4755082254117 7.499783548519344 0  160.4755399575025 7.499927716936675 0  170.4753512933196 -0.0003331937315806273 0  170.4754758712409 7.499651386592994 0  175.4753253144154 -0.0004536972551712022 0  175.4754505579862 7.499537952974757 0  180.4753159324354 -0.0005536743945227651 0  180.4754328535728 7.499441613006886 0  185.4753153177158 -0.000637935530737124 0  185.4754214653024 7.499359333475494 0  190.4753192817539 -0.0007101122188789458 0  190.4754148402702 7.499288273714241 0  195.4753255417818 -0.000772929346280796 0  195.475411634136 7.4992261033204 0  200.4753328344426 -0.0008284253352643746 0  200.4754108028075 7.499170991656389 0  205.4753404519657 -0.0008781312827167459 0  205.4754115740205 7.499121520249436 0  210.4753479950179 -0.0009232079977496367 0  210.4754133902339 7.499076590578222 0  215.4753552387409 -0.0009645465503107908 0  215.4754158537917 7.499035346680397 0  220.4753620587975 -0.001002840526057626 0  220.4754186827849 7.498997115167275 0  225.4753683897388 -0.001038637610743906 0  225.4754216780244 7.498961360240704 0  230.4753742010822 -0.001072376515525541 0  230.4754246991933 7.498927650366086 0  235.4753794832939 -0.001104413632889965 0  235.4754276479236 7.49889563360601 0  240.4753842394361 -0.001135042509464251 0  240.4754304558841 7.498865019266294 0  245.4753884801482 -0.001164508267751747 0  245.4754330764253 7.498835564117153 0  250.4753922206441 -0.001193018440077132 0  250.4754354787341 7.498807061938569 0  255.4753954789876 -0.001220751217659295 0  255.4754376437656 7.498779335503438 0  260.4753982752165 -0.001247861800283228 0  260.4754395614367 7.498752230377012 0  265.475400631086 -0.001274487308142551 0  265.4754412287304 7.498725610106338 0  270.4754025702941 -0.001300750550289521 0  270.4754426484703 7.498699352522892 0  275.4754041191467 -0.001326762804843775 0  275.4754438285681 7.498673347005967 0  280.4754053076497 -0.001352625627744871 0  280.4754447816131 7.498647492672672 0  285.4754061710341 -0.001378431538461959 0  285.475445524675 7.498621697590774 0  290.4754067516672 -0.001404263188233248 0  290.4754460791693 7.498595879270769 0  295.4754071011957 -0.001430190228472451 0  295.4754464706908 7.498569966899689 0  300.4754072823305 -0.00145626244799857 0  300.4754467287343 7.498543906037361 0  305.4754073688217 -0.001482496671324614 0  305.475446886619 7.49851766678356 0  310.4754074399384 -0.001508853344846689 0  310.4754469829608 7.498491256739902 0  5.475525117730114 14.99978650273735 0  0.4755250255205232 14.99980409379824 0  10.47552526841545 14.99976864042554 0  15.47552550739994 14.99975053861016 0  20.47552585425996 14.99973223629671 0  25.47552632432955 14.99971378335612 0  30.47552693085852 14.9996952399656 0  35.47552768546266 14.99967667535928 0  40.47552859788751 14.99965816707486 0  45.47552967549991 14.99963980100784 0  50.47553092263275 14.99962167230382 0  55.47553233977756 14.99960388706518 0  60.47553392256034 14.99958656487885 0  65.475535660406 14.99956984222879 0  70.47553753477338 14.99955387692597 0  75.47553951682987 14.99953885376603 0  80.47554156441748 14.99952499170751 0  85.47554361817286 14.99951255294961 0  90.47554559670685 14.99950185436452 0  95.47554739090086 14.99949328176689 0  100.4755488576979 14.99948730739896 0  105.475549814488 14.99948451058792 0  110.4755500365443 14.99948560041608 0  115.4755492625343 14.99949143668025 0  120.4755472175844 14.99950303995433 0  125.4755436706943 14.99952157050788 0  130.475538554012 14.99954823430608 0  135.4755321840316 14.99958403378959 0  140.4755256297682 14.99962920577528 0  145.4755212364506 14.99968203813591 0  150.4755231209603 14.99973635200505 0  165.4755531893465 14.99969850275627 0  160.4755559998958 14.99979088582964 0  170.4755417385203 14.99960132817471 0  175.47552732845 14.99950866448911 0  180.4755134638575 14.99942433291003 0  185.475501679478 14.99934900183063 0  190.4754923907661 14.99928200482727 0  195.475485477925 14.99922224577918 0  200.4754806091354 14.99916859077269 0  205.475477401932 14.99912001632376 0  210.4754754958107 14.9990756499392 0  215.4754745794123 14.99903476667022 0  220.4754743959873 14.99899677027262 0  225.4754747394653 14.99896117120856 0  230.4754754472201 14.99892756625575 0  235.4754763923862 14.99889562119882 0  240.4754774768814 14.99886505671713 0  245.4754786255339 14.99883563709165 0  250.4754797813312 14.99880716123671 0  255.4754809016597 14.99877945559117 0  260.4754819553799 14.99875236848581 0  265.4754829205533 14.99872576569051 0  270.4754837826931 14.99869952693067 0  275.4754845333903 14.99867354323633 0  280.4754851692252 14.99864771505514 0  285.4754856908956 14.99862195111517 0  290.4754861025181 14.9985961680547 0  295.4754864112294 14.9985702908009 0  300.4754866273281 14.99854425348539 0  305.4754867656507 14.99851800008655 0  310.47548684943 14.99849148239208 0  5.475551088073779 22.49978713273069 0  0.4755509982136743 22.49980461276668 0  10.47555121165375 22.49976929059344 0  15.47555138914139 22.49975116391848 0  20.4755516308663 22.49973281958277 0  25.4755519413471 22.49971432252496 0  30.47555232164803 22.49969574009729 0  35.47555277036062 22.49967714417661 0  40.47555328371439 22.49965861242034 0  45.47555385517941 22.49964022940631 0  50.47555447476958 22.49962208802078 0  55.4755551281391 22.4996042912768 0  60.47555579550714 22.49958695466826 0  65.47555645041133 22.49957020914573 0  70.47555705829126 22.49955420480049 0  75.47555757492691 22.49953911535067 0  80.47555794481235 22.49952514351345 0  85.47555809965101 22.49951252730526 0  90.47555795734463 22.49950154719337 0  95.4755574221555 22.49949253376604 0  100.4755563872125 22.49948587507359 0  105.4755547412885 22.4994820218246 0  110.4755523828749 22.49948148686322 0  115.4755492460246 22.49948483228483 0  120.4755453440329 22.49949263240471 0  125.475540838038 22.49950539261771 0  130.4755361360623 22.4995233922124 0  135.4755320194655 22.49954640424296 0  140.4755297693308 22.49957323421656 0  145.4755312094477 22.49960103762502 0  150.4755384755686 22.49962452358048 0  165.4755769218755 22.49960307738968 0  160.4755670632254 22.49966248487474 0  170.4755786256768 22.4995343743978 0  175.4755748350351 22.4994632219785 0  180.4755681354247 22.49939395044748 0  185.4755604291807 22.49932877975267 0  190.4755528859015 22.49926852852541 0  195.4755461196023 22.49921322826776 0  200.4755403835555 22.49916252709759 0  205.475535719745 22.49911592181289 0  210.4755320583656 22.49907287950681 0  215.4755292788037 22.49903289533237 0  220.4755272446357 22.49899551576303 0  225.4755258223348 22.49896034429992 0  230.4755248902827 22.49892703892068 0  235.4755243422747 22.49889530614621 0  240.4755240880613 22.49886489416885 0  245.4755240524152 22.49883558618205 0  250.4755241735549 22.4988071943843 0  255.4755244013927 22.49877955479817 0  260.4755246958096 22.49875252289644 0  265.4755250250831 22.49872596996587 0  270.4755253644817 22.49869978012514 0  275.4755256950357 22.49867384791429 0  280.4755260024882 22.49864807637553 0  285.4755262764238 22.49862237552672 0  290.4755265096468 22.49859666106924 0  295.4755266979312 22.4
[...]
<PointData  Vectors="v"> 
<DataArray  type="Float64"  Name="v"  NumberOfComponents="3" format="ascii">3.3592424085791501e+00 6.6673318587946229e+00 0.0000000000000000e+00  3.8268161799146201e+00 6.0429136798755989e+00 0.0000000000000000e+00  3.3149879499384598e+00 5.3418184375390005e+00 0.0000000000000000e+00  2.9511844640324121e+00 6.1214470370516709e+00 0.0000000000000000e+00  4.3702138320769306e+00 6.3069896574579136e+00 0.0000000000000000e+00  3.7820976575710179e+00 5.4926128342737179e+00 0.0000000000000000e+00  4.8032296928162417e+00 6.8758676471482563e+00 0.0000000000000000e+00  4.3244394796947283e+00 6.2275814541934320e+00 0.0000000000000000e+00  5.1259727912787385e+00 6.7498882719123685e+00 0.0000000000000000e+00  4.7557884778773181e+00 6.2674380872349618e+00 0.0000000000000000e+00  5.5569141916610185e+00 7.1041946829321789e+00 0.0000000000000000e+00  5.0762832380676519e+00 6.4598414019055532e+00 0.0000000000000000e+00  5.8518903717918391e+00 6.9919216407351117e+00 0.0000000000000000e+00  5.5045577434417803e+00 6.5519336821298237e+00 0.0000000000000000e+00  5.8244329274881119e+00 6.4674376312284938e+00 0.0000000000000000e+00  5.7963702076696322e+00 6.5113135300750189e+00 0.0000000000000000e+00  6.6000263203779506e+00 7.0304988640693047e+00 0.0000000000000000e+00  5.7654211758131018e+00 5.8700621452041739e+00 0.0000000000000000e+00  4.6659914719213562e+00 3.5537765335757174e+00 0.0000000000000000e+00  6.5373029372836200e+00 6.4580708614408753e+00 0.0000000000000000e+00  1.3082797237313086e+01 1.5388349475393701e+01 0.0000000000000000e+00  4.5993766119059458e+00 2.7662037414913181e+00 0.0000000000000000e+00  1.3612516394824308e+01 1.5038598846882286e+01 0.0000000000000000e+00  1.3011711660226158e+01 1.4247803406930021e+01 0.0000000000000000e+00  1.3867325291247184e+01 1.4132992997258670e+01 0.0000000000000000e+00  1.3536932090850389e+01 1.3754135669439693e+01 0.0000000000000000e+00  1.4190900137798820e+01 1.3276388204826658e+01 0.0000000000000000e+00  1.3787493390037366e+01 1.2794489146562437e+01 0.0000000000000000e+00  1.4643288969650907e+01 1.2635221827696716e+01 0.0000000000000000e+00  1.4106723661212120e+01 1.1959960126712501e+01 0.0000000000000000e+00  1.5239859804659551e+01 1.2205910565705571e+01 0.0000000000000000e+00  1.4554937077078041e+01 1.1314549044547521e+01 0.0000000000000000e+00  1.5921571563984971e+01 1.1869582290036780e+01 0.0000000000000000e+00  1.5147188991297019e+01 1.0850084325649609e+01 0.0000000000000000e+00  1.6625406499635083e+01 1.1711936506370735e+01 0.0000000000000000e+00  1.5824710327297238e+01 1.0658999047453621e+01 0.0000000000000000e+00  1.7288608380482131e+01 1.1420707487125666e+01 0.0000000000000000e+00  1.6524969913739778e+01 1.0428325369668322e+01 0.0000000000000000e+00  1.7856510854845055e+01 1.1033161578939525e+01 0.0000000000000000e+00  1.7184908228553621e+01 1.0182682499688209e+01 0.0000000000000000e+00  1.8290472923488323e+01 1.0439432980278562e+01 0.0000000000000000e+00  1.7750563504933588e+01 9.7891272247357097e+00 0.0000000000000000e+00  1.8576398280612889e+01 9.6656021139477257e+00 0.0000000000000000e+00  1.8183383661270369e+01 9.2359419909529219e+00 0.0000000000000000e+00  1.8717007639556918e+01 8.3735870457998942e+00 0.0000000000000000e+00  1.8469876614326111e+01 8.1606674389376632e+00 0.0000000000000000e+00  1.8731095654591503e+01 7.2759685110524233e+00 0.0000000000000000e+00  1.8612109732549062e+01 7.2503943839565324e+00 0.0000000000000000e+00  1.8658186396193567e+01 5.2537222374793568e+00 0.0000000000000000e+00  1.8631400724730796e+01 5.3580944168571163e+00 0.0000000000000000e+00  1.8531576122977512e+01 4.0020323337319130e+00 0.0000000000000000e+00  1.8563802968578937e+01 4.1822647256174470e+00 0.0000000000000000e+00  1.8399295174996052e+01 1.4884075452547412e+00 0.0000000000000000e+00  1.8448716153684330e+01 1.6785623081359451e+00 0.0000000000000000e+00  1.8281958328286279e+01 5.7469964765563486e-01 0.0000000000000000e+00  1.8326038835394698e+01 7.3419326494952009e-01 0.0000000000000000e+00  1.8210696505762417e+01 -1.8093388465981046e+00 0.0000000000000000e+00  1.8228394213731914e+01 -1.7138230818606113e+00 0.0000000000000000e+00  1.8172539512246068e+01 -1.6581519018807334e+00 0.0000000000000000e+00  1.8171209994092987e+01 -1.6260257620134466e+00 0.0000000000000000e+00  1.8163563193328272e+01 1.4995757071288351e-10 0.0000000000000000e+00  1.8164429334188569e+01 8.6010252761736631e-04 0.0000000000000000e+00  1.8163563200222146e+01 -2.9593198934252627e-19 0.0000000000000000e+00  1.1543358500048798e+01 -4.7006504319685848e-03 0.0000000000000000e+00  1.8177155260358123e+01 9.9217639913734637e+00 0.0000000000000000e+00  1.8164421968498143e+01 -8.7384715193178505e-04 0.0000000000000000e+00  1.2948262241673326e+01 -9.4344870243690759e-01 0.0000000000000000e+00  1.1559583826060734e+01 -3.0480499171707063e+00 0.0000000000000000e+00  1.1086045281957320e+01 -5.9950714258197433e+00 0.0000000000000000e+00  1.2965791443173531e+01 -3.2097876179424087e+00 0.0000000000000000e+00  1.0979504544639877e+01 -6.9582916593089195e+00 0.0000000000000000e+00  1.1108078380415435e+01 -6.8035715551608176e+00 0.0000000000000000e+00  1.0055653307906425e+01 -1.0010575441543997e+01 0.0000000000000000e+00  1.1008784096726531e+01 -8.6331568493547124e+00 0.0000000000000000e+00  9.4684794584921850e+00 -1.1161649845954564e+01 0.0000000000000000e+00  1.0093690738030668e+01 -1.0289675659931934e+01 0.0000000000000000e+00  8.7601651010647679e+00 -1.2342545987911086e+01 0.0000000000000000e+00  9.5162627822639259e+00 -1.1290550486825696e+01 0.0000000000000000e+00  8.1714394358882494e+00 -1.2532916656603660e+01 0.0000000000000000e+00  8.8193009550262342e+00 -1.1660501084175511e+01 0.0000000000000000e+00  7.3929176559887697e+00 -1.2486204865769222e+01 0.0000000000000000e+00  8.2427230689217179e+00 -1.1330304819505495e+01 0.0000000000000000e+00  6.8759952501676080e+00 -1.1719113505270347e+01 0.0000000000000000e+00  7.4770624851251304e+00 -1.0956108332792477e+01 0.0000000000000000e+00  6.4828255743587020e+00 -1.0801246964395249e+01 0.0000000000000000e+00  6.9738553143309714e+00 -1.0224362779528688e+01 0.0000000000000000e+00  6.0341913459432330e+00 -9.8600195462395366e+00 0.0000000000000000e+00  6.5949551959558654e+00 -9.2004431681434262e+00 0.0000000000000000e+00  5.5949177144077202e+00 -8.9164733145369865e+00 0.0000000000000000e+00  6.1610099205734814e+00 -8.2713600699931895e+00 0.0000000000000000e+00  5.1690074955666674e+00 -8.0716286444505592e+00 0.0000000000000000e+00  5.7369381185008388e+00 -7.4467700109376453e+00 0.0000000000000000e+00  4.7210872743677639e+00 -7.2988092891970755e+00 0.0000000000000000e+00  5.3265461149524773e+00 -6.6412199394824256e+00 0.0000000000000000e+00  4.3001982619809773e+00 -6.5554939752290240e+00 0.0000000000000000e+00  4.8943400778186668e+00 -5.9386227152148896e+00 0.0000000000000000e+00  3.9171734508632143e+00 -5.8863216942963081e+00 0.0000000000000000e+00  4.4893932678370936e+00 -5.3262990285755567e+00 0.0000000000000000e+00  3.5440894143208523e+00 -5.2566828451791183e+00 0.0000000000000000e+00  4.1223940817289995e+00 -4.7116585855645026e+00 0.0000000000000000e+00  3.2042463409148696e+00 -4.6428411272161876e+00 0.0000000000000000e+00  3.7653735816361729e+00 -4.1476668915338228e+00 0.0000000000000000e+00  2.9096989875985604e+00 -4.0878746979652609e+00 0.0000000000000000e+00  3.4415708880885587e+00 -3.6606281548732724e+00 0.0000000000000000e+00  2.6286154402491713e+00 -3.5198102919642755e+00 0.0000000000000000e+00  3.1630770274486308e+00 -3.1126331565069032e+00 0.0000000000000000e+00  2.3797782812892248e+00 -3.0311884546444867e+00 0.0000000000000000e+00  2.8978251580241792e+00 -2.6724149309732028e+00 0.0000000000000000e+00  2.1585611541795964e+00 -2.4983199869478567e+00 0.0000000000000000e+00  2.6649102298776750e+00 -2.1806369838080273e+00 0.0000000000000000e+00  1.9518314221466193e+00 -2.1500359288614028e+00 0.0000000000000000e+00  2.4591158397164263e+00 -1.8543289040363780e+00 0.0000000000000000e+00  1.7509814455851185e+00 -1.6016065337885919e+00 0.0000000000000000e+00  2.2682514263984994e+00 -1.3139294676379973e+00 0.0000000000000000e+00  1.5514134857295963e+00 -1.5698440656031984e+00 0.0000000000000000e+00  2.0820498568262757e+00 -1.2850484454494822e+00 0.0000000000000000e+00  1.3351028543280172e+00 -9.1783679760254078e-01 0.0000000000000000e+00  1.8986781223688809e+00 -6.0592653566218968e-01 0.0000000000000000e+00  1.0168645942338577e+00 -1.4595431278554909e+00 0.0000000000000000e+00  1.6955013599668807e+00 -9.9770650730438681e-01 0.0000000000000000e+00  5.0488108258291164e-01 -1.2329956674770286e+00 0.0000000000000000e+00  1.3954127973202939e+00 -4.7495940565579142e-01 0.0000000000000000e+00  -6.9778774072822503e-01 -1.8343633773612786e-01 0.0000000000000000e+00  8.9069440455647542e-01 1.5998683431188283e+00 0.0000000000000000e+00  3.0450219356414570e+00 4.7963710966085449e+00 0.0000000000000000e+00  2.6377907830005261e+00 5.5101659819313102e+00 0.0000000000000000e+00  3.4081126324813931e+00 4.7928500053535910e+00 0.0000000000000000e+00  3.8733144251180240e+00 5.4156533687134685e+00 0.0000000000000000e+00  4.4125533665985239e+00 5.6227443555022223e+00 0.0000000000000000e+00  4.8395563213683328e+00 5.9822426629537429e+00 0.0000000000000000e+00  5.1544128934270272e+00 5.9132591526833629e+00 0.0000000000000000e+00  5.5759524956814337e+00 6.0779411290349916e+00 0.0000000000000000e+00  5.8601036835097142e+00 5.9214291844250537e+00 0.0000000000000000e+00  5.8207181606613938e+00 5.3052109911687815e+00 0.0000000000000000e+00  6.5842301017702622e+00 5.6778154233271643e+00 0.0000000000000000e+00  4.6378036412914208e+00 1.6353891278452350e+00 0.0000000000000000e+00  1.3038953344729245e+01 1.2973171793494716e+01 0.0000000000000000e+00  1.3553265617803142e+01 1.2423932705553820e+01 0.0000000000000000e+00  1.3794656828526165e+01 1.1486954075431854e+01 0.0000000000000000e+00  1.4104274987076341e+01 1.0647676723277232e+01 0.0000000000000000e+00  1.4542740089266948e+01 9.9678791821650901e+00 0.0000000000000000e+00  1.5124364487428396e+01 9.6494353405006290e+00 0.0000000000000000e+00  1.5790478265898168e+01 9.3845395980231796e+00 0.0000000000000000e+00  1.6479159183367198e+01 9.1995184648645747e+00 0.0000000000000000e+00  1.7127517091858543e+01 8.9476134945896106e+00 0.0000000000000000e+00  1.7681767390692926e+01 8.5923231167612180e+00 0.0000000000000000e+00  1.8104760210760265e+01 7.7362628380610579e+00 0.0000000000000000e+00  1.8382908892016715e+01 7.0404653500584304e+00 0.0000000000000000e+00  1.8519677190334576e+01 5.3312980696749408e+00 0.0000000000000000e+00  1.8536758087603420e+01 4.2815167177226900e+00 0.0000000000000000e+00  1.8472668513642986e+01 1.8495382660353059e+00 0.0000000000000000e+00  1.8364606748078469e+01 9.0572367462864845e-01 0.0000000000000000e+00  1.8260533556976718e+01 -1.5727470449957774e+00 0.0000000000000000e+00  1.8182348662686231e+01 -1.5698938147689372e+00 0.0000000000000000e+00  1.8166525103234573e+01 1.6409942055372901e-03 0.0000000000000000e+00  1.8181398706139131e+01 9.8630209224025975e+00 0.0000000000000000e+00  1.8166511447438197e+01 -1.7683687307174639e-03 0.0000000000000000e+00  1.8237878959606292e+01 6.8769507278531163e+00 0.0000000000000000e+00  1.1610976991447588e+01 -5.3105407693136435e+00 0.0000000000000000e+00  1.3008305332642704e+01 -4.0163110765810242e+00 0.0000000000000000e+00  1.1151047869779264e+01 -8.4858361034106498e+00 0.0000000000000000e+00  1.1055495450924367e+01 -8.9216812742302487e+00 0.0000000000000000e+00  1.0147986011833261e+01 -1.0428359020016636e+01 0.0000000000000000e+00  9.5786438957044400e+00 -1.0621211532521315e+01 0.0000000000000000e+00  8.8918406831333758e+00 -1.0471804458518996e+01 0.0000000000000000e+00  8.3261107738042384e+00 -9.8142373688968387e+00 0.0000000000000000e+00  7.5719677288105487e+00 -9.4768210088242526e+00 0.0000000000000000e+00  7.0810200388294042e+00 -8.6398186440798597e+00 0.0000000000000000e+00  6.7150550621016025e+00 -7.6282322120181831e+00 0.0000000000000000e+00  6.2944472018703070e+00 -6.8189744313047918e+00 0.0000000000000000e+00  5.8843404506715826e+00 -6.0342429851484951e+00 0.0000000000000000e+00  5.4883678157077922e+00 -5.2989967862314673e+00 0.0000000000000000e+00  5.0708124578240694e+00 -4.7277700719259572e+00 0.0000000000000000e+00  4.6807390693922981e+00 -4.1701588725433911e+00 0.0000000000000000e+00  4.3287184088083546e+00 -3.6210316284167043e+00 0.0000000000000000e+00  3.9865857512577860e+00 -3.1838457012050827e+00 0.0000000000000000e+00  3.6775909890517267e+00 -2.7036702428034216e+00 0.0000000000000000e+00  3.4136867503812174e+00 -2.2832296325574055e+00 0.0000000000000000e+00  3.1627863946372812e+00 -1.8396308465615019e+00 0.0000000000000000e+00  2.9438254798182379e+00 -1.5540891117077058e+00 0.0000000000000000e+00  2.7517686499608827e+00 -1.0353545716599151e+00 0.0000000000000000e+00  2.5739825322642247e+00 -1.0141046906501103e+00 0.0000000000000000e+00  2.4009224707203938e+00 -3.3742072890335084e-01 0.0000000000000000e+00  2.2294302929846750e+00 -7.0197410629092560e-01 0.0000000000000000e+00  2.0391410012395381e+00 -2.9403706093778306e-02 0.0000000000000000e+00  1.7498182687755375e+00 2.3471900082168768e+00 0.0000000000000000e+00  2.9492997810243216e+00 4.1860909370612989e+00 0.0000000000000000e+00  2.5780644740438148e+00 4.9526589222711221e+00 0.0000000000000000e+00  3.3554570854988230e+00 4.2496944998876023e+00 0.0000000000000000e+00  3.7159589929468622e+00 4.7206132970260324e+00 0.0000000000000000e+00  4.1767442182927184e+00 4.8183909862298382e+00 0.0000000000000000e+00  4.7090972791428651e+00 5.3479555951677069e+00 0.0000000000000000e+00  5.1267331334671784e+00 5.4489328909164465e+00 0.0000000000000000e+00  5.4298132773228192e+00 5.4553099821129756e+00 0.0000000000000000e+00  5.8372280219839965e+00 5.5061897789857825e+00 0.0000000000000000e+00  6.1055217747105308e+00 5.3760411347018966e+00 0.0000000000000000e+00  6.0496412695082986e+00 4.5441258864190033e+00 0.0000000000000000e+00  6.7972727173288332e+00 4.5667451594233190e+00 0.0000000000000000e+00  4.8332448926360421e+00 3.8666314988073369e-01 0.0000000000000000e+00  1.3212071020796468e+01 1.1668273639271955e+01 0.0000000000000000e+00  1.3705701334417304e+01 1.1136990781817882e+01 0.0000000000000000e+00  1.3930058433615796e+01 1.0195817349258073e+01 0.0000000000000000e+00  1.4222220975546779e+01 9.3235758370475743e+00 0.0000000000000000e+00  1.4641444912690245e+01 8.7918569572757121e+00 0.0000000000000000e+00  1.5201326438246349e+01 8.4017019076030977e+00 0.0000000000000000e+00  1.5843532933658611e+01 8.1842275093060728e+00 0.0000000000000000e+00  1.6506076348036391e+01 7.9934490665623406e+00 0.0000000000000000e+00  1.7126914807389646e+01 7.7792652048241777e+00 0.0000000000000000e+00  1.7653764266123048e+01 7.1199134430878628e+00 0.0000000000000000e+00  1.8049798160482116e+01 6.6384172592076904e+00 0.0000000000000000e+00  1.8304415322517894e+01 5.1397162869385511e+00 0.0000000000000000e+00  1.8421418952853781e+01 4.2623253041879270e+00 0.0000000000000000e+00  1.8427596028784183e+01 1.9495160461362133e+00 0.0000000000000000e+00  1.8359895610994762e+01 1.0553457246131643e+00 0.0000000000000000e+00  1.8266802628879610e+01 -1.4258432049308538e+00 0.0000000000000000e+00  1.8185123859789044e+01 -1.5015360947698948e+00 0.0000000000000000e+00  1.8169796930653710e+01 2.3476690115271071e-03 0.0000000000000000e+00  1.8175874114951210e+01 9.8108268885407846e+00 0.0000000000000000e+00  1.8169784371556908e+01 -2.5586082463837428e-03 0.0000000000000000e+00  1.8231518712516028e+01 6.7830431020981266e+00 0.0000000000000000e+00  1.8284605942475746e+01 4.6435878027033768e+00 0.0000000000000000e+00  1.1638943908706318e+01 -6.1003952628479610e+00 0.0000000000000000e+00  1.3023090837245871e+01 -5.7013293246424830e+00 0.0000000000000000e+00  1.1168067845453404e+01 -8.7827368556129084e+00 0.0000000000000000e+00  1.1080805507572920e+01 -9.0768490365664238e+00 0.0000000000000000e+00  1.0185646280679194e+01 -9.7771759634280588e+00 0.0000000000000000e+00  9.6299920434947701e+00 -9.4532859791428958e+00 0.0000000000000000e+00  8.9585005750336144e+00 -8.9778630711933847e+00 0.0000000000000000e+00  8.4084053947303588e+00 -8.3585610562569155e+00 0.0000000000000000e+00  7.6707789694704740e+00 -7.9167742165304320e+00 0.0000000000000000e+00  7.1970048690293433e+00 -7.0933789376416705e+00 0.0000000000000000e+00  6.8488304803400810e+00 -6.2026811475776231e+00 0.0000000000000000e+00  6.4468318379793335e+00 -5.4343137430294970e+00 0.0000000000000000e+00  6.0561980636093349e+00 -4.7208420213726532e+00 0.0000000000000000e+00  5.6803049245143997e+00 -4.1175856730190556e+00 0.0000000000000000e+00  5.2832902920063471e+00 -3.6013894329365748e+00 0.0000000000000000e+00  4.9140186727110153e+00 -3.1094169515937757e+00 0.0000000000000000e+00  4.5827730567009342e+00 -2.6869902159406709e+00 0.0000000000000000e+00  4.2612630602324089e+00 -2.2562327568624090e+00 0.0000000000000000e+00  3.9725022077042738e+00 -1.9032367793852605e+00 0.0000000000000000e+00  3.7284125970090605e+00 -1.4785265831224979e+00 0.0000000000000000e+00  3.4965338857313197e+00 -1.2407205151809513e+00 0.0000000000000000e+00  3.2961505642268487e+00 -7.6125950251743835e-01 0.0000000000000000e+00  3.1214269103927483e+00 -7.6176923267788865e-01 0.0000000000000000e+00  2.9608735431024007e+00 -8.9882515069558314e-02 0.0000000000000000e+00  2.8028302505618523e+00 -4.5921658444411367e-01 0.0000000000000000e+00  2.6482960605197148e+00 2.4703226268792502e-01 0.0000000000000000e+00  2.4685135920294590e+00 2.7660642162499780e+00 0.0000000000000000e+00  3.1245538215196804e+00 3.6299274051525341e+00 0.0000000000000000e+00  2.7788980395368310e+00 4.4332868775260081e+00 0.0000000000000000e+00  3.4946136838338995e+00 3.6419987090522690e+00 0.0000000000000000e+00  3.8982248014758034e+00 4.1825499526744396e+00 0.0000000000000000e+00  4.2545353945733133e+00 4.1316052315690461e+00 0.0000000000000000e+00  4.7084958404884185e+00 4.5560360782612825e+00 0.0000000000000000e+00  5.2308693580335577e+00 4.8316445670530035e+00 0.0000000000000000e+00  5.6349170555305523e+00 5.0123198499178994e+00 0.0000000000000000e+00  5.9209124440630472e+00 4.9089707766297233e+00 0.0000000000000000e+00  6.3083118966386253e+00 4.9891415575069979e+00 0.0000000000000000e+00  6.5549329483525129e+00 4.6434536636648351e+00 0.0000000000000000e+00  6.4774489331434193e+00 3.4603703390594616e+00 0.0000000000000000e+00  7.2043521323699355e+00 3.3490462717425595e+00 0.0000000000000000e+00  5.2162670978686405e+00 -8.7920010970469709e-01 0.0000000000000000e+00  1.3565570423039905e+01 1.0416410314238748e+01 0.0000000000000000e+00  1.4034037560880352e+01 9.8738608561058303e+00 0.0000000000000000e+00  1.4238448295054535e+01 8.9006317193612894e+00 0.0000000000000000e+00  1.4509224566037647e+01 8.1802329641416573e+00 0.0000000000000000e+00  1.4903745823738129e+01 7.5828928030574803e+00 0.0000000000000000e+00  1.5433457197318067e+01 7.2450960142259717e+00 0.0000000000000000e+00  1.6040383933644943e+01 7.0274558772883760e+00 0.0000000000000000e+00  1.6662868645017159e+01 6.8784448103148774e+00 0.0000000000000000e+00  1.7239822832903979e+01 6.3619657494054511e+00 0.0000000000000000e+00  1.7720270044807791e+01 6.0762757150864077e+00 0.0000000000000000e+00  1.8070789419208676e+01 4.7895421803450846e+00 0.0000000000000000e+00  1.8281645350587738e+01 4.1116605898025513e+00 0.0000000000000000e+00  1.8363924944021406e+01 1.9623275931917177e+00 0.0000000000000000e+00  1.8343876394887801e+01 1.1598372570274909e+00 0.0000000000000000e+00  1.8273488144358772e+01 -1.2839057462253776e+00 0.0000000000000000e+00  1.8191996703737907e+01 -1.4261182447406338e+00 0.0000000000000000e+00  1.8174118207979440e+01 2.9769440459189449e-03 0.0000000000000000e+00  1.8176363889904007e+01 9.7905125209808954e+00 0.0000000000000000e+00  1.8174106227369577e+01 -3.2573523385686478e-03 0.0000000000000000e+00  1.8190003564007128e+01 6.7007741462633374e+00 0.0000000000000000e+00  1.8236016388734988e+01 4.568257