<?xml version="1.0"?>
<VTKFile type="UnstructuredGrid"  version="0.1"  >
<UnstructuredGrid>
<Piece  NumberOfPoints="1933" NumberOfCells="3640">
<Points>
<DataArray  type="Float64"  NumberOfComponents="3"  format="ascii">-0.4752503008563838 -0.002731784210139105 0  4.524749758288837 -0.002663341488650351 0  4.524647075734752 7.497336796992946 0  -0.4753530039621476 7.497268321677617 0  9.524749858492022 -0.002595001535450327 0  9.524647206244213 7.497405141221763 0  14.52475005454878 -0.002526754995132003 0  14.52464740739146 7.497473383636744 0  19.52475039228701 -0.002458557466392875 0  19.52464769503124 7.497541575388074 0  24.52475090578712 -0.002390346728586945 0  24.52464808108826 7.497609780913768 0  29.52475161856491 -0.002322050720476677 0  29.5246485729452 7.497678072849679 0  34.52475254553257 -0.002253590984019252 0  34.52464917298444 7.49774652963689 0  39.52475369471505 -0.002184883689606865 0  39.52464987825797 7.497815234892031 0  44.52475506844686 -0.002115839272093247 0  44.52465068012852 7.497884277914387 0  49.52475666401682 -0.002046361181661928 0  49.52465156373035 7.497953754975745 0  54.52475847378761 -0.001976343972482658 0  54.52465250712921 7.498023771227269 0  59.52476048480056 -0.001905670785762481 0  59.52465348006466 7.498094443186173 0  64.52476267783874 -0.001834210169943383 0  64.52465444214003 7.498165901860681 0  69.52476502585044 -0.001761812084647842 0  69.52465534029044 7.498238296654682 0  74.52476749155515 -0.00168830283300443 0  74.52465610528992 7.498311800279227 0  79.52477002391481 -0.001613478538506979 0  79.52465664696058 7.49838661499969 0  84.52477255295184 -0.001537096604354196 0  84.52465684761887 7.498462980674752 0  89.52477498204433 -0.001458864334744583 0  89.524656553101 7.498541185204269 0  94.52477717624996 -0.001378423516796367 0  94.52465556048475 7.498621578193941 0  99.52477894416701 -0.001295329202306642 0  99.52465360137843 7.498704588833068 0  104.5247800090084 -0.001209020125231608 0  104.5246503194574 7.498790749065742 0  109.5247799611879 -0.001118777099154773 0  109.5246452411038 7.498880722834808 0  114.5247781785588 -0.001023664439607271 0  114.5246377391723 7.498975340823927 0  119.5247736889506 -0.0009224484654647056 0  119.5246269936264 7.49907563616389 0  124.5247649282443 -0.0008134883022124708 0  124.5246119625539 7.499182866592343 0  129.5247493071074 -0.000694603361805905 0  129.5245914003618 7.49929848536194 0  134.5247224242196 -0.000562957165560167 0  134.5245640128022 7.499423972863977 0  139.5246766210622 -0.0004151190279232123 0  139.5245289547511 7.499560342583957 0  144.5245982914767 -0.0002479002538647075 0  144.5244871316699 7.499706992919412 0  149.5244627255429 -6.228856623292152e-05 0  149.5244443562603 7.499859670916861 0  159.5244717418518 8.672278456842602e-19 0  164.524440420204 -9.761098517412e-05 0  164.5244684451896 7.499880172053023 0  159.5244686883779 7.499948788602098 0  169.5244438219885 -0.0001529528904584216 0  169.5244677697798 7.499836227037336 0  174.5244618902692 -0.0001788538038790095 0  174.5244706693091 7.499815590517675 0  179.5244852961914 -0.0001833731843354111 0  179.5244769998355 7.499813716818255 0  184.5245096672793 -0.0001721288550622786 0  184.524485695573 7.499826347969692 0  189.5245330144489 -0.0001491329999152654 0  189.5244957060286 7.499850088513909 0  194.5245545088764 -0.0001172756209869656 0  194.5245062249076 7.49988235260187 0  199.5245738835953 -7.865705094360951e-05 0  199.5245166977284 7.499921196264089 0  204.5245911372627 -3.482157795705113e-05 0  204.5245267705579 7.499965157511996 0  209.5246063871195 1.307980535343763e-05 0  209.5245362336444 7.500013129434172 0  214.5246197963837 6.417672704988405e-05 0  214.5245449752801 7.500064265663652 0  219.5246315389725 0.0001178013563199261 0  219.5245529479652 7.500117911675622 0  224.5246417829981 0.0001734339172675418 0  224.5245601449137 7.500173555216754 0  229.5246506836957 0.0002306642391071203 0  229.5245665842635 7.500230790465089 0  234.5246583810674 0.0002891642499222999 0  234.5245722987141 7.500289291928794 0  239.5246649998469 0.000348668008097564 0  239.524577328863 7.500348795246787 0  244.524670650584 0.0004089569941745118 0  244.5245817190385 7.500409082911037 0  249.52467543124 0.0004698491349429824 0  249.5245855147955 7.500469973538141 0  254.5246794290106 0.0005311905305472466 0  254.5245887615301 7.500531313744015 0  259.5246827222424 0.0005928491935891363 0  259.524591503834 7.500592971974447 0  264.524685382417 0.0006547103468945252 0  264.5245937853499 7.500654833859923 0  269.52468747619 0.0007166730055669971 0  269.5245956489539 7.500716798827243 0  274.5246890675257 0.0007786477201307818 0  274.5245971371333 7.500778777836547 0  279.5246902199381 0.000840555507765284 0  279.5245982924516 7.500840692239839 0  284.5246909988211 0.0009023281752151477 0  284.5245991579922 7.500902473891534 0  289.5246914737173 0.0009639104728187381 0  289.5245997776489 7.500964066793623 0  294.5246917201529 0.001025264851959013 0  294.5246001961837 7.501025430730695 0  299.5246918200619 0.001086380050594842 0  299.5246004590269 7.501086547527965 0  304.5246918586901 0.001147285188603266 0  304.5246006122399 7.501147430719219 0  309.524691913266 0.001208070647701344 0  309.5246007041349 7.501208139682 0  4.524544155114869 14.9973370847856 0  -0.4754559231891438 14.99726857578937 0  9.524544259679082 14.99740540918702 0  14.52454440157537 14.99747361660848 0  19.5245445839321 14.99754177282544 0  24.52454480573527 14.99760994681864 0  29.52454506269803 14.99767821168383 0  34.52454534700406 14.9977466447772 0  39.52454564664503 14.99781532809915 0  44.52454594458384 14.9978843491461 0  49.52454621777638 14.99795380224467 0  54.52454643600727 14.99802379035185 0  59.52454656046621 14.99809442733236 0  64.52454654198151 14.99816584076371 0  69.52454631881875 14.99823817536085 0  74.52454581395914 14.99831159715167 0  79.52454493178166 14.99838629856542 0  84.52454355412628 14.9984625046078 0  89.52454153582678 14.99854048026339 0  94.52453870005837 14.99862053912697 0  99.52453483432535 14.99870305290541 0  104.5245296888738 14.99878846061468 0  109.5245229809929 14.99887727457852 0  114.5245144116394 14.99897007688499 0  119.5245037056428 14.99906749329008 0  124.5244906940662 14.99917011915652 0  129.5244754667573 14.99927834997073 0  134.5244586311701 14.99939203214463 0  139.5244417068392 14.99950979332779 0  144.524427623795 14.99962783072777 0  149.5244210650492 14.99973777887292 0  164.5244558230598 14.99981840807388 0  159.5244504513933 14.99984011541786 0  169.5244555026751 14.99980245063453 0  174.5244537330967 14.99979738641171 0  179.5244526263839 14.99980403832916 0  184.52445288582 14.99982132816977 0  189.5244545255829 14.99984761739127 0  194.5244572875577 14.99988127547588 0  199.5244608469235 14.99992087757071 0  204.5244649013001 14.99996524512755 0  209.5244692017569 15.00001342715636 0  214.5244735571935 15.00006466385751 0  219.5244778279981 15.00011834927473 0  224.5244819165339 15.00017399871532 0  229.5244857577374 15.00023122218635 0  234.524489311068 15.00028970340708 0  239.5244925540656 15.00034918346233 0  244.524495477409 15.00040944813819 0  249.52449808123 15.00047031812095 0  254.5245003724123 15.0005316414107 0  259.5245023626526 15.00059328746404 0  264.5245040670713 15.0006551427141 0  269.5245055032333 15.00071710723082 0  274.5245066904453 15.00077909237621 0  279.5245076492396 15.00084101938777 0  284.5245084010179 15.00090281888205 0  289.5245089678427 15.00096443129985 0  294.5245093725743 15.00102580827695 0  299.5245096396918 15.00108691475089 0  304.5245097976231 15.00114773114908 0  309.524509884029 15.00120825394135 0  4.524441146785898 22.49733759159293 0  -0.4755589256274679 22.49726913001886 0  9.524441221365187 22.49740584210519 0  14.52444129924858 22.49747396839126 0  19.5244413766072 22.49754204645862 0  24.5244414460411 22.49761014873797 0  29.52444149728955 22.4976783479019 0  34.52444151722378 22.49774671891165 0  39.52444148939929 22.4978153403807 0  44.52444139337283 22.49788429580412 0  49.52444120389217 22.4979536749026 0  54.52444089000061 22.49802357518962 0  59.52444041407475 22.49809410381227 0  64.52443973081257 22.49816537969505 0  69.52443878621422 22.49823753600026 0  74.52443751665044 22.49831072289615 0  79.52443584820271 22.49838511056971 0  84.52443369660415 22.49846089231527 0  89.52443096834826 22.49853828732281 0  94.52442756389802 22.49861754241319 0  99.5244233844782 22.49869893129233 0  104.5244183447299 22.49878274873349 0  109.5244123945676 22.49886929513449 0  114.5244055548189 22.49895884372053 0  119.5243979722461 22.49905157777315 0  124.5243899993162 22.49914747835711 0  129.5243823001579 22.49924613479806 0  134.524375971798 22.49934644458812 0  139.5243726407377 22.49944617921363 0  144.5243744381707 22.499541453307 0  149.5243836682817 22.49962634858118 0  164.5244151503904 22.49974766368263 0  159.5244091942697 22.4997373101384 0  169.5244159321395 22.49975644749928 0  174.5244137320075 22.4997685884016 0  179.5244103834502 22.49978651941331 0  184.5244070550055 22.49981097045021 0  189.5244043460569 22.49984172352071 0  194.5244024782881 22.49987813016269 0  199.5244014578559 22.49991940630785 0  204.5244011848379 22.49996477983674 0  209.5244015187707 22.50001355405114 0  214.5244023143361 22.50006512739717 0  219.5244034387253 22.5001189923568 0  224.5244047785384 22.50017472564654 0  229.524406241113 22.50023197577936 0  234.5244077531571 22.50029045078903 0  239.5244092582776 22.50034990725702 0  244.5244107142476 22.50041014097337 0  249.5244120904099 22.50047097920219 0  254.5244133653927 22.50053227438145 0  259.5244145251622 22.5005938990544 0  264.5244155614143 22.50065574184206 0  269.524416470249 22.50071770429573 0  274.5244172511022 22.50077969849806 0  279.5244179059152 22.50084164529727 0  284.5244184385646 22.50090347304919 0  289.5244188546368 22.50096511668301 0  294.5244191617437 22.50102651675881 0  299.5244193706621
[...]
<PointData  Vectors="v"> 
<DataArray  type="Float64"  Name="v"  NumberOfComponents="3" format="ascii">-4.3401750242739778e+00 -3.1244004392171520e+00 0.0000000000000000e+00  -4.5390334619067580e+00 -2.5904458282426162e+00 0.0000000000000000e+00  -3.8414610949034991e+00 -2.2923191172674131e+00 0.0000000000000000e+00  -3.6827239987042213e+00 -2.8857265100259735e+00 0.0000000000000000e+00  -4.7232816375273785e+00 -2.4337439564948000e+00 0.0000000000000000e+00  -4.0399934967126567e+00 -2.1575571281159029e+00 0.0000000000000000e+00  -4.8016517462217001e+00 -2.3335163883934493e+00 0.0000000000000000e+00  -4.2237758801004261e+00 -2.2164158365114748e+00 0.0000000000000000e+00  -4.7793527366582556e+00 -1.8147247048536737e+00 0.0000000000000000e+00  -4.3014405493122050e+00 -1.8485583585374448e+00 0.0000000000000000e+00  -4.7941937274264763e+00 -1.5133952227464817e+00 0.0000000000000000e+00  -4.2782811803512644e+00 -1.4914505813225689e+00 0.0000000000000000e+00  -4.7315875441337605e+00 -9.7603688692269885e-01 0.0000000000000000e+00  -4.2925095334170820e+00 -1.0703194590841241e+00 0.0000000000000000e+00  -4.6083990993878174e+00 -3.9173429656365522e-01 0.0000000000000000e+00  -4.2293098128933293e+00 -5.7646359278976456e-01 0.0000000000000000e+00  -4.7786778544571948e+00 -2.0557589002527429e-01 0.0000000000000000e+00  -4.1057488026435829e+00 5.0169331235405179e-02 0.0000000000000000e+00  -4.7540425642883148e+00 2.5704228710992666e-01 0.0000000000000000e+00  -4.2762398807153374e+00 2.2060006336752491e-01 0.0000000000000000e+00  -7.2544693707156229e+00 -3.0123238083008070e+00 0.0000000000000000e+00  -4.2522622106213488e+00 7.3957012476659789e-01 0.0000000000000000e+00  -8.4314014856375170e+00 -4.2197933731410684e+00 0.0000000000000000e+00  -6.7529095486244159e+00 -2.4533059321221375e+00 0.0000000000000000e+00  -8.7664246095187561e+00 -4.0731548021334580e+00 0.0000000000000000e+00  -7.9310926798109769e+00 -3.5678353407126706e+00 0.0000000000000000e+00  -8.7587739692080362e+00 -3.3536010940376624e+00 0.0000000000000000e+00  -8.2690677674271402e+00 -3.3611310403525638e+00 0.0000000000000000e+00  -8.5504905705356276e+00 -2.3482189802856488e+00 0.0000000000000000e+00  -8.2655808866516089e+00 -2.6551069201834578e+00 0.0000000000000000e+00  -8.2654901245791947e+00 -1.2617490060535750e+00 0.0000000000000000e+00  -8.0635808350559710e+00 -1.6829499509082380e+00 0.0000000000000000e+00  -7.9018798746287837e+00 -1.0885083518632363e-01 0.0000000000000000e+00  -7.7861091556131967e+00 -6.4584374569412395e-01 0.0000000000000000e+00  -7.4482794017847453e+00 1.0333770598697252e+00 0.0000000000000000e+00  -7.4315661479048911e+00 3.6306760108043251e-01 0.0000000000000000e+00  -6.8936059547042685e+00 2.2436435327573014e+00 0.0000000000000000e+00  -6.9898842046860574e+00 1.4231872822993361e+00 0.0000000000000000e+00  -6.2261220422783179e+00 3.4949725404751355e+00 0.0000000000000000e+00  -6.4487830793756835e+00 2.5084161355682331e+00 0.0000000000000000e+00  -5.4468734610868585e+00 4.8041579708933897e+00 0.0000000000000000e+00  -5.7978490825704165e+00 3.6519447397945797e+00 0.0000000000000000e+00  -4.5884836328686234e+00 6.0917548552116898e+00 0.0000000000000000e+00  -5.0381879617512206e+00 4.8240587743501564e+00 0.0000000000000000e+00  -3.6911038599729813e+00 7.4541375921919393e+00 0.0000000000000000e+00  -4.2035670164557004e+00 6.1304407228539493e+00 0.0000000000000000e+00  -2.7987791661019066e+00 8.5121144900782930e+00 0.0000000000000000e+00  -3.3316577398760083e+00 7.2014337070143961e+00 0.0000000000000000e+00  -1.9811213096223093e+00 9.6393832169537976e+00 0.0000000000000000e+00  -2.4730053550286026e+00 8.4404396536214641e+00 0.0000000000000000e+00  -1.2700373249745631e+00 9.9955968599382050e+00 0.0000000000000000e+00  -1.6874505189682418e+00 8.9670770186701336e+00 0.0000000000000000e+00  -7.2444814490108889e-01 1.0387775871109859e+01 0.0000000000000000e+00  -1.0222959340597630e+00 9.6016132401266425e+00 0.0000000000000000e+00  -3.3370259206888442e-01 9.2083909324690456e+00 0.0000000000000000e+00  -5.1497519826250149e-01 8.6734872877938081e+00 0.0000000000000000e+00  -1.2329459163394969e-01 8.1854865094135523e+00 0.0000000000000000e+00  -1.8544967300911111e-01 7.9050325816275020e+00 0.0000000000000000e+00  -2.2041122329592513e-02 3.9942342884394582e+00 0.0000000000000000e+00  -1.8313052400361410e-02 3.9100658660970087e+00 0.0000000000000000e+00  -1.0691950706094697e-05 -7.3880151170947021e-05 0.0000000000000000e+00  -7.4071222489613549e-04 -8.3733094663644854e-04 0.0000000000000000e+00  -8.7535888900547016e-11 5.1202533223132862e-19 0.0000000000000000e+00  1.4489007468650046e+00 -7.1563582386812072e+00 0.0000000000000000e+00  -2.7293829172653463e-02 -9.3492406577465648e+00 0.0000000000000000e+00  -7.0761382129442304e-04 6.6112618728928743e-04 0.0000000000000000e+00  -1.9884443130466092e-01 -1.1843705288778184e+01 0.0000000000000000e+00  1.4506615033447661e+00 -9.4166053723930094e+00 0.0000000000000000e+00  -2.0606972196437476e-01 -1.1107465523349646e+01 0.0000000000000000e+00  -1.6159455906350828e-01 -1.1114240311863853e+01 0.0000000000000000e+00  -8.0949103591771499e-01 -1.1011394144951257e+01 0.0000000000000000e+00  -1.3781859545413244e-01 -1.0132813427008685e+01 0.0000000000000000e+00  -9.9432522560249947e-01 -8.8478170860932561e+00 0.0000000000000000e+00  -7.1539658085504376e-01 -8.5899686789235119e+00 0.0000000000000000e+00  -1.2552190352141828e+00 -7.1953066533516283e+00 0.0000000000000000e+00  -8.7739542978615381e-01 -6.8234494236454841e+00 0.0000000000000000e+00  -1.4033616660250736e+00 -5.3624892507729038e+00 0.0000000000000000e+00  -1.1167754376314267e+00 -5.1557572561330094e+00 0.0000000000000000e+00  -1.5657082130323816e+00 -4.0024740288165876e+00 0.0000000000000000e+00  -1.2468179857832604e+00 -3.7746441529827588e+00 0.0000000000000000e+00  -1.6332209484809268e+00 -2.9111677399770119e+00 0.0000000000000000e+00  -1.3927297246125243e+00 -2.8229434554881885e+00 0.0000000000000000e+00  -1.7520597953010162e+00 -2.3123549087044193e+00 0.0000000000000000e+00  -1.4451463218416742e+00 -2.1461306675896474e+00 0.0000000000000000e+00  -1.8995233930628490e+00 -1.9448469086444411e+00 0.0000000000000000e+00  -1.5507345674692605e+00 -1.7346833119994514e+00 0.0000000000000000e+00  -2.0257325231038030e+00 -1.7770231656977657e+00 0.0000000000000000e+00  -1.6862207672861571e+00 -1.5976556627618983e+00 0.0000000000000000e+00  -2.1219490611767657e+00 -1.7064876716734385e+00 0.0000000000000000e+00  -1.8013337196333334e+00 -1.5710458696736824e+00 0.0000000000000000e+00  -2.1907890866167627e+00 -1.6594378613588494e+00 0.0000000000000000e+00  -1.8876979002697305e+00 -1.5645299716059806e+00 0.0000000000000000e+00  -2.2116207489622770e+00 -1.6161755394139303e+00 0.0000000000000000e+00  -1.9475650294659965e+00 -1.5924728353313429e+00 0.0000000000000000e+00  -2.2089029731061713e+00 -1.5796294760927994e+00 0.0000000000000000e+00  -1.9600462872856979e+00 -1.5906404797952687e+00 0.0000000000000000e+00  -2.1924537406763203e+00 -1.5252692834664809e+00 0.0000000000000000e+00  -1.9497354581465483e+00 -1.5565070402228520e+00 0.0000000000000000e+00  -2.1545907149104315e+00 -1.4568280771253070e+00 0.0000000000000000e+00  -1.9262399277164013e+00 -1.5197521787213897e+00 0.0000000000000000e+00  -2.1076944664300954e+00 -1.3885674782444815e+00 0.0000000000000000e+00  -1.8816731001271274e+00 -1.4646794206947507e+00 0.0000000000000000e+00  -2.0622700354851125e+00 -1.2899529355933474e+00 0.0000000000000000e+00  -1.8285005349406052e+00 -1.3636951226406677e+00 0.0000000000000000e+00  -2.0028624827436952e+00 -1.2062550524666413e+00 0.0000000000000000e+00  -1.7770476878831554e+00 -1.3007268043154603e+00 0.0000000000000000e+00  -1.9414629911225405e+00 -1.0630707178435863e+00 0.0000000000000000e+00  -1.7118138795340141e+00 -1.1604251502996483e+00 0.0000000000000000e+00  -1.8710015068994359e+00 -9.7345851866226185e-01 0.0000000000000000e+00  -1.6446832209486812e+00 -1.0842619608156709e+00 0.0000000000000000e+00  -1.7895836075802922e+00 -7.2317120301158067e-01 0.0000000000000000e+00  -1.5687244586441245e+00 -8.5048304537708286e-01 0.0000000000000000e+00  -1.6831994907979984e+00 -6.7300297070662074e-01 0.0000000000000000e+00  -1.4816068455555753e+00 -8.3747696147548756e-01 0.0000000000000000e+00  -1.5517557426099429e+00 -1.8760457306768430e-01 0.0000000000000000e+00  -1.3699609172724376e+00 -3.9009782883637956e-01 0.0000000000000000e+00  -1.3784580599342993e+00 -2.9388067891881309e-01 0.0000000000000000e+00  -1.2325964334418462e+00 -5.5843856439309481e-01 0.0000000000000000e+00  -1.1018814234848906e+00 6.3877729674939887e-01 0.0000000000000000e+00  -1.0544794037659218e+00 2.1809825130032953e-01 0.0000000000000000e+00  -6.3497879323851303e-01 7.9434948442876741e-01 0.0000000000000000e+00  -7.7108752658523705e-01 9.0261303579452584e-02 0.0000000000000000e+00  4.6822292802539972e-01 2.8944790542657678e-01 0.0000000000000000e+00  -3.0146705842707838e-01 -1.3732452950114105e+00 0.0000000000000000e+00  -3.1269040792163727e+00 -2.0549971465533083e+00 0.0000000000000000e+00  -2.9417733581607699e+00 -2.6063599109286750e+00 0.0000000000000000e+00  -3.2841620428755087e+00 -1.8611407543358256e+00 0.0000000000000000e+00  -3.4801316255423158e+00 -1.9424589062411683e+00 0.0000000000000000e+00  -3.6606450131647157e+00 -1.7341815925859436e+00 0.0000000000000000e+00  -3.7344538072421161e+00 -1.5288566168304134e+00 0.0000000000000000e+00  -3.7068032479442463e+00 -1.0515723415795897e+00 0.0000000000000000e+00  -3.7164009477124429e+00 -6.7376957402894244e-01 0.0000000000000000e+00  -3.6488335682658692e+00 -1.3790531470254719e-01 0.0000000000000000e+00  -3.5211197192936496e+00 4.7462423993551445e-01 0.0000000000000000e+00  -3.6890633375033111e+00 7.0316602289732721e-01 0.0000000000000000e+00  -3.6630796134509103e+00 1.2939413541462652e+00 0.0000000000000000e+00  -6.1563474324408816e+00 -1.8052394217224201e+00 0.0000000000000000e+00  -7.3280278684473181e+00 -2.8548593644615177e+00 0.0000000000000000e+00  -7.6647793235639030e+00 -2.6607941295680155e+00 0.0000000000000000e+00  -7.6620115592734575e+00 -1.9833347545132820e+00 0.0000000000000000e+00  -7.4641328148787123e+00 -1.0585596669409001e+00 0.0000000000000000e+00  -7.1928860449998160e+00 -1.6469000157879871e-01 0.0000000000000000e+00  -6.8463269795417121e+00 7.6734760990744433e-01 0.0000000000000000e+00  -6.4159293763040095e+00 1.7053003366967963e+00 0.0000000000000000e+00  -5.8895413059766994e+00 2.6847597607328106e+00 0.0000000000000000e+00  -5.2562355260608129e+00 3.6987090661664745e+00 0.0000000000000000e+00  -4.5202923962931791e+00 4.8942965075088685e+00 0.0000000000000000e+00  -3.7144303665575791e+00 5.9142460744142786e+00 0.0000000000000000e+00  -2.8785598550479317e+00 7.1757730945675631e+00 0.0000000000000000e+00  -2.0629358143113095e+00 7.8223237207517222e+00 0.0000000000000000e+00  -1.3326911786243010e+00 8.6328954310077961e+00 0.0000000000000000e+00  -7.2674661482987069e-01 7.9670217237033816e+00 0.0000000000000000e+00  -3.0245957518118954e-01 7.4409077310051437e+00 0.0000000000000000e+00  -4.8362747228979978e-02 3.7475605139345260e+00 0.0000000000000000e+00  -2.4887358646327835e-03 -1.5921543618245791e-03 0.0000000000000000e+00  -5.5063766538048405e-02 -9.1918893830655062e+00 0.0000000000000000e+00  -2.4475710501615311e-03 1.2963796561302236e-03 0.0000000000000000e+00  -2.0800499487343627e-01 -1.1644309209871663e+01 0.0000000000000000e+00  1.3193199361933663e+00 -8.7366848901396601e+00 0.0000000000000000e+00  -2.3408308494971705e-01 -1.0195161444095634e+01 0.0000000000000000e+00  -1.6855439377742892e-01 -7.7473765630419367e+00 0.0000000000000000e+00  -7.0917931306774762e-01 -6.5959445933079515e+00 0.0000000000000000e+00  -8.4391553306134526e-01 -4.8147091517743581e+00 0.0000000000000000e+00  -1.0569872170413723e+00 -3.5919494808031169e+00 0.0000000000000000e+00  -1.1663403007616835e+00 -2.6153030275601510e+00 0.0000000000000000e+00  -1.2939745081833780e+00 -2.0779828436146022e+00 0.0000000000000000e+00  -1.3301242704703311e+00 -1.5851556242168505e+00 0.0000000000000000e+00  -1.4214422085303084e+00 -1.4018678940767624e+00 0.0000000000000000e+00  -1.5445743405887133e+00 -1.4057096218623268e+00 0.0000000000000000e+00  -1.6483308162998258e+00 -1.4410601185129652e+00 0.0000000000000000e+00  -1.7249195264623360e+00 -1.5078295266016122e+00 0.0000000000000000e+00  -1.7763619990487141e+00 -1.5767801335520324e+00 0.0000000000000000e+00  -1.7812769619602007e+00 -1.5760980699966318e+00 0.0000000000000000e+00  -1.7643720571765391e+00 -1.5585309278238766e+00 0.0000000000000000e+00  -1.7351011490131805e+00 -1.5349212664830416e+00 0.0000000000000000e+00  -1.6851980419767092e+00 -1.4464789145576777e+00 0.0000000000000000e+00  -1.6271532698790336e+00 -1.3806412668767505e+00 0.0000000000000000e+00  -1.5711779958786674e+00 -1.2610436429562935e+00 0.0000000000000000e+00  -1.5015099039872093e+00 -1.1875383141749969e+00 0.0000000000000000e+00  -1.4300917382171254e+00 -9.6705734835451362e-01 0.0000000000000000e+00  -1.3498193560051093e+00 -9.7066561722623479e-01 0.0000000000000000e+00  -1.2584232434327542e+00 -5.6042493660316040e-01 0.0000000000000000e+00  -1.1422675810549350e+00 -7.6675532754404896e-01 0.0000000000000000e+00  -1.0006896168926691e+00 -5.2423737360269375e-02 0.0000000000000000e+00  -8.1778946834091770e-01 -3.3652929317239322e-01 0.0000000000000000e+00  -5.3033677152338721e-01 -2.0813571237859407e+00 0.0000000000000000e+00  -2.2587038065265923e+00 -1.7790437251117242e+00 0.0000000000000000e+00  -2.0859998282190229e+00 -2.3447740888794062e+00 0.0000000000000000e+00  -2.4408756870187607e+00 -1.6285219836798170e+00 0.0000000000000000e+00  -2.5926698191828534e+00 -1.6526581504516764e+00 0.0000000000000000e+00  -2.7820239341912254e+00 -1.4689391335035467e+00 0.0000000000000000e+00  -2.9539297472966477e+00 -1.4247171818840900e+00 0.0000000000000000e+00  -3.0175513366161528e+00 -1.1002441192899013e+00 0.0000000000000000e+00  -2.9789101411858914e+00 -6.6729288216555738e-01 0.0000000000000000e+00  -2.9767294298772025e+00 -2.4697607012694950e-01 0.0000000000000000e+00  -2.8976981452260540e+00 2.7647931455124397e-01 0.0000000000000000e+00  -2.7606675694172504e+00 9.5036307105961892e-01 0.0000000000000000e+00  -2.9220783391479790e+00 1.2503636271186602e+00 0.0000000000000000e+00  -2.8854720582778555e+00 1.9218551015103409e+00 0.0000000000000000e+00  -5.3570091682645051e+00 -1.1118871678446494e+00 0.0000000000000000e+00  -6.5092534756750728e+00 -2.1611869177160155e+00 0.0000000000000000e+00  -6.8367289527242061e+00 -1.9895059495694078e+00 0.0000000000000000e+00  -6.8304287920999345e+00 -1.3541709080320194e+00 0.0000000000000000e+00  -6.6328711743613686e+00 -5.6760277534789361e-01 0.0000000000000000e+00  -6.3648008415571313e+00 2.5403142355660652e-01 0.0000000000000000e+00  -6.0252665775387282e+00 1.0686342681828715e+00 0.0000000000000000e+00  -5.6051581659411127e+00 1.9079437115461420e+00 0.0000000000000000e+00  -5.0934572240188078e+00 2.7667354323854298e+00 0.0000000000000000e+00  -4.4825106765785847e+00 3.8123971877039509e+00 0.0000000000000000e+00  -3.7757149802535843e+00 4.7380605349362925e+00 0.0000000000000000e+00  -3.0115937708589349e+00 5.9593292584588173e+00 0.0000000000000000e+00  -2.2281693813730867e+00 6.6540495648398714e+00 0.0000000000000000e+00  -1.4860822606931936e+00 7.5944819916776183e+00 0.0000000000000000e+00  -8.4096812609089999e-01 7.1520459690791993e+00 0.0000000000000000e+00  -3.5763792658290150e-01 6.8758695878641234e+00 0.0000000000000000e+00  -5.5372793378673138e-02 3.5296081502564887e+00 0.0000000000000000e+00  -5.2169327201968220e-03 -2.2756621318954402e-03 0.0000000000000000e+00  -6.4342522078348993e-02 -8.9464511510234495e+00 0.0000000000000000e+00  -5.1800440522727208e-03 1.8527855970865777e-03 0.0000000000000000e+00  -3.4697286056094429e-01 -1.1370049263950296e+01 0.0000000000000000e+00  -5.0412744785575969e-01 -1.1091413741448029e+01 0.0000000000000000e+00  1.1112363315381302e+00 -7.9395220400938875e+00 0.0000000000000000e+00  -3.4834408448430565e-01 -7.8942088397772121e+00 0.0000000000000000e+00  -2.1733754976868536e-01 -5.8299458035687231e+00 0.0000000000000000e+00  -7.0541762443617928e-01 -4.6430942203381509e+00 0.0000000000000000e+00  -7.9949830731407379e-01 -3.3011545537823510e+00 0.0000000000000000e+00  -9.7734818355245634e-01 -2.4742139139305475e+00 0.0000000000000000e+00  -1.0584409269267721e+00 -1.9066682560657426e+00 0.0000000000000000e+00  -1.1608619836790099e+00 -1.5481141803264444e+00 0.0000000000000000e+00  -1.1754418488810641e+00 -1.2805001448084723e+00 0.0000000000000000e+00  -1.2477758867618312e+00 -1.2344665014815663e+00 0.0000000000000000e+00  -1.3539070653376881e+00 -1.2974712070872660e+00 0.0000000000000000e+00  -1.4427396325123947e+00 -1.4034481649704853e+00 0.0000000000000000e+00  -1.5066594696967206e+00 -1.5085201664420844e+00 0.0000000000000000e+00  -1.5472094316305807e+00 -1.5763583190241020e+00 0.0000000000000000e+00  -1.5429280463297010e+00 -1.5905433775025686e+00 0.0000000000000000e+00  -1.5182676422521229e+00 -1.5845059673002664e+00 0.0000000000000000e+00  -1.4822770119167890e+00 -1.5264030727260856e+00 0.0000000000000000e+00  -1.4264449968743536e+00 -1.4723324715094666e+00 0.0000000000000000e+00  -1.3630805223881073e+00 -1.3493334750054111e+00 0.0000000000000000e+00  -1.3020255931035967e+00 -1.2961693980723712e+00 0.0000000000000000e+00  -1.2274542943639559e+00 -1.0784362021136458e+00 0.0000000000000000e+00  -1.1510197241098457e+00 -1.0951440921164339e+00 0.0000000000000000e+00  -1.0657620468062510e+00 -7.0208716993450093e-01 0.0000000000000000e+00  -9.6890048413712482e-01 -9.4500438230719253e-01 0.0000000000000000e+00  -8.4769790666507983e-01 -2.7002112734671407e-01 0.0000000000000000e+00  -6.9994522912408497e-01 -6.1421693876915384e-01 0.0000000000000000e+00  -5.1311342217101896e-01 -2.5182426422464967e+00 0.0000000000000000e+00  -1.6221291573744117e+00 -1.5223952578232476e+00 0.0000000000000000e+00  -1.4527757047339842e+00 -2.0872814744443122e+00 0.0000000000000000e+00  -1.7909202637363062e+00 -1.3597951080508672e+00 0.0000000000000000e+00  -1.9656559912896907e+00 -1.4313955096610915e+00 0.0000000000000000e+00  -2.1078145736729903e+00 -1.1930295364447496e+00 0.0000000000000000e+00  -2.2848194240853101e+00 -1.1767477964189661e+00 0.0000000000000000e+00  -2.4419895487064287e+00 -1.0166411927826851e+00 0.0000000000000000e+00  -2.4884030629384482e+00 -7.3820788973052776e-01 0.0000000000000000e+00  -2.4308832969131169e+00 -2.6377807932259018e-01 0.0000000000000000e+00  -2.4095729833192272e+00 1.4479180353092791e-01 0.0000000000000000e+00  -2.3130686283076720e+00 7.3457460189026025e-01 0.0000000000000000e+00  -2.1617386569604125e+00 1.4837502522896191e+00 0.0000000000000000e+00  -2.3102993026651215e+00 1.8533189417054137e+00 0.0000000000000000e+00  -2.2498044354428495e+00 2.5686416791555828e+00 0.0000000000000000e+00  -4.6806456864212187e+00 -4.5997801800398702e-01 0.0000000000000000e+00  -5.7983892869618634e+00 -1.5131384403710335e+00 0.0000000000000000e+00  -6.1059590767649201e+00 -1.3734307388969205e+00 0.0000000000000000e+00  -6.0863823826892762e+00 -8.6945872096492050e-01 0.0000000000000000e+00  -5.8809654166717529e+00 -1.5272130734030920e-01 0.0000000000000000e+00  -5.6065642645688429e+00 5.5740542464059450e-01 0.0000000000000000e+00  -5.2631197825693254e+00 1.2773297802686763e+00 0.0000000000000000e+00  -4.8423852216048076e+00 2.0021158178730545e+00 0.0000000000000000e+00  -4.3348684705092539e+00 2.9031798962470323e+00 0.0000000000000000e+00  -3.7344581163152020e+00 3.6944605015037513e+00 0.0000000000000000e+00  -3.0516698071452875e+00 4.8350164709330183e+00 0.0000000000000000e+00  -2.3230158113304515e+00 5.5222735740602023e+00 0.0000000000000000e+00  -1.6012742289682766e+00 6.5284053902469950e+00 0.0000000000000000e+00  -9.3732142096481874e-01 6.2763953475295082e+00 0.0000000000000000e+00  -4.1975785165707297e-01 6.2249727095408458e+00 0.0000000000000000e+00  -7.2963342059671504e-02 3.2631200970382412e+