<?xml version="1.0"?>
<VTKFile type="UnstructuredGrid"  version="0.1"  >
<UnstructuredGrid>
<Piece  NumberOfPoints="1933" NumberOfCells="3640">
<Points>
<DataArray  type="Float64"  NumberOfComponents="3"  format="ascii">-0.4752518208590499 -0.002679301831292545 0  4.524748235147096 -0.002611096263502506 0  4.524645906665251 7.497389033461022 0  -0.4753541677647703 7.497320798930609 0  9.524748330859422 -0.002542986074956948 0  9.5246460279659 7.49745714679893 0  14.52474851713702 -0.002474959512263494 0  14.52464621400722 7.497525169019376 0  19.52474883577429 -0.002406972860299179 0  19.52464647879845 7.497593149978498 0  24.52474931724715 -0.002338966360300631 0  24.52464683250777 7.497661151407121 0  29.52474998197954 -0.002270871500137685 0  29.52464728089778 7.497729242293081 0  34.52475084223461 -0.002202614099471066 0  34.52464782490135 7.497797496762363 0  39.52475190371988 -0.002134115169964197 0  39.52464846030671 7.497865993578404 0  44.52475316667354 -0.002065290508279063 0  44.52464917740254 7.497934816676486 0  49.52475462641415 -0.001996049487472746 0  49.52464996044301 7.498004056406247 0  54.52475627338416 -0.00192629325055937 0  54.52465078682042 7.498073811330992 0  59.5247580926984 -0.001855912356053528 0  59.52465162583683 7.498144190551463 0  64.5247600631711 -0.001784783820515187 0  64.52465243694826 7.498215316609522 0  69.52476215572598 -0.001712767414835911 0  69.52465316732217 7.498287329103454 0  74.52476433101742 -0.001639700977385601 0  74.52465374848251 7.49836038922458 0  79.52476653595828 -0.001565394388999101 0  79.52465409172588 7.498434685517972 0  84.52476869865691 -0.001489621690783387 0  84.52465408187072 7.498510441285774 0  89.52477072093379 -0.001412110587867504 0  89.52465356872321 7.498587924197423 0  94.52477246703701 -0.001332528232201447 0  94.52465235543295 7.498667458841735 0  99.52477374618948 -0.001250461664561349 0  99.52465018268607 7.498749443119298 0  104.5247742848643 -0.001165390562792719 0  104.5246467075141 7.498834369429794 0  109.5247736814965 -0.00107664895598517 0  109.5246414756791 7.498922851288136 0  114.5247713305247 -0.0009833714135404088 0  114.5246338877261 7.499015654666162 0  119.524766291828 -0.0008844184198479664 0  119.5246231623474 7.499113729524824 0  124.5247570614761 -0.0007782770006646208 0  124.5246083099771 7.499218227434401 0  129.5247411620237 -0.0006629417756141348 0  129.5245881515679 7.499330469051752 0  134.524714399978 -0.000535815772210611 0  134.5245614673493 7.499451777337798 0  139.5246695045599 -0.0003937866311867831 0  139.524527469667 7.499582998797366 0  144.5245935993435 -0.0002340446354431429 0  144.5244870327373 7.499723398298418 0  149.5244633717643 -5.782416719402993e-05 0  149.5244456615332 7.499868688562734 0  159.5244717418519 1.039471530735391e-18 0  164.5244465320625 -8.727845818656468e-05 0  164.5244693783991 7.499892300642405 0  159.5244681163749 7.499952901836571 0  169.5244525750095 -0.0001347411797587409 0  169.524470229154 7.499855341232696 0  174.5244715553115 -0.0001545221646156809 0  174.5244742634395 7.499840407739812 0  179.5244950054222 -0.000154244563947075 0  179.5244813151995 7.499843115998326 0  184.5245189944252 -0.0001392062399232681 0  184.5244903973553 7.499859424557548 0  189.5245417635168 -0.0001131807097761366 0  189.5245005498302 7.499886129625354 0  194.5245626048846 -7.888077435876318e-05 0  194.5245110428362 7.499920798964998 0  199.5245813151124 -3.827528638076729e-05 0  199.5245213800682 7.499961607675972 0  204.5245979258052 7.189577284614644e-06 0  204.5245312496317 7.500007185182974 0  209.5246125706785 5.643678598811995e-05 0  209.5245404713075 7.500056494853684 0  214.5246254204878 0.0001086524410766493 0  214.5245489537693 7.500108744732572 0  219.5246366518247 0.0001632124362675839 0  219.5245566633963 7.500163322842016 0  224.5246464328449 0.000219631334340016 0  224.5245636027275 7.500219750580002 0  229.5246549174381 0.000277526314778429 0  229.5245697960588 7.500277649063488 0  234.5246622435637 0.0003365913933720745 0  234.5245752800507 7.500336714635286 0  239.5246685336056 0.0003965787116594149 0  239.5245800977352 7.500396700856896 0  244.5246738956706 0.0004572847585347069 0  244.5245842948107 7.500457405122945 0  249.5246784252937 0.0005185400910436049 0  249.5245879174527 7.500518658607393 0  254.5246822073104 0.0005802015901365859 0  254.5245910111425 7.500580318653451 0  259.5246853177782 0.0006421466045990811 0  259.524593620162 7.500642263000393 0  264.5246878259405 0.000704268559463589 0  264.5245957875405 7.50070438544333 0  269.5246897962178 0.0007664737732725766 0  269.5245975552915 7.500766592676183 0  274.5246912902768 0.0008286793706631412 0  274.5245989648172 7.50082880219621 0  279.5246923691819 0.0008908123179971106 0  279.5246000573865 7.500890941268096 0  284.5246930956175 0.0009528097756060911 0  284.5246008745789 7.500952947071953 0  289.5246935360281 0.001014621180998363 0  289.5246014585762 7.501014768301547 0  294.5246937623255 0.001076212786886576 0  294.5246018522266 7.501076368639456 0  299.5246938522215 0.001137575792973778 0  299.5246020988599 7.501137732698897 0  304.5246938861821 0.001198739610472107 0  304.5246022422536 7.501198875159971 0  309.5246939365354 0.001259791325988651 0  309.5246023281577 7.501259854079304 0  4.524543361708994 14.99738930197675 0  -0.475456711029953 14.99732104079252 0  9.52454345759706 14.99745739396622 0  14.5245435861565 14.99752538186524 0  19.52454374956179 14.99759332863725 0  24.52454394610334 14.99766129990306 0  29.52454417094323 14.99772936486069 0  34.52454441584143 14.99779759648458 0  39.52454466851424 14.99786607193602 0  44.52454491183413 14.99793487339667 0  49.52454512289698 14.99800408933762 0  54.52454527191392 14.99807381620871 0  59.52454532085777 14.99814416055866 0  64.52454522178725 14.99821524163228 0  69.5245449147635 14.99828719452862 0  74.52454432528138 14.998360174039 0  79.52454336114788 14.9984343593099 0  84.52454190879212 14.99850995948319 0  89.52453982909884 14.99858722042982 0  94.52453695310297 14.99866643255417 0  99.52453307833989 14.99874793929719 0  104.5245279675571 14.99883214518115 0  109.5245213530796 14.99891952060027 0  114.5245129529241 14.99901059728702 0  119.5245025092903 14.99910594208001 0  124.5244898669072 14.9992060849398 0  129.5244751175046 14.99931135648712 0  134.5244588439775 14.99942155601891 0  139.5244424909294 14.99953531899955 0  144.5244288297622 14.99964898100338 0  149.5244222708963 14.99975460139258 0  164.5244548060165 14.99983558928272 0  159.524449406361 14.99985256868814 0  169.5244550241567 14.9998244912739 0  174.5244539573422 14.99982388860449 0  179.5244535171234 14.99983441293746 0  184.5244543231056 14.99985497427478 0  189.5244563698145 14.99988399372409 0  194.5244594090939 14.99991992010768 0  199.5244631371072 14.99996140602966 0  204.5244672744344 15.0000073409387 0  209.5244715931622 15.00005683082899 0  214.5244759199226 15.00010916267195 0  219.5244801294065 15.00016376860219 0  224.524484135199 15.00022019493424 0  229.5244878808774 15.00027807701488 0  234.5244913324593 15.00033711940999 0  239.5244944723968 15.00039708050182 0  244.5244972949939 15.00045776057224 0  249.524499803006 15.0005189925906 0  254.5245020051607 15.00058063509069 0  259.5245039143874 15.00064256667768 0  264.5245055465587 15.00070468183344 0  269.5245069196087 15.00076688779719 0  274.5245080529062 15.00082910238553 0  279.5245089667978 15.00089125268923 0  284.5245096822976 15.00095327464019 0  289.5245102209149 15.00101511346872 0  294.5245106048062 15.0010767250367 0  299.5245108575785 15.00113807786968 0  304.5245110065149 15.00119915528135 0  309.5245110875974 15.00125995601209 0  4.524440748149456 22.49738977167583 0  -0.4755593189004731 22.49732156232205 0  9.524440815778725 22.49745778996698 0  14.52444088418005 22.49752569910186 0  19.52444094911131 22.4975935708281 0  24.52444100308234 22.4976614734664 0  29.52444103594538 22.49772947546666 0  34.52444103484279 22.49779764732319 0  39.52444098376161 22.49786606285706 0  44.52444086288023 22.49793480037105 0  49.52444064780353 22.49800394390578 0  54.5244403087246 22.49807358469479 0  59.52443980952832 22.49814382286353 0  64.5244391068547 22.49821476939654 0  69.52443814916346 22.49828654838213 0  74.52443687589175 22.49835929952111 0  79.52443521688328 22.49843318083285 0  84.52443309240317 22.49850837139055 0  89.52443041427959 22.49858507371817 0  94.52442708905751 22.49866351512362 0  99.52442302456862 22.49874394660218 0  104.5244181420681 22.49882663684595 0  109.5244123970818 22.49891185704735 0  114.524405813255 22.4989998492059 0  119.5243985344236 22.49909076608108 0  124.5243908998411 22.49918456452918 0  129.5243835437035 22.49928082645476 0  134.5243775083563 22.49937847686125 0  139.5243743331558 22.49947537875815 0  144.5243760277713 22.49956784392695 0  149.5243847564892 22.49965030253383 0  164.5244136735639 22.49977054555855 0  159.5244083045762 22.49975757698185 0  169.5244143471368 22.49978241906123 0  174.5244123524221 22.4997977139811 0  179.5244093681764 22.49981861654237 0  184.5244064528215 22.49984573948286 0  189.5244041401916 22.49987882992543 0  194.5244026191044 22.49991724883752 0  199.5244018835243 22.49996024185991 0  204.5244018330956 22.5000070734539 0  209.5244023328824 22.50005708359147 0  214.5244032455787 22.50010970443815 0  219.5244044469307 22.50016445817762 0  224.5244058316401 22.50022094711422 0  229.5244073142445 22.50027884157032 0  234.5244088276097 22.5003378681009 0  239.5244103204738 22.50039779903187 0  244.5244117548038 22.50045844359425 0  249.524413103317 22.50051964060338 0  254.5244143473173 22.50058125250949 0  259.524415474861 22.5006431606206 0  264.5244164792496 22.50070526131413 0  269.5244173577908 22.50076746308287 0  274.5244181108072 22.50082968428982 0  279.5244187408679 22.50089185152282 0  284.5244192522676 22.50095389842974 0  289.5244196508357 22.50101576486129 0  294.5244199442578 22.50107739600866 0  299.5
[...]
<PointData  Vectors="v"> 
<DataArray  type="Float64"  Name="v"  NumberOfComponents="3" format="ascii">-4.3400944295703292e+00 -3.1243887319310368e+00 0.0000000000000000e+00  -4.5389622371272047e+00 -2.5907253052746650e+00 0.0000000000000000e+00  -3.8413788442480077e+00 -2.2925845325937533e+00 0.0000000000000000e+00  -3.6826446546076252e+00 -2.8857191498685824e+00 0.0000000000000000e+00  -4.7232334390005484e+00 -2.4341390406732506e+00 0.0000000000000000e+00  -4.0399206350913852e+00 -2.1579176920901406e+00 0.0000000000000000e+00  -4.8016248550747349e+00 -2.3338966463118411e+00 0.0000000000000000e+00  -4.2237260546398518e+00 -2.2167641511860952e+00 0.0000000000000000e+00  -4.7793458502446535e+00 -1.8151587251571060e+00 0.0000000000000000e+00  -4.3014120185163875e+00 -1.8489623552501535e+00 0.0000000000000000e+00  -4.7942128766851946e+00 -1.5138554160098689e+00 0.0000000000000000e+00  -4.2782726624430945e+00 -1.4918717199488716e+00 0.0000000000000000e+00  -4.7316206477267464e+00 -9.7652336846628474e-01 0.0000000000000000e+00  -4.2925270468424532e+00 -1.0707849888393779e+00 0.0000000000000000e+00  -4.6084297632515021e+00 -3.9220621688560586e-01 0.0000000000000000e+00  -4.2293412846480170e+00 -5.7693914711215599e-01 0.0000000000000000e+00  -4.7787207613941796e+00 -2.0606548629968147e-01 0.0000000000000000e+00  -4.1057778348576388e+00 4.9698091903696576e-02 0.0000000000000000e+00  -4.7541006123962406e+00 2.5654087732712921e-01 0.0000000000000000e+00  -4.2762811602997992e+00 2.2012138290890015e-01 0.0000000000000000e+00  -7.2544727965152651e+00 -3.0127380481666637e+00 0.0000000000000000e+00  -4.2523186320752782e+00 7.3907362361989981e-01 0.0000000000000000e+00  -8.4314046964558305e+00 -4.2202222295450822e+00 0.0000000000000000e+00  -6.7529113652511645e+00 -2.4537352563120960e+00 0.0000000000000000e+00  -8.7664276814996853e+00 -4.0735987156649633e+00 0.0000000000000000e+00  -7.9310942927926877e+00 -3.5682794739266135e+00 0.0000000000000000e+00  -8.7587769092183727e+00 -3.3540534366337234e+00 0.0000000000000000e+00  -8.2690692479426602e+00 -3.3615835227899415e+00 0.0000000000000000e+00  -8.5504933658316471e+00 -2.3486835462445446e+00 0.0000000000000000e+00  -8.2655822427504813e+00 -2.6555715964802817e+00 0.0000000000000000e+00  -8.2654927632283748e+00 -1.2622173462152826e+00 0.0000000000000000e+00  -8.0635820525852058e+00 -1.6834183898240831e+00 0.0000000000000000e+00  -7.9018823553333171e+00 -1.0931552085834510e-01 0.0000000000000000e+00  -7.7861102223102394e+00 -6.4630849623224651e-01 0.0000000000000000e+00  -7.4482817462945672e+00 1.0329117739160703e+00 0.0000000000000000e+00  -7.4315670706956007e+00 3.6260231285216010e-01 0.0000000000000000e+00  -6.8936082016625209e+00 2.2431808548869356e+00 0.0000000000000000e+00  -6.9898849934815974e+00 1.4227247182419744e+00 0.0000000000000000e+00  -6.2261242591733126e+00 3.4945167843387841e+00 0.0000000000000000e+00  -6.4487837723102430e+00 2.5079606645308306e+00 0.0000000000000000e+00  -5.4468757276148319e+00 4.8036932050263301e+00 0.0000000000000000e+00  -5.7978497326236269e+00 3.6514804770454607e+00 0.0000000000000000e+00  -4.5884860370856249e+00 6.0912834153781938e+00 0.0000000000000000e+00  -5.0381886392260782e+00 4.8235880645056657e+00 0.0000000000000000e+00  -3.6911064306070855e+00 7.4536469434535437e+00 0.0000000000000000e+00  -4.2035677470506858e+00 6.1299510140000697e+00 0.0000000000000000e+00  -2.7987819701397130e+00 8.5115968562492039e+00 0.0000000000000000e+00  -3.3316586260523118e+00 7.2009170980687003e+00 0.0000000000000000e+00  -1.9811241271329074e+00 9.6388024692647534e+00 0.0000000000000000e+00  -2.4730062665219479e+00 8.4398598059264387e+00 0.0000000000000000e+00  -1.2700401739753862e+00 9.9949763298954117e+00 0.0000000000000000e+00  -1.6874515723998111e+00 8.9664569498287907e+00 0.0000000000000000e+00  -7.2445027793654559e-01 1.0387024761919111e+01 0.0000000000000000e+00  -1.0222967005945143e+00 9.6008615685967520e+00 0.0000000000000000e+00  -3.3370433615672462e-01 9.2075790668692363e+00 0.0000000000000000e+00  -5.1497596793721478e-01 8.6726736749942468e+00 0.0000000000000000e+00  -1.2329418380153842e-01 8.1844837270492725e+00 0.0000000000000000e+00  -1.8544966127290721e-01 7.9040254934042560e+00 0.0000000000000000e+00  -2.2040790600883778e-02 3.9929876246567333e+00 0.0000000000000000e+00  -1.8313086126408279e-02 3.9088155056180343e+00 0.0000000000000000e+00  -1.0692360296999435e-05 -7.3880517391680379e-05 0.0000000000000000e+00  -7.4071316505791519e-04 -8.3733179918028670e-04 0.0000000000000000e+00  -7.5436054170586443e-11 3.7281800766451018e-19 0.0000000000000000e+00  1.4488579871610454e+00 -7.1548771150523800e+00 0.0000000000000000e+00  -2.7293124442390432e-02 -9.3476889248849666e+00 0.0000000000000000e+00  -7.0761423851459367e-04 6.6112622295672518e-04 0.0000000000000000e+00  -1.9889471399922157e-01 -1.1843575457746535e+01 0.0000000000000000e+00  1.4506139376677891e+00 -9.4164568609695500e+00 0.0000000000000000e+00  -2.0609349460828696e-01 -1.1107626922849850e+01 0.0000000000000000e+00  -1.6165205371176652e-01 -1.1114442379307082e+01 0.0000000000000000e+00  -8.0953529398159829e-01 -1.1011897645105677e+01 0.0000000000000000e+00  -1.3784970973979829e-01 -1.0133285710774310e+01 0.0000000000000000e+00  -9.9437910891609771e-01 -8.8484378536595898e+00 0.0000000000000000e+00  -7.1544928189754387e-01 -8.5905768462479770e+00 0.0000000000000000e+00  -1.2552842882435182e+00 -7.1960057291964858e+00 0.0000000000000000e+00  -8.7745747895774973e-01 -6.8241325345116097e+00 0.0000000000000000e+00  -1.4034397016156910e+00 -5.3632376660683443e+00 0.0000000000000000e+00  -1.1168488384555322e+00 -5.1564876055158040e+00 0.0000000000000000e+00  -1.5658021664319706e+00 -4.0032248287195173e+00 0.0000000000000000e+00  -1.2469039195046006e+00 -3.7753717433105263e+00 0.0000000000000000e+00  -1.6333305748427522e+00 -2.9118997813692724e+00 0.0000000000000000e+00  -1.3928313703342174e+00 -2.8236524776806617e+00 0.0000000000000000e+00  -1.7521765416457302e+00 -2.3130577109806625e+00 0.0000000000000000e+00  -1.4452634405196192e+00 -2.1468229961906307e+00 0.0000000000000000e+00  -1.8996327889112208e+00 -1.9454935811751077e+00 0.0000000000000000e+00  -1.5508586892525971e+00 -1.7353411055577519e+00 0.0000000000000000e+00  -2.0258351060403346e+00 -1.7776161947790690e+00 0.0000000000000000e+00  -1.6863374201837646e+00 -1.5982589512421528e+00 0.0000000000000000e+00  -2.1220470333027919e+00 -1.7070338555249127e+00 0.0000000000000000e+00  -1.8014434621122402e+00 -1.5715989975890892e+00 0.0000000000000000e+00  -2.1908836796567090e+00 -1.6599450209083351e+00 0.0000000000000000e+00  -1.8878029483900940e+00 -1.5650422344941786e+00 0.0000000000000000e+00  -2.2117125689276742e+00 -1.6166437260327082e+00 0.0000000000000000e+00  -1.9476666133772678e+00 -1.5929452295005448e+00 0.0000000000000000e+00  -2.2089928762143853e+00 -1.5800634896772483e+00 0.0000000000000000e+00  -1.9601450165562591e+00 -1.5910774216467534e+00 0.0000000000000000e+00  -2.1925415456924475e+00 -1.5256746284954226e+00 0.0000000000000000e+00  -1.9498321938260152e+00 -1.5569155908776624e+00 0.0000000000000000e+00  -2.1546758906267214e+00 -1.4572028017437231e+00 0.0000000000000000e+00  -1.9263344879740121e+00 -1.5201309103834373e+00 0.0000000000000000e+00  -2.1077764049543952e+00 -1.3889137998016641e+00 0.0000000000000000e+00  -1.8817649547077042e+00 -1.4650306611981914e+00 0.0000000000000000e+00  -2.0623476981996949e+00 -1.2902737837515854e+00 0.0000000000000000e+00  -1.8285890806899190e+00 -1.3640224495460185e+00 0.0000000000000000e+00  -2.0029348952753434e+00 -1.2065477655525432e+00 0.0000000000000000e+00  -1.7771318826089741e+00 -1.3010274559598021e+00 0.0000000000000000e+00  -1.9415289316114457e+00 -1.0633370546001490e+00 0.0000000000000000e+00  -1.7118927559469850e+00 -1.1607012625087945e+00 0.0000000000000000e+00  -1.8710600673128326e+00 -9.7369859653211221e-01 0.0000000000000000e+00  -1.6447555505532940e+00 -1.0845131699717119e+00 0.0000000000000000e+00  -1.7896331888014143e+00 -7.2338493965335682e-01 0.0000000000000000e+00  -1.5687893473205512e+00 -8.5071032498778698e-01 0.0000000000000000e+00  -1.6832396683973219e+00 -6.7318810335870527e-01 0.0000000000000000e+00  -1.4816626728124931e+00 -8.3767625530938794e-01 0.0000000000000000e+00  -1.5517842442017653e+00 -1.8776584859616138e-01 0.0000000000000000e+00  -1.3700072965222461e+00 -3.9027671170370209e-01 0.0000000000000000e+00  -1.3784756555316404e+00 -2.9400831571234293e-01 0.0000000000000000e+00  -1.2326310324760121e+00 -5.5858260046894548e-01 0.0000000000000000e+00  -1.1018835619654594e+00 6.3866851949752579e-01 0.0000000000000000e+00  -1.0545030847617813e+00 2.1796614975820389e-01 0.0000000000000000e+00  -6.3496409157960987e-01 7.9429736783567151e-01 0.0000000000000000e+00  -7.7109561620825884e-01 9.0183864169196021e-02 0.0000000000000000e+00  4.6821114331542052e-01 2.8945206459053197e-01 0.0000000000000000e+00  -3.0145819113826960e-01 -1.3732014971040363e+00 0.0000000000000000e+00  -3.1268237772950074e+00 -2.0552669099859773e+00 0.0000000000000000e+00  -2.9416978561715119e+00 -2.6063597438674715e+00 0.0000000000000000e+00  -3.2840788545205362e+00 -1.8614872589343461e+00 0.0000000000000000e+00  -3.4800578367807424e+00 -1.9427727034108866e+00 0.0000000000000000e+00  -3.6605942462594099e+00 -1.7345536448371863e+00 0.0000000000000000e+00  -3.7344243438654785e+00 -1.5292477298270213e+00 0.0000000000000000e+00  -3.7067937922487624e+00 -1.0519988126196216e+00 0.0000000000000000e+00  -3.7164175276080296e+00 -6.7422416981266309e-01 0.0000000000000000e+00  -3.6488641066195409e+00 -1.3838017846236569e-01 0.0000000000000000e+00  -3.5211478214563292e+00 4.7416391855595996e-01 0.0000000000000000e+00  -3.6891036881319916e+00 7.0269226180835231e-01 0.0000000000000000e+00  -3.6631351056237689e+00 1.2934296877813047e+00 0.0000000000000000e+00  -6.1563483504796155e+00 -1.8056840547148814e+00 0.0000000000000000e+00  -7.3280286037386020e+00 -2.8553120629664646e+00 0.0000000000000000e+00  -7.6647799422369500e+00 -2.6612589281230110e+00 0.0000000000000000e+00  -7.6620120647465688e+00 -1.9838032766338438e+00 0.0000000000000000e+00  -7.4641331906004798e+00 -1.0590244863738023e+00 0.0000000000000000e+00  -7.1928862893545782e+00 -1.6515532907192967e-01 0.0000000000000000e+00  -6.8463270872772402e+00 7.6688506768546938e-01 0.0000000000000000e+00  -6.4159293601349132e+00 1.7048449972317554e+00 0.0000000000000000e+00  -5.8895411941603122e+00 2.6842957866905386e+00 0.0000000000000000e+00  -5.2562353651775862e+00 3.6982388399778467e+00 0.0000000000000000e+00  -4.5202922045692091e+00 4.8938074700357470e+00 0.0000000000000000e+00  -3.7144302389065742e+00 5.9137302857188070e+00 0.0000000000000000e+00  -2.8785597355857520e+00 7.1751940507015641e+00 0.0000000000000000e+00  -2.0629358337557555e+00 7.8217043002253019e+00 0.0000000000000000e+00  -1.3326911455054944e+00 8.6321438261606360e+00 0.0000000000000000e+00  -7.2674673051769489e-01 7.9662076872647436e+00 0.0000000000000000e+00  -3.0245951139953881e-01 7.4398991202269578e+00 0.0000000000000000e+00  -4.8362776212279725e-02 3.7463091019478703e+00 0.0000000000000000e+00  -2.4887401362413903e-03 -1.5921558362300208e-03 0.0000000000000000e+00  -5.5063136845519139e-02 -9.1903350823537249e+00 0.0000000000000000e+00  -2.4475743218050137e-03 1.2963795536607855e-03 0.0000000000000000e+00  -2.0800535089472438e-01 -1.1644090800579997e+01 0.0000000000000000e+00  1.3192705178504334e+00 -8.7368692720442453e+00 0.0000000000000000e+00  -2.3414269774632290e-01 -1.0195674099445645e+01 0.0000000000000000e+00  -1.6858821480729150e-01 -7.7479530010684874e+00 0.0000000000000000e+00  -7.0923454823816867e-01 -6.5966146826535033e+00 0.0000000000000000e+00  -8.4398006557585381e-01 -4.8154232842930798e+00 0.0000000000000000e+00  -1.0570628842304159e+00 -3.5926589010044361e+00 0.0000000000000000e+00  -1.1664283025186601e+00 -2.6159888513248055e+00 0.0000000000000000e+00  -1.2940780353032415e+00 -2.0786522219620736e+00 0.0000000000000000e+00  -1.3302431461116178e+00 -1.5858030406568886e+00 0.0000000000000000e+00  -1.4215679632812064e+00 -1.4024824154650097e+00 0.0000000000000000e+00  -1.5446925275812184e+00 -1.4062731237571604e+00 0.0000000000000000e+00  -1.6484420093560517e+00 -1.4415794351520006e+00 0.0000000000000000e+00  -1.7250259415167888e+00 -1.5083071298881865e+00 0.0000000000000000e+00  -1.7764648722300023e+00 -1.5772213856248674e+00 0.0000000000000000e+00  -1.7813769078262236e+00 -1.5765096473792848e+00 0.0000000000000000e+00  -1.7644699367708869e+00 -1.5589129602565128e+00 0.0000000000000000e+00  -1.7351967827267758e+00 -1.5352766069722654e+00 0.0000000000000000e+00  -1.6852909049184719e+00 -1.4468112506459443e+00 0.0000000000000000e+00  -1.6272427553866875e+00 -1.3809484846841193e+00 0.0000000000000000e+00  -1.5712630704219746e+00 -1.2613277799465497e+00 0.0000000000000000e+00  -1.5015895932658494e+00 -1.1877993821512047e+00 0.0000000000000000e+00  -1.4301648291705447e+00 -9.6729584214033537e-01 0.0000000000000000e+00  -1.3498849323433233e+00 -9.7087853329288198e-01 0.0000000000000000e+00  -1.2584797244003916e+00 -5.6061806207749831e-01 0.0000000000000000e+00  -1.1423145192191744e+00 -7.6691704477466915e-01 0.0000000000000000e+00  -1.0007247724211492e+00 -5.2572318535177492e-02 0.0000000000000000e+00  -8.1781358963752371e-01 -3.3663013132103742e-01 0.0000000000000000e+00  -5.3034516382656727e-01 -2.0813386931212441e+00 0.0000000000000000e+00  -2.2586278339365218e+00 -1.7793206872084684e+00 0.0000000000000000e+00  -2.0859302563924476e+00 -2.3447835200562093e+00 0.0000000000000000e+00  -2.4407949346727951e+00 -1.6288728417760769e+00 0.0000000000000000e+00  -2.5925861912480275e+00 -1.6529578936464275e+00 0.0000000000000000e+00  -2.7819496911280530e+00 -1.4692766712488461e+00 0.0000000000000000e+00  -2.9538785359548276e+00 -1.4250763522115388e+00 0.0000000000000000e+00  -3.0175214239297548e+00 -1.1006405627869322e+00 0.0000000000000000e+00  -2.9789002420156545e+00 -6.6770841729872710e-01 0.0000000000000000e+00  -2.9767455681591399e+00 -2.4742997101362033e-01 0.0000000000000000e+00  -2.8977282474328279e+00 2.7601537445862362e-01 0.0000000000000000e+00  -2.7606952360513839e+00 9.4990766880255939e-01 0.0000000000000000e+00  -2.9221182571696285e+00 1.2498747068076796e+00 0.0000000000000000e+00  -2.8855271198819783e+00 1.9213280766799157e+00 0.0000000000000000e+00  -5.3570097027901289e+00 -1.1123403858827809e+00 0.0000000000000000e+00  -6.5092538633707742e+00 -2.1616519364933553e+00 0.0000000000000000e+00  -6.8367292466080984e+00 -1.9899745945346139e+00 0.0000000000000000e+00  -6.8304289913770946e+00 -1.3546358144202493e+00 0.0000000000000000e+00  -6.6328712698073584e+00 -5.6806818419631178e-01 0.0000000000000000e+00  -6.3648008216599949e+00 2.5356881749775717e-01 0.0000000000000000e+00  -6.0252664419080126e+00 1.0681789070984946e+00 0.0000000000000000e+00  -5.6051579207159401e+00 1.9074797976857194e+00 0.0000000000000000e+00  -5.0934568952392869e+00 2.7662653828737875e+00 0.0000000000000000e+00  -4.4825102726448813e+00 3.8119084524118279e+00 0.0000000000000000e+00  -3.7757145728892150e+00 4.7375451678016027e+00 0.0000000000000000e+00  -3.0115933422949541e+00 5.9587506487931527e+00 0.0000000000000000e+00  -2.2281690491574557e+00 6.6534305399197287e+00 0.0000000000000000e+00  -1.4860819584118661e+00 7.5937304741016716e+00 0.0000000000000000e+00  -8.4096799844891745e-01 7.1512318162612702e+00 0.0000000000000000e+00  -3.5763784386390274e-01 6.8748603629555811e+00 0.0000000000000000e+00  -5.5372817316476267e-02 3.5283563529296837e+00 0.0000000000000000e+00  -5.2169422642727630e-03 -2.2756640903009019e-03 0.0000000000000000e+00  -6.4342661926408251e-02 -8.9448968950115990e+00 0.0000000000000000e+00  -5.1800522855788966e-03 1.8527855467079550e-03 0.0000000000000000e+00  -3.4697261471890889e-01 -1.1369828935437621e+01 0.0000000000000000e+00  -5.0412846626314900e-01 -1.1091527626138790e+01 0.0000000000000000e+00  1.1111864852878628e+00 -7.9400176251174219e+00 0.0000000000000000e+00  -3.4840460864552159e-01 -7.8948251389647961e+00 0.0000000000000000e+00  -2.1737209901576585e-01 -5.8305840294706979e+00 0.0000000000000000e+00  -7.0547356585511733e-01 -4.6437951168545908e+00 0.0000000000000000e+00  -7.9956335710104298e-01 -3.3018477078954018e+00 0.0000000000000000e+00  -9.7742419320093243e-01 -2.4748815928895045e+00 0.0000000000000000e+00  -1.0585290916608479e+00 -1.9073145337585788e+00 0.0000000000000000e+00  -1.1609655488966875e+00 -1.5487387591342612e+00 0.0000000000000000e+00  -1.1755606275394219e+00 -1.2811044286355673e+00 0.0000000000000000e+00  -1.2479014321983726e+00 -1.2350413835680303e+00 0.0000000000000000e+00  -1.3540249475532771e+00 -1.2980010428108741e+00 0.0000000000000000e+00  -1.4428504255870855e+00 -1.4039329640735307e+00 0.0000000000000000e+00  -1.5067653958600038e+00 -1.5089667650694534e+00 0.0000000000000000e+00  -1.5473117331593154e+00 -1.5767743388116808e+00 0.0000000000000000e+00  -1.5430273372659618e+00 -1.5909285652076315e+00 0.0000000000000000e+00  -1.5183647858276943e+00 -1.5848647332398156e+00 0.0000000000000000e+00  -1.4823718344569481e+00 -1.5267396301262892e+00 0.0000000000000000e+00  -1.4265369693052714e+00 -1.4726448165731074e+00 0.0000000000000000e+00  -1.3631690470599165e+00 -1.3496242937818843e+00 0.0000000000000000e+00  -1.3021096286942746e+00 -1.2964386026945285e+00 0.0000000000000000e+00  -1.2275328829529897e+00 -1.0786846660454574e+00 0.0000000000000000e+00  -1.1510916278149628e+00 -1.0953683276009016e+00 0.0000000000000000e+00  -1.0658263922984383e+00 -7.0229402664625207e-01 0.0000000000000000e+00  -9.6895562407595948e-01 -9.4518043769057014e-01 0.0000000000000000e+00  -8.4774349350729272e-01 -2.7018750029689687e-01 0.0000000000000000e+00  -6.9997889738063312e-01 -6.1433433530947124e-01 0.0000000000000000e+00  -5.1313591461513175e-01 -2.5182477143414084e+00 0.0000000000000000e+00  -1.6220593392458045e+00 -1.5226818079212827e+00 0.0000000000000000e+00  -1.4527096204892234e+00 -2.0872964920824444e+00 0.0000000000000000e+00  -1.7908440650940767e+00 -1.3601531547267740e+00 0.0000000000000000e+00  -1.9655750243339860e+00 -1.4316995960032590e+00 0.0000000000000000e+00  -2.1077307169260573e+00 -1.1933530086378905e+00 0.0000000000000000e+00  -2.2847449632169798e+00 -1.1770724402515258e+00 0.0000000000000000e+00  -2.4419381160082105e+00 -1.0170056795998865e+00 0.0000000000000000e+00  -2.4883729360841786e+00 -7.3859338100520788e-01 0.0000000000000000e+00  -2.4308731864770503e+00 -2.6419290181276350e-01 0.0000000000000000e+00  -2.4095889180309173e+00 1.4434884466244358e-01 0.0000000000000000e+00  -2.3130985290337396e+00 7.3411560008494114e-01 0.0000000000000000e+00  -2.1617661222771427e+00 1.4832797089681211e+00 0.0000000000000000e+00  -2.3103390245108177e+00 1.8528146867581159e+00 0.0000000000000000e+00  -2.2498593090297905e+00 2.5681060891168723e+00 0.0000000000000000e+00  -4.6806460899343412e+00 -4.6044352795963106e-01 0.0000000000000000e+00  -5.7983895824742460e+00 -1.5136072812075476e+00 0.0000000000000000e+00  -6.1059593037639219e+00 -1.3738957484979524e+00 0.0000000000000000e+00  -6.0863825442521016e+00 -8.6992420386788505e-01 0.0000000000000000e+00  -5.8809654935108213e+00 -1.5318399116146281e-01 0.0000000000000000e+00  -5.6065642494732355e+00 5.5694999165935721e-01 0.0000000000000000e+00  -5.2631196713824133e+00 1.2768658169741751e+00 0.0000000000000000e+00  -4.8423850211443424e+00 2.0016457696784142e+00 0.0000000000000000e+00  -4.3348681797254747e+00 2.9026912205632973e+00 0.0000000000000000e+00  -3.7344577826999865e+00 3.6939452682075284e+00 0.0000000000000000e+00  -3.0516694273664395e+00 4.8344379959293518e+00 0.0000000000000000e+00  -2.3230154722350700e+00 5.5216546874757535e+00 0.0000000000000000e+00  -1.6012739297865675e+00 6.5276538446576255e+00 0.0000000000000000e+00  -9.3732125529361110e-01 6.2755811016955736e+00 0.0000000000000000e+00  -4.1975779284795778e-01 6.2239631599327927e+00 0.0000000000000000e+00  -7.2963370822590620e-02 3.2618681211793290e+