<?xml version="1.0"?>
<VTKFile type="UnstructuredGrid"  version="0.1"  >
<UnstructuredGrid>
<Piece  NumberOfPoints="1933" NumberOfCells="3640">
<Points>
<DataArray  type="Float64"  NumberOfComponents="3"  format="ascii">0.29357764247622 0.002101531425005551 0  5.29357765558617 0.002016761964593089 0  5.293704883376377 7.502016838566966 0  0.2937048331209051 7.50210154138388 0  10.29357765606709 0.001931904086347406 0  10.29370498597263 7.501932008890182 0  15.29357769098571 0.001846873863874166 0  15.29370517384084 7.501846990423872 0  20.29357782187335 0.001761634566728603 0  20.29370548170892 7.501761755909113 0  25.29357811248316 0.001676179745630437 0  25.29370594662536 7.501676303377585 0  30.29357862467975 0.001590522886203575 0  30.29370660729898 7.501590648534642 0  35.29357941792343 0.001504691052891833 0  35.29370750362899 7.501504819584637 0  40.29358055032093 0.001418721185523922 0  40.293708676659 7.501418854093497 0  45.29358208032572 0.001332658235148793 0  45.29371016889203 7.501332797411226 0  50.2935840686912 0.001246554635371222 0  50.29371202484838 7.501246702294699 0  55.29358658052652 0.001160470815520581 0  55.29371429176138 7.501160629505883 0  60.2935896874226 0.001074476614296658 0  60.29371702032886 7.501074649278419 0  65.29359346967318 0.0009886535720487356 0  65.29372026544766 7.500988843648374 0  70.29359801863603 0.0009030981858455012 0  70.29372408686073 7.500903309741929 0  75.29360343929638 0.0008179263211625357 0  75.29372854962496 7.500818164215397 0  80.29360985308274 0.0007332791059137247 0  80.29373372426643 7.500733549167351 0  85.29361740097703 0.0006493308100681566 0  85.29373968642273 7.500649640005912 0  90.29362624690404 0.0005662994713035979 0  90.29374651565597 7.500566655981578 0  95.29363658129225 0.0004844614171958796 0  95.29375429294814 7.500484874421858 0  100.2936486244583 0.0004041714440553769 0  100.2937630961443 7.50040465017426 0  105.2936626290027 0.0003258913851882113 0  105.2937729922518 7.500326442438523 0  110.2936788793963 0.0002502313769810084 0  110.2937840250794 7.500250852104471 0  115.2936976848875 0.0001780107090267433 0  115.293796196308 7.500178673930817 0  120.2937193576007 0.0001103493791637468 0  120.2938094381419 7.500110969257458 0  125.2937441589431 4.8808388096843e-05 0  125.2938235773821 7.500049165847029 0  130.2937721793261 -4.392254992122924e-06 0  130.2938382971223 7.49999519020875 0  135.2938030785006 -4.603355031677883e-05 0  135.2938531210328 7.499951630640123 0  140.2938355333162 -7.138159958782732e-05 0  140.293867496036 7.499921911745145 0  145.2938660572425 -7.351456636569596e-05 0  145.2938811860013 7.499910452010676 0  150.2938863806857 -4.314569247991088e-05 0  150.2938955831696 7.499922996530904 0  160.2938926261466 9.520849125273955e-19 0  165.2937510648676 -0.0001781435887221014 0  165.2938674718474 7.499797429190354 0  160.2939116353475 7.499941495047378 0  170.293666799132 -0.0003391111026065929 0  170.2938226362143 7.499648466664214 0  175.2936145384852 -0.0004874119360448435 0  175.2937845960319 7.499505604775318 0  180.2935811303308 -0.0006252942840491559 0  180.2937543064807 7.499370567190321 0  185.2935592931351 -0.0007546595132618503 0  185.2937308741996 7.499242798161625 0  190.2935448250242 -0.0008771419874122755 0  190.2937130195359 7.499121247698178 0  195.2935352120331 -0.0009940750898699009 0  195.2936995436525 7.49900487586148 0  200.2935288948629 -0.001106512028060727 0  200.2936894525886 7.49889278714446 0  205.2935248703475 -0.001215274575814334 0  205.2936819620953 7.49878424736097 0  210.2935224695476 -0.001321004331636334 0  210.2936764661289 7.498678664613238 0  215.2935212311818 -0.001424206277566488 0  215.2936724995349 7.498575562677291 0  220.2935208274955 -0.001525282656273226 0  220.2936697051034 7.498474556303695 0  225.293521019551 -0.001624558292820672 0  225.2936678073084 7.498375330946033 0  230.293521629407 -0.001722299232256828 0  230.2936665923042 7.498277626937616 0  235.2935225222395 -0.001818726434359777 0  235.2936658929939 7.498181227386367 0  240.2935235944821 -0.00191402590425473 0  240.2936655779583 7.498085948956769 0  245.2935247657321 -0.002008356278310619 0  245.2936655432523 7.497991634818743 0  250.2935259730788 -0.002101854595762438 0  250.2936657063012 7.497898149197399 0  255.293527167061 -0.002194640772665095 0  255.293666001348 7.497805373099405 0  260.2935283087476 -0.00228682114189657 0  260.2936663760368 7.497713200904499 0  265.293529367652 -0.002378491313994942 0  265.293666788861 7.497621537598406 0  270.2935303202799 -0.002469738533196156 0  270.2936672072669 7.49753029649137 0  275.2935311492311 -0.002560643637228197 0  275.2936676062665 7.497439397324476 0  280.2935318428092 -0.002651282663423996 0  280.293667967455 7.497348764722731 0  285.2935323951759 -0.002741728057489224 0  285.2936682783437 7.497258327022648 0  290.2935328070921 -0.002832049300359913 0  290.2936685319131 7.497168015597186 0  295.2935330873547 -0.002922312506037122 0  295.2936687263199 7.497077764944152 0  300.2935332549202 -0.003012578015759966 0  300.2936688646583 7.496987514014917 0  305.2935333414441 -0.003102893892261827 0  305.2936689548737 7.49689720953327 0  310.2935333930481 -0.003193280686210291 0  310.2936690104464 7.496806812266938 0  5.293831772396381 15.00201703716378 0  0.293831711370691 15.00210157286251 0  10.29383189277791 15.00193227863315 0  15.29383210472702 15.00184728493522 0  20.29383243284342 15.00176205537644 0  25.29383289928456 15.00167660169113 0  30.29383352604005 15.00159094649127 0  35.29383433577369 15.00150512139417 0  40.29383535205245 15.00141916563859 0  45.29383659934406 15.00133312542966 0  50.29383810293066 15.00124705404197 0  55.2938398887698 15.0011610126606 0  60.29384198327329 15.00107507195863 0  65.29384441294536 15.00098931445591 0  70.29384720379102 15.00090383776493 0  75.29385038038727 15.00081875890447 0  80.29385396447356 15.00073421995092 0  85.2938579728888 15.00065039540713 0  90.29386241464734 15.00056750180478 0  95.29386728693625 15.00048581021318 0  100.2938725698514 15.00040566249306 0  105.2938782198796 15.00032749224516 0  110.2938841625782 15.00025185132026 0  115.2938902859528 15.00017944213388 0  120.2938964381071 15.0001111541125 0  125.2939024366866 15.00004809776228 0  130.2939081044719 14.99999161862552 0  135.2939133560465 14.99994324820868 0  140.2939183729596 14.99990449184809 0  145.2939239054756 14.99987621258653 0  150.293931664418 14.99985694808566 0  165.2939426719958 14.99973100745046 0  160.2939509744998 14.9998431794497 0  170.2939271083162 14.99960707123981 0  175.2939085740807 14.99948000940485 0  180.2938901928413 14.99935453104003 0  185.2938735323474 14.99923253601116 0  190.2938591748138 14.99911451654215 0  195.2938471801969 14.99900034537071 0  200.2938373650868 14.9988896599287 0  205.2938294538947 14.99878203775948 0  210.2938231549174 14.99867707091307 0  215.2938181952154 14.9985743931769 0  220.2938143340211 14.99847368622322 0  225.2938113655592 14.9983746770324 0  230.2938091170615 14.99827713228187 0  235.2938074449439 14.99818085219393 0  240.2938062305717 14.99808566483456 0  245.2938053762649 14.9979914211752 0  250.2938048017959 14.99789799093938 0  255.2938044414263 14.99780525914579 0  260.2938042414597 14.99771312323243 0  265.2938041582398 14.99762149065171 0  270.2938041565232 14.99753027684797 0  275.2938042081571 14.99743940355283 0  280.2938042909768 14.99734879736187 0  285.293804387893 14.99725838858243 0  290.2938044860798 14.99716811035988 0  295.2938045762978 14.99707789807189 0  300.2938046524009 14.99698768885395 0  305.2938047112975 14.99689742067186 0  310.2938047539085 14.9968070290146 0  5.293958201926473 22.50201748683334 0  0.2939581392287758 22.5021018286247 0  10.29395830972708 22.50193281796903 0  15.29395848976679 22.50184785733799 0  20.29395875962274 22.50176263445581 0  25.29395913177405 22.50167717913553 0  30.29395961628588 22.50159152433375 0  35.29396022218254 22.50150570736244 0  40.29396095797804 22.50141977048207 0  45.29396183169749 22.50133376144287 0  50.29396285058878 22.50124773427372 0  55.29396402061887 22.50116175047895 0  60.29396534578594 22.50107588074761 0  65.2939668272351 22.50099020726993 0  70.29396846214063 22.50090482676917 0  75.29397024230929 22.50081985438744 0  80.29397215245721 22.50073542859694 0  85.29397416813769 22.5006517173397 0  90.29397625335324 22.50056892561174 0  95.29397835799905 22.50048730467328 0  100.2939804154997 22.50040716292645 0  105.2939823413754 22.50032887814871 0  110.2939840340949 22.50025290999549 0  115.2939853805316 22.50017981012469 0  120.2939862696896 22.50011022430078 0  125.2939866199812 22.50004487533438 0  130.2939864265118 22.49998450602777 0  135.2939858334468 22.49992974519837 0  140.2939852272391 22.49988083576131 0  145.2939853171553 22.49983713790949 0  150.2939870968124 22.49979634475624 0  165.294012724089 22.49965780799793 0  160.2940037520162 22.49975145870724 0  170.2940146807055 22.49955247471416 0  175.2940114556623 22.49944080647253 0  180.2940050974166 22.4993267910533 0  185.2939972767376 22.4992129286431 0  190.2939891274104 22.49910056642063 0  195.2939813272784 22.49899031317871 0  200.2939742315737 22.49888235285352 0  205.2939679886913 22.49877664429552 0  210.2939626238149 22.49867303821176 0  215.2939580941447 22.49857134189326 0  220.2939543233512 22.49847135323507 0  225.2939512220984 22.49837287745227 0  230.2939486996862 22.49827573437259 0  235.2939466702458 22.49817976077472 0  240.2939450556889 22.49808481024369 0  245.2939437867898 22.49799075187505 0  250.2939428032353 22.49789746852645 0  255.2939420531446 22.49780485496852 0  260.2939414923318 22.49771281610315 0  265.2939410834883 22.49762126531918 0  270.2939407953494 22.49753012300904 0  275.293940601892 22.49743931524589 0  280.2939404815686 22.4973487726082 0  285.2939404165822 22.49725842912259 0  290.2939403922051 22.49716822125823 0  295.2939403961768 22.49707808681792 0  300.2939404182105 22.496
[...]
<PointData  Vectors="v"> 
<DataArray  type="Float64"  Name="v"  NumberOfComponents="3" format="ascii">3.6576159151780723e+00 -1.6115519672402527e+00 0.0000000000000000e+00  3.5122346682410401e+00 -1.8366506039343182e+00 0.0000000000000000e+00  2.8949201715523154e+00 -1.6185779251180192e+00 0.0000000000000000e+00  3.0020607897532323e+00 -1.4515720422985059e+00 0.0000000000000000e+00  3.2682066548720528e+00 -2.3488283489775310e+00 0.0000000000000000e+00  2.7494713073426529e+00 -1.9832127268894375e+00 0.0000000000000000e+00  2.9631441786010639e+00 -3.0810145282874219e+00 0.0000000000000000e+00  2.5057422121400039e+00 -2.6239374005402851e+00 0.0000000000000000e+00  2.6052185356062898e+00 -3.7912905170711371e+00 0.0000000000000000e+00  2.2012082946261891e+00 -3.2554556771422094e+00 0.0000000000000000e+00  2.1996326986288888e+00 -4.6321768466902498e+00 0.0000000000000000e+00  1.8441373295208940e+00 -4.0253628334161622e+00 0.0000000000000000e+00  1.8041708642323862e+00 -5.3875498607412853e+00 0.0000000000000000e+00  1.4402291274703001e+00 -4.7962437593231222e+00 0.0000000000000000e+00  1.6319282321796615e+00 -5.8097773098824792e+00 0.0000000000000000e+00  1.0469706567464645e+00 -5.5541887200465272e+00 0.0000000000000000e+00  1.1326680577257615e+00 -6.6726638978292812e+00 0.0000000000000000e+00  8.7761822689126612e-01 -5.9272789102679670e+00 0.0000000000000000e+00  3.0275577781538692e+00 -3.9441177508749465e+00 0.0000000000000000e+00  3.8241336543205773e-01 -6.7903834769982785e+00 0.0000000000000000e+00  -1.3458174902379101e+00 -1.0492226701825293e+01 0.0000000000000000e+00  2.2822619683111185e+00 -3.9375588933777101e+00 0.0000000000000000e+00  2.8614489644798163e-02 -8.1883359911685556e+00 0.0000000000000000e+00  -2.0862810989762135e+00 -1.0255429247837963e+01 0.0000000000000000e+00  3.1587770907941387e-01 -7.5192969835383483e+00 0.0000000000000000e+00  -7.0532529538989786e-01 -7.9580145218815215e+00 0.0000000000000000e+00  -2.0029353685616001e-02 -7.8265267729189336e+00 0.0000000000000000e+00  -4.0903849053428426e-01 -7.3325134108732941e+00 0.0000000000000000e+00  -8.0935740681185109e-01 -8.8113209879721168e+00 0.0000000000000000e+00  -7.3386382103505121e-01 -7.6396371839539370e+00 0.0000000000000000e+00  -1.8670024119881778e+00 -1.0139629239489603e+01 0.0000000000000000e+00  -1.5088490503111038e+00 -8.5668933100675382e+00 0.0000000000000000e+00  -3.1369885317490711e+00 -1.1668815697687780e+01 0.0000000000000000e+00  -2.5499915502642598e+00 -9.7805883254540333e+00 0.0000000000000000e+00  -4.5747143074289784e+00 -1.3359156336677865e+01 0.0000000000000000e+00  -3.8011153727073115e+00 -1.1221774228416990e+01 0.0000000000000000e+00  -6.1353541350632907e+00 -1.5026180172653191e+01 0.0000000000000000e+00  -5.2159780993329736e+00 -1.2706401798920432e+01 0.0000000000000000e+00  -7.7832318689128144e+00 -1.6663702880360972e+01 0.0000000000000000e+00  -6.7513920405989465e+00 -1.4217064060518872e+01 0.0000000000000000e+00  -9.4780086912609054e+00 -1.8187667988210556e+01 0.0000000000000000e+00  -8.3702418630348721e+00 -1.5673161524044227e+01 0.0000000000000000e+00  -1.1152801683102451e+01 -1.9496987923685506e+01 0.0000000000000000e+00  -1.0032181727905739e+01 -1.7016266679664334e+01 0.0000000000000000e+00  -1.2745359181091551e+01 -2.0408271542491345e+01 0.0000000000000000e+00  -1.1669078915533406e+01 -1.8053675441170721e+01 0.0000000000000000e+00  -1.4203211394519139e+01 -2.1021478085096252e+01 0.0000000000000000e+00  -1.3222048807492182e+01 -1.8875285775460206e+01 0.0000000000000000e+00  -1.5453236256334712e+01 -2.0819601084485864e+01 0.0000000000000000e+00  -1.4630610693288912e+01 -1.8984144361405676e+01 0.0000000000000000e+00  -1.6477117120345078e+01 -2.0143157732821933e+01 0.0000000000000000e+00  -1.5834004777186450e+01 -1.8659303264236659e+01 0.0000000000000000e+00  -1.7227527250617705e+01 -1.8256846264398547e+01 0.0000000000000000e+00  -1.6795075506150809e+01 -1.7175048752598080e+01 0.0000000000000000e+00  -1.7742335825971534e+01 -1.5432391011541323e+01 0.0000000000000000e+00  -1.7493164779653050e+01 -1.4726465257699374e+01 0.0000000000000000e+00  -1.8011411170888383e+01 -1.1385832908213620e+01 0.0000000000000000e+00  -1.7928589384544843e+01 -1.1027632229874916e+01 0.0000000000000000e+00  -1.8136941504532910e+01 -4.7370937044106700e+00 0.0000000000000000e+00  -1.8141699052493347e+01 -4.6331437197086691e+00 0.0000000000000000e+00  -1.8163563201752325e+01 3.5993955606213024e-11 0.0000000000000000e+00  -1.8163229808389751e+01 3.1822880889962875e-04 0.0000000000000000e+00  -1.8163563200104598e+01 -3.4078157712356295e-19 0.0000000000000000e+00  -1.3885148127824207e+01 1.1503722527725921e+01 0.0000000000000000e+00  -1.8132847333052187e+01 5.1215815809278222e+00 0.0000000000000000e+00  -1.8163230959416406e+01 -3.3661092836797271e-04 0.0000000000000000e+00  -1.2622957347796730e+01 2.0107898221536001e+01 0.0000000000000000e+00  -1.3904026807265071e+01 1.8283998771525560e+01 0.0000000000000000e+00  -1.0751090872859788e+01 2.3970910971118506e+01 0.0000000000000000e+00  -1.2700605089967752e+01 2.1199717009666053e+01 0.0000000000000000e+00  -9.6664455418020250e+00 2.4800067158383261e+01 0.0000000000000000e+00  -1.0883413011023457e+01 2.3221173845580534e+01 0.0000000000000000e+00  -8.4434917751683702e+00 2.4354556953612036e+01 0.0000000000000000e+00  -9.8478434764363687e+00 2.2559885032965543e+01 0.0000000000000000e+00  -7.4335293021788926e+00 2.2836381004085720e+01 0.0000000000000000e+00  -8.6706035831429737e+00 2.1361729465436468e+01 0.0000000000000000e+00  -6.4850691688729221e+00 2.1053745487197254e+01 0.0000000000000000e+00  -7.7051971325640478e+00 1.9666557130635422e+01 0.0000000000000000e+00  -5.6329245675903072e+00 1.9043717374419579e+01 0.0000000000000000e+00  -6.7973763397553553e+00 1.7801527729477115e+01 0.0000000000000000e+00  -4.7445102418764797e+00 1.7230211154310698e+01 0.0000000000000000e+00  -5.9839685480917089e+00 1.5930552286023376e+01 0.0000000000000000e+00  -4.0349679047699851e+00 1.5492985799239335e+01 0.0000000000000000e+00  -5.1328348668632042e+00 1.4460493215114596e+01 0.0000000000000000e+00  -3.4036887543006622e+00 1.3977641540243720e+01 0.0000000000000000e+00  -4.4584407890801572e+00 1.3061418493217149e+01 0.0000000000000000e+00  -2.7512005544183489e+00 1.2762374978114183e+01 0.0000000000000000e+00  -3.8608056980424825e+00 1.1813095070184660e+01 0.0000000000000000e+00  -2.1565293139770794e+00 1.1702464167914664e+01 0.0000000000000000e+00  -3.2409553121675789e+00 1.0838615444117893e+01 0.0000000000000000e+00  -1.6194377627740584e+00 1.0779710375905028e+01 0.0000000000000000e+00  -2.6774223277025260e+00 1.0001585305680576e+01 0.0000000000000000e+00  -1.1379992026674162e+00 9.9350398398617124e+00 0.0000000000000000e+00  -2.1703636846257588e+00 9.2393742115962514e+00 0.0000000000000000e+00  -7.2163876257367288e-01 9.1310224978147900e+00 0.0000000000000000e+00  -1.7181471288697447e+00 8.5321582264574101e+00 0.0000000000000000e+00  -3.6536891495850693e-01 8.3726155166012859e+00 0.0000000000000000e+00  -1.3300111926684079e+00 7.8633409688195055e+00 0.0000000000000000e+00  -5.3712519125803937e-02 7.6308144919328411e+00 0.0000000000000000e+00  -1.0011656764755437e+00 7.1878448922890534e+00 0.0000000000000000e+00  2.1006454127250546e-01 6.9052453695225138e+00 0.0000000000000000e+00  -7.1641723210809771e-01 6.5334977515491435e+00 0.0000000000000000e+00  4.3088109262671065e-01 6.1895983723869330e+00 0.0000000000000000e+00  -4.7883336696773043e-01 5.8820135753661962e+00 0.0000000000000000e+00  6.1556981513151787e-01 5.4848238197253805e+00 0.0000000000000000e+00  -2.8382241306350536e-01 5.2309079361228799e+00 0.0000000000000000e+00  7.6472807478174576e-01 4.7633596855771856e+00 0.0000000000000000e+00  -1.2439059744606902e-01 4.5626028607287337e+00 0.0000000000000000e+00  8.7158507287080711e-01 4.0843426071928484e+00 0.0000000000000000e+00  -4.2497625453471354e-04 3.9464658507238228e+00 0.0000000000000000e+00  9.4612852477532350e-01 3.3299179645493449e+00 0.0000000000000000e+00  8.2115441010374560e-02 3.2408742271814015e+00 0.0000000000000000e+00  9.7442614715193365e-01 2.6990447236011450e+00 0.0000000000000000e+00  1.3157521169247827e-01 2.6781176857128446e+00 0.0000000000000000e+00  9.6073520163966031e-01 1.8809074630859763e+00 0.0000000000000000e+00  1.3671056201592377e-01 1.9246135129063546e+00 0.0000000000000000e+00  8.9616496417402203e-01 1.3992435226156243e+00 0.0000000000000000e+00  9.7250311213870816e-02 1.5161155034510647e+00 0.0000000000000000e+00  7.6622238254493114e-01 4.3133074779862246e-01 0.0000000000000000e+00  1.1744769402510650e-02 6.5116271200708287e-01 0.0000000000000000e+00  5.2159815596160042e-01 -4.9987187886224929e-02 0.0000000000000000e+00  -1.4736445994201602e-01 3.3292982412286931e-01 0.0000000000000000e+00  -5.8978380273908657e-02 -2.8478061990835746e-01 0.0000000000000000e+00  -4.0364139143449979e-01 6.1954842841726965e-01 0.0000000000000000e+00  2.0089836077263756e+00 -1.4568436961847337e+00 0.0000000000000000e+00  2.1168336430708181e+00 -1.2920524457615703e+00 0.0000000000000000e+00  1.9001584408713055e+00 -1.7637009137815036e+00 0.0000000000000000e+00  1.7524677900745127e+00 -2.2571583384278786e+00 0.0000000000000000e+00  1.5065557005750967e+00 -2.7975596976430377e+00 0.0000000000000000e+00  1.2001276774518173e+00 -3.4885952667007118e+00 0.0000000000000000e+00  8.4143052435322996e-01 -4.1899307082976751e+00 0.0000000000000000e+00  4.3676519267606900e-01 -4.9646020225098617e+00 0.0000000000000000e+00  4.4102839847967139e-02 -5.6737646262169834e+00 0.0000000000000000e+00  -1.2353179637731170e-01 -6.0497863681708610e+00 0.0000000000000000e+00  -6.1448543449139537e-01 -6.7911994450763054e+00 0.0000000000000000e+00  1.2906235191452176e+00 -3.7029707353018502e+00 0.0000000000000000e+00  -3.0786729335100707e+00 -1.0028639902639368e+01 0.0000000000000000e+00  -1.6973289838297723e+00 -7.7810682831636004e+00 0.0000000000000000e+00  -1.3938508995486143e+00 -7.1574941315278000e+00 0.0000000000000000e+00  -1.7078986499702515e+00 -7.4141156841637441e+00 0.0000000000000000e+00  -2.4664646064051530e+00 -8.2307319323995607e+00 0.0000000000000000e+00  -3.4869059978070580e+00 -9.3584185261584718e+00 0.0000000000000000e+00  -4.7136997882000395e+00 -1.0601577279799123e+01 0.0000000000000000e+00  -6.0987225936759719e+00 -1.1934554092569840e+01 0.0000000000000000e+00  -7.5987466040618603e+00 -1.3266824957141541e+01 0.0000000000000000e+00  -9.1776650212644899e+00 -1.4551905276673766e+01 0.0000000000000000e+00  -1.0791395288365678e+01 -1.5629253891475130e+01 0.0000000000000000e+00  -1.2373414463307139e+01 -1.6582746399679792e+01 0.0000000000000000e+00  -1.3862596104729770e+01 -1.6911177015614868e+01 0.0000000000000000e+00  -1.5199325747500808e+01 -1.6906404522260754e+01 0.0000000000000000e+00  -1.6316716773461987e+01 -1.5778705996352576e+01 0.0000000000000000e+00  -1.7189002257825237e+01 -1.3755010918110345e+01 0.0000000000000000e+00  -1.7771326906592332e+01 -1.0417846419273637e+01 0.0000000000000000e+00  -1.8104142261297493e+01 -4.4264689073049830e+00 0.0000000000000000e+00  -1.8162421577551228e+01 6.0656769303041552e-04 0.0000000000000000e+00  -1.8092017028367934e+01 4.9256229311265773e+00 0.0000000000000000e+00  -1.8162423650091824e+01 -6.9196172922652481e-04 0.0000000000000000e+00  -1.7900925112855088e+01 1.1959729458474349e+01 0.0000000000000000e+00  -1.3742680296994966e+01 1.9452139660720597e+01 0.0000000000000000e+00  -1.2625623548758082e+01 2.0537926024823708e+01 0.0000000000000000e+00  -1.0876457154035078e+01 2.1046622064395713e+01 0.0000000000000000e+00  -9.9044318978232866e+00 1.9625579253141598e+01 0.0000000000000000e+00  -8.7788902480763777e+00 1.8251539076467431e+01 0.0000000000000000e+00  -7.8641404304674998e+00 1.6465938976840132e+01 0.0000000000000000e+00  -6.9999540357850885e+00 1.4734945391833605e+01 0.0000000000000000e+00  -6.2269639791368725e+00 1.3207347670362376e+01 0.0000000000000000e+00  -5.4136635564519926e+00 1.2071404319080559e+01 0.0000000000000000e+00  -4.7746155645833088e+00 1.0936391357635081e+01 0.0000000000000000e+00  -4.2099017285110634e+00 9.9284858036937838e+00 0.0000000000000000e+00  -3.6217606800575943e+00 9.1744235975243758e+00 0.0000000000000000e+00  -3.0880076020732021e+00 8.4957373843373158e+00 0.0000000000000000e+00  -2.6089977211968840e+00 7.8703792006696842e+00 0.0000000000000000e+00  -2.1836722035149454e+00 7.2966994251493515e+00 0.0000000000000000e+00  -1.8210778834603389e+00 6.7092923649994471e+00 0.0000000000000000e+00  -1.5165541797550790e+00 6.1207548050266158e+00 0.0000000000000000e+00  -1.2553263890742064e+00 5.5394500988117770e+00 0.0000000000000000e+00  -1.0404326653361966e+00 4.9515906332157442e+00 0.0000000000000000e+00  -8.6732770757029887e-01 4.3366211929869030e+00 0.0000000000000000e+00  -7.2942013086303759e-01 3.7730548242212532e+00 0.0000000000000000e+00  -6.2634550954279977e-01 3.1297745318105230e+00 0.0000000000000000e+00  -5.6451882101870954e-01 2.6157111732901326e+00 0.0000000000000000e+00  -5.3506058979922488e-01 1.9298864116871473e+00 0.0000000000000000e+00  -5.5035722708087942e-01 1.5855298983066499e+00 0.0000000000000000e+00  -6.0851836455685271e-01 7.9385847971577150e-01 0.0000000000000000e+00  -7.1464073844008735e-01 5.7892695812504891e-01 0.0000000000000000e+00  -8.9107631995497372e-01 1.0196864561969539e+00 0.0000000000000000e+00  7.0020809321843203e-01 -1.2927947552990597e+00 0.0000000000000000e+00  7.9229746043036042e-01 -1.1573350988175857e+00 0.0000000000000000e+00  5.8864056857705971e-01 -1.5966411398103950e+00 0.0000000000000000e+00  4.7356094077275540e-01 -2.0316577543074072e+00 0.0000000000000000e+00  3.1958669123582789e-01 -2.4242480991037691e+00 0.0000000000000000e+00  6.6632572250814634e-02 -3.0245347637024489e+00 0.0000000000000000e+00  -2.4690834839932807e-01 -3.6482004246874333e+00 0.0000000000000000e+00  -6.1161104407195177e-01 -4.3544716925257330e+00 0.0000000000000000e+00  -1.0212066472488228e+00 -5.0832682931006570e+00 0.0000000000000000e+00  -1.4165590467069520e+00 -5.7994340489092417e+00 0.0000000000000000e+00  -1.5827695426339163e+00 -6.0587186173767753e+00 0.0000000000000000e+00  -2.0684070419898304e+00 -6.5647423422937345e+00 0.0000000000000000e+00  -1.6288133371292959e-01 -3.4694737028791458e+00 0.0000000000000000e+00  -4.5450114582911540e+00 -9.8452438157007656e+00 0.0000000000000000e+00  -3.1744293360943696e+00 -7.6158526062922709e+00 0.0000000000000000e+00  -2.8689223808718740e+00 -6.9523285690976042e+00 0.0000000000000000e+00  -3.1712262411209662e+00 -7.1082384947058674e+00 0.0000000000000000e+00  -3.9100288633071654e+00 -7.8490413516292419e+00 0.0000000000000000e+00  -4.9035826725041067e+00 -8.7883043943324530e+00 0.0000000000000000e+00  -6.0950990371216269e+00 -9.8892378924003701e+00 0.0000000000000000e+00  -7.4373314927835725e+00 -1.1055857769549675e+01 0.0000000000000000e+00  -8.8860671980150165e+00 -1.2230986603223585e+01 0.0000000000000000e+00  -1.0401399804101070e+01 -1.3262455416578502e+01 0.0000000000000000e+00  -1.1941007103528639e+01 -1.4277685313680591e+01 0.0000000000000000e+00  -1.3431944291854538e+01 -1.4751441587888975e+01 0.0000000000000000e+00  -1.4816499265195166e+01 -1.4997000415740125e+01 0.0000000000000000e+00  -1.6023322247473601e+01 -1.4198592635179153e+01 0.0000000000000000e+00  -1.6999351371799388e+01 -1.2586076530305215e+01 0.0000000000000000e+00  -1.7688194440108163e+01 -9.6506113590405089e+00 0.0000000000000000e+00  -1.8095456310219838e+01 -4.1422981500573925e+00 0.0000000000000000e+00  -1.8161163097740449e+01 8.6605172873475934e-04 0.0000000000000000e+00  -1.8071377067748912e+01 4.5805148542675740e+00 0.0000000000000000e+00  -1.8161165206724814e+01 -1.0058189907896700e-03 0.0000000000000000e+00  -1.7669551559287914e+01 1.1609822809460487e+01 0.0000000000000000e+00  -1.7468308514405432e+01 1.3304312480570530e+01 0.0000000000000000e+00  -1.3433766260313506e+01 1.8970948033463330e+01 0.0000000000000000e+00  -1.2455356783216585e+01 1.8502833854930103e+01 0.0000000000000000e+00  -1.0814383625753010e+01 1.8244626582915600e+01 0.0000000000000000e+00  -9.9356749116787917e+00 1.6622309863654735e+01 0.0000000000000000e+00  -8.8882719724690258e+00 1.5150392799211643e+01 0.0000000000000000e+00  -8.0442031198320603e+00 1.3487451829270178e+01 0.0000000000000000e+00  -7.2410539067420530e+00 1.2092648059460608e+01 0.0000000000000000e+00  -6.5244927184646544e+00 1.0892205709660196e+01 0.0000000000000000e+00  -5.7626089658571278e+00 1.0016442722006744e+01 0.0000000000000000e+00  -5.1714502241324238e+00 9.1172715333125467e+00 0.0000000000000000e+00  -4.6520338320579544e+00 8.3263203247430244e+00 0.0000000000000000e+00  -4.1066488870725868e+00 7.7273315276948553e+00 0.0000000000000000e+00  -3.6128669606568371e+00 7.1820768649739835e+00 0.0000000000000000e+00  -3.1715601884795293e+00 6.6872128752186413e+00 0.0000000000000000e+00  -2.7816553120983998e+00 6.1925118014624889e+00 0.0000000000000000e+00  -2.4524109648458920e+00 5.6895747193016701e+00 0.0000000000000000e+00  -2.1795344379365931e+00 5.1721560788170970e+00 0.0000000000000000e+00  -1.9485220201313029e+00 4.6527872974306641e+00 0.0000000000000000e+00  -1.7624691814694995e+00 4.0998280814698749e+00 0.0000000000000000e+00  -1.6173962748646562e+00 3.5881211890805464e+00 0.0000000000000000e+00  -1.5064438742896940e+00 2.9971133512168944e+00 0.0000000000000000e+00  -1.4300603860458967e+00 2.5435475021299521e+00 0.0000000000000000e+00  -1.3936338231515977e+00 1.9074317688105347e+00 0.0000000000000000e+00  -1.3902452893074517e+00 1.6270282354193928e+00 0.0000000000000000e+00  -1.4287284162838603e+00 9.0403914993705281e-01 0.0000000000000000e+00  -1.5138285606619122e+00 7.5251543683078292e-01 0.0000000000000000e+00  -1.6368091509282205e+00 1.3087003394040817e+00 0.0000000000000000e+00  -5.0462676956430808e-01 -1.1514343453560500e+00 0.0000000000000000e+00  -4.3284107913183567e-01 -1.0543478684847192e+00 0.0000000000000000e+00  -6.0187545757672123e-01 -1.4234862956336130e+00 0.0000000000000000e+00  -7.2293098481859086e-01 -1.8513185837884256e+00 0.0000000000000000e+00  -8.4940564418964293e-01 -2.1845287748665587e+00 0.0000000000000000e+00  -1.0165366863836860e+00 -2.6357122273421720e+00 0.0000000000000000e+00  -1.2833503193879003e+00 -3.1679138418896517e+00 0.0000000000000000e+00  -1.6111443518523627e+00 -3.7980911261486408e+00 0.0000000000000000e+00  -1.9893049895924069e+00 -4.4608881966197522e+00 0.0000000000000000e+00  -2.4098355213846125e+00 -5.2006864995077899e+00 0.0000000000000000e+00  -2.8117827587142590e+00 -5.8083187823470652e+00 0.0000000000000000e+00  -2.9795201559471574e+00 -5.8372325567606396e+00 0.0000000000000000e+00  -3.4652190780779488e+00 -6.3218953398024071e+00 0.0000000000000000e+00  -1.5742844436672196e+00 -3.2497751957798964e+00 0.0000000000000000e+00  -5.9927309982236183e+00 -9.6475426354337603e+00 0.0000000000000000e+00  -4.6528014349561406e+00 -7.4010966625003993e+00 0.0000000000000000e+00  -4.3595503675137515e+00 -6.6541915392289326e+00 0.0000000000000000e+00  -4.6619458291402180e+00 -6.7491240568711790e+00 0.0000000000000000e+00  -5.3887567047921197e+00 -7.3114839647016021e+00 0.0000000000000000e+00  -6.3623790332976062e+00 -8.1230479829108884e+00 0.0000000000000000e+00  -7.5249368796951890e+00 -9.0696307418031594e+00 0.0000000000000000e+00  -8.8281183540549950e+00 -1.0093096505387898e+01 0.0000000000000000e+00  -1.0226191476733060e+01 -1.1033465467666129e+01 0.0000000000000000e+00  -1.1678070029179112e+01 -1.2027061506864266e+01 0.0000000000000000e+00  -1.3133304999162878e+01 -1.2582185194125703e+01 0.0000000000000000e+00  -1.4523090294579612e+01 -1.3015175655114872e+01 0.0000000000000000e+00  -1.5773098214580759e+01 -1.2486551764450635e+01 0.0000000000000000e+00  -1.6827264541897986e+01 -1.1273835197623132e+01 0.0000000000000000e+00  -1.7594207212162026e+01 -8.7394824689934207e+00 0.0000000000000000e+00  -1.8073710710649781e+01 -3.7866444566007660e+00 0.0000000000000000e+00  -1.8159505290523892e+01 1.0955925264620496e-03 0.0000000000