<?xml version="1.0"?>
<VTKFile type="UnstructuredGrid"  version="0.1"  >
<UnstructuredGrid>
<Piece  NumberOfPoints="1933" NumberOfCells="3640">
<Points>
<DataArray  type="Float64"  NumberOfComponents="3"  format="ascii">0.4754517203669809 0.0005036035902404917 0  5.475451724679417 0.000482642674669787 0  5.475483185801646 7.500482666043945 0  0.4754831707799743 7.500503607830739 0  10.4754517265548 0.0004616548934135284 0  10.47548321646523 7.500461686117021 0  15.47545174030832 0.0004406174410136988 0  15.47548327231438 7.500440651769237 0  20.47545178399057 0.0004195214041040844 0  20.47548336326744 7.500419556852959 0  25.47545187592699 0.0003983666887774563 0  25.47548349974646 7.500398402559096 0  30.4754520335904 0.0003771589690138768 0  30.47548369246555 7.500377195184471 0  35.47545227348194 0.0003559078358945565 0  35.47548395227644 7.500355944630535 0  40.47545261143675 0.0003346257296726243 0  40.47548429013391 7.50033466350024 0  45.47545306309441 0.0003133274058636142 0  45.47548471715999 7.500313366646099 0  50.47545364442269 0.0002920297832395711 0  50.47548524477072 7.500292071060494 0  55.47545437225252 0.0002707520851310672 0  55.4754858848337 7.50027079603991 0  60.47545526481395 0.0002495162301679703 0  60.4754866498316 7.500249563589046 0  65.47545634227816 0.0002283474627494885 0  65.47548755300917 7.500228399060028 0  70.47545762731382 0.000207275243012034 0  70.47548860848244 7.500207332048579 0  75.47545914566996 0.000186334445875628 0  75.47548983128203 7.500186397596774 0  80.47546092679092 0.0001655669539889428 0  80.47549123729122 7.500165637784587 0  85.47546300446257 0.0001450237763956563 0  85.4754928430209 7.500145103835093 0  90.47546541746929 0.0001247678923848766 0  90.47549466512992 7.500124858916389 0  95.47546821020495 0.0001048781221048953 0  95.4754967195577 7.50010498190588 0  100.4754714331032 8.54544842714811e-05 0  100.4754990200668 7.500085572499668 0  105.4754751425995 6.662575286261395e-05 0  105.4755015759084 7.500066758213499 0  110.4754794000286 4.856032843216662e-05 0  110.4755043882238 7.500048704039542 0  115.4754842682296 3.148219192093221e-05 0  115.4755074447328 7.500031625785705 0  120.4754898033666 1.569476269524926e-05 0  120.4755107123609 7.500015808359811 0  125.4754960368989 1.617169035643482e-06 0  125.4755141280939 7.500001630242436 0  130.4755029374146 -1.015993955456106e-05 0  130.4755175904319 7.499989594505867 0  135.4755103313768 -1.878818530718157e-05 0  135.4755209595607 7.499980363537657 0  140.4755177397529 -2.303052186504448e-05 0  140.4755240892025 7.499974786321035 0  145.4755240400962 -2.107909836741557e-05 0  145.475526950857 7.49997389154545 0  150.4755267519669 -1.040525221738677e-05 0  150.4755300111776 7.499978819155674 0  160.4755282581476 3.901115681532117e-19 0  165.4754903832241 -4.784956882133125e-05 0  165.4755206684523 7.499945266578279 0  160.4755323305251 7.49998256207672 0  170.4754680032971 -9.036718178237261e-05 0  170.4755086641451 7.499906247223244 0  175.4754541853599 -0.0001292709171591625 0  175.4754984819883 7.499868854681479 0  180.4754453930823 -0.000165287843530271 0  180.4754903949148 7.499833607907496 0  185.47543968434 -0.000198962061195424 0  185.47548415964 7.49980036072996 0  190.4754359410749 -0.0002307428331852863 0  190.4754794288214 7.499768828113139 0  195.4754334940119 -0.0002609923251035793 0  195.4754758782343 7.499738727868904 0  200.4754319271391 -0.0002899958720535768 0  200.4754732394957 7.499709816974162 0  205.4754309719876 -0.000317976409054585 0  205.4754713008717 7.499681895814146 0  210.4754304488889 -0.000345108580139446 0  210.4754698985957 7.499654802928707 0  215.4754302334823 -0.0003715304759161192 0  215.4754689067817 7.499628407843339 0  220.4754302370868 -0.0003973526879475493 0  220.4754682285777 7.499602604464943 0  225.4754303948432 -0.000422665053604558 0  225.475467789132 7.499577305678125 0  230.475430658322 -0.0004475416148699105 0  230.4754675302411 7.499552439131779 0  235.4754309907595 -0.0004720442627976089 0  235.4754674063522 7.499527944015036 0  240.4754313638896 -0.0004962254366322561 0  240.4754673815993 7.49950376859943 0  245.4754317557758 -0.0005201301488161779 0  245.4754674276013 7.499479868355301 0  250.4754321492881 -0.000543797529483524 0  250.4754675218242 7.49945620449241 0  255.4754325310167 -0.000567262026887743 0  255.4754676463563 7.499432742812646 0  260.4754328904884 -0.0005905543593745573 0  260.4754677869896 7.499409452793075 0  265.47543321961 -0.0006137022852715837 0  265.4754679325329 7.499386306841141 0  270.4754335122839 -0.0006367312352168114 0  270.4754680743031 7.499363279682274 0  275.4754337641808 -0.0006596648331213136 0  275.475468205752 7.499340347856339 0  280.4754339726518 -0.0006825253129798157 0  280.4754683222061 7.499317489315571 0  285.4754341367935 -0.0007053338133851965 0  285.475468420684 7.499294683136483 0  290.4754342576755 -0.000728110490019058 0  290.4754684997772 7.499271909386162 0  295.4754343387505 -0.0007508743096033847 0  295.4754685595635 7.499249149224656 0  300.4754343864355 -0.0007736422369891021 0  300.475468601533 7.499226385385455 0  305.4754344107512 -0.0007964272109370098 0  305.4754686285544 7.49920360325302 0  310.4754344256244 -0.0008192336106869352 0  310.4754686450779 7.499180792817885 0  5.475514547951898 15.00048272666125 0  0.475514530001598 15.00050362164785 0  10.47551458290022 15.00046176575935 0  15.47551464400748 15.00044073721647 0  20.47551473813076 15.00041964254454 0  25.47551487132881 15.00039848681507 0  30.47551504950283 15.00037727823585 0  35.47551527861774 15.00035602761714 0  40.47551556474675 15.00033474797488 0  45.47551591404891 15.0003134543407 0  50.47551633272308 15.00029216378575 0  55.47551682694534 15.00027089564992 0  60.47551740278195 15.0002496719725 0  65.47551806606126 15.00022851813362 0  70.47551882218063 15.00020746373125 0  75.47551967581987 15.00018654373856 0  80.47552063052426 15.0001658000088 0  85.47552168811502 15.00014528322191 0  90.4755228478779 15.00012505539925 0  95.47552410548379 15.00010519314832 0  100.475525451616 15.00008579183045 0  105.4755268703391 15.00006697085477 0  110.4755283373919 15.00004888024309 0  115.475529818895 15.00003170838523 0  120.4755312715619 15.00001569029314 0  125.4755326465906 15.00000111421522 0  130.4755339012174 14.99998832125154 0  135.475535024503 14.99997768565462 0  140.4755360864322 14.99996954844172 0  145.4755373173062 14.99996404234417 0  150.475539199652 14.99996065283961 0  165.4755396293224 14.99992759105983 0  160.4755420666849 14.99995693517586 0  170.4755353593655 14.9998952091299 0  175.4755303202593 14.99986203315134 0  180.4755253430733 14.99982933404964 0  185.4755208467369 14.99979762312008 0  190.4755169846421 14.99976702929089 0  195.4755137697671 14.99973751433472 0  200.4755111500957 14.99970897711843 0  205.4755090493084 14.99968130079665 0  210.4755073871451 14.99965437267365 0  215.4755060886894 14.9996280914186 0  220.475505087906 14.99960236866654 0  225.4755043283541 14.99957712830885 0  230.4755037626265 14.99955230498458 0  235.4755033513036 14.99952784243172 0  240.4755030618029 14.99950369195968 0  245.4755028672935 14.99947981112468 0  250.4755027457469 14.99945616261352 0  255.475502679133 14.99943271331255 0  260.475502652755 14.99940943353188 0  265.4755026547048 14.99938629635635 0  270.4755026754204 14.99936327710099 0  275.4755027073226 14.99934035285562 0  280.4755027445146 14.99931750211075 0  285.4755027825298 14.99929470446459 0  290.4755028181067 14.9992719404154 0  295.4755028490076 14.99924919123779 0  300.4755028738934 14.99922643890318 0  305.4755028923457 14.99920366587365 0  310.4755029052085 14.99918085421125 0  5.475545781532013 22.50048286178275 0  0.4755457632437485 22.50050370452252 0  10.47554581239013 22.50046192359939 0  15.47554586339853 22.50044090181267 0  20.47554593937533 22.50041980650143 0  25.47554604363562 22.50039864780424 0  30.47554617874889 22.50037743676998 0  35.47554634692045 22.50035618571665 0  40.47554655013262 22.50033490840198 0  45.47554679014176 22.50031362017284 0  50.47554706839021 22.50029233818036 0  55.47554738585998 22.50027108170467 0  60.47554774287875 22.50024987261651 0  65.47554813887631 22.50022873599938 0  70.47554857208327 22.50020770095706 0  75.47554903916321 22.50018680164018 0  80.47554953476946 22.50016607853021 0  85.47555005102767 22.50014558002701 0  90.47555057696302 22.50012536438306 0  95.47555109792555 22.50010550201295 0  100.4755515951296 22.50008607815833 0  105.4755520455291 22.50006719577937 0  110.4755524224219 22.5000489783172 0  115.4755526974249 22.50003157152878 0  120.4755528448064 22.50001514277549 0  125.475552849527 22.49999987468129 0  130.4755527205177 22.49998594759663 0  135.4755525100829 22.49997350139986 0  140.4755523374258 22.49996256190033 0  145.4755524061002 22.49995291321026 0  150.4755529866456 22.49994391041437 0  165.4755572322684 22.49990817595919 0  160.4755552019752 22.4999327169766 0  170.4755574940311 22.49988066854567 0  175.4755564427848 22.49985156969002 0  180.4755546012564 22.49982191891165 0  185.4755524034888 22.49979237371142 0  190.4755501450369 22.4997632875529 0  195.4755480016816 22.49973481766142 0  200.4755460641188 22.49970700828073 0  205.4755443685607 22.49967984395915 0  210.4755429189071 22.49965328073124 0  215.475541701379 22.49962726334592 0  220.4755406936291 22.49960173430103 0  225.4755398701533 22.49957663826953 0  230.4755392053449 22.4995519240202 0  235.4755386751075 22.49952754502261 0  240.475538257609 22.49950345939353 0  245.4755379335454 22.49947962953754 0  250.4755376861322 22.49945602166828 0  255.4755375009595 22.49943260530319 0  260.4755373657793 22.49940935277738 0  265.4755372702751 22.49938623879518 0  270.4755372058263 22.49936324002665 0  275.4755371652854 22.49934033474921 0  280.4755371427623 22.49931750253164 0  285.4755371334253 22.49929472395212 0  290.4755371333155 22.49927198033083 0  295.4755371391897 22.49924925343079 0 
[...]
<PointData  Vectors="v"> 
<DataArray  type="Float64"  Name="v"  NumberOfComponents="3" format="ascii">3.3588230481091630e+00 6.6692316537761034e+00 0.0000000000000000e+00  3.8263743570054887e+00 6.0405739628633102e+00 0.0000000000000000e+00  3.3145476911283476e+00 5.3395122081122546e+00 0.0000000000000000e+00  2.9506275522675054e+00 6.1231713914805530e+00 0.0000000000000000e+00  4.3695114230026384e+00 6.3031184374538443e+00 0.0000000000000000e+00  3.7816353680767039e+00 5.4891331558779992e+00 0.0000000000000000e+00  4.8023131003402035e+00 6.8724673972119810e+00 0.0000000000000000e+00  4.3237168039591634e+00 6.2245033333658162e+00 0.0000000000000000e+00  5.1249156739809694e+00 6.7457173035441382e+00 0.0000000000000000e+00  4.7548511962794411e+00 6.2634780749086394e+00 0.0000000000000000e+00  5.5555615884301588e+00 7.0998084323457800e+00 0.0000000000000000e+00  5.0752054922304479e+00 6.4558990285864946e+00 0.0000000000000000e+00  5.8504203564642712e+00 6.9871297301745088e+00 0.0000000000000000e+00  5.5031842020671817e+00 6.5473180524086949e+00 0.0000000000000000e+00  5.8231397526091442e+00 6.4630298517167803e+00 0.0000000000000000e+00  5.7948791282991499e+00 6.5066401533942324e+00 0.0000000000000000e+00  6.5986541984705038e+00 7.0258481180523180e+00 0.0000000000000000e+00  5.7641066819739688e+00 5.8655307554681020e+00 0.0000000000000000e+00  4.6644335921544533e+00 3.5489115188972913e+00 0.0000000000000000e+00  6.5359093300267173e+00 6.4534806713017181e+00 0.0000000000000000e+00  1.3082017308110631e+01 1.5384600590388693e+01 0.0000000000000000e+00  4.5977967614486834e+00 2.7613028257813883e+00 0.0000000000000000e+00  1.3611856687953388e+01 1.5034698047148183e+01 0.0000000000000000e+00  1.3010910044012954e+01 1.4243722114574426e+01 0.0000000000000000e+00  1.3866777025577699e+01 1.4128920905400483e+01 0.0000000000000000e+00  1.3536250398070615e+01 1.3749895398576708e+01 0.0000000000000000e+00  1.4190452823435331e+01 1.3272232017118572e+01 0.0000000000000000e+00  1.3786922872861089e+01 1.2790180440929296e+01 0.0000000000000000e+00  1.4642931327177823e+01 1.2630882031275787e+01 0.0000000000000000e+00  1.4106253929794171e+01 1.1955484961683128e+01 0.0000000000000000e+00  1.5239580026765186e+01 1.2201492927902356e+01 0.0000000000000000e+00  1.4554556870220674e+01 1.1310014060608617e+01 0.0000000000000000e+00  1.5921358105537211e+01 1.1865181474156888e+01 0.0000000000000000e+00  1.5146886544576203e+01 1.0845583638355688e+01 0.0000000000000000e+00  1.6625248738344869e+01 1.1707455291258132e+01 0.0000000000000000e+00  1.5824474485069105e+01 1.0654434375630213e+01 0.0000000000000000e+00  1.7288496206149990e+01 1.1416183683529722e+01 0.0000000000000000e+00  1.6524789756274380e+01 1.0423732861413123e+01 0.0000000000000000e+00  1.7856435637619072e+01 1.1028673119637736e+01 0.0000000000000000e+00  1.7184773965170734e+01 1.0178137854892215e+01 0.0000000000000000e+00  1.8290427352521000e+01 1.0434710751562355e+01 0.0000000000000000e+00  1.7750466421872215e+01 9.7843586295058813e+00 0.0000000000000000e+00  1.8576376501656412e+01 9.6607217632672544e+00 0.0000000000000000e+00  1.8183316558506100e+01 9.2310225771694352e+00 0.0000000000000000e+00  1.8717003878594621e+01 8.3683497113998992e+00 0.0000000000000000e+00  1.8469832286843609e+01 8.1553953906768442e+00 0.0000000000000000e+00  1.8731108172685069e+01 7.2703153541030101e+00 0.0000000000000000e+00  1.8612085083851838e+01 7.2447089082475280e+00 0.0000000000000000e+00  1.8658207421240164e+01 5.2470429510183445e+00 0.0000000000000000e+00  1.8631387830677376e+01 5.3513838112076515e+00 0.0000000000000000e+00  1.8531608869920653e+01 3.9948578084783546e+00 0.0000000000000000e+00  1.8563803415712197e+01 4.1750589724170117e+00 0.0000000000000000e+00  1.8399323514472332e+01 1.4791787641041840e+00 0.0000000000000000e+00  1.8448718155193426e+01 1.6693074937483519e+00 0.0000000000000000e+00  1.8281994466477943e+01 5.6462084876531726e-01 0.0000000000000000e+00  1.8326049223694010e+01 7.2408947952930880e-01 0.0000000000000000e+00  1.8210706212394815e+01 -1.8219149876455509e+00 0.0000000000000000e+00  1.8228396576349343e+01 -1.7263952872505310e+00 0.0000000000000000e+00  1.8172537553161352e+01 -1.6751098711645682e+00 0.0000000000000000e+00  1.8171210123784636e+01 -1.6429640096383291e+00 0.0000000000000000e+00  1.8163563199107774e+01 2.2312407495709668e-11 0.0000000000000000e+00  1.8164429351312279e+01 8.6011804909537067e-04 0.0000000000000000e+00  1.8163563200133527e+01 -6.1587328707030939e-19 0.0000000000000000e+00  1.1542780681469567e+01 1.7072082237003312e-02 0.0000000000000000e+00  1.8177144878769646e+01 9.9444565910659772e+00 0.0000000000000000e+00  1.8164421978417476e+01 -8.7385778070987242e-04 0.0000000000000000e+00  1.2947437849313770e+01 -9.4307068521277948e-01 0.0000000000000000e+00  1.1559155953671514e+01 -3.0473035490966769e+00 0.0000000000000000e+00  1.1085705657435884e+01 -5.9967930951185009e+00 0.0000000000000000e+00  1.2965107557490075e+01 -3.2121278177914947e+00 0.0000000000000000e+00  1.0978736678353984e+01 -6.9656552993816909e+00 0.0000000000000000e+00  1.1107858846263676e+01 -6.8102767784506284e+00 0.0000000000000000e+00  1.0054820108023552e+01 -1.0019034232503026e+01 0.0000000000000000e+00  1.1008143726701491e+01 -8.6414680348265165e+00 0.0000000000000000e+00  9.4674555505407270e+00 -1.1171356875464571e+01 0.0000000000000000e+00  1.0092970318589291e+01 -1.0299077580651211e+01 0.0000000000000000e+00  8.7589694730315610e+00 -1.2352917933234098e+01 0.0000000000000000e+00  9.5153484999906262e+00 -1.1300647153329082e+01 0.0000000000000000e+00  8.1700127838478718e+00 -1.2543324733333135e+01 0.0000000000000000e+00  8.8182080563213621e+00 -1.1670555701899458e+01 0.0000000000000000e+00  7.3912606246710064e+00 -1.2496365313059883e+01 0.0000000000000000e+00  8.2413949202243799e+00 -1.1340113784248743e+01 0.0000000000000000e+00  6.8742109291342084e+00 -1.1728921639269634e+01 0.0000000000000000e+00  7.4755008217145305e+00 -1.0965725645997278e+01 0.0000000000000000e+00  6.4811411713909974e+00 -1.0810262863421602e+01 0.0000000000000000e+00  6.9721652601314483e+00 -1.0233529807214346e+01 0.0000000000000000e+00  6.0325728510754395e+00 -9.8683141520829523e+00 0.0000000000000000e+00  6.5933638010127318e+00 -9.2088374156162445e+00 0.0000000000000000e+00  5.5933440483871815e+00 -8.9241153663207449e+00 0.0000000000000000e+00  6.1594835523770008e+00 -8.2790699738219455e+00 0.0000000000000000e+00  5.1674676324928175e+00 -8.0787362402124323e+00 0.0000000000000000e+00  5.7354560161813204e+00 -7.4539285239508102e+00 0.0000000000000000e+00  4.7195733552941785e+00 -7.3053519424929965e+00 0.0000000000000000e+00  5.3250971580613271e+00 -6.6478013900696622e+00 0.0000000000000000e+00  4.2986998393841294e+00 -6.5615399842442965e+00 0.0000000000000000e+00  4.8929164973430455e+00 -5.9446918252618204e+00 0.0000000000000000e+00  3.9157015354994509e+00 -5.8919543258238933e+00 0.0000000000000000e+00  4.4879847572729510e+00 -5.3319712091220719e+00 0.0000000000000000e+00  3.5426501393958389e+00 -5.2618536399874447e+00 0.0000000000000000e+00  4.1210116053794552e+00 -4.7168780854481032e+00 0.0000000000000000e+00  3.2028506571410977e+00 -4.6475894080452083e+00 0.0000000000000000e+00  3.7640233222778496e+00 -4.1524803520007598e+00 0.0000000000000000e+00  2.9083675692466500e+00 -4.0922515686209788e+00 0.0000000000000000e+00  3.4402638952330005e+00 -3.6651012208654525e+00 0.0000000000000000e+00  2.6273601746285000e+00 -3.5237683604814420e+00 0.0000000000000000e+00  3.1618339047172279e+00 -3.1167053020292976e+00 0.0000000000000000e+00  2.3786194899019257e+00 -3.0347668266010004e+00 0.0000000000000000e+00  2.8966579197399782e+00 -2.6761378257485995e+00 0.0000000000000000e+00  2.1575129331941127e+00 -2.5015311726775593e+00 0.0000000000000000e+00  2.6638391218967286e+00 -2.1840139314028386e+00 0.0000000000000000e+00  1.9509192301283576e+00 -2.1528781630227956e+00 0.0000000000000000e+00  2.4581551369590247e+00 -1.8573749192341136e+00 0.0000000000000000e+00  1.7502064548640726e+00 -1.6040619792118631e+00 0.0000000000000000e+00  2.2674263215716732e+00 -1.3165906840902486e+00 0.0000000000000000e+00  1.5508195682064139e+00 -1.5719896852680928e+00 0.0000000000000000e+00  2.0813620405545001e+00 -1.2874651105484769e+00 0.0000000000000000e+00  1.3346731167007226e+00 -9.1952803766418634e-01 0.0000000000000000e+00  1.8981706622982732e+00 -6.0786413709251974e-01 0.0000000000000000e+00  1.0166650689524013e+00 -1.4610022380902035e+00 0.0000000000000000e+00  1.6951585818015300e+00 -9.9950965956377125e-01 0.0000000000000000e+00  5.0502516981747569e-01 -1.2336263063038513e+00 0.0000000000000000e+00  1.3952991976565294e+00 -4.7610493582026492e-01 0.0000000000000000e+00  -6.9797408702232555e-01 -1.8339145745598803e-01 0.0000000000000000e+00  8.9092300422017789e-01 1.6004092208540854e+00 0.0000000000000000e+00  3.0444681182758884e+00 4.7938893564444562e+00 0.0000000000000000e+00  2.6371279665072924e+00 5.5117263237898388e+00 0.0000000000000000e+00  3.4076759005146209e+00 4.7894038349623829e+00 0.0000000000000000e+00  3.8728558281860566e+00 5.4129669258243736e+00 0.0000000000000000e+00  4.4118338370206223e+00 5.6191066132111631e+00 0.0000000000000000e+00  4.8386221441793831e+00 5.9785114548790848e+00 0.0000000000000000e+00  5.1533377729902865e+00 5.9090876528532563e+00 0.0000000000000000e+00  5.5745812838741058e+00 6.0734443089762173e+00 0.0000000000000000e+00  5.8586144592008242e+00 5.9166323698677443e+00 0.0000000000000000e+00  5.8194050927814027e+00 5.3007406782707109e+00 0.0000000000000000e+00  6.5828373226483761e+00 5.6731886266498677e+00 0.0000000000000000e+00  4.6362235378187542e+00 1.6301600237104454e+00 0.0000000000000000e+00  1.3038152198909964e+01 1.2968751282479827e+01 0.0000000000000000e+00  1.3552583882406577e+01 1.2419455900147009e+01 0.0000000000000000e+00  1.3794085766092547e+01 1.1482326491741548e+01 0.0000000000000000e+00  1.4103804196975078e+01 1.0643006548327966e+01 0.0000000000000000e+00  1.4542358321978048e+01 9.9632613928975484e+00 0.0000000000000000e+00  1.5124060389303173e+01 9.6447711421455313e+00 0.0000000000000000e+00  1.5790240390647677e+01 9.3798639578060232e+00 0.0000000000000000e+00  1.6478976952132999e+01 9.1949054173171074e+00 0.0000000000000000e+00  1.7127380655478035e+01 8.9427889333719275e+00 0.0000000000000000e+00  1.7681668175896046e+01 8.5873575790815213e+00 0.0000000000000000e+00  1.8104689814418819e+01 7.7309520876268447e+00 0.0000000000000000e+00  1.8382862432037232e+01 7.0347459455561712e+00 0.0000000000000000e+00  1.8519646540891596e+01 5.3245576381090336e+00 0.0000000000000000e+00  1.8536742436703324e+01 4.2742828555590311e+00 0.0000000000000000e+00  1.8472659011433844e+01 1.8402622205404615e+00 0.0000000000000000e+00  1.8364605855996839e+01 8.9560080645267648e-01 0.0000000000000000e+00  1.8260532525100253e+01 -1.5853215345511187e+00 0.0000000000000000e+00  1.8182348659330380e+01 -1.5868273598620926e+00 0.0000000000000000e+00  1.8166525178980560e+01 1.6410214964246187e-03 0.0000000000000000e+00  1.8181389497095992e+01 9.8856790346387431e+00 0.0000000000000000e+00  1.8166511506735176e+01 -1.7683939323030740e-03 0.0000000000000000e+00  1.8237901810067161e+01 6.8785609222684769e+00 0.0000000000000000e+00  1.1610562762631245e+01 -5.3125161788441408e+00 0.0000000000000000e+00  1.3007629171973848e+01 -4.0236572330530525e+00 0.0000000000000000e+00  1.1150837721440022e+01 -8.4934985945978045e+00 0.0000000000000000e+00  1.1054855962512157e+01 -8.9309418138531509e+00 0.0000000000000000e+00  1.0147263920515236e+01 -1.0438153117565513e+01 0.0000000000000000e+00  9.5777229341819492e+00 -1.0630991111929216e+01 0.0000000000000000e+00  8.8907376893306314e+00 -1.0481258878541954e+01 0.0000000000000000e+00  8.3247703667266588e+00 -9.8235022540232730e+00 0.0000000000000000e+00  7.5703928960439315e+00 -9.4857961370449306e+00 0.0000000000000000e+00  7.0793158254362529e+00 -8.6483630071698450e+00 0.0000000000000000e+00  6.7134490262495206e+00 -7.6360410048670087e+00 0.0000000000000000e+00  6.2929059619028545e+00 -6.8262002276689593e+00 0.0000000000000000e+00  5.8828431146681579e+00 -6.0408749085853204e+00 0.0000000000000000e+00  5.4869033618027352e+00 -5.3051043355226986e+00 0.0000000000000000e+00  5.0693732226125094e+00 -4.7334650520023276e+00 0.0000000000000000e+00  4.6793146628524500e+00 -4.1754176667774887e+00 0.0000000000000000e+00  4.3273198415743863e+00 -3.6258935635311085e+00 0.0000000000000000e+00  3.9852192883725448e+00 -3.1883837302035496e+00 0.0000000000000000e+00  3.6762675704111674e+00 -2.7078383930660195e+00 0.0000000000000000e+00  3.4124271138577762e+00 -2.2870664098331241e+00 0.0000000000000000e+00  3.1616024416882209e+00 -1.8431521357347573e+00 0.0000000000000000e+00  2.9427376404171679e+00 -1.5573006909148004e+00 0.0000000000000000e+00  2.7507908787396369e+00 -1.0382193996353404e+00 0.0000000000000000e+00  2.5731405830895815e+00 -1.0167268914972492e+00 0.0000000000000000e+00  2.4002171308817104e+00 -3.3962921815830649e-01 0.0000000000000000e+00  2.2289059259929611e+00 -7.0402334961632052e-01 0.0000000000000000e+00  2.0387803238664075e+00 -3.0893084761186077e-02 0.0000000000000000e+00  1.7496852207815834e+00 2.3472160128222330e+00 0.0000000000000000e+00  2.9486618953444945e+00 4.1834451344569894e+00 0.0000000000000000e+00  2.5772718886654271e+00 4.9539864307949806e+00 0.0000000000000000e+00  3.3549286202149329e+00 4.2460728866190935e+00 0.0000000000000000e+00  3.7155477143924678e+00 4.7179606254658806e+00 0.0000000000000000e+00  4.1763103766198117e+00 4.8151453068938315e+00 0.0000000000000000e+00  4.7084022810004678e+00 5.3445471932166333e+00 0.0000000000000000e+00  5.1258227410878723e+00 5.4449731794350260e+00 0.0000000000000000e+00  5.4287613337743332e+00 5.4512580597897635e+00 0.0000000000000000e+00  5.8358791480482681e+00 5.5015703522502868e+00 0.0000000000000000e+00  6.1040540634512288e+00 5.3713062539857059e+00 0.0000000000000000e+00  6.0483485521366704e+00 4.5396200931838004e+00 0.0000000000000000e+00  6.7958990140722300e+00 4.5617904723658285e+00 0.0000000000000000e+00  4.8316822905315648e+00 3.8109834342551724e-01 0.0000000000000000e+00  1.3211287994866945e+01 1.1663617655602337e+01 0.0000000000000000e+00  1.3705036696241979e+01 1.1132196143293219e+01 0.0000000000000000e+00  1.3929503298010758e+01 1.0190995851615028e+01 0.0000000000000000e+00  1.4221764898304125e+01 9.3188239904643719e+00 0.0000000000000000e+00  1.4641077002391597e+01 8.7870768418425786e+00 0.0000000000000000e+00  1.5201035058625056e+01 8.3969278969931338e+00 0.0000000000000000e+00  1.5843306955005250e+01 8.1795324353912466e+00 0.0000000000000000e+00  1.6505905158089462e+01 7.9885571848245993e+00 0.0000000000000000e+00  1.7126788689090851e+01 7.7742448346214710e+00 0.0000000000000000e+00  1.7653673687672015e+01 7.1145581580292871e+00 0.0000000000000000e+00  1.8049736527706120e+01 6.6326610413646296e+00 0.0000000000000000e+00  1.8304374064314384e+01 5.1329461417438598e+00 0.0000000000000000e+00  1.8421394816713647e+01 4.2550658733883449e+00 0.0000000000000000e+00  1.8427581569236644e+01 1.9402220823204723e+00 0.0000000000000000e+00  1.8359890113897837e+01 1.0452083725795307e+00 0.0000000000000000e+00  1.8266800515674323e+01 -1.4384215931308248e+00 0.0000000000000000e+00  1.8185123942983132e+01 -1.5184689139001659e+00 0.0000000000000000e+00  1.8169797099429289e+01 2.3477057923111761e-03 0.0000000000000000e+00  1.8175875890799684e+01 9.8334889747433518e+00 0.0000000000000000e+00  1.8169784519133117e+01 -2.5586441679425788e-03 0.0000000000000000e+00  1.8231517937253507e+01 6.7846148181808505e+00 0.0000000000000000e+00  1.8284634612761725e+01 4.6424270933576368e+00 0.0000000000000000e+00  1.1638520295733652e+01 -6.1073723810846836e+00 0.0000000000000000e+00  1.3022411063776296e+01 -5.7096488854137899e+00 0.0000000000000000e+00  1.1167847089890337e+01 -8.7913502452881449e+00 0.0000000000000000e+00  1.1080155032102580e+01 -9.0865054811446448e+00 0.0000000000000000e+00  1.0184909585343917e+01 -9.7866531350920170e+00 0.0000000000000000e+00  9.6290543465979539e+00 -9.4624647833972553e+00 0.0000000000000000e+00  8.9573793704903846e+00 -8.9867722242128512e+00 0.0000000000000000e+00  8.4070465632064231e+00 -8.3671831389811011e+00 0.0000000000000000e+00  7.6691850595589903e+00 -7.9251257702675879e+00 0.0000000000000000e+00  7.1952814442534443e+00 -7.1013370136565497e+00 0.0000000000000000e+00  6.8472054211893294e+00 -6.2100052828135386e+00 0.0000000000000000e+00  6.4452715890353156e+00 -5.4410125195398074e+00 0.0000000000000000e+00  6.0546818030258640e+00 -4.7269997094987533e+00 0.0000000000000000e+00  5.6788217271173291e+00 -4.1233188504094382e+00 0.0000000000000000e+00  5.2818323666201916e+00 -3.6066708145573321e+00 0.0000000000000000e+00  4.9125756439375827e+00 -3.1143179860356449e+00 0.0000000000000000e+00  4.5813560001917546e+00 -2.6915765368592304e+00 0.0000000000000000e+00  4.2598780899480921e+00 -2.2604656821775087e+00 0.0000000000000000e+00  3.9711603749407685e+00 -1.9071693596967079e+00 0.0000000000000000e+00  3.7271344923379530e+00 -1.4821615408389071e+00 0.0000000000000000e+00  3.4953315789664590e+00 -1.2440761870052051e+00 0.0000000000000000e+00  3.2950441075481618e+00 -7.6428963956035934e-01 0.0000000000000000e+00  3.1204308377387244e+00 -7.6459471750932817e-01 0.0000000000000000e+00  2.9600126073786721e+00 -9.2296248766195355e-02 0.0000000000000000e+00  2.8021066028687014e+00 -4.6153628781724693e-01 0.0000000000000000e+00  2.6477523147817470e+00 2.4529709599965097e-01 0.0000000000000000e+00  2.4681319399260877e+00 2.7657467101137314e+00 0.0000000000000000e+00  3.1238017975341505e+00 3.6270487781910075e+00 0.0000000000000000e+00  2.7780399612937448e+00 4.4344542912866807e+00 0.0000000000000000e+00  3.4940167708603815e+00 3.6382131765478469e+00 0.0000000000000000e+00  3.8977373486027980e+00 4.1797222097776707e+00 0.0000000000000000e+00  4.2541643241546581e+00 4.1283938976497527e+00 0.0000000000000000e+00  4.7081018331866558e+00 4.5530205551502592e+00 0.0000000000000000e+00  5.2302132318716943e+00 4.8280086577899688e+00 0.0000000000000000e+00  5.6340446603741379e+00 5.0084808945138315e+00 0.0000000000000000e+00  5.9198973251976668e+00 4.9047976036168430e+00 0.0000000000000000e+00  6.3069986535869536e+00 4.9845855698901342e+00 0.0000000000000000e+00  6.5534993101662469e+00 4.6386849178639293e+00 0.0000000000000000e+00  6.4761884205068041e+00 3.4555384580006803e+00 0.0000000000000000e+00  7.2030089815020277e+00 3.3437574820033169e+00 0.0000000000000000e+00  5.2147329292045743e+00 -8.8499814785394604e-01 0.0000000000000000e+00  1.3564816000568831e+01 1.0411438417668283e+01 0.0000000000000000e+00  1.4033399823795612e+01 9.8688743277173305e+00 0.0000000000000000e+00  1.4237918188581467e+01 8.8957306246542824e+00 0.0000000000000000e+00  1.4508791912120515e+01 8.1753208291042441e+00 0.0000000000000000e+00  1.4903399440566577e+01 7.5780047973665763e+00 0.0000000000000000e+00  1.5433185726342423e+01 7.2403043344132554e+00 0.0000000000000000e+00  1.6040176227419103e+01 7.0224835686161544e+00 0.0000000000000000e+00  1.6662714205815682e+01 6.8733585901374097e+00 0.0000000000000000e+00  1.7239711262029214e+01 6.3565574928455471e+00 0.0000000000000000e+00  1.7720193135227959e+01 6.0704767976789356e+00 0.0000000000000000e+00  1.8070738099336001e+01 4.7827390687641911e+00 0.0000000000000000e+00  1.8281614180232094e+01 4.1043749499933728e+00 0.0000000000000000e+00  1.8363906808010043e+01 1.9530158678137786e+00 0.0000000000000000e+00  1.8343868211648420e+01 1.1496870973228521e+00 0.0000000000000000e+00  1.8273485387400608e+01 -1.2964890285787452e+00 0.0000000000000000e+00  1.8191996822477385e+01 -1.4430518537858914e+00 0.0000000000000000e+00  1.8174118492789361e+01 2.9769877221185611e-03 0.0000000000000000e+00  1.8176364469801833e+01 9.8131734019635992e+00 0.0000000000000000e+00  1.8174106487633264e+01 -3.2573962474104013e-03 0.0000000000000000e+00  1.8190002691442402e+01 6.7023539796356646e+00 0.0000000000000000e+00  1.8236010251142435e+01 4.5670562