<?xml version="1.0"?>
<VTKFile type="UnstructuredGrid"  version="0.1"  >
<UnstructuredGrid>
<Piece  NumberOfPoints="1933" NumberOfCells="3640">
<Points>
<DataArray  type="Float64"  NumberOfComponents="3"  format="ascii">0.4752881423745588 0.001514227924283783 0  5.475288158810159 0.00144936854041691 0  5.475385508499235 7.501449445736273 0  0.4753854588400714 7.501514245885004 0  10.4752881681852 0.001384425320992653 0  10.47538560689968 7.501384526745882 0  15.47528821513834 0.001319328114923183 0  15.47538578363951 7.501319439117809 0  20.47528835575018 0.001254049783060113 0  20.47538606948367 7.501254164316554 0  25.47528864694001 0.001188590377768202 0  25.47538649680744 7.501188706378847 0  30.47528914308879 0.001122967690182762 0  30.47538709898106 7.501123085023126 0  35.47528989577059 0.001057211570265911 0  35.47538790992847 7.501057331061117 0  40.47529095478701 0.0009913607024948801 0  40.47538896405588 7.50099148368686 0  45.47529236970439 0.0009254610587721413 0  45.47539029648222 7.500925589184556 0  50.47529419155531 0.000859565558047046 0  50.47539194345902 7.500859700719695 0  55.47529647457903 0.0007937346644016054 0  55.47539394287903 7.500793879008483 0  60.47529927797361 0.0007280377986256869 0  60.47539633479459 7.500728193771241 0  65.47530266767791 0.0006625555491795703 0  65.47539916187148 7.500662725970678 0  70.47530671821148 0.0005973827662497548 0  70.47540246970387 7.500597570924918 0  75.47531151460859 0.0005326327238924781 0  75.47540630689157 7.500532842479043 0  80.47531715445842 0.000468442657472986 0  80.47541072473651 7.500468678532349 0  85.47532375003985 0.0004049811484294754 0  85.47541577634918 7.500405248366813 0  90.47533143045733 0.0003424580671304951 0  90.47542151483923 7.500342762427027 0  95.47534034355628 0.0002811381455062018 0  95.47542799010201 7.50028148549179 0  100.4753506570976 0.0002213598118938096 0  100.4754352434823 7.50022175458776 0  105.4753625581168 0.0001635618070361375 0  105.4754432992837 7.500164003566912 0  110.47537624824 0.0001083215170270862 0  110.4754521517491 7.500108797023485 0  115.4753919304527 5.641123265621713e-05 0  115.4754617459229 7.500056877120583 0  120.4754097782031 8.882175343631745e-06 0  120.4754719511897 7.500009227667252 0  125.4754298684455 -3.280819549397805e-05 0  125.4754825285984 7.499967159625291 0  130.4754520414154 -6.660176253152106e-05 0  130.4754931005355 7.499932419053138 0  135.4754756115174 -8.954477477142339e-05 0  135.4755031518416 7.499907307899829 0  140.4754987733848 -9.736164097951422e-05 0  140.4755121446232 7.499894784279755 0  145.4755173690427 -8.396595005948228e-05 0  145.4755199666815 7.49989848732703 0  150.4755222281193 -4.165752262680574e-05 0  150.4755283163561 7.499922820140191 0  160.4755282581476 1.051096749700052e-18 0  165.4754066252148 -0.00015799132118782 0  165.4755065543816 7.499819527024983 0  160.4755437542741 7.499946232274048 0  170.475336132961 -0.0002977747144470975 0  170.4754687552283 7.499690846982884 0  175.4752937862742 -0.0004243202806290675 0  175.475436986575 7.499569332994206 0  180.475267730701 -0.0005402386363393395 0  180.4754120363648 7.499456034596317 0  185.4752514746555 -0.0006476234805115723 0  185.4753930593907 7.499350110600181 0  190.4752413191463 -0.0007481999208682175 0  190.4753788881124 7.499250381246091 0  195.4752350825235 -0.0008433407510678262 0  195.4753684446503 7.49915574682868 0  200.4752314329384 -0.0009341139092236797 0  200.4753608453712 7.499065285466767 0  205.4752295281601 -0.001021344200021503 0  205.4753554003333 7.49897825305197 0  210.4752288166251 -0.00110567071918429 0  210.4753515818499 7.498894056039928 0  215.4752289249618 -0.001187593344156159 0  215.4753489891079 7.498812220774891 0  220.4752295927526 -0.001267508029945479 0  220.4753473175492 7.498732366717551 0  225.4752306336079 -0.001345732839975363 0  225.4753463347739 7.498654185081967 0  230.475231911222 -0.001422526954048789 0  230.4753458623711 7.498577422416996 0  235.4752333241753 -0.001498104565768002 0  235.4753457624812 7.49850186816523 0  240.4752347959859 -0.001572645127270484 0  240.4753459279203 7.498427345250985 0  245.4752362684131 -0.001646300997550786 0  245.4753462749308 7.498353702918115 0  250.4752376968376 -0.001719203241903335 0  250.4753467378373 7.498280811221739 0  255.4752390470258 -0.001791466106537929 0  255.4753472651016 7.498208556734523 0  260.4752402928445 -0.001863190534323792 0  260.4753478163976 7.49813683914927 0  265.4752414146816 -0.001934466975306261 0  265.475348360453 7.498065568552049 0  270.4752423984003 -0.002005377662450931 0  270.4753488734717 7.497994663211724 0  275.4752432347712 -0.002075998454597514 0  275.4753493380004 7.497924047792145 0  280.4752439193366 -0.002146400280054184 0  280.4753497421432 7.497853651952188 0  285.4752444527446 -0.002216650126367732 0  285.4753500790389 7.497783409368467 0  290.4752448415703 -0.002286811382648884 0  290.4753503465111 7.497713257308709 0  295.4752450996883 -0.002356943090641644 0  295.4753505468272 7.497643137019658 0  300.4752452501039 -0.002427097176513421 0  300.4753506864819 7.497572995386536 0  305.4752453268338 -0.002497311748958582 0  305.4753507761215 7.497502788564732 0  310.4752453754321 -0.00256759644577193 0  310.4753508312602 7.497432488487197 0  5.475482550713224 15.00144963926439 0  0.4754824920693855 15.00151429510172 0  10.47548266187205 15.00138477869691 0  15.47548285376849 15.00131970891731 0  20.47548314748551 15.00125443514287 0  25.47548356167129 15.00118897339786 0  30.47548411453772 15.00112334928085 0  35.47548482454853 15.00105759639203 0  40.47548571055324 15.00099175519408 0  45.47548679171002 15.00092587253008 0  50.47548808732533 15.00086000182444 0  55.47548961663249 15.0007942039478 0  60.47549139847845 15.00072854874522 0  65.47549345086166 15.00066311726922 0  70.47549579023823 15.00059800481411 0  75.47549843049896 15.00053332491458 0  80.47550138148928 15.00046921454878 0  85.47550464692648 15.00040584087934 0  90.47550822154798 15.00034340997648 0  95.47551208734025 15.0002821780861 0  100.4755162087716 15.00022246611066 0  105.4755205271971 15.0001646779894 0  110.4755249551312 15.00010932343691 0  115.4755293722286 15.00005704466177 0  120.475533626993 15.00000864447421 0  125.4755375521951 14.99996510801162 0  130.4755410085614 14.99992759890543 0  135.4755439808495 14.99989738628359 0  140.4755467602226 14.99987560608347 0  145.4755502417187 14.99986263508883 0  150.4755562821914 14.999856489943 0  165.4755682205917 14.99975838093644 0  160.4755748626969 14.99985425027428 0  170.4755550120893 14.99965315419334 0  175.4755392004396 14.99954626339806 0  180.4755235896433 14.99944173230433 0  185.4755095550962 14.99934106019603 0  190.4754975848751 14.99924451594848 0  195.475487705155 14.99915184952654 0  200.4754797322878 14.99906263168632 0  205.4754734074502 14.99897640465098 0  210.4754684631463 14.99889274281832 0  215.4754646528217 14.99881127237355 0  220.4754617615313 14.99873167314732 0  225.4754596074532 14.99865367358578 0  230.4754580393854 14.99857704371085 0  235.4754569328223 14.9985015881198 0  240.4754561858298 14.9984271397724 0  245.4754557152547 14.99835355474186 0  250.4754554534579 14.9982807078751 0  255.4754553455868 14.99820848923103 0  260.4754553473492 14.9981368011571 0  265.4754554232082 14.99806555588077 0  270.4754555449279 14.99799467352066 0  275.4754556904007 14.99792408045071 0  280.4754558426735 14.99785370798039 0  285.4754559891492 14.99778349134224 0  290.4754561208846 14.99771336899448 0  295.4754562320318 14.99764328222884 0  300.4754563194919 14.99757317495181 0  305.4754563830845 14.99750299309026 0  310.4754564268059 14.99743268184737 0  5.475579196582955 22.501450064434 0  0.4755791370418693 22.50151456042811 0  10.47557929447658 22.50138527318623 0  15.47557945378792 22.5013202241817 0  20.47557968905902 22.5012549490855 0  25.47558001020379 22.50118947951396 0  30.47558042484055 22.50112384977468 0  35.47558093945298 22.50105809806856 0  40.4755815598004 22.50099226710842 0  45.47558229087682 22.50092640468145 0  50.47558313659764 22.50086056443055 0  55.4755840992975 22.50079480699907 0  60.47558517906729 22.50072920163134 0  65.47558637292273 22.50066382831101 0  70.4755876737764 22.50059878052874 0  75.47558906918532 22.50053416879448 0  80.47559053984943 22.50047012503176 0  85.47559205787377 22.5004068080085 0  90.47559358487277 22.50034440995043 0  95.47559507012544 22.50028316442046 0  100.4755964492189 22.50022335536769 0  105.4755976440044 22.50016532684904 0  110.4755985653055 22.50010949209831 0  115.4755991207318 22.50005633902313 0  120.4755992311743 22.50000642625861 0  125.4755988608859 22.49996035867697 0  130.4755980666666 22.49991872240643 0  135.4755970693869 22.49988194545574 0  140.4755963406488 22.49985003083328 0  145.475596667671 22.49982209303515 0  150.4755990906334 22.49979566892834 0  165.4756230242909 22.49969075596789 0  160.4756151076143 22.49976827266923 0  170.4756246214044 22.49960330612386 0  175.4756216263833 22.4995108398816 0  180.475615915731 22.49941691545907 0  185.4756089916322 22.49932369434347 0  190.4756018562223 22.49923228762317 0  195.4755950962192 22.49914314915141 0  200.4755890089741 22.49905636446948 0  205.4755837091843 22.49897183135153 0  210.4755792047783 22.49888936346816 0  215.4755754463554 22.49880874640387 0  220.475572357592 22.49872976608955 0  225.475569853044 22.49865222196048 0  230.475567848017 22.49857593198171 0  235.4755662636301 22.49850073353432 0  240.4755650290644 22.49842648233438 0  245.4755640822238 22.49835305053015 0  250.4755633695422 22.4982803245604 0  255.4755628453766 22.49820820305365 0  260.4755624712125 22.49813659489143 0  265.4755622148349 22.49806541747737 0  270.4755620495083 22.49799459521779 0  275.4755619532087 22.49792405820179 0  280.4755619079049 22.49785374105983 0  285.4755618988979 22.49778358196543 0  290.4755619142255 22.4977135217077 0  295.4755619441828 22.49764350267582 0  300.475561981001 
[...]
<PointData  Vectors="v"> 
<DataArray  type="Float64"  Name="v"  NumberOfComponents="3" format="ascii">4.3372243792152343e+00 3.1247351078908658e+00 0.0000000000000000e+00  4.5362900940801252e+00 2.5978089840156242e+00 0.0000000000000000e+00  3.8385128673529199e+00 2.2993704688231738e+00 0.0000000000000000e+00  3.6798707001651034e+00 2.8862016389539149e+00 0.0000000000000000e+00  4.7211609436635236e+00 2.4437494759693097e+00 0.0000000000000000e+00  4.0372560542787674e+00 2.1666324827426635e+00 0.0000000000000000e+00  4.8001029959731714e+00 2.3429526684688038e+00 0.0000000000000000e+00  4.2216630764207972e+00 2.2249977787683095e+00 0.0000000000000000e+00  4.7782362827476632e+00 1.8257330391564461e+00 0.0000000000000000e+00  4.2998975387740552e+00 1.8589154874138585e+00 0.0000000000000000e+00  4.7937411260793557e+00 1.5248737193310657e+00 0.0000000000000000e+00  4.2771721084505065e+00 1.5019336752444543e+00 0.0000000000000000e+00  4.7315384222111296e+00 9.8843632732478948e-01 0.0000000000000000e+00  4.2920635213099105e+00 1.0821102284128821e+00 0.0000000000000000e+00  4.6081331366750771e+00 4.0346206815674451e-01 0.0000000000000000e+00  4.2292679628072998e+00 5.8851201813618992e-01 0.0000000000000000e+00  4.7788348532042688e+00 2.1802582336227189e-01 0.0000000000000000e+00  4.1054901134819399e+00 -3.8350690592300431e-02 0.0000000000000000e+00  4.7544059829445313e+00 -2.4454855443414764e-01 0.0000000000000000e+00  4.2764046751617837e+00 -2.0841824684309709e-01 0.0000000000000000e+00  7.2540286929390589e+00 3.0234244939812873e+00 0.0000000000000000e+00  4.2526333700196064e+00 -7.2719404463342641e-01 0.0000000000000000e+00  8.4307973315043512e+00 4.2309977831023922e+00 0.0000000000000000e+00  6.7524768353295510e+00 2.4647859671691377e+00 0.0000000000000000e+00  8.7657702735081706e+00 4.0846533886472320e+00 0.0000000000000000e+00  7.9304963882123118e+00 3.5794143087883854e+00 0.0000000000000000e+00  8.7581220480226420e+00 3.3652946096397276e+00 0.0000000000000000e+00  8.2684212610841499e+00 3.3728153476298242e+00 0.0000000000000000e+00  8.5498697837669351e+00 2.3603100588679209e+00 0.0000000000000000e+00  8.2649373697310349e+00 2.6671400524170581e+00 0.0000000000000000e+00  8.2649063727679764e+00 1.2740218596381812e+00 0.0000000000000000e+00  8.0629689914793126e+00 1.6951539468462016e+00 0.0000000000000000e+00  7.9013332421289757e+00 1.2110421654558466e-01 0.0000000000000000e+00  7.7855350482652126e+00 6.5802642840804726e-01 0.0000000000000000e+00  7.4477679276151507e+00 -1.0210058843597438e+00 0.0000000000000000e+00  7.4310307554456676e+00 -3.5076512467721632e-01 0.0000000000000000e+00  6.8931247624540113e+00 -2.2312435013075897e+00 0.0000000000000000e+00  6.9893848077463590e+00 -1.4108509805487148e+00 0.0000000000000000e+00  6.2256673458891081e+00 -3.4827358024628476e+00 0.0000000000000000e+00  6.4483152079954769e+00 -2.4962394474561851e+00 0.0000000000000000e+00  5.4464439078798890e+00 -4.7915864400375918e+00 0.0000000000000000e+00  5.7974087833762429e+00 -3.6394337190582786e+00 0.0000000000000000e+00  4.5880782699873128e+00 -6.0790534358240089e+00 0.0000000000000000e+00  5.0377738943946886e+00 -4.8114177570113075e+00 0.0000000000000000e+00  3.6907222186884834e+00 -7.4408767786047854e+00 0.0000000000000000e+00  4.2031766636486534e+00 -6.1172418850651571e+00 0.0000000000000000e+00  2.7984267918274899e+00 -8.4983469109183041e+00 0.0000000000000000e+00  3.3312936606884560e+00 -7.1877327560685202e+00 0.0000000000000000e+00  1.9807991943465979e+00 -9.6238234024211629e+00 0.0000000000000000e+00  2.4726681123533671e+00 -8.4249493549559258e+00 0.0000000000000000e+00  1.2697558078649442e+00 -9.9795260083148527e+00 0.0000000000000000e+00  1.6871491317185801e+00 -8.9510788230662950e+00 0.0000000000000000e+00  7.2420780823493958e-01 -1.0368144622905032e+01 0.0000000000000000e+00  1.0220318310368617e+00 -9.5820548659965397e+00 0.0000000000000000e+00  3.3352138120563218e-01 -9.1876013945419341e+00 0.0000000000000000e+00  5.1476565666331486e-01 -8.6527723732639110e+00 0.0000000000000000e+00  1.2316403110481278e-01 -8.1612843190214619e+00 0.0000000000000000e+00  1.8529519031785605e-01 -7.8808941698637902e+00 0.0000000000000000e+00  2.1991411908315790e-02 -3.9607380566899564e+00 0.0000000000000000e+00  1.8236647543345929e-02 -3.8766496449218759e+00 0.0000000000000000e+00  -3.5177912471078876e-09 7.7302276028705522e-11 0.0000000000000000e+00  7.4421650895382832e-04 7.1246969388497874e-04 0.0000000000000000e+00  3.1994484840463357e-11 -5.4269565569544018e-19 0.0000000000000000e+00  -1.4477419598593202e+00 7.1167003933130202e+00 0.0000000000000000e+00  2.7394028643551754e-02 9.3078637419205972e+00 0.0000000000000000e+00  7.4194717756024783e-04 -7.5353014591496379e-04 0.0000000000000000e+00  2.0051459348324274e-01 1.1844287542198824e+01 0.0000000000000000e+00  -1.4494128516334850e+00 9.4164274400668599e+00 0.0000000000000000e+00  2.0666655180279458e-01 1.1108592724120571e+01 0.0000000000000000e+00  1.6335332030739716e-01 1.1116974012722556e+01 0.0000000000000000e+00  8.1099073114423226e-01 1.1023178825867037e+01 0.0000000000000000e+00  1.3850338033557699e-01 1.0143243069192499e+01 0.0000000000000000e+00  9.9581065040815320e-01 8.8608721767591021e+00 0.0000000000000000e+00  7.1697939191787563e-01 8.6030290274717114e+00 0.0000000000000000e+00  1.2570375602025536e+00 7.2106516443307509e+00 0.0000000000000000e+00  8.7896637045573789e-01 6.8382813900602812e+00 0.0000000000000000e+00  1.4053933903489650e+00 5.3788212628071301e+00 0.0000000000000000e+00  1.1186798198544325e+00 5.1717531142582454e+00 0.0000000000000000e+00  1.5681076607284306e+00 4.0189089523314161e+00 0.0000000000000000e+00  1.2489387213419072e+00 3.7905151063498090e+00 0.0000000000000000e+00  1.6359385379984939e+00 2.9271239471158070e+00 0.0000000000000000e+00  1.3952212517622380e+00 2.8384120274390585e+00 0.0000000000000000e+00  1.7549537853254629e+00 2.3277476540910733e+00 0.0000000000000000e+00  1.4479592034708630e+00 2.1612538844182629e+00 0.0000000000000000e+00  1.9021854849653377e+00 1.9588757179453726e+00 0.0000000000000000e+00  1.5537255800551102e+00 1.7490578225645186e+00 0.0000000000000000e+00  2.0282295808053870e+00 1.7898635230562050e+00 0.0000000000000000e+00  1.6889820337397672e+00 1.6107436654004956e+00 0.0000000000000000e+00  2.1243129564717389e+00 1.7182595791330466e+00 0.0000000000000000e+00  1.8039314795266153e+00 1.5830186642479076e+00 0.0000000000000000e+00  2.1930583790244107e+00 1.6703642814333552e+00 0.0000000000000000e+00  1.8901634695846743e+00 1.5755996146012494e+00 0.0000000000000000e+00  2.2138014096871150e+00 1.6262181752716662e+00 0.0000000000000000e+00  1.9499370838075401e+00 1.6026494928025754e+00 0.0000000000000000e+00  2.2110234895257448e+00 1.5889290542012979e+00 0.0000000000000000e+00  1.9623305592071130e+00 1.6000313112159958e+00 0.0000000000000000e+00  2.1945097688212725e+00 1.5339678436314459e+00 0.0000000000000000e+00  1.9519601583841544e+00 1.5653030907234657e+00 0.0000000000000000e+00  2.1565699464859116e+00 1.4648529611793648e+00 0.0000000000000000e+00  1.9284008637314889e+00 1.5278927031045464e+00 0.0000000000000000e+00  2.1095864238866069e+00 1.3959905102590828e+00 0.0000000000000000e+00  1.8837579623317038e+00 1.4722337765781615e+00 0.0000000000000000e+00  2.0640522787977216e+00 1.2968521334287264e+00 0.0000000000000000e+00  1.8304984959792328e+00 1.3707589673244440e+00 0.0000000000000000e+00  2.0045164400809030e+00 1.2125481360211743e+00 0.0000000000000000e+00  1.7789369022742143e+00 1.3072124953401174e+00 0.0000000000000000e+00  1.9429584907758739e+00 1.0688168041058836e+00 0.0000000000000000e+00  1.7135750282933977e+00 1.1664083695912113e+00 0.0000000000000000e+00  1.8723312513594614e+00 9.7866357038664631e-01 0.0000000000000000e+00  1.6462871926470464e+00 1.0897157286523385e+00 0.0000000000000000e+00  1.7906977080543545e+00 7.2782598692305145e-01 0.0000000000000000e+00  1.5701622006698663e+00 8.5545930082472432e-01 0.0000000000000000e+00  1.6841164529187769e+00 6.7705931965554178e-01 0.0000000000000000e+00  1.4828316800972934e+00 8.4182937722821072e-01 0.0000000000000000e+00  1.5523932846823656e+00 1.9120054046525506e-01 0.0000000000000000e+00  1.3709860516269670e+00 3.9410765639136786e-01 0.0000000000000000e+00  1.3788707922277192e+00 2.9670436523459742e-01 0.0000000000000000e+00  1.2333483783697912e+00 5.6160132477799196e-01 0.0000000000000000e+00  1.1019735671283140e+00 -6.3619270563685149e-01 0.0000000000000000e+00  1.0549999315472658e+00 -2.1504475002064222e-01 0.0000000000000000e+00  6.3449816765513800e-01 -7.9325618535809173e-01 0.0000000000000000e+00  7.7129716684260530e-01 -8.8312441000147623e-02 0.0000000000000000e+00  -4.6780790713262388e-01 -2.8936411264526690e-01 0.0000000000000000e+00  3.0111765002729268e-01 1.3719844110018666e+00 0.0000000000000000e+00  3.1241264136235514e+00 2.0621893314581543e+00 0.0000000000000000e+00  2.9390769600031552e+00 2.6069563847264763e+00 0.0000000000000000e+00  3.2812930479158040e+00 1.8699045703730801e+00 0.0000000000000000e+00  3.4774756109901399e+00 1.9501108660789708e+00 0.0000000000000000e+00  3.6586117854456179e+00 1.7436845072735778e+00 0.0000000000000000e+00  3.7329923363344091e+00 1.5386884498702453e+00 0.0000000000000000e+00  3.7057753596924878e+00 1.0623676934958479e+00 0.0000000000000000e+00  3.7160372578429142e+00 6.8520932788034805e-01 0.0000000000000000e+00  3.6488744573249616e+00 1.5004441946835853e-01 0.0000000000000000e+00  3.5209447693388438e+00 -4.6307374320494538e-01 0.0000000000000000e+00  3.6893121931075537e+00 -6.9110178766420682e-01 0.0000000000000000e+00  3.6635351643231275e+00 -1.2811868536489943e+00 0.0000000000000000e+00  6.1560004999052422e+00 1.8170931663805052e+00 0.0000000000000000e+00  7.3275189266061052e+00 2.8666239169205276e+00 0.0000000000000000e+00  7.6642217242482626e+00 2.6728178225862900e+00 0.0000000000000000e+00  7.6614585512730411e+00 1.9954812028902331e+00 0.0000000000000000e+00  7.4636129505544719e+00 1.0706740608531990e+00 0.0000000000000000e+00  7.1924061779192217e+00 1.7692203163310444e-01 0.0000000000000000e+00  6.8458876283639398e+00 -7.5507914538205345e-01 0.0000000000000000e+00  6.4155281107292490e+00 -1.6931863075040838e+00 0.0000000000000000e+00  5.8891734441255759e+00 -2.6723079581146543e+00 0.0000000000000000e+00  5.2558975051127454e+00 -3.6861268423364648e+00 0.0000000000000000e+00  4.5199812841040252e+00 -4.8811557442863336e+00 0.0000000000000000e+00  3.7141464216618418e+00 -5.9006049539752077e+00 0.0000000000000000e+00  2.8783014722336784e+00 -7.1603457142444675e+00 0.0000000000000000e+00  2.0627105038952815e+00 -7.8063920428380253e+00 0.0000000000000000e+00  1.3325002929328491e+00 -8.6134061206072641e+00 0.0000000000000000e+00  7.2660491984974718e-01 -7.9463823391990127e+00 0.0000000000000000e+00  3.0237090708588893e-01 -7.4168469416345344e+00 0.0000000000000000e+00  4.8348118594122177e-02 -3.7142366356192063e+00 0.0000000000000000e+00  2.5523707485328498e-03 1.3595079591169307e-03 0.0000000000000000e+00  5.5285638553441888e-02 9.1504516461620966e+00 0.0000000000000000e+00  2.5480965204706624e-03 -1.5506730383354444e-03 0.0000000000000000e+00  2.0826880559936423e-01 1.1642414679552694e+01 0.0000000000000000e+00  -1.3179229981686544e+00 8.7386632512230005e+00 0.0000000000000000e+00  2.3599088757571149e-01 1.0207196624938646e+01 0.0000000000000000e+00  1.6937955120290243e-01 7.7590810176212264e+00 0.0000000000000000e+00  7.1090324693987472e-01 6.6107815878909912e+00 0.0000000000000000e+00  8.4562561925264723e-01 4.8301922247585525e+00 0.0000000000000000e+00  1.0590317509716423e+00 3.6074847041151341e+00 0.0000000000000000e+00  1.1686021406167491e+00 2.6302081352421913e+00 0.0000000000000000e+00  1.2966084690649651e+00 2.0926188229248406e+00 0.0000000000000000e+00  1.3330794922162128e+00 1.5992607656083773e+00 0.0000000000000000e+00  1.4245760735410244e+00 1.4153015811994569e+00 0.0000000000000000e+00  1.5474785465422525e+00 1.4179298864045915e+00 0.0000000000000000e+00  1.6510711674629632e+00 1.4523302935665425e+00 0.0000000000000000e+00  1.7275275784240172e+00 1.5181489497422413e+00 0.0000000000000000e+00  1.7788762955173343e+00 1.5863044351645410e+00 0.0000000000000000e+00  1.7837030270967460e+00 1.5849846898630398e+00 0.0000000000000000e+00  1.7667383482741932e+00 1.5667681691233764e+00 0.0000000000000000e+00  1.7374035543089010e+00 1.5425903976163511e+00 0.0000000000000000e+00  1.6874239769803130e+00 1.4536731085696377e+00 0.0000000000000000e+00  1.6292925759538206e+00 1.3872905381937128e+00 0.0000000000000000e+00  1.5732081721047004e+00 1.2672183292222430e+00 0.0000000000000000e+00  1.5034127372953729e+00 1.1932279714034255e+00 0.0000000000000000e+00  1.4318364690122289e+00 9.7228102402107897e-01 0.0000000000000000e+00  1.3514001553050543e+00 9.7533811120584823e-01 0.0000000000000000e+00  1.2597882758401109e+00 5.6472941409939859e-01 0.0000000000000000e+00  1.1434387836647446e+00 7.7033043036659832e-01 0.0000000000000000e+00  1.0015808835461379e+00 5.5814799184568324e-02 0.0000000000000000e+00  8.1845865532744311e-01 3.3894543909256469e-01 0.0000000000000000e+00  5.3070890826817740e-01 2.0809504250622202e+00 0.0000000000000000e+00  2.2560860746840787e+00 1.7863580310767364e+00 0.0000000000000000e+00  2.0835284775594012e+00 2.3455904666790284e+00 0.0000000000000000e+00  2.4381804518254291e+00 1.6374272245158488e+00 0.0000000000000000e+00  2.5898857602325629e+00 1.6599988868938929e+00 0.0000000000000000e+00  2.7794513703008503e+00 1.4775120613913553e+00 0.0000000000000000e+00  2.9519824928208931e+00 1.4336946059004556e+00 0.0000000000000000e+00  3.0161761306428905e+00 1.1103879102440986e+00 0.0000000000000000e+00  2.9779703201412118e+00 6.7773672507946270e-01 0.0000000000000000e+00  2.9764550206381131e+00 2.5850601873652934e-01 0.0000000000000000e+00  2.8978300668400463e+00 -2.6460870564062527e-01 0.0000000000000000e+00  2.7605845922774344e+00 -9.3893040071725997e-01 0.0000000000000000e+00  2.9224199673615354e+00 -1.2379217101091218e+00 0.0000000000000000e+00  2.8860221210234225e+00 -1.9087302406111575e+00 0.0000000000000000e+00  5.3567607372474066e+00 1.1239231068202564e+00 0.0000000000000000e+00  6.5088474910501839e+00 2.1732893421931689e+00 0.0000000000000000e+00  6.8362777176244887e+00 2.0016422419047770e+00 0.0000000000000000e+00  6.8299850655508285e+00 1.3662274924827489e+00 0.0000000000000000e+00  6.6324641102152118e+00 5.7976658150189464e-01 0.0000000000000000e+00  6.3644367400715458e+00 -2.4183311037695052e-01 0.0000000000000000e+00  6.0249462127155908e+00 -1.0565878151922949e+00 0.0000000000000000e+00  5.6048791154706210e+00 -1.8955538879335230e+00 0.0000000000000000e+00  5.0932151373586239e+00 -2.7542113986398191e+00 0.0000000000000000e+00  4.4823005638534799e+00 -3.7993137400257955e+00 0.0000000000000000e+00  3.7755365996381340e+00 -4.7244754352152594e+00 0.0000000000000000e+00  3.0114435430113917e+00 -5.9439586089124976e+00 0.0000000000000000e+00  2.2280518054649110e+00 -6.6381782819026993e+00 0.0000000000000000e+00  1.4859981263907134e+00 -7.5750556030730332e+00 0.0000000000000000e+00  8.4092980087274405e-01 -7.1314759328985895e+00 0.0000000000000000e+00  3.5764864685346032e-01 -6.8518846948945589e+00 0.0000000000000000e+00  5.5453458265295588e-02 -3.4963714800734702e+00 0.0000000000000000e+00  5.3721927870385598e-03 1.9436658014379486e-03 0.0000000000000000e+00  6.4655239373361081e-02 8.9048969072017297e+00 0.0000000000000000e+00  5.3678118491289400e-03 -2.2569491662188653e-03 0.0000000000000000e+00  3.4736198041986366e-01 1.1368112857795511e+01 0.0000000000000000e+00  5.0454037469556989e-01 1.1091671803537297e+01 0.0000000000000000e+00  -1.1096983303896544e+00 7.9508086425154927e+00 0.0000000000000000e+00  3.5038335888279076e-01 7.9075198962170674e+00 0.0000000000000000e+00  2.1829165996026462e-01 5.8434303521381779e+00 0.0000000000000000e+00  7.0726631073996737e-01 4.6585856691243981e+00 0.0000000000000000e+00  8.0133156012659046e-01 3.3161808274383890e+00 0.0000000000000000e+00  9.7951453258678944e-01 2.4887871877669983e+00 0.0000000000000000e+00  1.0608236660002472e+00 1.9207445026618861e+00 0.0000000000000000e+00  1.1636147985631999e+00 1.5617355473075183e+00 0.0000000000000000e+00  1.1785145676991104e+00 1.2936675916433251e+00 0.0000000000000000e+00  1.2510256861053817e+00 1.2470351737364185e+00 0.0000000000000000e+00  1.3569254683466596e+00 1.3089912392245506e+00 0.0000000000000000e+00  1.4455928587725677e+00 1.4139702228991149e+00 0.0000000000000000e+00  1.5093790862503174e+00 1.5181890622223246e+00 0.0000000000000000e+00  1.5498339107052339e+00 1.5853800024435336e+00 0.0000000000000000e+00  1.5454632596071480e+00 1.5988725421578474e+00 0.0000000000000000e+00  1.5207422342343109e+00 1.5922729282559249e+00 0.0000000000000000e+00  1.4846867084040025e+00 1.5337129307165667e+00 0.0000000000000000e+00  1.4287779740413047e+00 1.4791127583766521e+00 0.0000000000000000e+00  1.3653260724574239e+00 1.3556721861607539e+00 0.0000000000000000e+00  1.3041624098434061e+00 1.3020507724458352e+00 0.0000000000000000e+00  1.2294626159334552e+00 1.0838958179355760e+00 0.0000000000000000e+00  1.1528720808348683e+00 1.1000638975729597e+00 0.0000000000000000e+00  1.0674475560901471e+00 7.0671143041481843e-01 0.0000000000000000e+00  9.7037606656123732e-01 9.4887376785375832e-01 0.0000000000000000e+00  8.4897298665833854e-01 2.7382392503711001e-01 0.0000000000000000e+00  7.0094980629569459e-01 6.1697021486295167e-01 0.0000000000000000e+00  5.1390969233210149e-01 2.5183022605934027e+00 0.0000000000000000e+00  1.6197378106927605e+00 1.5299270787008230e+00 0.0000000000000000e+00  1.4504598453771496e+00 2.0882096091096618e+00 0.0000000000000000e+00  1.7883864485071932e+00 1.3688197849956554e+00 0.0000000000000000e+00  1.9630474181638622e+00 1.4388744810280565e+00 0.0000000000000000e+00  2.1051160244040266e+00 1.2012877135104238e+00 0.0000000000000000e+00  2.2823353054676523e+00 1.1847913058870887e+00 0.0000000000000000e+00  2.4401315003122352e+00 1.0259262943969469e+00 0.0000000000000000e+00  2.4871194721234078e+00 7.4799578358474605e-01 0.0000000000000000e+00  2.4300369207771544e+00 2.7430765207794017e-01 0.0000000000000000e+00  2.4093943091808763e+00 -1.3353478482373740e-01 0.0000000000000000e+00  2.3132977276425581e+00 -7.2282570244421973e-01 0.0000000000000000e+00  2.1617540119172189e+00 -1.4719437186871058e+00 0.0000000000000000e+00  2.3107406736634610e+00 -1.8405127951828713e+00 0.0000000000000000e+00  2.2504580178464066e+00 -2.5553451523337332e+00 0.0000000000000000e+00  4.6805079185268159e+00 4.7234204578796318e-01 0.0000000000000000e+00  5.7981005471971061e+00 1.5253464287085818e+00 0.0000000000000000e+00  6.1056299958830724e+00 1.3854716924469028e+00 0.0000000000000000e+00  6.0860657949219750e+00 8.8156011943081847e-01 0.0000000000000000e+00  5.8806893361393850e+00 1.6484672686515783e-01 0.0000000000000000e+00  5.6063354254943549e+00 -5.4543331873553746e-01 0.0000000000000000e+00  5.2629389574850078e+00 -1.2650116199402544e+00 0.0000000000000000e+00  4.8422501552299018e+00 -1.9896579894191055e+00 0.0000000000000000e+00  4.3347737487014220e+00 -2.8901580199157957e+00 0.0000000000000000e+00  3.7344013413882275e+00 -3.6809356298273275e+00 0.0000000000000000e+00  3.0516468903757454e+00 -4.8197042043728038e+00 0.0000000000000000e+00  2.3230289249850320e+00 -5.5064608664957451e+00 0.0000000000000000e+00  1.6013215258347397e+00 -6.5090403052122703e+00 0.0000000000000000e+00  9.3741341259760369e-01 -6.2558907557990722e+00 0.0000000000000000e+00  4.1989593135282444e-01 -6.2010589847513184e+00 0.0000000000000000e+00  7.3167244271753071e-02 -3.2299631598804099e+00 0.0000000000000000e+00  9.0927753618674206e-03 2.4625753336584367e-03 0.0000000000000000e+00  7.9499097877361022e-02 8.6228359747903767e+00 0.0000000000000000e+00  9.0882668883451243e-03 -2.8796065486036892e-03 0.0000000000000000e+00  3.9966546429260907e-01 1.0838850013767827e+01 0.0000000000000000e+00  7.6987859221039223e-01 1.0839945598137836e+01 0.0000000000000000e