<?xml version="1.0"?>
<VTKFile type="UnstructuredGrid"  version="0.1"  >
<UnstructuredGrid>
<Piece  NumberOfPoints="1933" NumberOfCells="3640">
<Points>
<DataArray  type="Float64"  NumberOfComponents="3"  format="ascii">0.4754562753222381 0.0003461782748132647 0  5.475456289064553 0.0003259280740485636 0  5.475486689090254 7.500325977733666 0  0.475486658254916 7.500346197911765 0  10.47545630442455 0.0003056288401053532 0  10.47548674739295 7.500305689732738 0  15.47545634752702 0.0002852505727757011 0  15.47548684857232 7.500285315220566 0  20.47545644852336 0.0002647864166480717 0  20.47548700808357 7.500264851931221 0  25.47545663655291 0.0002442436630558373 0  25.47548724161847 7.500244309176932 0  30.47545693836468 0.0002236386330344939 0  30.47548756475213 7.50022370419835 0  35.47545737840743 0.0002029937506115658 0  35.47548799268496 7.500203059842158 0  40.47545797946923 0.0001823359797625361 0  40.47548854016376 7.500182403270863 0  45.47545876347913 0.0001616961613959701 0  45.47548922153314 7.500161765429 0  50.47545975231652 0.0001411089829132399 0  50.47549005085007 7.50014118107549 0  55.47546096857376 0.0001206134342170838 0  55.47549104200319 7.500120689270492 0  60.475462436261 0.0001002536859344326 0  60.47549220878839 7.50010033426833 0  65.47546418145694 8.008038691911627e-05 0  65.47549356489306 7.50008016682039 0  70.47546623290512 6.015243124912284e-05 0  70.47549512373743 7.500060245939514 0  75.47546862255086 4.053929974082084e-05 0  75.47549689810315 7.500040641227321 0  80.47547138598705 2.13241472839013e-05 0  80.47549889945172 7.50002143592515 0  85.47547456274327 2.607896916479628e-06 0  85.47550113678918 7.500002730926235 0  90.47547819627884 -1.548526895013569e-05 0  90.47550361486654 7.499984650090679 0  95.47548233341828 -3.28004352783903e-05 0  95.47550633141036 7.49996734734741 0  100.4754870227242 -4.91416159547972e-05 0  100.4755092729525 7.499951016259767 0  105.4754923108549 -6.425720481280297e-05 0  105.4755124086795 7.499935902978086 0  110.4754982350861 -7.781915419869284e-05 0  110.4755156815976 7.499922323779953 0  115.4755048085068 -8.939272088726182e-05 0  115.4755189963629 7.499910688610727 0  120.4755119911422 -9.839198802240708e-05 0  120.4755222037232 7.499901531890205 0  125.4755196338998 -0.0001040141246522297 0  125.4755250836362 7.499895550604156 0  130.4755273697291 -0.0001051428537166734 0  130.4755273349764 7.49989364561666 0  135.4755344016487 -0.0001002112674351155 0  135.4755285945087 7.499896951613916 0  140.4755390874563 -8.702731530175751e-05 0  140.4755285435405 7.499906818537258 0  145.4755381155328 -6.264617415364881e-05 0  145.4755272472684 7.499924675709337 0  150.4755248131669 -2.379924398035009e-05 0  150.4755260954212 7.499951766201877 0  160.4755282581476 9.901628093585828e-19 0  165.4754720465161 -7.884898628314924e-05 0  165.4755178687293 7.499908878568676 0  160.4755340467692 7.499970221311433 0  170.4754417424784 -0.0001450054033365272 0  170.4755012855125 7.499848901322629 0  175.4754251880601 -0.0002022699102658561 0  175.4754876986801 7.499794398762481 0  180.4754162628973 -0.0002526786362082749 0  180.4754774475422 7.499745405274009 0  185.475411700145 -0.0002977356304127886 0  185.4754700526983 7.499701125091543 0  190.475409690884 -0.0003386061888792163 0  190.4754648955546 7.499660698154419 0  195.4754092027974 -0.0003761840979803504 0  195.4754614223588 7.499623381420714 0  200.4754096292176 -0.0004111491414601247 0  200.4754591901917 7.499588574650677 0  205.4754106028297 -0.0004440185925939358 0  205.4754578611981 7.499555803984528 0  210.4754118945391 -0.0004751889832946131 0  210.4754571830108 7.49952469712234 0  215.4754133573715 -0.0005049678247047657 0  215.475456968594 7.499494960354374 0  220.475414894622 -0.0005335968819724455 0  220.4754570794563 7.499466359945899 0  225.4754164412977 -0.0005612690081438285 0  225.4754574127694 7.499438707827935 0  230.4754179530057 -0.0005881402955097143 0  230.4754578918533 7.499411850833241 0  235.4754193991085 -0.0006143388976813372 0  235.4754584592708 7.499385662647651 0  240.4754207583881 -0.0006399715028107224 0  240.4754590718506 7.499360037775607 0  245.4754220162368 -0.0006651281478683903 0  245.4754596971006 7.499334886980114 0  250.4754231628014 -0.0006898858532671453 0  250.4754603106232 7.499310133799417 0  255.4754241917533 -0.0007143114092350394 0  255.4754608942519 7.499285711854053 0  260.4754250994834 -0.0007384635422692212 0  260.4754614347059 7.499261562741085 0  265.4754258846147 -0.0007623946169647392 0  265.4754619226327 7.499237634374516 0  270.4754265477522 -0.0007861519739708134 0  270.4754623519381 7.499213879678755 0  275.4754270914602 -0.000809778959288469 0  275.4754627193267 7.499190255582636 0  280.4754275204357 -0.0008333156542751588 0  280.4754630240097 7.499166722300571 0  285.4754278419056 -0.0008567992581890627 0  285.4754632675159 7.499143242932133 0  290.4754280662315 -0.0008802639882419009 0  290.4754634535726 7.499119783469155 0  295.4754282077092 -0.0009037402153299499 0  295.4754635879982 7.499096313377659 0  300.4754282854215 -0.0009272522899414519 0  300.4754636785843 7.499072807026832 0  305.4754283237269 -0.0009508140255515777 0  305.4754637350499 7.499049246361738 0  310.4754283512553 -0.000974419917141359 0  310.4754637695328 7.499025625334837 0  5.475516925368872 15.00032609620236 0  0.4755168907098976 15.00034624849806 0  10.47551698635857 15.00030583179018 0  15.47551708748914 15.00028546106699 0  20.47551723847963 15.00026499398056 0  25.47551744747586 15.0002444456821 0  30.4755177220326 15.00022383607241 0  35.47551806938638 15.00020318910706 0  40.47551849643684 15.00018253231935 0  45.47551900961501 15.00016189668527 0  50.47551961470007 15.00014131684274 0  55.47552031658936 15.0001208316532 0  60.47552111900029 15.00010048510423 0  65.47552202407088 15.00008032757437 0  70.4755230318125 15.00006041750961 0  75.47552413936529 15.0000408235933 0  80.47552533999158 15.00002162752758 0  85.47552662174664 15.00000292758444 0  90.47552796576498 14.99998484312703 0  95.47552934414078 14.99996752033491 0  100.4755307174664 14.99995113936823 0  105.4755320323058 14.99993592311852 0  110.4755332192943 14.99992214739743 0  115.4755341933765 14.99991015166293 0  120.4755348591604 14.9999003476808 0  125.47553512685 14.99989321990766 0  130.475534948037 14.99988930404351 0  135.4755343854524 14.99988911569169 0  140.475533733856 14.99989297243857 0  145.4755336993943 14.99990059194667 0  150.4755355823021 14.99991018525576 0  165.4755426807024 14.99987604421852 0  160.4755452019893 14.99991957242993 0  170.4755367950197 14.99982908338905 0  175.4755296473827 14.99978252203542 0  180.4755226704508 14.99973820494926 0  185.4755165342208 14.99969667879475 0  190.4755114510547 14.99965789355491 0  195.4755074040606 14.99962157297976 0  200.4755042782672 14.99958738356167 0  205.4755019284732 14.99955500446193 0  210.4755002113634 14.99952415203045 0  215.4754989988212 14.99949458462245 0  220.4754981819 14.99946609960023 0  225.4754976704922 14.99943852783378 0  230.4754973912653 14.9994117279435 0  235.4754972851242 14.99938558112807 0  240.4754973047483 14.99935998680533 0  245.4754974124297 14.99933485904472 0  250.4754975782678 14.99931012368445 0  255.4754977787013 14.99928571601033 0  260.4754979953333 14.99926157888727 0  265.4754982139984 14.99923766125438 0  270.4754984240262 14.99921391691914 0  275.4754986176512 14.99919030360804 0  280.475498789533 14.99916678225201 0  285.475498936367 14.99914331650351 0  290.4754990565518 14.99911987249232 0  295.4754991499587 14.99909641881484 0  300.4754992178663 14.99907292667839 0  305.4754992632893 14.999049369886 0  310.4754992921085 14.99902572368766 0  5.475546975758127 22.5003263426713 0  0.4755469413658252 22.50034642949386 0  10.47554702747925 22.50030610040601 0  15.47554710694644 22.50028572932588 0  20.47554722021801 22.50026525228926 0  25.47554737087999 22.50024469176466 0  30.47554756116325 22.50022407146916 0  35.4755477924601 22.5002034171215 0  40.47554806545858 22.50018275685681 0  45.47554838005077 22.50016212159893 0  50.47554873510771 22.50014154553947 0  55.47554912816286 22.50012106679847 0  60.47554955501961 22.50010072831194 0  65.47555000928222 22.50008057898354 0  70.47555048180345 22.50006067513944 0  75.47555096004837 22.50004108233303 0  80.47555142738466 22.50002187754912 0  85.47555186234317 22.50000315185154 0  90.47555223794684 22.49998501349154 0  95.47555252130103 22.49996759142332 0  100.4755526738011 22.49995103902118 0  105.4755526525607 22.49993553748971 0  110.4755524140461 22.499921297887 0  115.4755519214225 22.499908559648 0  120.4755511577387 22.49989758170121 0  125.4755501475941 22.4998886192976 0  130.4755489897128 22.49988187505385 0  135.4755479004328 22.49987740632032 0  140.4755472603739 22.49987496434941 0  145.4755476376337 22.49987374182941 0  150.4755497224147 22.49987204852111 0  165.4755616632472 22.49983952639566 0  160.4755578715105 22.49987191266031 0  170.4755622495178 22.49980274953771 0  175.4755605819289 22.4997641880868 0  180.47555764733 22.49972562203161 0  185.4755542101364 22.49968806044987 0  190.4755507625698 22.49965196148371 0  195.4755475790181 22.49961745407991 0  200.4755447867605 22.49958449335909 0  205.4755424233103 22.49955295412872 0  210.4755404759844 22.49952268241327 0  215.4755389069672 22.49949352180369 0  220.4755376682443 22.49946532569304 0  225.4755367100068 22.49943796199114 0  230.4755359850453 22.49941131403913 0  235.4755354507888 22.49938527974349 0  240.4755350700113 22.4993597699882 0  245.4755348108257 22.49933470685562 0  250.4755346463232 22.49931002190614 0  255.475534554066 22.49928565462105 0  260.4755345155353 22.49926155104161 0  265.4755345155978 22.49923766260336 0  270.4755345420077 22.49921394515237 0  275.4755345849574 22.49919035812529 0  280.4755346366745 22.49916686387251 0  285.4755346910709 22.49914342709625 0  290.4755347434583 22.49912001435246 0  295.4755347903734 22.49
[...]
<PointData  Vectors="v"> 
<DataArray  type="Float64"  Name="v"  NumberOfComponents="3" format="ascii">3.3601824612455893e+00 6.6675065422809388e+00 0.0000000000000000e+00  3.8276653267848957e+00 6.0399984506052657e+00 0.0000000000000000e+00  3.3159068947397961e+00 5.3390393972367525e+00 0.0000000000000000e+00  2.9520683942685850e+00 6.1215688539132440e+00 0.0000000000000000e+00  4.3708152269421214e+00 6.3028846533235967e+00 0.0000000000000000e+00  3.7829260482108431e+00 5.4888799483550121e+00 0.0000000000000000e+00  4.8036032437845977e+00 6.8719706339340849e+00 0.0000000000000000e+00  4.3250203116331862e+00 6.2240268303486612e+00 0.0000000000000000e+00  5.1261476344891923e+00 6.7453840057129275e+00 0.0000000000000000e+00  4.7561411958290236e+00 6.2632319583882294e+00 0.0000000000000000e+00  5.5568102318359234e+00 7.0994462206095177e+00 0.0000000000000000e+00  5.0764373717816760e+00 6.4555115761743807e+00 0.0000000000000000e+00  5.8516352679957304e+00 6.9868636059143263e+00 0.0000000000000000e+00  5.5044329285943254e+00 6.5471024065901453e+00 0.0000000000000000e+00  5.8242152977064432e+00 6.4625691100053837e+00 0.0000000000000000e+00  5.7960942626098486e+00 6.5063884420150258e+00 0.0000000000000000e+00  6.5996834811771565e+00 7.0254367975162086e+00 0.0000000000000000e+00  5.7651826312635928e+00 5.8651885099027030e+00 0.0000000000000000e+00  4.6654453132671758e+00 3.5485344616937011e+00 0.0000000000000000e+00  6.5369391945242397e+00 6.4531306972464373e+00 0.0000000000000000e+00  1.3082840632252866e+01 1.5384038067874391e+01 0.0000000000000000e+00  4.5988093252285722e+00 2.7610194234831829e+00 0.0000000000000000e+00  1.3612560974814752e+01 1.5034127420003378e+01 0.0000000000000000e+00  1.3011734305985899e+01 1.4243329944712894e+01 0.0000000000000000e+00  1.3867370452319676e+01 1.4128362435237381e+01 0.0000000000000000e+00  1.3536955862282953e+01 1.3749503307223824e+01 0.0000000000000000e+00  1.4190944992535057e+01 1.3271674186719650e+01 0.0000000000000000e+00  1.3787517717826489e+01 1.2789774593371821e+01 0.0000000000000000e+00  1.4643332711060200e+01 1.2630376523296183e+01 0.0000000000000000e+00  1.4106747740281785e+01 1.1955115668903725e+01 0.0000000000000000e+00  1.5239901716419912e+01 1.2201026995282854e+01 0.0000000000000000e+00  1.4554960125984939e+01 1.1309667636340420e+01 0.0000000000000000e+00  1.5921611068765953e+01 1.1864741465486080e+01 0.0000000000000000e+00  1.5147210330390994e+01 1.0845246643847831e+01 0.0000000000000000e+00  1.6625443396839071e+01 1.1707089770565132e+01 0.0000000000000000e+00  1.5824729681053959e+01 1.0654156124087146e+01 0.0000000000000000e+00  1.7288642453912185e+01 1.1415889845876670e+01 0.0000000000000000e+00  1.6524986860968355e+01 1.0423511548604671e+01 0.0000000000000000e+00  1.7856542378494321e+01 1.1028432393590933e+01 0.0000000000000000e+00  1.7184922798685648e+01 1.0177956386165999e+01 0.0000000000000000e+00  1.8290502404014536e+01 1.0434610355989511e+01 0.0000000000000000e+00  1.7750575906407118e+01 9.7843060236889645e+00 0.0000000000000000e+00  1.8576426646465244e+01 9.6607361170355492e+00 0.0000000000000000e+00  1.8183394490988711e+01 9.2310748805032716e+00 0.0000000000000000e+00  1.8717035102970055e+01 8.3685249437400504e+00 0.0000000000000000e+00  1.8469885756396216e+01 8.1556005639309728e+00 0.0000000000000000e+00  1.8731124732648542e+01 7.2706712818040682e+00 0.0000000000000000e+00  1.8612119461701397e+01 7.2450884311419266e+00 0.0000000000000000e+00  1.8658214300643209e+01 5.2477270840475958e+00 0.0000000000000000e+00  1.8631408784875308e+01 5.3520864830180273e+00 0.0000000000000000e+00  1.8531607863651878e+01 3.9957071322635529e+00 0.0000000000000000e+00  1.8563813798565274e+01 4.1759230084550980e+00 0.0000000000000000e+00  1.8399320233360822e+01 1.4805993493610095e+00 0.0000000000000000e+00  1.8448723167890037e+01 1.6707386899593826e+00 0.0000000000000000e+00  1.8281987548700048e+01 5.6631065683360460e-01 0.0000000000000000e+00  1.8326049265615065e+01 7.2578753494521697e-01 0.0000000000000000e+00  1.8210704397185165e+01 -1.8196996746393834e+00 0.0000000000000000e+00  1.8228396787720509e+01 -1.7241797153534173e+00 0.0000000000000000e+00  1.8172538058273222e+01 -1.6715728323587475e+00 0.0000000000000000e+00  1.8171210156132851e+01 -1.6394311678048898e+00 0.0000000000000000e+00  1.8163563197786221e+01 5.1033572784101987e-11 0.0000000000000000e+00  1.8164429346786971e+01 8.6011389517309941e-04 0.0000000000000000e+00  1.8163563200132327e+01 -3.7582719565677874e-19 0.0000000000000000e+00  1.1542667161278525e+01 1.1128714657396233e-02 0.0000000000000000e+00  1.8177147241766097e+01 9.9386719046410956e+00 0.0000000000000000e+00  1.8164421975515420e+01 -8.7385471396322337e-04 0.0000000000000000e+00  1.2947493569360480e+01 -9.4294865728011379e-01 0.0000000000000000e+00  1.1559008259037942e+01 -3.0474346749533079e+00 0.0000000000000000e+00  1.1085594459003904e+01 -5.9967924754696220e+00 0.0000000000000000e+00  1.2965130840323914e+01 -3.2119009132409029e+00 0.0000000000000000e+00  1.0978808116495667e+01 -6.9638966192800442e+00 0.0000000000000000e+00  1.1107719376511865e+01 -6.8087952880383380e+00 0.0000000000000000e+00  1.0054898656363390e+01 -1.0017176629525364e+01 0.0000000000000000e+00  1.1008184811220012e+01 -8.6396318846612097e+00 0.0000000000000000e+00  9.4676159199006360e+00 -1.1169072773906924e+01 0.0000000000000000e+00  1.0093021398893120e+01 -1.0296920115309153e+01 0.0000000000000000e+00  8.7591905999788402e+00 -1.2350425843142180e+01 0.0000000000000000e+00  9.5154816860380436e+00 -1.1298249803906371e+01 0.0000000000000000e+00  8.1703117416368158e+00 -1.2540784750512389e+01 0.0000000000000000e+00  8.8184031286677733e+00 -1.1668133641493805e+01 0.0000000000000000e+00  7.3916352170331168e+00 -1.2493850888022299e+01 0.0000000000000000e+00  8.2416683493131053e+00 -1.1337713764973255e+01 0.0000000000000000e+00  6.8746424026953985e+00 -1.1726444858943097e+01 0.0000000000000000e+00  7.4758501692598065e+00 -1.0963333783721819e+01 0.0000000000000000e+00  6.4815621257451337e+00 -1.0807966994179681e+01 0.0000000000000000e+00  6.9725713174977173e+00 -1.0231217502699531e+01 0.0000000000000000e+00  6.0330007086259743e+00 -9.8661782267271221e+00 0.0000000000000000e+00  6.5937592049432823e+00 -9.2067112982139001e+00 0.0000000000000000e+00  5.5937797801504558e+00 -8.9221380247020861e+00 0.0000000000000000e+00  6.1598856452822170e+00 -8.2771039373643625e+00 0.0000000000000000e+00  5.1679088926143111e+00 -8.0768901263073776e+00 0.0000000000000000e+00  5.7358657013655829e+00 -7.4520902898445929e+00 0.0000000000000000e+00  4.7200221518645922e+00 -7.3036618817298837e+00 0.0000000000000000e+00  5.3255121146726099e+00 -6.6461223000838716e+00 0.0000000000000000e+00  4.2991571569926643e+00 -6.5599910533512187e+00 0.0000000000000000e+00  4.8933387190485540e+00 -5.9431553507698363e+00 0.0000000000000000e+00  3.9161588942707115e+00 -5.8905240397725480e+00 0.0000000000000000e+00  4.4884152016244521e+00 -5.3305406800230566e+00 0.0000000000000000e+00  3.5431065235636185e+00 -5.2605643924170877e+00 0.0000000000000000e+00  4.1214418081451090e+00 -4.7155870850434871e+00 0.0000000000000000e+00  3.2033011472355302e+00 -4.6464277149134654e+00 0.0000000000000000e+00  3.7644522618304008e+00 -4.1513095203645101e+00 0.0000000000000000e+00  2.9088024893661637e+00 -4.0911997317927726e+00 0.0000000000000000e+00  3.4406866360461263e+00 -3.6640257343714637e+00 0.0000000000000000e+00  2.6277767362970277e+00 -3.5228411914402500e+00 0.0000000000000000e+00  3.1622407903006975e+00 -3.1157502951342457e+00 0.0000000000000000e+00  2.3790103144344563e+00 -3.0339488573269722e+00 0.0000000000000000e+00  2.8970461411250747e+00 -2.6752809597778096e+00 0.0000000000000000e+00  2.1578715875380738e+00 -2.5008106155595273e+00 0.0000000000000000e+00  2.6642013177101980e+00 -2.1832448157079964e+00 0.0000000000000000e+00  1.9512382104204611e+00 -2.1522590301198776e+00 0.0000000000000000e+00  2.4584848467065568e+00 -1.8566960049992556e+00 0.0000000000000000e+00  1.7504851476027217e+00 -1.6035351921121794e+00 0.0000000000000000e+00  2.2677160915250547e+00 -1.3160031616895775e+00 0.0000000000000000e+00  1.5510425892760955e+00 -1.5715416445099322e+00 0.0000000000000000e+00  2.0816111687884860e+00 -1.2869333558580289e+00 0.0000000000000000e+00  1.3348452586875184e+00 -9.1917801319927472e-01 0.0000000000000000e+00  1.8983639094517166e+00 -6.0743748574471335e-01 0.0000000000000000e+00  1.0167705098810136e+00 -1.4607162157136953e+00 0.0000000000000000e+00  1.6953005362014726e+00 -9.9912351591213799e-01 0.0000000000000000e+00  5.0500734430044036e-01 -1.2335376054203497e+00 0.0000000000000000e+00  1.3953742660577628e+00 -4.7583122483316359e-01 0.0000000000000000e+00  -6.9794114997609902e-01 -1.8339577611762528e-01 0.0000000000000000e+00  8.9087495719293464e-01 1.6003291574772238e+00 0.0000000000000000e+00  3.0458973552218400e+00 4.7935391005430734e+00 0.0000000000000000e+00  2.6386204103640769e+00 5.5102187474605691e+00 0.0000000000000000e+00  3.4090234479786696e+00 4.7892532650663568e+00 0.0000000000000000e+00  3.8741349083463672e+00 5.4124708634212233e+00 0.0000000000000000e+00  4.4131260035990652e+00 5.6188805778907502e+00 0.0000000000000000e+00  4.8399009941360118e+00 5.9782109577679030e+00 0.0000000000000000e+00  5.1545588302803838e+00 5.9088464938188885e+00 0.0000000000000000e+00  5.5758195120722363e+00 6.0732427636321171e+00 0.0000000000000000e+00  5.8598194945645821e+00 5.9164988435678421e+00 0.0000000000000000e+00  5.8204713624805446e+00 5.3004593584839137e+00 0.0000000000000000e+00  6.5838579940254656e+00 5.6729321353039301e+00 0.0000000000000000e+00  4.6372275287562745e+00 1.6300456909279766e+00 0.0000000000000000e+00  1.3038968112390984e+01 1.2968537232711604e+01 0.0000000000000000e+00  1.3553281521466968e+01 1.2419216029888240e+01 0.0000000000000000e+00  1.3794673331197101e+01 1.1482108777102953e+01 0.0000000000000000e+00  1.4104291285048784e+01 1.0642795890837892e+01 0.0000000000000000e+00  1.4542755426696402e+01 9.9630434307598730e+00 0.0000000000000000e+00  1.5124378514335200e+01 9.6445954202982946e+00 0.0000000000000000e+00  1.5790490479766447e+01 9.3797294118424563e+00 0.0000000000000000e+00  1.6479169434717086e+01 9.1947959717045578e+00 0.0000000000000000e+00  1.7127525368679144e+01 8.9427951259685710e+00 0.0000000000000000e+00  1.7681773998546472e+01 8.5874571864880291e+00 0.0000000000000000e+00  1.8104764819505398e+01 7.7311947003395103e+00 0.0000000000000000e+00  1.8382913180573173e+01 7.0351548284384604e+00 0.0000000000000000e+00  1.8519679527688641e+01 5.3252829268868691e+00 0.0000000000000000e+00  1.8536761720226753e+01 4.2751642840152924e+00 0.0000000000000000e+00  1.8472669805477150e+01 1.8417054996165936e+00 0.0000000000000000e+00  1.8364610112017221e+01 8.9730747112171194e-01 0.0000000000000000e+00  1.8260534201244209e+01 -1.5831031703577090e+00 0.0000000000000000e+00  1.8182348849084114e+01 -1.5832949191672490e+00 0.0000000000000000e+00  1.8166525159655123e+01 1.6410140838112350e-03 0.0000000000000000e+00  1.8181391772655619e+01 9.8799017503715607e+00 0.0000000000000000e+00  1.8166511491117500e+01 -1.7683868844135849e-03 0.0000000000000000e+00  1.8237897175741654e+01 6.8786015443472301e+00 0.0000000000000000e+00  1.1610412151267210e+01 -5.3125411553900266e+00 0.0000000000000000e+00  1.3007650439628470e+01 -4.0219438839895290e+00 0.0000000000000000e+00  1.1150695451133860e+01 -8.4919369410684826e+00 0.0000000000000000e+00  1.1054895722576122e+01 -8.9288038821132822e+00 0.0000000000000000e+00  1.0147313816640443e+01 -1.0435881307422235e+01 0.0000000000000000e+00  9.5778556147418108e+00 -1.0628663219790877e+01 0.0000000000000000e+00  8.8909325806411861e+00 -1.0478976499287530e+01 0.0000000000000000e+00  8.3250436514226962e+00 -9.8212244881261501e+00 0.0000000000000000e+00  7.5707418577285885e+00 -9.4835684788472818e+00 0.0000000000000000e+00  7.0797212775809353e+00 -8.6462201662974785e+00 0.0000000000000000e+00  6.7138434952806518e+00 -7.6340844399178831e+00 0.0000000000000000e+00  6.2933067420479398e+00 -6.8243729308838770e+00 0.0000000000000000e+00  5.8832511488108583e+00 -6.0392033067051072e+00 0.0000000000000000e+00  5.4873163154312730e+00 -5.3035784334609559e+00 0.0000000000000000e+00  5.0697930776894609e+00 -4.7320465797436615e+00 0.0000000000000000e+00  4.6797424081459500e+00 -4.1741260209282585e+00 0.0000000000000000e+00  4.3277470134532443e+00 -3.6247205841240633e+00 0.0000000000000000e+00  3.9856448598640037e+00 -3.1872987187303128e+00 0.0000000000000000e+00  3.6766866427208815e+00 -2.7068593530352292e+00 0.0000000000000000e+00  3.4128300122165909e+00 -2.2861813348235378e+00 0.0000000000000000e+00  3.1619863929391396e+00 -1.8423437590767056e+00 0.0000000000000000e+00  2.9430952544836737e+00 -1.5565728665500347e+00 0.0000000000000000e+00  2.7511157733551381e+00 -1.0375717453737596e+00 0.0000000000000000e+00  2.5734251932354471e+00 -1.0161340746878440e+00 0.0000000000000000e+00  2.4004609551635179e+00 -3.3911851723628378e-01 0.0000000000000000e+00  2.2290934606579986e+00 -7.0356026964056129e-01 0.0000000000000000e+00  2.0389164937361972e+00 -3.0518921782430649e-02 0.0000000000000000e+00  1.7497546055231010e+00 2.3473212019261425e+00 0.0000000000000000e+00  2.9501263359714414e+00 4.1831897723916036e+00 0.0000000000000000e+00  2.5788233792108519e+00 4.9526096653208000e+00 0.0000000000000000e+00  3.3563298380377820e+00 4.2460447140432471e+00 0.0000000000000000e+00  3.7168673893089723e+00 4.7175668895417155e+00 0.0000000000000000e+00  4.1775619939798148e+00 4.8148992718841575e+00 0.0000000000000000e+00  4.7096673810241292e+00 5.3442662029844366e+00 0.0000000000000000e+00  5.1270751220579580e+00 5.4448182842732953e+00 0.0000000000000000e+00  5.4299565737473303e+00 5.4510301947615680e+00 0.0000000000000000e+00  5.8370923345898476e+00 5.5014860911786130e+00 0.0000000000000000e+00  6.1052348971493151e+00 5.3712326677104016e+00 0.0000000000000000e+00  6.0493916050221621e+00 4.5394311479497746e+00 0.0000000000000000e+00  6.7968975321538405e+00 4.5617020778212840e+00 0.0000000000000000e+00  4.8326652939734425e+00 3.8116040017379271e-01 0.0000000000000000e+00  1.3212083623245279e+01 1.1663554611656782e+01 0.0000000000000000e+00  1.3705715157447324e+01 1.1132143141332614e+01 0.0000000000000000e+00  1.3930072864814603e+01 1.0190935456777684e+01 0.0000000000000000e+00  1.4222235214110198e+01 9.3187404502396198e+00 0.0000000000000000e+00  1.4641458499188550e+01 8.7870187717510237e+00 0.0000000000000000e+00  1.5201338814652498e+01 8.3968944942277126e+00 0.0000000000000000e+00  1.5843543856359551e+01 8.1795083847176535e+00 0.0000000000000000e+00  1.6506085639039640e+01 7.9886340315427100e+00 0.0000000000000000e+00  1.7126922546666769e+01 7.7744018608980410e+00 0.0000000000000000e+00  1.7653770017925378e+01 7.1148466205653147e+00 0.0000000000000000e+00  1.8049802974806237e+01 6.6331058328222881e+00 0.0000000000000000e+00  1.8304418010812697e+01 5.1336987758180284e+00 0.0000000000000000e+00  1.8421421633625286e+01 4.2559678792906555e+00 0.0000000000000000e+00  1.8427596814623733e+01 1.9416794532288078e+00 0.0000000000000000e+00  1.8359897108188218e+01 1.0469245013559081e+00 0.0000000000000000e+00  1.8266803077481892e+01 -1.4361989250189331e+00 0.0000000000000000e+00  1.8185124183488302e+01 -1.5149355609280868e+00 0.0000000000000000e+00  1.8169797056630394e+01 2.3476956821378596e-03 0.0000000000000000e+00  1.8175875904766237e+01 9.8277095671968286e+00 0.0000000000000000e+00  1.8169784481109328e+01 -2.5586340763481966e-03 0.0000000000000000e+00  1.8231520007488697e+01 6.7846634691966745e+00 0.0000000000000000e+00  1.8284630396265449e+01 4.6425856537384673e+00 0.0000000000000000e+00  1.1638373036440843e+01 -6.1059110221198880e+00 0.0000000000000000e+00  1.3022433797912829e+01 -5.7078509016275207e+00 0.0000000000000000e+00  1.1167707250346888e+01 -8.7894855683342552e+00 0.0000000000000000e+00  1.1080196668133675e+01 -9.0842514774107901e+00 0.0000000000000000e+00  1.0184961521793435e+01 -9.7844498245910287e+00 0.0000000000000000e+00  9.6291888740806861e+00 -9.4602757814551026e+00 0.0000000000000000e+00  8.9575757624333381e+00 -8.9846114401558879e+00 0.0000000000000000e+00  8.4073207143501154e+00 -8.3650687916975741e+00 0.0000000000000000e+00  7.6695343544441954e+00 -7.9230668650570690e+00 0.0000000000000000e+00  7.1956865859009129e+00 -7.0993630126096168e+00 0.0000000000000000e+00  6.8475988771212615e+00 -6.2081866968392951e+00 0.0000000000000000e+00  6.4456707085434681e+00 -5.4393510904524689e+00 0.0000000000000000e+00  6.0550875321852891e+00 -4.7254805343401012e+00 0.0000000000000000e+00  5.6792317325375343e+00 -4.1219101947330410e+00 0.0000000000000000e+00  5.2822486835325657e+00 -3.6053904918036968e+00 0.0000000000000000e+00  4.9129992823219153e+00 -3.1131436537182751e+00 0.0000000000000000e+00  4.5817785086407348e+00 -2.6904886951896527e+00 0.0000000000000000e+00  4.2602985007992515e+00 -2.2594764667463068e+00 0.0000000000000000e+00  3.9715737902553805e+00 -1.9062596293250418e+00 0.0000000000000000e+00  3.7275312925447999e+00 -1.4813243665478883e+00 0.0000000000000000e+00  3.4957089794188367e+00 -1.2433085371482735e+00 0.0000000000000000e+00  3.2953948172920993e+00 -7.6359254858991688e-01 0.0000000000000000e+00  3.1207483731845000e+00 -7.6394125442969518e-01 0.0000000000000000e+00  2.9602896284359170e+00 -9.1724024427944681e-02 0.0000000000000000e+00  2.8023423484401255e+00 -4.6098866867493821e-01 0.0000000000000000e+00  2.6479316252845209e+00 2.4574856900102970e-01 0.0000000000000000e+00  2.4682600038763729e+00 2.7659528897079126e+00 0.0000000000000000e+00  3.1253104503132345e+00 3.6269241066360025e+00 0.0000000000000000e+00  2.7796166372510749e+00 4.4331798699501839e+00 0.0000000000000000e+00  3.4954383849640811e+00 3.6382796569648121e+00 0.0000000000000000e+00  3.8990959651001065e+00 4.1794504114866173e+00 0.0000000000000000e+00  4.2554419280888425e+00 4.1282495252125937e+00 0.0000000000000000e+00  4.7093119503065912e+00 4.5527186785794447e+00 0.0000000000000000e+00  5.2314376668537257e+00 4.8278721852459769e+00 0.0000000000000000e+00  5.6352573225239615e+00 5.0083380158502022e+00 0.0000000000000000e+00  5.9210539777179632e+00 4.9046855678902297e+00 0.0000000000000000e+00  6.3081745005711385e+00 4.9845596378914623e+00 0.0000000000000000e+00  6.5546442362155668e+00 4.6387019469305368e+00 0.0000000000000000e+00  6.4771971591437651e+00 3.4555157092712916e+00 0.0000000000000000e+00  7.2039748060327931e+00 3.3438435679033920e+00 0.0000000000000000e+00  5.2156850088142779e+00 -8.8478718714887605e-01 0.0000000000000000e+00  1.3565581991517249e+01 1.0411560141135880e+01 0.0000000000000000e+00  1.4034050416188727e+01 9.8689764554402615e+00 0.0000000000000000e+00  1.4238461750016674e+01 8.8957950829063197e+00 0.0000000000000000e+00  1.4509238063907215e+01 8.1753948832519363e+00 0.0000000000000000e+00  1.4903758715226383e+01 7.5780867683675703e+00 0.0000000000000000e+00  1.5433469148534041e+01 7.2403791622182627e+00 0.0000000000000000e+00  1.6040394687477391e+01 7.0226435883356970e+00 0.0000000000000000e+00  1.6662878109546305e+01 6.8735841052957189e+00 0.0000000000000000e+00  1.7239830542279837e+01 6.3569011371302206e+00 0.0000000000000000e+00  1.7720276556949315e+01 6.0709652212488106e+00 0.0000000000000000e+00  1.8070793854107141e+01 4.7835250186319769e+00 0.0000000000000000e+00  1.8281648890695788e+01 4.1053017629408375e+00 0.0000000000000000e+00  1.8363926711205533e+01 1.9544904246477430e+00 0.0000000000000000e+00  1.8343877796728403e+01 1.1514144468574965e+00 0.0000000000000000e+00  1.8273488893025771e+01 -1.2942605004471326e+00 0.0000000000000000e+00  1.8191997183171445e+01 -1.4395167418328474e+00 0.0000000000000000e+00  1.8174118420494302e+01 2.9769755494193769e-03 0.0000000000000000e+00  1.8176365005313912e+01 9.8073920093397167e+00 0.0000000000000000e+00  1.8174106420865449e+01 -3.2573837885274261e-03 0.0000000000000000e+00  1.8190006298403556e+01 6.7023976367917335e+00 0.0000000000000000e+00  1.8236017462730370e+01 4.5672231