<?xml version="1.0"?>
<VTKFile type="UnstructuredGrid"  version="0.1"  >
<UnstructuredGrid>
<Piece  NumberOfPoints="1933" NumberOfCells="3640">
<Points>
<DataArray  type="Float64"  NumberOfComponents="3"  format="ascii">0.4754603273054037 0.0002062206484984492 0  5.475460349429881 0.000186602992809591 0  5.47548980506026 7.500186676021541 0  0.4754897601684323 7.500206253971387 0  10.4754603767765 0.0001669165996378227 0  10.47548988793084 7.500167003864505 0  15.47546044596742 0.0001471250740068654 0  15.47549002940328 7.500147216672208 0  20.47546059791009 0.000127223390209366 0  20.47549024985431 7.500127315629497 0  25.47546087135594 0.0001072254045314707 0  25.47549056965973 7.500107317267829 0  30.47546130129921 8.715690226796511e-05 0  30.47549100871522 7.500087248555906 0  35.47546191925288 6.705171465842949e-05 0  35.47549158608654 7.500067143847433 0  40.47546275418508 4.694971576236183e-05 0  40.47549231989092 7.500047043246814 0  45.47546383361524 2.689604469453257e-05 0  45.47549322733714 7.500026992002705 0  50.47546518467697 6.941183255680704e-06 0  50.47549432482936 7.500007040666556 0  55.47546683508352 -1.285830831622469e-05 0  55.47549562805227 7.499987245866281 0  60.47546881398253 -3.243847980537444e-05 0  60.47549715196873 7.499967671633677 0  65.47547115270318 -5.172610059437266e-05 0  65.47549891065907 7.499948391297251 0  70.47547388538814 -7.063611309026936e-05 0  70.47550091692429 7.499929490018411 0  75.47547704949004 -8.906827568988464e-05 0  75.47550318154656 7.49991106811833 0  80.47548068606595 -0.00010690274710247 0  80.47550571205586 7.499893245426166 0  85.47548483975005 -0.000123994236368896 0  85.47550851078654 7.499876166986298 0  90.47548955815553 -0.0001401641584273786 0  90.47551157190362 7.499860010607074 0  95.47549489026612 -0.0001551899585320288 0  95.47551487694309 7.499844996929612 0  100.4755008829792 -0.0001687903465029141 0  100.4755183882302 7.499831402954376 0  105.4755075742594 -0.0001806045324190142 0  105.4755220393366 7.499819580284055 0  110.4755149799938 -0.0001901625606851328 0  110.4755257215906 7.499809979671229 0  115.4755230690441 -0.000196842344675525 0  115.4755292658106 7.499803183626531 0  120.4755317159727 -0.0001998068599310895 0  120.4755324194718 7.499799948356087 0  125.4755406111885 -0.0001979122084958978 0  125.4755348229475 7.499801253958129 0  130.4755490892829 -0.0001895748923512426 0  130.4755359976624 7.499808354884141 0  135.4755557990821 -0.000172589316991464 0  135.4755353817804 7.499822805632252 0  140.4755580644283 -0.0001439145519625482 0  140.4755325033511 7.499846401423387 0  145.4755506277355 -9.959515335306157e-05 0  145.4755275108637 7.499880927665673 0  150.4755230898183 -3.570481210785801e-05 0  150.4755226145848 7.499927719020875 0  160.4755282581474 1.516522216321656e-18 0  165.4754557479416 -0.0001064030503770933 0  165.4755153801476 7.49987653474266 0  160.4755355721154 7.499959252095935 0  170.4754184007301 -0.0001935708645551385 0  170.4754947270386 7.499797929051699 0  175.4753994142371 -0.0002671552169749613 0  175.4754781140545 7.499728218402789 0  180.4753903712271 -0.0003303558243780264 0  180.4754659395039 7.499667006437194 0  185.4753868273498 -0.0003855300162438461 0  185.4754575141051 7.499612919966424 0  190.4753863596021 -0.0004344795596688482 0  190.475451978154 7.499564587794602 0  195.4753876129725 -0.0004785707921069453 0  195.4754485738768 7.499520857231253 0  200.4753898113277 -0.0005188341183333532 0  200.4754467032138 7.499480810510334 0  205.4753924994955 -0.0005560484458979407 0  205.4754459162046 7.499443729998473 0  210.4753954044499 -0.0005908075407091315 0  210.4754458817287 7.499409055982361 0  215.4753983591187 -0.0006235695102511664 0  215.4754463583964 7.499376349654082 0  220.4754012596669 -0.0006546927186808795 0  220.4754471707059 7.499345263819492 0  225.4754040409844 -0.0006844615887548643 0  225.4754481909618 7.499315520672942 0  230.4754066622684 -0.0007131051465455475 0  230.4754493260618 7.499286895210475 0  235.4754090983278 -0.000740810445850892 0  235.4754505080062 7.499259202892683 0  240.4754113342104 -0.0007677323961761932 0  240.4754516871305 7.499232290430955 0  245.4754133618247 -0.0007940010563719243 0  245.4754528272898 7.499206028848389 0  250.4754151777855 -0.0008197271271548878 0  250.4754539024303 7.499180308197384 0  255.4754167820597 -0.0008450061472124363 0  255.4754548941592 7.499155033492806 0  260.4754181771403 -0.0008699217392012197 0  260.4754557900208 7.499130121549475 0  265.4754193676202 -0.000894548139965845 0  265.4754565822978 7.499105498509434 0  270.4754203600638 -0.0009189521657209916 0  270.4754572671969 7.499081097918412 0  275.4754211631621 -0.0009431946931965151 0  275.4754578443152 7.499056859273242 0  280.4754217881431 -0.0009673316680296137 0  280.4754583163158 7.499032727021412 0  285.4754222494612 -0.0009914145655503716 0  285.4754586887388 7.499008650060848 0  290.4754225657372 -0.001015490101981175 0  290.4754589698755 7.498984581872172 0  295.4754227609051 -0.001039598785061503 0  295.4754591706482 7.498960481526884 0  300.4754228653074 -0.001063771529985594 0  300.4754593044489 7.498936315959527 0  305.4754229160479 -0.001088022927306466 0  305.4754593870875 7.498912064058315 0  310.4754229548252 -0.001112338685398834 0  310.4754594375339 7.498887723297969 0  5.475519039366815 15.00018684591346 0  0.4755189898558654 15.00020633724208 0  10.47551912350399 15.00016720140127 0  15.47551926020999 15.00014741620572 0  20.47551946174772 15.00012750777336 0  25.47551973811799 15.00010750021535 0  30.47552009834531 15.00008742382642 0  35.47552055079635 15.00006731424698 0  40.4755211031051 15.00004721191473 0  45.47552176194421 15.00002716197849 0  50.4755225327195 15.0000072146911 0  55.4755234191914 14.99998742626658 0  60.47552442298917 14.99996786020206 0  65.47552554297003 14.99994858909691 0  70.47552677435763 14.99992969703977 0  75.47552810758934 14.99991128267853 0  80.4755295267869 14.99989346313644 0  85.47553100776844 14.99987637898938 0  90.4755325155334 14.99986020057069 0  95.47553400121789 14.99984513590136 0  100.4755353986661 14.99983144051771 0  105.475536621107 14.99981942929479 0  110.4755375590829 14.99980948985614 0  115.4755380820478 14.99980209594082 0  120.4755380482927 14.99979781642641 0  125.4755373315826 14.99979731017282 0  130.4755358784919 14.99980128585164 0  135.4755338172392 14.99981038470178 0  140.4755316423908 14.99982490346695 0  145.4755304830773 14.99984419083582 0  150.4755323664009 14.99986532497988 0  165.4755453926059 14.99983022617563 0  160.4755479884583 14.99988636197363 0  170.4755380707957 14.99977030698885 0  175.4755290490016 14.99971184826786 0  180.4755202946173 14.99965720486815 0  185.4755127008027 14.99960695487343 0  190.4755065323337 14.99956088919439 0  195.4755017457633 14.99951852000021 0  200.4754981701606 14.99947930722536 0  205.4754955990953 14.99944274870209 0  210.4754938332037 14.99940840881998 0  215.4754926970809 14.99937592121007 0  220.4754920436378 14.99934498165852 0  225.475491752841 14.99931533834933 0  230.4754917283148 14.99928678233059 0  235.4754918934745 14.9992591392103 0  240.4754921879001 14.99923226228037 0  245.4754925642156 14.99920602695529 0  250.4754929855238 14.99918032631886 0  255.4754934233467 14.99915506756749 0  260.4754938559989 14.99913016917035 0  265.4754942673092 14.99910555860366 0  270.4754946456219 14.99908117055708 0  275.4754949830062 14.99905694554526 0  280.4754952746167 14.99903282889063 0  285.4754955181818 14.99900877007174 0  290.4754957135759 14.99898472244647 0  295.4754958625447 14.99896064334182 0  300.4754959686952 14.99893649439723 0  305.4754960380923 14.99891224171907 0  310.4754960810949 14.99888785450256 0  5.475548036836074 22.50018719135695 0  0.4755479881292963 22.50020660545708 0  10.47554810710161 22.50016756848268 0  15.4755482118646 22.50014777660692 0  20.47554835828565 22.50012784994767 0  25.47554855019142 22.50010782193353 0  30.47554878951176 22.5000877275423 0  35.47554907691616 22.50006760440449 0  40.47554941194213 22.50004749343527 0  45.47554979282438 22.50002743940471 0  50.4755502161483 22.50000749165147 0  55.47555067638172 22.49998770504221 0  60.47555116530626 22.49996814123764 0  65.4755516713478 22.49994887031486 0  70.47555217880064 22.49992997279758 0  75.47555266695331 22.49991154215273 0  80.47555310914153 22.49989368781226 0  85.47555347181179 22.49987653876339 0  90.47555371376201 22.49986024770023 0  95.47555378588041 22.49984499561174 0  100.4755536319451 22.49983099643379 0  105.4755531914338 22.49981850092052 0  110.4755524058517 22.49980779801027 0  115.4755512308516 22.4997992104052 0  120.4755496572883 22.49979307842386 0  125.4755477449971 22.49978972187032 0  130.4755456725212 22.49978936314752 0  135.47554380201 22.4997919862392 0  140.4755427464594 22.49979709833566 0  145.475543398013 22.49980336640022 0  150.4755468199142 22.49980817100058 0  165.4755656009009 22.49977850617489 0  160.4755602434721 22.49981786544109 0  170.4755664755977 22.49973349043828 0  175.4755642601455 22.49968651848664 0  180.4755603539434 22.49964002848336 0  185.4755558150661 22.49959534200238 0  190.4755513105441 22.49955301022208 0  195.4755472024125 22.49951313694516 0  200.4755436504661 22.49947559806698 0  205.4755406933721 22.49944017084455 0  210.4755383037071 22.49940660351363 0  215.4755364222883 22.49937464974565 0  220.4755349782863 22.49934408372861 0  225.4755339002874 22.49931470513785 0  230.4755331218802 22.49928633915617 0  235.4755325840722 22.49925883430038 0  240.4755322359538 22.49923205946956 0  245.4755320344534 22.49920590090395 0  250.4755319436626 22.49918025936095 0  255.4755319340087 22.49915504762299 0  260.4755319813982 22.49913018835895 0  265.475532066417 22.49910561232092 0  270.4755321735965 22.49908125684487 0  275.4755322907656 22.49905706462003 0  280.4755324084782 22.49903298269153 0  285.4755325195295 22.49900896164966 0  290.4755326185835 22.49898495492668 0  
[...]
<PointData  Vectors="v"> 
<DataArray  type="Float64"  Name="v"  NumberOfComponents="3" format="ascii">3.3599464635161005e+00 6.6674418230160279e+00 0.0000000000000000e+00  3.8274500368348154e+00 6.0407568597873000e+00 0.0000000000000000e+00  3.3156763260985476e+00 5.3397667887003974e+00 0.0000000000000000e+00  2.9518495145147532e+00 6.1215217571914042e+00 0.0000000000000000e+00  4.3706669438780565e+00 6.3039469669174206e+00 0.0000000000000000e+00  3.7827160967402786e+00 5.4898416251925930e+00 0.0000000000000000e+00  4.8035163441173676e+00 6.8729594670970924e+00 0.0000000000000000e+00  4.3248773173359414e+00 6.2249234274740752e+00 0.0000000000000000e+00  5.1261085125394015e+00 6.7465468188420701e+00 0.0000000000000000e+00  4.7560596546934732e+00 6.2643230850604503e+00 0.0000000000000000e+00  5.5568457707119983e+00 7.1006612438574672e+00 0.0000000000000000e+00  5.0764035770860740e+00 6.4566144964605376e+00 0.0000000000000000e+00  5.8517113787171393e+00 6.9881712167945880e+00 0.0000000000000000e+00  5.5044738326191878e+00 6.5483491479947835e+00 0.0000000000000000e+00  5.8242762207917771e+00 6.4638127157744387e+00 0.0000000000000000e+00  5.7961757356054902e+00 6.5076549207119374e+00 0.0000000000000000e+00  6.5997748255709610e+00 7.0267328078021718e+00 0.0000000000000000e+00  5.7652489361780201e+00 5.8664387284070161e+00 0.0000000000000000e+00  4.6656046584567061e+00 3.5498979801080339e+00 0.0000000000000000e+00  6.5370359186378062e+00 6.4543930061703794e+00 0.0000000000000000e+00  1.3082833326967007e+01 1.5385138597280134e+01 0.0000000000000000e+00  4.5989741088842733e+00 2.7623669810609863e+00 0.0000000000000000e+00  1.3612552797519816e+01 1.5035270684862885e+01 0.0000000000000000e+00  1.3011732342271287e+01 1.4244474583362262e+01 0.0000000000000000e+00  1.3867361600692677e+01 1.4129547297234780e+01 0.0000000000000000e+00  1.3536953042850129e+01 1.3750689419585264e+01 0.0000000000000000e+00  1.4190935742510346e+01 1.3272878758911665e+01 0.0000000000000000e+00  1.3787514231465812e+01 1.2790980019031334e+01 0.0000000000000000e+00  1.4643323321230993e+01 1.2631616698037279e+01 0.0000000000000000e+00  1.4106743841681100e+01 1.1956356264980625e+01 0.0000000000000000e+00  1.5239892424180345e+01 1.2202277055607402e+01 0.0000000000000000e+00  1.4554956067215734e+01 1.1310917699671883e+01 0.0000000000000000e+00  1.5921602074598537e+01 1.1865979254471851e+01 0.0000000000000000e+00  1.5147206339405791e+01 1.0846484105511200e+01 0.0000000000000000e+00  1.6625434801550146e+01 1.1708330300305924e+01 0.0000000000000000e+00  1.5824725880450096e+01 1.0655396080087156e+01 0.0000000000000000e+00  1.7288634359359477e+01 1.1417124130182883e+01 0.0000000000000000e+00  1.6524983408526928e+01 1.0424745188075143e+01 0.0000000000000000e+00  1.7856534755873767e+01 1.1029640775645266e+01 0.0000000000000000e+00  1.7184919732895594e+01 1.0179164253629724e+01 0.0000000000000000e+00  1.8290495159573968e+01 1.0435847353030070e+01 0.0000000000000000e+00  1.7750573215373251e+01 9.7855428761047403e+00 0.0000000000000000e+00  1.8576419573191966e+01 9.6619809427814420e+00 0.0000000000000000e+00  1.8183392057725168e+01 9.2323201674744624e+00 0.0000000000000000e+00  1.8717028173928863e+01 8.3698250208324367e+00 0.0000000000000000e+00  1.8469883643388258e+01 8.1569020049137482e+00 0.0000000000000000e+00  1.8731117321297177e+01 7.2720239062971972e+00 0.0000000000000000e+00  1.8612117109812814e+01 7.2464434047024611e+00 0.0000000000000000e+00  1.8658207145716123e+01 5.2492762108709643e+00 0.0000000000000000e+00  1.8631406799446541e+01 5.3536389775065416e+00 0.0000000000000000e+00  1.8531599687184620e+01 3.9973173255784458e+00 0.0000000000000000e+00  1.8563811053072367e+01 4.1775375110751725e+00 0.0000000000000000e+00  1.8399313762557206e+01 1.4826206391849097e+00 0.0000000000000000e+00  1.8448721377549251e+01 1.6727639894610933e+00 0.0000000000000000e+00  1.8281979992725248e+01 5.6846906649467177e-01 0.0000000000000000e+00  1.8326046575246043e+01 7.2795028135788165e-01 0.0000000000000000e+00  1.8210702346728066e+01 -1.8170839346266203e+00 0.0000000000000000e+00  1.8228396117447090e+01 -1.7215650552322446e+00 0.0000000000000000e+00  1.8172538435185320e+01 -1.6679512135739500e+00 0.0000000000000000e+00  1.8171210109232945e+01 -1.6358135771663085e+00 0.0000000000000000e+00  1.8163563196626491e+01 7.6562027641009378e-11 0.0000000000000000e+00  1.8164429338711798e+01 8.6010980884053542e-04 0.0000000000000000e+00  1.8163563200146225e+01 -6.1018304807997156e-19 0.0000000000000000e+00  1.1542843440526292e+01 6.6818530729709519e-03 0.0000000000000000e+00  1.8177149310719695e+01 9.9339499301496978e+00 0.0000000000000000e+00  1.8164421968121779e+01 -8.7385145617254931e-04 0.0000000000000000e+00  1.2947694738132416e+01 -9.4284875246647082e-01 0.0000000000000000e+00  1.1559154624430775e+01 -3.0473719356351876e+00 0.0000000000000000e+00  1.1085693677966427e+01 -5.9964576394166702e+00 0.0000000000000000e+00  1.2965304104946618e+01 -3.2114349762504881e+00 0.0000000000000000e+00  1.0978989202677436e+01 -6.9623992034089630e+00 0.0000000000000000e+00  1.1107794887993055e+01 -6.8074239928654752e+00 0.0000000000000000e+00  1.0055085548993693e+01 -1.0015496575478744e+01 0.0000000000000000e+00  1.1008340823489876e+01 -8.6379705630190227e+00 0.0000000000000000e+00  9.4678345153141734e+00 -1.1167156074089675e+01 0.0000000000000000e+00  1.0093186274391247e+01 -1.0295054881952577e+01 0.0000000000000000e+00  8.7594364247044947e+00 -1.2348394795552469e+01 0.0000000000000000e+00  9.5156790088661509e+00 -1.1296263241431443e+01 0.0000000000000000e+00  8.1705980758494743e+00 -1.2538755500587476e+01 0.0000000000000000e+00  8.8186291731578876e+00 -1.1666166642022299e+01 0.0000000000000000e+00  7.3919620793182164e+00 -1.2491880372122115e+01 0.0000000000000000e+00  8.2419358616470486e+00 -1.1335805324078200e+01 0.0000000000000000e+00  6.8749894062908394e+00 -1.1724550083513819e+01 0.0000000000000000e+00  7.4761589488004798e+00 -1.0961469297838931e+01 0.0000000000000000e+00  6.4818831849595018e+00 -1.0806235301684575e+01 0.0000000000000000e+00  6.9729005699876927e+00 -1.0229446742406866e+01 0.0000000000000000e+00  6.0333040839690160e+00 -9.8645895666070800e+00 0.0000000000000000e+00  6.5940628756342958e+00 -9.2050960547328415e+00 0.0000000000000000e+00  5.5940697387539080e+00 -8.9206773608278702e+00 0.0000000000000000e+00  6.1601719178918115e+00 -8.2756231243910960e+00 0.0000000000000000e+00  5.1681890763395471e+00 -8.0755317276472915e+00 0.0000000000000000e+00  5.7361387782763691e+00 -7.4507172830102091e+00 0.0000000000000000e+00  4.7202938458752852e+00 -7.3024100374398468e+00 0.0000000000000000e+00  5.3257756556782958e+00 -6.6448578405561696e+00 0.0000000000000000e+00  4.2994231767030602e+00 -6.5588308361484042e+00 0.0000000000000000e+00  4.8935939897689842e+00 -5.9419867456426330e+00 0.0000000000000000e+00  3.9164182171318442e+00 -5.8894388017572252e+00 0.0000000000000000e+00  4.4886649880183498e+00 -5.3294455326008157e+00 0.0000000000000000e+00  3.5433579351244084e+00 -5.2595628377416830e+00 0.0000000000000000e+00  4.1216850956021336e+00 -4.7145738069658529e+00 0.0000000000000000e+00  3.2035431618672789e+00 -4.6455024050661979e+00 0.0000000000000000e+00  3.7646878245766815e+00 -4.1503702478074569e+00 0.0000000000000000e+00  2.9090319963214339e+00 -4.0903411168929189e+00 0.0000000000000000e+00  3.4409129670606395e+00 -3.6631484888444668e+00 0.0000000000000000e+00  2.6279916325723245e+00 -3.5220594710474660e+00 0.0000000000000000e+00  3.1624547920683499e+00 -3.1149467778896320e+00 0.0000000000000000e+00  2.3792069514965033e+00 -3.0332365381882700e+00 0.0000000000000000e+00  2.8972456830823741e+00 -2.6745413780364657e+00 0.0000000000000000e+00  2.1580483689150540e+00 -2.5001681437209364e+00 0.0000000000000000e+00  2.6643827664148421e+00 -2.1825726652154285e+00 0.0000000000000000e+00  1.9513897706321848e+00 -2.1516849383907610e+00 0.0000000000000000e+00  2.4586465665314585e+00 -1.8560842214551301e+00 0.0000000000000000e+00  1.7506125030338928e+00 -1.6030387250340361e+00 0.0000000000000000e+00  2.2678527727954072e+00 -1.3154704761826772e+00 0.0000000000000000e+00  1.5511367592629595e+00 -1.5711012172964081e+00 0.0000000000000000e+00  2.0817237166661857e+00 -1.2864433519410932e+00 0.0000000000000000e+00  1.3349109613501937e+00 -9.1883503759042873e-01 0.0000000000000000e+00  1.8984435138959095e+00 -6.0705186719382198e-01 0.0000000000000000e+00  1.0167961610959360e+00 -1.4604064418267544e+00 0.0000000000000000e+00  1.6953516527384589e+00 -9.9875401508078798e-01 0.0000000000000000e+00  5.0496533526745024e-01 -1.2334032607540344e+00 0.0000000000000000e+00  1.3953856489617680e+00 -4.7559555588686570e-01 0.0000000000000000e+00  -6.9789216931664644e-01 -1.8339499718377142e-01 0.0000000000000000e+00  8.9081900702690264e-01 1.6001932553850000e+00 0.0000000000000000e+00  3.0456806129213128e+00 4.7942841373812390e+00 0.0000000000000000e+00  2.6384145971186577e+00 5.5101881383108404e+00 0.0000000000000000e+00  3.4087949186620499e+00 4.7901839350664055e+00 0.0000000000000000e+00  3.8739269394002140e+00 5.4132668231627319e+00 0.0000000000000000e+00  4.4129850665045209e+00 5.6198794776217147e+00 0.0000000000000000e+00  4.8398214726857214e+00 5.9792421950184691e+00 0.0000000000000000e+00  5.1545270953874365e+00 5.9099811363243111e+00 0.0000000000000000e+00  5.5758624700370909e+00 6.0744483810353325e+00 0.0000000000000000e+00  5.8599030422924772e+00 5.9177719693938258e+00 0.0000000000000000e+00  5.8205397463194579e+00 5.3016758481982009e+00 0.0000000000000000e+00  6.5839568275962597e+00 5.6741787081755755e+00 0.0000000000000000e+00  4.6373945427643148e+00 1.6314365982809267e+00 0.0000000000000000e+00  1.3038968136535754e+01 1.2969724759007201e+01 0.0000000000000000e+00  1.3553280689503811e+01 1.2420422786936971e+01 0.0000000000000000e+00  1.3794671823704011e+01 1.1483350303320604e+01 0.0000000000000000e+00  1.4104289356437130e+01 1.0644046443117471e+01 0.0000000000000000e+00  1.4542753322518211e+01 9.9642809528801592e+00 0.0000000000000000e+00  1.5124376377545545e+01 9.6458350826952675e+00 0.0000000000000000e+00  1.5790488491535289e+01 9.3809625209824823e+00 0.0000000000000000e+00  1.6479167682770594e+01 9.1960032434388879e+00 0.0000000000000000e+00  1.7127523902230990e+01 8.9440315232594578e+00 0.0000000000000000e+00  1.7681772780608387e+01 8.5887023891314289e+00 0.0000000000000000e+00  1.8104763972326129e+01 7.7324966386144718e+00 0.0000000000000000e+00  1.8382912303559149e+01 7.0365111108899487e+00 0.0000000000000000e+00  1.8519679069546505e+01 5.3268373771446669e+00 0.0000000000000000e+00  1.8536760866237099e+01 4.2767816191121950e+00 0.0000000000000000e+00  1.8472669513359133e+01 1.8437332043407391e+00 0.0000000000000000e+00  1.8364609257661542e+01 8.9947294706395631e-01 0.0000000000000000e+00  1.8260534034238937e+01 -1.5804886292178510e+00 0.0000000000000000e+00  1.8182348794154304e+01 -1.5796784418485483e+00 0.0000000000000000e+00  1.8166525137967678e+01 1.6410077588381829e-03 0.0000000000000000e+00  1.8181393566081297e+01 9.8751867520407046e+00 0.0000000000000000e+00  1.8166511472666446e+01 -1.7683803466853356e-03 0.0000000000000000e+00  1.8237892493061263e+01 6.8784002626522449e+00 0.0000000000000000e+00  1.1610555784061576e+01 -5.3121117936523161e+00 0.0000000000000000e+00  1.3007822269549825e+01 -4.0204371460600603e+00 0.0000000000000000e+00  1.1150769309048831e+01 -8.4903999299782633e+00 0.0000000000000000e+00  1.1055051899317322e+01 -8.9269562741246595e+00 0.0000000000000000e+00  1.0147479483886853e+01 -1.0433945843010788e+01 0.0000000000000000e+00  9.5780548505540271e+00 -1.0626740795475408e+01 0.0000000000000000e+00  8.8911613398309246e+00 -1.0477130665987687e+01 0.0000000000000000e+00  8.3253144307522700e+00 -9.8194224050152616e+00 0.0000000000000000e+00  7.5710542050966847e+00 -9.4818283605544771e+00 0.0000000000000000e+00  7.0800544131969696e+00 -8.6445661945416052e+00 0.0000000000000000e+00  6.7141512615660721e+00 -7.6325773282478071e+00 0.0000000000000000e+00  6.2935972702789842e+00 -6.8229800202250468e+00 0.0000000000000000e+00  5.8835286649525917e+00 -6.0379244581814850e+00 0.0000000000000000e+00  5.4875844572138837e+00 -5.3023974116493520e+00 0.0000000000000000e+00  5.0700530864179081e+00 -4.7309432286436968e+00 0.0000000000000000e+00  4.6799970832555067e+00 -4.1731030062216421e+00 0.0000000000000000e+00  4.3279953281201360e+00 -3.6237697527265773e+00 0.0000000000000000e+00  3.9858855684069723e+00 -3.1864076692855603e+00 0.0000000000000000e+00  3.6769182569191798e+00 -2.7060373563875872e+00 0.0000000000000000e+00  3.4130494045364936e+00 -2.2854201052653700e+00 0.0000000000000000e+00  3.1621914526971429e+00 -1.8416444897825994e+00 0.0000000000000000e+00  2.9432823080578263e+00 -1.5559315491045120e+00 0.0000000000000000e+00  2.7512832476123990e+00 -1.0370015052078387e+00 0.0000000000000000e+00  2.5735676622397614e+00 -1.0156080003127543e+00 0.0000000000000000e+00  2.4005795056317303e+00 -3.3868345212499817e-01 0.0000000000000000e+00  2.2291790159710496e+00 -7.0314827834402305e-01 0.0000000000000000e+00  2.0389738381688072e+00 -3.0223664065555784e-02 0.0000000000000000e+00  1.7497725921562324e+00 2.3472865549715904e+00 0.0000000000000000e+00  2.9499211903732041e+00 4.1839513266390451e+00 0.0000000000000000e+00  2.5786368876105294e+00 4.9526071790434267e+00 0.0000000000000000e+00  3.3561136592326224e+00 4.2469930518386514e+00 0.0000000000000000e+00  3.7166393603760786e+00 4.7183318534644876e+00 0.0000000000000000e+00  4.1773546009410305e+00 4.8157975466806322e+00 0.0000000000000000e+00  4.7095269773137547e+00 5.3452052208636971e+00 0.0000000000000000e+00  5.1269961744848018e+00 5.4458812586020873e+00 0.0000000000000000e+00  5.4299254041023612e+00 5.4521237200680543e+00 0.0000000000000000e+00  5.8371358769915895e+00 5.5026983701305374e+00 0.0000000000000000e+00  6.1053190286578438e+00 5.3724720939921724e+00 0.0000000000000000e+00  6.0494606220760403e+00 4.5406318926418310e+00 0.0000000000000000e+00  6.7969970573103984e+00 4.5629921699459066e+00 0.0000000000000000e+00  4.8328331092010526e+00 3.8259372924901486e-01 0.0000000000000000e+00  1.3212084112249409e+01 1.1664762816780843e+01 0.0000000000000000e+00  1.3705714773389499e+01 1.1133386049876552e+01 0.0000000000000000e+00  1.3930071807990073e+01 1.0192186989842067e+01 0.0000000000000000e+00  1.4222233738402347e+01 9.3199785096556624e+00 0.0000000000000000e+00  1.4641456773790875e+01 8.7882585388225802e+00 0.0000000000000000e+00  1.5201337036283565e+01 8.3981273628280739e+00 0.0000000000000000e+00  1.5843542139491287e+01 8.1807151884641147e+00 0.0000000000000000e+00  1.6506084078751979e+01 7.9898699007053260e+00 0.0000000000000000e+00  1.7126921168426136e+01 7.7756466654971401e+00 0.0000000000000000e+00  1.7653768976031344e+01 7.1161484333834961e+00 0.0000000000000000e+00  1.8049802035347046e+01 6.6344625138086908e+00 0.0000000000000000e+00  1.8304417513058723e+01 5.1352539608437029e+00 0.0000000000000000e+00  1.8421421058616396e+01 4.2575865914338680e+00 0.0000000000000000e+00  1.8427596672597300e+01 1.9437082059368158e+00 0.0000000000000000e+00  1.8359896745317307e+01 1.0490913103429702e+00 0.0000000000000000e+00  1.8266802963790550e+01 -1.4335844685051822e+00 0.0000000000000000e+00  1.8185124091112545e+01 -1.5113195026469548e+00 0.0000000000000000e+00  1.8169797014668497e+01 2.3476875878583846e-03 0.0000000000000000e+00  1.8175875447715864e+01 9.8229940437429200e+00 0.0000000000000000e+00  1.8169784443383989e+01 -2.5586255210488427e-03 0.0000000000000000e+00  1.8231519733969265e+01 6.7844699946559777e+00 0.0000000000000000e+00  1.8284624188440009e+01 4.6427606203928811e+00 0.0000000000000000e+00  1.1638518320716905e+01 -6.1044419355103106e+00 0.0000000000000000e+00  1.3022606285595364e+01 -5.7061754467292296e+00 0.0000000000000000e+00  1.1167783329507856e+01 -8.7877622012496364e+00 0.0000000000000000e+00  1.1080355314520087e+01 -9.0823331306519322e+00 0.0000000000000000e+00  1.0185130556549378e+01 -9.7825787118868366e+00 0.0000000000000000e+00  9.6293920835057687e+00 -9.4584748842486093e+00 0.0000000000000000e+00  8.9578089710663154e+00 -8.9828724482870523e+00 0.0000000000000000e+00  8.4075961673421258e+00 -8.3633914451706524e+00 0.0000000000000000e+00  7.6698516865768527e+00 -7.9214439601340345e+00 0.0000000000000000e+00  7.1960249117760506e+00 -7.0978175777735215e+00 0.0000000000000000e+00  6.8479119709007374e+00 -6.2067678318047932e+00 0.0000000000000000e+00  6.4459667319489702e+00 -5.4380526522473351e+00 0.0000000000000000e+00  6.0553706920364458e+00 -4.7242854117728053e+00 0.0000000000000000e+00  5.6795056411441838e+00 -4.1207946898280836e+00 0.0000000000000000e+00  5.2825146013122852e+00 -3.6043595227542129e+00 0.0000000000000000e+00  4.9132599992992940e+00 -3.1121833236911600e+00 0.0000000000000000e+00  4.5820329779412265e+00 -2.6895863151375319e+00 0.0000000000000000e+00  4.2605455003617054e+00 -2.2586408873856429e+00 0.0000000000000000e+00  3.9718118027550466e+00 -1.9054801377690773e+00 0.0000000000000000e+00  3.7277572141767186e+00 -1.4806036611864193e+00 0.0000000000000000e+00  3.4959206588903200e+00 -1.2426403154521228e+00 0.0000000000000000e+00  3.2955886529094731e+00 -7.6299298062596133e-01 0.0000000000000000e+00  3.1209226682229487e+00 -7.6337784718925517e-01 0.0000000000000000e+00  2.9604391574200144e+00 -9.1253087160658636e-02 0.0000000000000000e+00  2.8024679126199286e+00 -4.6052747212859191e-01 0.0000000000000000e+00  2.6480245112975132e+00 2.4608613909958729e-01 0.0000000000000000e+00  2.4683250624152482e+00 2.7659776006264041e+00 0.0000000000000000e+00  3.1251243581944625e+00 3.6277138118322130e+00 0.0000000000000000e+00  2.7794407886587962e+00 4.4331929312794012e+00 0.0000000000000000e+00  3.4952335303941657e+00 3.6392445362444792e+00 0.0000000000000000e+00  3.8988800101686181e+00 4.1802330639596352e+00 0.0000000000000000e+00  4.2552141953358769e+00 4.1291168246009482e+00 0.0000000000000000e+00  4.7091048053213038e+00 4.5535570862076131e+00 0.0000000000000000e+00  5.2312975470029466e+00 4.8288429586489743e+00 0.0000000000000000e+00  5.6351786441820400e+00 5.0093598935180577e+00 0.0000000000000000e+00  5.9210230921110281e+00 4.9057857746825562e+00 0.0000000000000000e+00  6.3082183178151796e+00 4.9857382383880378e+00 0.0000000000000000e+00  6.5547286802606983e+00 4.6399256585407791e+00 0.0000000000000000e+00  6.4772665653604831e+00 3.4567599910815741e+00 0.0000000000000000e+00  7.2040747346486427e+00 3.3451761537358644e+00 0.0000000000000000e+00  5.2158533242179992e+00 -8.8333322371931444e-01 0.0000000000000000e+00  1.3565582611946590e+01 1.0412804535094089e+01 0.0000000000000000e+00  1.4034050154160774e+01 9.8702294039498781e+00 0.0000000000000000e+00  1.4238460825499102e+01 8.8970341619299678e+00 0.0000000000000000e+00  1.4509236668056090e+01 8.1766352443061496e+00 0.0000000000000000e+00  1.4903757066463848e+01 7.5793198230310432e+00 0.0000000000000000e+00  1.5433467385852472e+01 7.2415858438888883e+00 0.0000000000000000e+00  1.6040392928846121e+01 7.0238791395097131e+00 0.0000000000000000e+00  1.6662876427891838e+01 6.8748285505134650e+00 0.0000000000000000e+00  1.7239829103805398e+01 6.3582026384921049e+00 0.0000000000000000e+00  1.7720275259469641e+01 6.0723218650587754e+00 0.0000000000000000e+00  1.8070792961615279e+01 4.7850802684063538e+00 0.0000000000000000e+00  1.8281648130473140e+01 4.1069209501861650e+00 0.0000000000000000e+00  1.8363926337442020e+01 1.9565194049424062e+00 0.0000000000000000e+00  1.8343877468917672e+01 1.1535817155850103e+00 0.0000000000000000e+00  1.8273488704949507e+01 -1.2916462648422131e+00 0.0000000000000000e+00  1.8191997048948391e+01 -1.4359009252473367e+00 0.0000000000000000e+00  1.8174118353863630e+01 2.9769662013311043e-03 0.0000000000000000e+00  1.8176364725558614e+01 9.8026772405516880e+00 0.0000000000000000e+00  1.8174106359141348e+01 -3.2573737781025998e-03 0.0000000000000000e+00  1.8190005684058082e+01 6.7022032296120804e+00 0.0000000000000000e+00  1.8236017380660925e+01 4.5674063