<?xml version="1.0"?>
<VTKFile type="UnstructuredGrid"  version="0.1"  >
<UnstructuredGrid>
<Piece  NumberOfPoints="1933" NumberOfCells="3640">
<Points>
<DataArray  type="Float64"  NumberOfComponents="3"  format="ascii">0.2940237752782978 -0.00118211349110708 0  5.294023794962648 -0.00114938761219938 0  5.293974693319011 7.498850655586435 0  0.2939746691179012 7.498817923157053 0  10.29402383079518 -0.001116692329479032 0  10.29397473193099 7.498883350135595 0  15.29402389910745 -0.001084017319679096 0  15.29397478955758 7.498916022642512 0  20.29402401173381 -0.001051343170591967 0  20.29397486917469 7.498948694223626 0  25.29402417596125 -0.001018646332393632 0  25.29397497208606 7.498981388876898 0  30.29402439527256 -0.0009859012177510251 0  30.29397509773683 7.499014132218409 0  35.29402467008304 -0.000953080968255751 0  35.29397524356911 7.499046951004853 0  40.29402499826009 -0.0009201575541889469 0  40.29397540489024 7.499079873132449 0  45.29402537539723 -0.0008871015195523014 0  45.29397557470138 7.499112927920794 0  50.29402579486248 -0.0008538815178023763 0  50.29397574344024 7.499146146579407 0  55.29402624764052 -0.000820463698705641 0  55.29397589860204 7.499179562811968 0  60.29402672197472 -0.0007868109592660663 0  60.29397602420356 7.499213213549517 0  65.29402720279502 -0.0007528820411047865 0  65.2939761000473 7.499247139829278 0  70.29402767089084 -0.0007186304320256504 0  70.29397610073137 7.499281387856331 0  75.29402810175783 -0.000684003003868696 0  75.2939759943276 7.499316010305826 0  80.29402846399742 -0.0006489382865294883 0  80.29397574062176 7.499351067946461 0  85.29402871707549 -0.0006133642332841266 0  85.29397528876801 7.499386631694117 0  90.29402880812655 -0.0005771952681150449 0  90.29397457415553 7.499422785236576 0  95.29402866728955 -0.0005403283122858201 0  95.29397351422473 7.499459628402068 0  100.2940282007091 -0.0005026373544613431 0  100.2939720029055 7.499497281458098 0  105.2940272797229 -0.0004639659489018193 0  105.293969903329 7.499535890478902 0  110.2940257236476 -0.0004241168106973806 0  110.2939670385737 7.499575633700302 0  115.2940232715657 -0.0003828374995009133 0  115.2939631806866 7.499616728143892 0  120.2940195348288 -0.0003398013014437644 0  120.293958039576 7.499659434185829 0  125.2940139152052 -0.0002945836014115128 0  125.2939512567533 7.499704051983271 0  130.2940054610895 -0.0002466384596035373 0  130.2939424167011 7.499750895275702 0  135.293992611169 -0.0001952939456301601 0  135.2939311058145 7.499800210162722 0  140.293972732641 -0.0001398265431651695 0  140.2939170854204 7.499851970669248 0  145.2939412821527 -7.980607273290301e-05 0  145.2939007217306 7.499905421888004 0  150.2938902582888 -1.635816618573661e-05 0  150.293883977412 7.499958194522508 0  160.2938926261462 8.035263982911343e-19 0  165.2938944898062 -1.781322468777903e-05 0  165.2938928837068 7.499976386928343 0  160.2938888735956 7.499985815767555 0  170.2939033249643 -2.191133363070238e-05 0  170.293896636371 7.499975421458243 0  175.2939143366302 -1.681675340858745e-05 0  175.2939010123631 7.499981893922129 0  180.2939254802902 -5.220949952934763e-06 0  180.2939058955693 7.49999415258337 0  185.293935911784 1.108356375262759e-05 0  185.2939109960492 7.500010790305005 0  190.2939453298355 3.08549559987577e-05 0  190.2939160627036 7.50003073273383 0  195.2939536776855 5.321598792146996e-05 0  195.2939209224412 7.500053182263711 0  200.2939610039328 7.753704840509561e-05 0  200.2939254712759 7.50007754895809 0  205.2939673974101 0.0001033589861822081 0  205.2939296558285 7.500103393957464 0  210.2939729571889 0.0001303414848066436 0  210.2939334565569 7.500130387511736 0  215.2939777793437 0.000158228236505228 0  215.2939368751587 7.500158278899761 0  220.2939819516729 0.0001868232073485963 0  220.2939399258773 7.500186875085741 0  225.2939855521316 0.0002159742485237345 0  225.2939426297805 7.500216025555206 0  230.2939886489376 0.0002455616065670242 0  230.29394501113 7.500245611461341 0  235.2939913013778 0.0002754897360306609 0  235.2939470951579 7.500275537772555 0  240.2939935608574 0.0003056813698108924 0  240.2939489067673 7.500305727522274 0  245.2939954719905 0.0003360731589367841 0  245.2939504698284 7.500336117546905 0  250.2939970736461 0.0003666124249393897 0  250.2939518068583 7.500366655293523 0  255.2939983999294 0.000397254719850407 0  255.2939529389467 7.500397296412133 0  260.2939994810952 0.0004279619911032261 0  260.2939538858321 7.500428002940039 0  265.2940003444161 0.0004587012204727528 0  265.2939546660776 7.500458741952007 0  270.2940010150136 0.0004894434606922462 0  270.2939552973006 7.500489484600335 0  275.2940015166839 0.0005201632400727772 0  275.2939557964222 7.500520205511235 0  280.2940018727169 0.0005508383523761021 0  280.2939561799196 7.500550882543417 0  285.294002106706 0.0005814501043523738 0  285.2939564640304 7.500581496956284 0  290.2940022432877 0.0006119841655557209 0  290.2939566648948 7.500612034081266 0  295.2940023086697 0.0006424322623545492 0  295.293956798592 7.500642484639235 0  300.2940023306001 0.0006727950769017004 0  300.2939568810831 7.50067284689305 0  305.2940023370389 0.0007030867848160183 0  305.2939569281949 7.500703129856761 0  310.2940023519495 0.0007333413168457079 0  310.293956956135 7.50073335786126 0  5.293925531816017 14.99885074376102 0  0.2939255090024498 14.99881801255509 0  10.29392555947383 14.99888342517002 0  15.2939255934518 14.9989160826463 0  20.2939256329108 14.99894874051201 0  25.29392567566266 14.9989814233191 0  30.29392571829847 14.99901415629031 0  35.29392575602146 14.99904696550238 0  40.29392578238249 14.99907987811378 0  45.29392578897164 14.99911292269986 0  50.29392576506728 14.999146129697 0  55.29392569722373 14.99917953194862 0  60.29392556877484 14.99921316535364 0  65.29392535922945 14.99924706962789 0  70.29392504353396 14.9992812891969 0  75.29392459118473 14.99931587424553 0  80.29392396517564 14.99935088195054 0  85.293923120795 14.99938637791441 0  90.29392200432621 14.99942243779081 0  95.29392055180131 14.99945914902376 0  100.293918688131 14.99949661247131 0  105.2939163272556 14.99953494337475 0  110.2939133745251 14.99957427051655 0  115.2939097334696 14.99961473122429 0  120.2939053206335 14.99965645766515 0  125.2939000943318 14.99969954590271 0  130.2938941057984 14.9997439924162 0  135.2938875827646 14.99978957218763 0  140.2938810512613 14.99983561843248 0  145.2938754781405 14.99988065208537 0  150.2938723404577 14.99992181274274 0  165.2938807107778 14.9999612275967 0  160.293878345374 14.99995801321883 0  170.293881882203 14.99996756793265 0  175.2938828459412 14.99997796044258 0  180.2938840436392 14.99999228007507 0  185.2938855765987 15.00000999161987 0  190.2938873956319 15.00003048706623 0  195.2938894039433 15.00005321478833 0  200.2938915036179 15.00007771461988 0  205.2938936129813 15.00010361644641 0  210.2938956704743 15.00013062711803 0  215.2938976330072 15.00015851549022 0  220.2938994725443 15.00018709903236 0  225.293901172551 15.00021623287103 0  230.29390272492 15.00024580117818 0  235.2939041275299 15.00027571052359 0  240.2939053823962 15.00030588477826 0  245.2939064943175 15.00033626121085 0  250.293907469912 15.00036678749369 0  255.2939083169446 15.00039741940476 0  260.2939090438694 15.00042811907018 0  265.2939096595231 15.00045885363759 0  270.2939101729278 15.00048959430837 0  275.2939105931582 15.00052031568678 0  280.2939109292556 15.00055099542794 0  285.2939111901812 15.00058161418596 0  290.2939113848087 15.00061215587072 0  295.2939115220296 15.00064260821029 0  300.2939116110877 15.00067296356312 0  305.2939116624125 15.00070321979287 0  310.2939116894303 15.0007333807463 0  5.293876375464628 22.49885089206232 0  0.293876354928123 22.49881819400113 0  10.29387639323453 22.49888353887765 0  15.2938764065367 22.49891616348593 0  20.2938764126115 22.49894879151665 0  25.29387640778851 22.49898144732747 0  30.29387638753072 22.49901415514941 0  35.29387634632418 22.49904693971546 0  40.29387627747646 22.49907982668682 0  45.29387617287198 22.49911284303067 0  50.29387602270897 22.49914601741441 0  55.29387581522583 22.49917938064049 0  60.29387553642258 22.49921296612931 0  65.29387516978589 22.49924681044964 0  70.29387469603719 22.49928095388793 0  75.29387409294365 22.49931544103692 0  80.29387333526408 22.49935032136022 0  85.29387239495023 22.49938564964719 0  90.29387124180691 22.49942148619644 0  95.29386984492965 22.4994578964326 0  100.2938681754165 22.49949494943269 0  105.2938662110942 22.49953271445583 0  110.2938639443107 22.4995712539472 0  115.2938613941826 22.49961061051317 0  120.2938586248914 22.49965078393524 0  125.2938557713354 22.49969169242249 0  130.2938530718541 22.49973311046067 0  135.2938509033617 22.49977457554885 0  140.2938498046979 22.49981526281493 0  145.2938504568369 22.49985385274923 0  150.2938535655404 22.49988849495798 0  165.2938594116824 22.49994367375556 0  160.2938585438797 22.49993127894869 0  170.2938592409529 22.4999567315024 0  175.2938585837132 22.49997160760885 0  180.2938578601535 22.49998875321279 0  185.2938573089263 22.50000818451105 0  190.2938570267033 22.50002969994389 0  195.2938570235249 22.50005301744067 0  200.2938572655127 22.50007784694765 0  205.2938577016997 22.50010392306266 0  210.2938582788456 22.50013101627655 0  215.2938589486113 22.50015893388225 0  220.2938596703337 22.50018751649872 0  225.2938604114851 22.50021663317758 0  230.2938611470302 22.50024617646046 0  235.2938618583615 22.50027605794326 0  240.2938625321546 22.50030620451332 0  245.2938631593097 22.50033655525179 0  250.2938637340341 22.50036705892763 0  255.293864253087 22.50039767199269 0  260.293864715161 22.50042835699398 0  265.2938651203922 22.5004590813314 0  270.2938654699681 22.50048981630453 0  275.2938657658241 22.50052053640405 0  280.2938660104167 22.50055121880974 0  285.2938662065867 22.50058184305448 0  290.2938663575395 22.5006123907954 0  295.2938664670125 22.50064284558716 0  
[...]
<PointData  Vectors="v"> 
<DataArray  type="Float64"  Name="v"  NumberOfComponents="3" format="ascii">1.0989808286881124e+00 7.6636907252785305e+00 0.0000000000000000e+00  1.6563690821228811e+00 7.1765876833437003e+00 0.0000000000000000e+00  1.5260175817586052e+00 6.3407782439655396e+00 0.0000000000000000e+00  1.0959634870982677e+00 7.0188943478347063e+00 0.0000000000000000e+00  2.3504492406139397e+00 7.7564925550114889e+00 0.0000000000000000e+00  2.0829752808472404e+00 6.7163439908248295e+00 0.0000000000000000e+00  2.9718799711124437e+00 8.7779861942760498e+00 0.0000000000000000e+00  2.7758089656366534e+00 7.8473762126685749e+00 0.0000000000000000e+00  3.5157218435664221e+00 9.0906703078870379e+00 0.0000000000000000e+00  3.3952515962642047e+00 8.2772107106668127e+00 0.0000000000000000e+00  4.1971606605238012e+00 9.9644872907753204e+00 0.0000000000000000e+00  3.9363131289924378e+00 8.9453320780050163e+00 0.0000000000000000e+00  4.7364720272500778e+00 1.0318910245953347e+01 0.0000000000000000e+00  4.6140509671861301e+00 9.5135713283841792e+00 0.0000000000000000e+00  4.8154967673607203e+00 1.0055447505577106e+01 0.0000000000000000e+00  5.1488357728668142e+00 9.9413207244552311e+00 0.0000000000000000e+00  5.8995862860399759e+00 1.1151708694371711e+01 0.0000000000000000e+00  5.2225838444628172e+00 9.5306637965524512e+00 0.0000000000000000e+00  2.7946505569016065e+00 5.9888095439915308e+00 0.0000000000000000e+00  6.3004545648091712e+00 1.0652055959088361e+01 0.0000000000000000e+00  1.3914049036053385e+01 2.1870309227126878e+01 0.0000000000000000e+00  3.1885658765684117e+00 5.1971750395229535e+00 0.0000000000000000e+00  1.3594579915792666e+01 2.0096843623375356e+01 0.0000000000000000e+00  1.4300512628695799e+01 2.0583292417455890e+01 0.0000000000000000e+00  1.3671966776265323e+01 1.8777745017537747e+01 0.0000000000000000e+00  1.3972513037744800e+01 1.8669898581441466e+01 0.0000000000000000e+00  1.4203198504490707e+01 1.8110985676023304e+01 0.0000000000000000e+00  1.4040074237256180e+01 1.7323692559717600e+01 0.0000000000000000e+00  1.5143436396450166e+01 1.8078363771584659e+01 0.0000000000000000e+00  1.4560111395691234e+01 1.6678911182949456e+01 0.0000000000000000e+00  1.6393672409569287e+01 1.8469943737812176e+01 0.0000000000000000e+00  1.5487309648918234e+01 1.6606529188129645e+01 0.0000000000000000e+00  1.7860275922312592e+01 1.9078699547951491e+01 0.0000000000000000e+00  1.6723028890825738e+01 1.6892163873603856e+01 0.0000000000000000e+00  1.9452665314871080e+01 1.9965702483967018e+01 0.0000000000000000e+00  1.8173783982319438e+01 1.7591740584950312e+01 0.0000000000000000e+00  2.1080387321955612e+01 2.0704736194469930e+01 0.0000000000000000e+00  1.9748471030452780e+01 1.8278600964044319e+01 0.0000000000000000e+00  2.2666726188285207e+01 2.1329241630463692e+01 0.0000000000000000e+00  2.1357340542420751e+01 1.8966604893028865e+01 0.0000000000000000e+00  2.4148111064470672e+01 2.1677281659676524e+01 0.0000000000000000e+00  2.2923494231381387e+01 1.9472875867660278e+01 0.0000000000000000e+00  2.5469112396559822e+01 2.1712569700525965e+01 0.0000000000000000e+00  2.4383444978480853e+01 1.9749691418149684e+01 0.0000000000000000e+00  2.6593981442136574e+01 2.0983605916303699e+01 0.0000000000000000e+00  2.5681598263183314e+01 1.9315419830803354e+01 0.0000000000000000e+00  2.7509077525713430e+01 2.0264744440632171e+01 0.0000000000000000e+00  2.6783623797208136e+01 1.8912710652022398e+01 0.0000000000000000e+00  2.8208743915898676e+01 1.8117306123845889e+01 0.0000000000000000e+00  2.7673469650992253e+01 1.7087269553782566e+01 0.0000000000000000e+00  2.8714943176916062e+01 1.6447248875693283e+01 0.0000000000000000e+00  2.8349627643338351e+01 1.5710385416409334e+01 0.0000000000000000e+00  2.9046462840343953e+01 1.2766962888912992e+01 0.0000000000000000e+00  2.8828543415117799e+01 1.2288521296550565e+01 0.0000000000000000e+00  2.9247316495176811e+01 1.0107293382289448e+01 0.0000000000000000e+00  2.9137338517341245e+01 9.8305072392169617e+00 0.0000000000000000e+00  2.9342354424749722e+01 5.2210374410020153e+00 0.0000000000000000e+00  2.9308828369710369e+01 5.0952091063873999e+00 0.0000000000000000e+00  2.9381792161462748e+01 1.2620521886376379e+00 0.0000000000000000e+00  2.9383384483692211e+01 1.2299729760965061e+00 0.0000000000000000e+00  2.9389262613245624e+01 -1.1635768601442765e-09 0.0000000000000000e+00  2.9389916201246468e+01 6.8475377412869091e-04 0.0000000000000000e+00  2.9389262614623373e+01 -3.6184115719688992e-19 0.0000000000000000e+00  2.0124563730902562e+01 -7.1057605940761119e+00 0.0000000000000000e+00  2.9383845322158834e+01 6.7657036262195263e+00 0.0000000000000000e+00  2.9389904734020828e+01 -6.5390894144147223e-04 0.0000000000000000e+00  2.0749495207448920e+01 -1.3369198071605657e+01 0.0000000000000000e+00  2.0152727068083784e+01 -1.4346516720690520e+01 0.0000000000000000e+00  1.7730579692350631e+01 -2.0810566754277481e+01 0.0000000000000000e+00  2.0815188288892823e+01 -1.6312589250236094e+01 0.0000000000000000e+00  1.6953633404456536e+01 -2.2287976036846040e+01 0.0000000000000000e+00  1.7834517300742721e+01 -2.1157294710526187e+01 0.0000000000000000e+00  1.5273899013822282e+01 -2.5065746404450362e+01 0.0000000000000000e+00  1.7095135098277968e+01 -2.2578982004981611e+01 0.0000000000000000e+00  1.4062472759568401e+01 -2.5278968578094414e+01 0.0000000000000000e+00  1.5452374625332547e+01 -2.3495504962850312e+01 0.0000000000000000e+00  1.2767884106476835e+01 -2.5358469617052350e+01 0.0000000000000000e+00  1.4278223872276925e+01 -2.3448997463797291e+01 0.0000000000000000e+00  1.1652391124539355e+01 -2.4306597294646149e+01 0.0000000000000000e+00  1.3020089408843406e+01 -2.2666318697063819e+01 0.0000000000000000e+00  1.0324682678515995e+01 -2.3139009561879806e+01 0.0000000000000000e+00  1.1940678523096807e+01 -2.1179718216832025e+01 0.0000000000000000e+00  9.3691669505668980e+00 -2.1298096391111997e+01 0.0000000000000000e+00  1.0648871819107029e+01 -1.9896899995285501e+01 0.0000000000000000e+00  8.5858554031893863e+00 -1.9443392716720219e+01 0.0000000000000000e+00  9.7287984584190283e+00 -1.8300296918308899e+01 0.0000000000000000e+00  7.7339824210458561e+00 -1.7750790997128181e+01 0.0000000000000000e+00  8.9805512477075116e+00 -1.6504579093199414e+01 0.0000000000000000e+00  6.9271909517085595e+00 -1.6151930601331344e+01 0.0000000000000000e+00  8.1635408760608001e+00 -1.4972959116593989e+01 0.0000000000000000e+00  6.1693471738258614e+00 -1.4736585840956867e+01 0.0000000000000000e+00  7.3911989051947433e+00 -1.3630841197321191e+01 0.0000000000000000e+00  5.4238845431903542e+00 -1.3441525745772937e+01 0.0000000000000000e+00  6.6674359830542960e+00 -1.2354003423298757e+01 0.0000000000000000e+00  4.7456703576513757e+00 -1.2201121380193788e+01 0.0000000000000000e+00  5.9557489177274130e+00 -1.1214137961522720e+01 0.0000000000000000e+00  4.1424615896895185e+00 -1.1063081824112409e+01 0.0000000000000000e+00  5.3109223977793372e+00 -1.0188319766579932e+01 0.0000000000000000e+00  3.5767695667238102e+00 -9.9748237410416998e+00 0.0000000000000000e+00  4.7406885846519859e+00 -9.1560430565918765e+00 0.0000000000000000e+00  3.0739143358889938e+00 -8.9124068538457610e+00 0.0000000000000000e+00  4.2076905025116789e+00 -8.1875008663339344e+00 0.0000000000000000e+00  2.6429140021261883e+00 -7.9150149621006820e+00 0.0000000000000000e+00  3.7370646652449628e+00 -7.2977031922407161e+00 0.0000000000000000e+00  2.2477114317563478e+00 -6.9112249578664668e+00 0.0000000000000000e+00  3.3380660804138977e+00 -6.3471604819818994e+00 0.0000000000000000e+00  1.9067222104344970e+00 -5.9765767548795941e+00 0.0000000000000000e+00  2.9743049519423694e+00 -5.4937816302078382e+00 0.0000000000000000e+00  1.6195035489780727e+00 -5.0239126767473925e+00 0.0000000000000000e+00  2.6648080693060172e+00 -4.6210803830429272e+00 0.0000000000000000e+00  1.3667514414651138e+00 -4.2092350792348370e+00 0.0000000000000000e+00  2.4080404031457299e+00 -3.8585713574306406e+00 0.0000000000000000e+00  1.1484647219314268e+00 -3.2707496126557585e+00 0.0000000000000000e+00  2.1866562744778073e+00 -2.9702202436104690e+00 0.0000000000000000e+00  9.5742321987543155e-01 -2.7332405678589686e+00 0.0000000000000000e+00  1.9973339442330886e+00 -2.4755556551788609e+00 0.0000000000000000e+00  7.8108137744515371e-01 -1.7833638877628279e+00 0.0000000000000000e+00  1.8384148932100883e+00 -1.5437787987131326e+00 0.0000000000000000e+00  5.4324831481702407e-01 -1.7267793593066096e+00 0.0000000000000000e+00  1.6881467263736099e+00 -1.4009484506407446e+00 0.0000000000000000e+00  1.8255517765888649e-01 -1.2024368687254623e+00 0.0000000000000000e+00  1.4864896210914376e+00 -6.8120794877358926e-01 0.0000000000000000e+00  -6.6140757777852699e-01 -7.3762354539045382e-03 0.0000000000000000e+00  1.1402599783776826e+00 1.2171893392714370e+00 0.0000000000000000e+00  1.8035007423537421e+00 5.6953401561063757e+00 0.0000000000000000e+00  1.3295708837222271e+00 6.3089755572919248e+00 0.0000000000000000e+00  2.2338748576025917e+00 5.8809827695348389e+00 0.0000000000000000e+00  2.7903041386903262e+00 6.8089628146699601e+00 0.0000000000000000e+00  3.4813893189065159e+00 7.3496926938749709e+00 0.0000000000000000e+00  4.0976525963274275e+00 8.1361533544639126e+00 0.0000000000000000e+00  4.6340834046700765e+00 8.5004104681264874e+00 0.0000000000000000e+00  5.3055528704641350e+00 9.1436661153062442e+00 0.0000000000000000e+00  5.8323088056332208e+00 9.4253162995999400e+00 0.0000000000000000e+00  5.8965575150151626e+00 9.0415535801212545e+00 0.0000000000000000e+00  6.9634337436590021e+00 9.8723007281539363e+00 0.0000000000000000e+00  3.8397992869491633e+00 3.9212690084849156e+00 0.0000000000000000e+00  1.4941025993019927e+01 1.9168367999934322e+01 0.0000000000000000e+00  1.4601875907613376e+01 1.7230232924700609e+01 0.0000000000000000e+00  1.4655820781520911e+01 1.5907854258295266e+01 0.0000000000000000e+00  1.5159584134801866e+01 1.5227157830325398e+01 0.0000000000000000e+00  1.6066887000594335e+01 1.5052053723109895e+01 0.0000000000000000e+00  1.7279183780923262e+01 1.5430519357349144e+01 0.0000000000000000e+00  1.8703496737925050e+01 1.5933921032185209e+01 0.0000000000000000e+00  2.0248163885907790e+01 1.6572729752977960e+01 0.0000000000000000e+00  2.1823582501273556e+01 1.7144121965252591e+01 0.0000000000000000e+00  2.3353653476827365e+01 1.7582972700131400e+01 0.0000000000000000e+00  2.4773986202616985e+01 1.7392600189725442e+01 0.0000000000000000e+00  2.6029877521805275e+01 1.7285876595495417e+01 0.0000000000000000e+00  2.7087023864217098e+01 1.5779274802525372e+01 0.0000000000000000e+00  2.7930263228051807e+01 1.4726257218246316e+01 0.0000000000000000e+00  2.8556788832261191e+01 1.1596489680385659e+01 0.0000000000000000e+00  2.8987860436460149e+01 9.4016345385638047e+00 0.0000000000000000e+00  2.9243723163627255e+01 4.8594238075799856e+00 0.0000000000000000e+00  2.9371273383133673e+01 1.1583893039317092e+00 0.0000000000000000e+00  2.9391483917513657e+01 1.3052763831069563e-03 0.0000000000000000e+00  2.9362804202325847e+01 6.8280554534991245e+00 0.0000000000000000e+00  2.9391462869269048e+01 -1.2860177884892428e-03 0.0000000000000000e+00  2.9301270397955559e+01 -5.1230795710655641e-01 0.0000000000000000e+00  2.0104382551536471e+01 -1.7333243622258909e+01 0.0000000000000000e+00  2.0811304839984615e+01 -1.6711724604572598e+01 0.0000000000000000e+00  1.7873122049746495e+01 -2.1496272304474978e+01 0.0000000000000000e+00  1.7176727112775037e+01 -2.1054338665908759e+01 0.0000000000000000e+00  1.5573497596569927e+01 -2.1712173117577006e+01 0.0000000000000000e+00  1.4438729386882333e+01 -2.0801441359881618e+01 0.0000000000000000e+00  1.3217717182963415e+01 -1.9582142115262197e+01 0.0000000000000000e+00  1.2174135761758498e+01 -1.7980383297477168e+01 0.0000000000000000e+00  1.0917234451964616e+01 -1.6940815869494049e+01 0.0000000000000000e+00  1.0031268583497123e+01 -1.5402166483250857e+01 0.0000000000000000e+00  9.3163067124406282e+00 -1.3767391896890697e+01 0.0000000000000000e+00  8.5322355963266538e+00 -1.2491861561025262e+01 0.0000000000000000e+00  7.7922661143419347e+00 -1.1287456022287868e+01 0.0000000000000000e+00  7.1002599889955986e+00 -1.0165523031724808e+01 0.0000000000000000e+00  6.4198460002900433e+00 -9.2395944239200176e+00 0.0000000000000000e+00  5.8056796362313881e+00 -8.3187923593253146e+00 0.0000000000000000e+00  5.2654573861331659e+00 -7.4057915471066265e+00 0.0000000000000000e+00  4.7618853234146332e+00 -6.6092271146006745e+00 0.0000000000000000e+00  4.3200910242558264e+00 -5.7656040386236311e+00 0.0000000000000000e+00  3.9492216150195674e+00 -4.9649747826927406e+00 0.0000000000000000e+00  3.6131156114988823e+00 -4.1729548445428417e+00 0.0000000000000000e+00  3.3304845015125055e+00 -3.4897330265190649e+00 0.0000000000000000e+00  3.1002568603909828e+00 -2.6531530774447964e+00 0.0000000000000000e+00  2.9043140623556765e+00 -2.2079537674097001e+00 0.0000000000000000e+00  2.7407612965081407e+00 -1.3182742149930124e+00 0.0000000000000000e+00  2.6052809866941713e+00 -1.1935030122501300e+00 0.0000000000000000e+00  2.4806430351968269e+00 -3.8783093172501032e-01 0.0000000000000000e+00  2.3004560511019876e+00 1.7170580096992156e+00 0.0000000000000000e+00  2.5165823521821284e+00 4.9836320615459977e+00 0.0000000000000000e+00  2.0883774090225944e+00 5.6681526110024034e+00 0.0000000000000000e+00  2.9917275328549557e+00 5.2345544639249439e+00 0.0000000000000000e+00  3.4233721886705646e+00 5.9746328159475457e+00 0.0000000000000000e+00  3.9792733830522082e+00 6.3148268199413735e+00 0.0000000000000000e+00  4.6678206385992631e+00 7.2152426436489359e+00 0.0000000000000000e+00  5.2791147965906573e+00 7.7014478899192111e+00 0.0000000000000000e+00  5.8074789535995057e+00 8.1442006758701897e+00 0.0000000000000000e+00  6.4678708287237079e+00 8.6452439265184999e+00 0.0000000000000000e+00  6.9804300058133677e+00 8.9576347324269356e+00 0.0000000000000000e+00  7.0273056082639762e+00 8.2859964959553327e+00 0.0000000000000000e+00  8.0750209675144955e+00 8.6211737879548824e+00 0.0000000000000000e+00  4.9335260683679527e+00 2.5281250263768285e+00 0.0000000000000000e+00  1.6020358120573643e+01 1.7750034083106836e+01 0.0000000000000000e+00  1.5667172775225536e+01 1.5841059426419138e+01 0.0000000000000000e+00  1.5702827212023807e+01 1.4489841425017671e+01 0.0000000000000000e+00  1.6181875948201998e+01 1.3713981809819186e+01 0.0000000000000000e+00  1.7057720867382969e+01 1.3640067951276308e+01 0.0000000000000000e+00  1.8231658077493510e+01 1.3830393561503600e+01 0.0000000000000000e+00  1.9610260470254300e+01 1.4293338227091855e+01 0.0000000000000000e+00  2.1102344146660947e+01 1.4823477800009645e+01 0.0000000000000000e+00  2.2618544834609757e+01 1.5335481299334051e+01 0.0000000000000000e+00  2.4081919468411932e+01 1.5313463524967275e+01 0.0000000000000000e+00  2.5429479283038514e+01 1.5459197268871440e+01 0.0000000000000000e+00  2.6605554710746627e+01 1.4252879689305443e+01 0.0000000000000000e+00  2.7578268903652621e+01 1.3526968309839289e+01 0.0000000000000000e+00  2.8330329590982693e+01 1.0719887900901263e+01 0.0000000000000000e+00  2.8865875923661378e+01 8.8288039634213362e+00 0.0000000000000000e+00  2.9198555047462261e+01 4.5321515112649511e+00 0.0000000000000000e+00  2.9368628381196149e+01 1.0511300429102504e+00 0.0000000000000000e+00  2.9393932823323574e+01 1.8678462740008932e-03 0.0000000000000000e+00  2.9344488179816274e+01 6.9891888340764128e+00 0.0000000000000000e+00  2.9393914072035759e+01 -1.8402795073035503e-03 0.0000000000000000e+00  2.9151845009605843e+01 -3.8995972173235438e-01 0.0000000000000000e+00  2.9080586575407960e+01 -3.5789819480857656e+00 0.0000000000000000e+00  1.9941361918102707e+01 -1.7827329132238024e+01 0.0000000000000000e+00  2.0720782907629804e+01 -1.7139664371138956e+01 0.0000000000000000e+00  1.7851680177705322e+01 -2.0061780770052863e+01 0.0000000000000000e+00  1.7221245965241359e+01 -1.9353576087427829e+01 0.0000000000000000e+00  1.5678650904709794e+01 -1.9144249580171426e+01 0.0000000000000000e+00  1.4601251740081995e+01 -1.7792480084323696e+01 0.0000000000000000e+00  1.3433277413334912e+01 -1.6454934204495050e+01 0.0000000000000000e+00  1.2440212149914386e+01 -1.5093609944689220e+01 0.0000000000000000e+00  1.1231608418795116e+01 -1.4110483034169711e+01 0.0000000000000000e+00  1.0392417713874266e+01 -1.2731222361053382e+01 0.0000000000000000e+00  9.7232467678233743e+00 -1.1351460575480406e+01 0.0000000000000000e+00  8.9842125875698304e+00 -1.0212652973216590e+01 0.0000000000000000e+00  8.2884224392902688e+00 -9.1619933961257694e+00 0.0000000000000000e+00  7.6398008761391525e+00 -8.2527364096363716e+00 0.0000000000000000e+00  7.0018203322141526e+00 -7.4306389463731506e+00 0.0000000000000000e+00  6.4290688309692321e+00 -6.6277000624579490e+00 0.0000000000000000e+00  5.9291825726630076e+00 -5.8853827367674576e+00 0.0000000000000000e+00  5.4649078718217927e+00 -5.1335141264338660e+00 0.0000000000000000e+00  5.0611732267270444e+00 -4.4386654834646269e+00 0.0000000000000000e+00  4.7274442209838687e+00 -3.6975935890039819e+00 0.0000000000000000e+00  4.4270195857427694e+00 -3.0944250163747573e+00 0.0000000000000000e+00  4.1794627363309358e+00 -2.3345182806183282e+00 0.0000000000000000e+00  3.9822678308896586e+00 -1.9418123278271309e+00 0.0000000000000000e+00  3.8196699073381892e+00 -1.0964610718770651e+00 0.0000000000000000e+00  3.6854653662339882e+00 -1.0189357473795775e+00 0.0000000000000000e+00  3.5835925445780425e+00 -2.1876912885965527e-01 0.0000000000000000e+00  3.4798766624159687e+00 1.9571739996822992e+00 0.0000000000000000e+00  3.4364032349474782e+00 4.3400471432592687e+00 0.0000000000000000e+00  3.0463419033704406e+00 5.0851000558423083e+00 0.0000000000000000e+00  3.8666129901049331e+00 4.5198033601241914e+00 0.0000000000000000e+00  4.3450697195283228e+00 5.3250903557696745e+00 0.0000000000000000e+00  4.7795704357710331e+00 5.4799646295775846e+00 0.0000000000000000e+00  5.3367738198693591e+00 6.1832260434125068e+00 0.0000000000000000e+00  6.0239089790753786e+00 6.7875098325629430e+00 0.0000000000000000e+00  6.6304217377167092e+00 7.3575223961310297e+00 0.0000000000000000e+00  7.1500184672889979e+00 7.6636227962871608e+00 0.0000000000000000e+00  7.7971510553642256e+00 8.2008058523831870e+00 0.0000000000000000e+00  8.2921150340007301e+00 8.2305486362668958e+00 0.0000000000000000e+00  8.3183355870959446e+00 7.0652594694326503e+00 0.0000000000000000e+00  9.3453604472889911e+00 7.2532810116071671e+00 0.0000000000000000e+00  6.1888220127207552e+00 1.1264030650551169e+00 0.0000000000000000e+00  1.7268572103090843e+01 1.6375868998855470e+01 0.0000000000000000e+00  1.6909162652308620e+01 1.4445132436036676e+01 0.0000000000000000e+00  1.6932442853735047e+01 1.3010370875231098e+01 0.0000000000000000e+00  1.7390158383729631e+01 1.2348635488820452e+01 0.0000000000000000e+00  1.8233889369161627e+01 1.2098840995383478e+01 0.0000000000000000e+00  1.9365336405337743e+01 1.2262624775001004e+01 0.0000000000000000e+00  2.0690760560357404e+01 1.2629912848527352e+01 0.0000000000000000e+00  2.2118649098321068e+01 1.3113355777306849e+01 0.0000000000000000e+00  2.3559655736151548e+01 1.3177908113369428e+01 0.0000000000000000e+00  2.4937406110797674e+01 1.3506079183058805e+01 0.0000000000000000e+00  2.6187313183285546e+01 1.2562018106171116e+01 0.0000000000000000e+00  2.7257104866894757e+01 1.2151455711571463e+01 0.0000000000000000e+00  2.8111952684645718e+01 9.6745916381916981e+00 0.0000000000000000e+00  2.8743435459520967e+01 8.1222792065772893e+00 0.0000000000000000e+00  2.9147086638879923e+01 4.1109817796382435e+00 0.0000000000000000e+00  2.9361997264834933e+01 9.0675067058532277e-01 0.0000000000000000e+00  2.9397169127273706e+01 2.3696223083344956e-03 0.0000000000000000e+00  2.9330404920906300e+01 7.2383974687129635e+00 0.0000000000000000e+00  2.9397151695164244e+01 -2.3316854679006219e-03 0.0000000000000000e+00  2.9032350014812351e+01 6.2302072680326948e-03 0.0000000000000000e+00  2.8736581153863547e+01 -3.44915664248