<?xml version="1.0"?>
<VTKFile type="UnstructuredGrid"  version="0.1"  >
<UnstructuredGrid>
<Piece  NumberOfPoints="1933" NumberOfCells="3640">
<Points>
<DataArray  type="Float64"  NumberOfComponents="3"  format="ascii">-0.2939884981355853 0.0001968589851071238 0  4.706011542380573 0.0001679554226826051 0  4.706054943054873 7.500168083214136 0  -0.2939451352443819 7.500196921129976 0  9.706011594018307 0.0001389350686652466 0  9.706055085494462 7.500139085893649 0  14.70601171898998 0.0001097403883798167 0  14.70605532637013 7.500109897877167 0  19.70601198575825 8.036628957684808e-05 0  19.70605569933486 7.500080524460178 0  24.70601245858605 5.083899156424986e-05 0  24.70605623781292 7.500050996289379 0  29.70601319509009 2.12043807156048e-05 0  29.70605697421026 7.500021361183178 0  34.70601424684622 -8.478411561735561e-06 0  34.70605793934262 7.499991679109987 0  39.70601566103313 -3.81402562893375e-05 0  39.70605916224136 7.499962019557833 0  44.70601748229893 -6.770321622691844e-05 0  44.70606067021275 7.499932460628978 0  49.70601975453996 -9.708030143409018e-05 0  49.70606248898659 7.499903089417072 0  54.70602252249577 -0.0001261741191348693 0  54.70606464281749 7.499874003418162 0  59.70602583314049 -0.0001548745496334456 0  59.70606715441823 7.499845312879056 0  64.70602973687714 -0.000183055434119399 0  64.70607004460449 7.499817144110884 0  69.70603428851997 -0.0002105701329840512 0  69.70607333151324 7.499789643909502 0  74.70603954802097 -0.0002372456801045849 0  74.70607702920664 7.499762985344375 0  79.70604558082208 -0.0002628750952414767 0  79.70608114539165 7.499737375321859 0  84.70605245760274 -0.0002872071940274029 0  84.70608567787373 7.499713064514975 0  89.70606025297876 -0.0003099329121240897 0  89.70609060917535 7.499690360503877 0  94.70606904234472 -0.0003306666758820758 0  94.70609589851108 7.499669645311813 0  99.70607889535361 -0.0003489206128408444 0  99.70610147000114 7.499651398970051 0  104.7060898632589 -0.0003640682608905893 0  104.706107195639 7.499636231295479 0  109.7061019548954 -0.0003752927020835707 0  109.7061128712988 7.499624924619446 0  114.7061150914551 -0.0003815114556177039 0  114.7061181843528 7.499618490448502 0  119.7061290212552 -0.0003812667806733268 0  119.7061226733698 7.499618242083435 0  124.7061431583984 -0.000372565423329777 0  124.7061256865175 7.499625880922152 0  129.7061562755279 -0.0003526482143279467 0  129.7061263617114 7.49964358166387 0  134.7061659148081 -0.0003176762184598542 0  134.7061236920868 7.499674031209892 0  139.7061672491619 -0.0002623746133583586 0  139.7061168367804 7.499720314199819 0  144.7061508467363 -0.0001799522349344315 0  144.7061060677591 7.499785462644629 0  149.7060981126777 -6.397970995458654e-05 0  149.7060953375144 7.499871713859149 0  159.7061073738548 8.644619715496658e-19 0  164.7059861981714 -0.0001819035313983266 0  164.7060872667441 7.499788795669051 0  159.7061202868244 7.499931213670219 0  169.705925192328 -0.0003298808022816055 0  169.7060535890749 7.499655415225778 0  174.7058954351736 -0.0004535868086782278 0  174.7060267769022 7.499538403201046 0  179.7058824169288 -0.0005587311030185122 0  179.7060074614791 7.49943671371102 0  184.7058785001234 -0.0006495636366709379 0  184.7059944395686 7.499347772277214 0  189.7058795473122 -0.0007293310099906003 0  189.7059862284362 7.499269076633292 0  194.7058832664707 -0.0008004894388446577 0  194.7059815286632 7.499198542539673 0  199.7058883616929 -0.0008648869047888958 0  199.705979320532 7.4991345186007 0  204.7058940860666 -0.0009239173229474375 0  204.7059788418376 7.499075717858399 0  209.7059000017373 -0.0009786410582643065 0  209.7059795359664 7.499021139333548 0  214.7059058487627 -0.001029874451091945 0  214.7059810007783 7.498970000292593 0  219.7059114719815 -0.001078254633501731 0  219.7059829469492 7.498921683017678 0  224.7059167793378 -0.001124286022747345 0  224.7059851665193 7.498875694567919 0  229.7059217175744 -0.001168373706650768 0  229.7059875100037 7.498831636814709 0  234.7059262577284 -0.001210847596904373 0  234.7059898700272 7.498789184185872 0  239.7059303862896 -0.001251980103427819 0  239.7059921697091 7.498748067061702 0  244.7059340997302 -0.00129199924393387 0  244.7059943544484 7.49870805928233 0  249.7059374010981 -0.001331098508078876 0  249.7059963861158 7.498668968648662 0  254.7059402979363 -0.001369444383359263 0  254.7059982389651 7.498630629620587 0  259.7059428010857 -0.001407182164574142 0  259.7059998967678 7.4985928976519 0  264.7059449241396 -0.001444440467067225 0  264.7060013508417 7.498555644775738 0  269.7059466833995 -0.00148133471343469 0  269.7060025987352 7.498518756188426 0  274.7059480982834 -0.001517969737961855 0  274.7060036433865 7.498482127691167 0  279.7059491921705 -0.001554441528181654 0  279.7060044926293 7.498445663956057 0  284.7059499936866 -0.001590837969975948 0  284.7060051589222 7.498409277701308 0  289.7059505384008 -0.001627238239473823 0  289.7060056591658 7.49837289000813 0  294.7059508708164 -0.001663710123022074 0  294.7060060145145 7.498336432204438 0  299.7059510461572 -0.001700303928271605 0  299.7060062501033 7.49829984998651 0  304.7059511307036 -0.00173704058879659 0  304.7060063949668 7.498263110729312 0  309.7059511974099 -0.00177388989411019 0  309.7060064833649 7.498226215230121 0  4.706097973893185 15.00016837589864 0  -0.2939021116892634 15.00019707318052 0  9.706098116552008 15.00013942142067 0  14.70609834567113 15.00011023434609 0  19.70609868103519 15.00008084695503 0  24.70609913856049 15.00005130231425 0  29.70609973241624 15.00002165358915 0  34.70610047552182 14.99999196273671 0  39.7061013793867 14.99996229968046 0  44.70610245369127 14.99993274226066 0  49.70610370573428 14.99990337698938 0  54.70610513974725 14.99987430058789 0  59.70610675601725 14.99984562231247 0  64.70610854973182 14.99981746712817 0  69.70611050943404 14.99978997985748 0  74.70611261496336 14.99976333050577 0  79.70611483473716 14.99973772104843 0  84.70611712223165 14.99971339405306 0  89.70611941154914 14.9996906435957 0  94.70612161208264 14.99966982897914 0  99.70612360255159 14.99965139170579 0  104.706125225307 14.99963587583325 0  109.7061262829818 14.999623950919 0  114.7061265418321 14.99961643456642 0  119.7061257500994 14.99961430680832 0  124.7061236863569 14.99961869872354 0  129.706120262699 14.99963081821007 0  134.7061157196595 14.99965173846214 0  139.7061109559097 14.99968190341459 0  144.7061080060119 14.99972005754307 0  149.7061105096999 14.9997609077331 0  164.7061372018249 14.99970802364239 0  159.7061405737458 14.99980271162276 0  169.7061255035088 14.99960747459915 0  174.7061108525996 14.99951011837359 0  179.706096644661 14.99941986857519 0  184.7060844023944 14.99933758926314 0  189.7060745667893 14.99926281581252 0  194.7060670525637 14.99919462753945 0  199.7060615595511 14.99913203309835 0  204.7060577302757 14.99907412146707 0  209.7060552222584 14.99902010778963 0  214.7060537362006 14.99896933520777 0  219.7060530227587 14.99892126050161 0  224.7060528798322 14.99887543564917 0  229.7060531463277 14.99883149017573 0  234.706053695239 14.99878911592772 0  239.7060544272343 14.99874805453662 0  244.7060552651841 14.99870808731934 0  249.7060561496893 14.99866902721604 0  254.7060570355111 14.9986307123702 0  259.7060578887705 14.99859300101875 0  264.7060586847567 14.99855576743131 0  269.7060594062241 14.9985188987117 0  274.7060600420529 14.9984822923398 0  279.7060605861728 14.99844585439152 0  284.7060610367027 14.99840949842452 0  289.7060613952452 14.99837314504543 0  294.7060616664539 14.99833672214188 0  299.7060618580787 14.99830016558265 0  304.7060619821112 14.99826341962413 0  309.7060620581479 14.99822643473338 0  4.706140620507673 22.50016896388473 0  -0.2938594633629362 22.50019754117958 0  9.706140738842299 22.50014003901845 0  14.70614091228602 22.50011083607606 0  19.70614115192603 22.50008141482537 0  24.70614146329442 22.50005183344702 0  29.70614184871091 22.50002215255808 0  34.70614230829514 22.49999243713989 0  39.70614284013429 22.49996275766685 0  44.70614343995524 22.49993319113139 0  49.70614410050283 22.49990382231101 0  54.70614481071454 22.49987474545214 0  59.70614555472422 22.49984606647376 0  64.70614631069297 22.49981790577697 0  69.70614704946148 22.4997904017494 0  74.70614773303599 22.49976371506414 0  79.70614831296535 22.49973803387112 0  84.70614872875683 22.4997135799494 0  89.70614890663872 22.49969061579514 0  94.7061487592489 22.49966945240513 0  99.70614818726284 22.49965045707301 0  104.7061470846578 22.49963405966686 0  109.7061453503069 22.49962075429221 0  114.7061429099425 22.49961109047872 0  119.7061397540563 22.49960564332653 0  124.7061359984104 22.49960494444436 0  129.706131972757 22.49960934409461 0  134.7061283361665 22.49961876001577 0  139.7061261958402 22.49963225505842 0  144.7061271557682 22.49964739641717 0  149.7061331220912 22.4996594740294 0  164.7061690599476 22.49961761844072 0  159.7061592301462 22.49968219889502 0  169.7061710062314 22.49954349872286 0  174.7061675593934 22.49946633723262 0  179.7061611826086 22.4993903435067 0  184.7061537160174 22.49931775088728 0  189.7061463097215 22.49924945283413 0  194.7061395823099 22.49918557487538 0  199.7061338026482 22.49912585755914 0  204.7061290316399 22.49906987992748 0  209.7061252177446 22.49901717872575 0  214.7061222562114 22.49896730658065 0  219.7061200235545 22.49891985676448 0  224.7061183963466 22.49887447067075 0  229.7061172605761 22.49883083693695 0  234.7061165155778 22.49878868696111 0  239.7061160749839 22.4987477892306 0  244.706115866153 22.49870794362254 0  249.7061158288961 22.49866897618148 0  254.706115913967 22.4986307345501 0  259.7061160815304 22.49859308407439 0  264.7061162997425 22.49855590453937 0  269.7061165434623 22.49851908747052 0  274.7061167931141 22.49848253393364 0  279.706117033703 22.498446152765 0  284.7061172539863 22.49840985914604 0  289.7061174458547 22.49837357338089 0  294.7061176040401 2
[...]
<PointData  Vectors="v"> 
<DataArray  type="Float64"  Name="v"  NumberOfComponents="3" format="ascii">-1.1011596867471227e+00 -7.6635446382013113e+00 0.0000000000000000e+00  -1.6583637766940553e+00 -7.1709797088331619e+00 0.0000000000000000e+00  -1.5282535704519939e+00 -6.3354291565115588e+00 0.0000000000000000e+00  -1.0981580626122929e+00 -7.0186570257662959e+00 0.0000000000000000e+00  -2.3519889737472468e+00 -7.7488576616348572e+00 0.0000000000000000e+00  -2.0850519453733098e+00 -6.7094240375422292e+00 0.0000000000000000e+00  -2.9729956467481959e+00 -8.7708058522096390e+00 0.0000000000000000e+00  -2.7774466373414568e+00 -7.8408814671919380e+00 0.0000000000000000e+00  -3.5164813415402092e+00 -9.0822629620831901e+00 0.0000000000000000e+00  -3.3964483859897885e+00 -8.2693544240662185e+00 0.0000000000000000e+00  -4.1974330729590017e+00 -9.9557702112285220e+00 0.0000000000000000e+00  -3.9371642171349399e+00 -8.9373907451916139e+00 0.0000000000000000e+00  -4.7364120020207352e+00 -1.0309492928524193e+01 0.0000000000000000e+00  -4.6144064618490965e+00 -9.5046713760417774e+00 0.0000000000000000e+00  -4.8155057994575881e+00 -1.0046497377774058e+01 0.0000000000000000e+00  -5.1488612764311172e+00 -9.9322457610737178e+00 0.0000000000000000e+00  -5.8993040867481650e+00 -1.1142263006291223e+01 0.0000000000000000e+00  -5.2226744594742653e+00 -9.5217222019913930e+00 0.0000000000000000e+00  -2.7934494942804204e+00 -5.9786185669221981e+00 0.0000000000000000e+00  -6.3002551701337834e+00 -1.0642915707047063e+01 0.0000000000000000e+00  -1.3915320839543492e+01 -2.1862985135185152e+01 0.0000000000000000e+00  -3.1874390916430970e+00 -5.1871495478440588e+00 0.0000000000000000e+00  -1.3595536141091795e+01 -2.0088889455806033e+01 0.0000000000000000e+00  -1.4301846413111926e+01 -2.0575713504750023e+01 0.0000000000000000e+00  -1.3672698142917261e+01 -1.8769285197577133e+01 0.0000000000000000e+00  -1.3973527680493778e+01 -1.8661709888696876e+01 0.0000000000000000e+00  -1.4203784137635088e+01 -1.8102269529747741e+01 0.0000000000000000e+00  -1.4040863731633829e+01 -1.7315171351018293e+01 0.0000000000000000e+00  -1.5143937520700476e+01 -1.8069356221765659e+01 0.0000000000000000e+00  -1.4560756299170682e+01 -1.6670047286303422e+01 0.0000000000000000e+00  -1.6394126778310284e+01 -1.8460862969452048e+01 0.0000000000000000e+00  -1.5487869335247598e+01 -1.6597563984097885e+01 0.0000000000000000e+00  -1.7860706153255432e+01 -1.9069720726755410e+01 0.0000000000000000e+00  -1.6723539175511206e+01 -1.6883283615198746e+01 0.0000000000000000e+00  -1.9453090129186975e+01 -1.9956757347697774e+01 0.0000000000000000e+00  -1.8174273017328915e+01 -1.7582882595433553e+01 0.0000000000000000e+00  -2.1080808912793309e+01 -2.0695885655553010e+01 0.0000000000000000e+00  -1.9748949099945467e+01 -1.8269830030532692e+01 0.0000000000000000e+00  -2.2667145554315386e+01 -2.1320631665342482e+01 0.0000000000000000e+00  -2.1357813892900921e+01 -1.8958067912533995e+01 0.0000000000000000e+00  -2.4148523906028664e+01 -2.1668546432905917e+01 0.0000000000000000e+00  -2.2923961809244577e+01 -1.9464206320852671e+01 0.0000000000000000e+00  -2.5469512502370311e+01 -2.1703852483705070e+01 0.0000000000000000e+00  -2.4383903494671557e+01 -1.9741032469526761e+01 0.0000000000000000e+00  -2.6594350397071562e+01 -2.0974552645872940e+01 0.0000000000000000e+00  -2.5682030721362224e+01 -1.9306417756406368e+01 0.0000000000000000e+00  -2.7509419927228194e+01 -2.0255405365129661e+01 0.0000000000000000e+00  -2.6784032358797344e+01 -1.8903411512004642e+01 0.0000000000000000e+00  -2.8209027961070671e+01 -1.8106637379710911e+01 0.0000000000000000e+00  -2.7673822981751080e+01 -1.7076633871036684e+01 0.0000000000000000e+00  -2.8715188298181534e+01 -1.6436192700328931e+01 0.0000000000000000e+00  -2.8349938948977275e+01 -1.5699348620237682e+01 0.0000000000000000e+00  -2.9046632959754767e+01 -1.2753129134449194e+01 0.0000000000000000e+00  -2.8828776707013684e+01 -1.2274704591363182e+01 0.0000000000000000e+00  -2.9247443613831308e+01 -1.0092417844831322e+01 0.0000000000000000e+00  -2.9137518488016614e+01 -9.8156383066051394e+00 0.0000000000000000e+00  -2.9342415846508715e+01 -5.2033130372071206e+00 0.0000000000000000e+00  -2.9308931135157682e+01 -5.0774986073725792e+00 0.0000000000000000e+00  -2.9381811235259754e+01 -1.2368720617237070e+00 0.0000000000000000e+00  -2.9383432845929523e+01 -1.2048150140835450e+00 0.0000000000000000e+00  -2.9389262609058282e+01 4.7140037060126431e-09 0.0000000000000000e+00  -2.9389940977459723e+01 -7.0929009558718910e-04 0.0000000000000000e+00  -2.9389262614651710e+01 4.1363334145019568e-19 0.0000000000000000e+00  -2.0123522874863713e+01 7.0750882376343114e+00 0.0000000000000000e+00  -2.9383912892856017e+01 -6.7977716923606160e+00 0.0000000000000000e+00  -2.9389929047006607e+01 6.7738916177691058e-04 0.0000000000000000e+00  -2.0747942546967046e+01 1.3371164179972341e+01 0.0000000000000000e+00  -2.0151241143976016e+01 1.4347987596835605e+01 0.0000000000000000e+00  -1.7729717754604835e+01 2.0812962896105596e+01 0.0000000000000000e+00  -2.0813324931088111e+01 1.6316447303918771e+01 0.0000000000000000e+00  -1.6952039145544443e+01 2.2298981599267925e+01 0.0000000000000000e+00  -1.7833414048400542e+01 2.1167301386904235e+01 0.0000000000000000e+00  -1.5272251776660630e+01 2.5077745919994886e+01 0.0000000000000000e+00  -1.7093300906840163e+01 2.2591096828904480e+01 0.0000000000000000e+00  -1.4060557274724601e+01 2.5292723126460370e+01 0.0000000000000000e+00  -1.5450550654620489e+01 2.3508911069849141e+01 0.0000000000000000e+00  -1.2765797845346830e+01 2.5372925327638672e+01 0.0000000000000000e+00  -1.4276141535180313e+01 2.3463248908513599e+01 0.0000000000000000e+00  -1.1650037638016308e+01 2.4321057466710045e+01 0.0000000000000000e+00  -1.3017866857695847e+01 2.2680369746129060e+01 0.0000000000000000e+00  -1.0322091141794603e+01 2.3152975120943875e+01 0.0000000000000000e+00  -1.1938204892135166e+01 2.1193321334700205e+01 0.0000000000000000e+00  -9.3664941316833001e+00 2.1311512822912029e+01 0.0000000000000000e+00  -1.0646165775780007e+01 1.9910146631449805e+01 0.0000000000000000e+00  -8.5834329376687872e+00 1.9455633239720736e+01 0.0000000000000000e+00  -9.7260049327784923e+00 1.8312861033920242e+01 0.0000000000000000e+00  -7.7317344253421654e+00 1.7762010958564478e+01 0.0000000000000000e+00  -8.9780078134133579e+00 1.6516020554779491e+01 0.0000000000000000e+00  -6.9250866153598674e+00 1.6162228797581690e+01 0.0000000000000000e+00  -8.1611684313960300e+00 1.4983437257703486e+01 0.0000000000000000e+00  -6.1673474188753188e+00 1.4746144876765998e+01 0.0000000000000000e+00  -7.3889636272982422e+00 1.3640530125019357e+01 0.0000000000000000e+00  -5.4219819353828171e+00 1.3450317482461260e+01 0.0000000000000000e+00  -6.6653024999064643e+00 1.2362920453855487e+01 0.0000000000000000e+00  -4.7438410308923098e+00 1.2209253816672890e+01 0.0000000000000000e+00  -5.9537092654284063e+00 1.1222361562184942e+01 0.0000000000000000e+00  -4.1407066088508966e+00 1.1070668012875508e+01 0.0000000000000000e+00  -5.3089508585639598e+00 1.0196002262842846e+01 0.0000000000000000e+00  -3.5750972682175601e+00 9.9818117517376361e+00 0.0000000000000000e+00  -4.7387895395605915e+00 9.1631420941224970e+00 0.0000000000000000e+00  -3.0723323450458104e+00 8.9188497308034815e+00 0.0000000000000000e+00  -4.2058718371102177e+00 8.1940665007488533e+00 0.0000000000000000e+00  -2.6414377698865055e+00 7.9209763205963624e+00 0.0000000000000000e+00  -3.7353323711926412e+00 7.3038122490686623e+00 0.0000000000000000e+00  -2.2463560176807573e+00 6.9166452109008123e+00 0.0000000000000000e+00  -3.3364393918696424e+00 6.3527506183646336e+00 0.0000000000000000e+00  -1.9055090273108906e+00 5.9814980150822459e+00 0.0000000000000000e+00  -2.9727957716941109e+00 5.4989073216247100e+00 0.0000000000000000e+00  -1.6184398311402148e+00 5.0283442066837534e+00 0.0000000000000000e+00  -2.6634404610443942e+00 4.6257256826383468e+00 0.0000000000000000e+00  -1.3658720932662400e+00 4.2131684413234884e+00 0.0000000000000000e+00  -2.4068177091058756e+00 3.8627769175275746e+00 0.0000000000000000e+00  -1.1477612628824974e+00 3.2741504235192380e+00 0.0000000000000000e+00  -2.1856213085329523e+00 2.9738748236669061e+00 0.0000000000000000e+00  -9.5694638629277284e-01 2.7362118714424870e+00 0.0000000000000000e+00  -1.9964626828887122e+00 2.4788748578787092e+00 0.0000000000000000e+00  -7.8080481912044053e-01 1.7856731892210462e+00 0.0000000000000000e+00  -1.8377831571528493e+00 1.5463784116638428e+00 0.0000000000000000e+00  -5.4320810835848143e-01 1.7288461724709137e+00 0.0000000000000000e+00  -1.6876921553979394e+00 1.4034023748830287e+00 0.0000000000000000e+00  -1.8294611165583885e-01 1.2033096977377631e+00 0.0000000000000000e+00  -1.4862924021787565e+00 6.8274350933908989e-01 0.0000000000000000e+00  6.6174070999421997e-01 7.4467729828494433e-03 0.0000000000000000e+00  -1.1405353030389511e+00 -1.2182032438765451e+00 0.0000000000000000e+00  -1.8057506624859450e+00 -5.6898917193055363e+00 0.0000000000000000e+00  -1.3317783878673375e+00 -6.3086416480086198e+00 0.0000000000000000e+00  -2.2361911033532844e+00 -5.8743133991891758e+00 0.0000000000000000e+00  -2.7924771997753939e+00 -6.8031744759715354e+00 0.0000000000000000e+00  -3.4831069065211668e+00 -7.3425134170694788e+00 0.0000000000000000e+00  -4.0989400653324592e+00 -8.1287543054561180e+00 0.0000000000000000e+00  -4.6350171020499653e+00 -8.4922774252925510e+00 0.0000000000000000e+00  -5.3059938656017112e+00 -9.1350996763890180e+00 0.0000000000000000e+00  -5.8324163964410074e+00 -9.4162412509658893e+00 0.0000000000000000e+00  -5.8967318148472403e+00 -9.0329081755709328e+00 0.0000000000000000e+00  -6.9633106572358514e+00 -9.8633203639380014e+00 0.0000000000000000e+00  -3.8387356129994989e+00 -3.9109692413819626e+00 0.0000000000000000e+00  -1.4942420614131017e+01 -1.9160546816801723e+01 0.0000000000000000e+00  -1.4602952608291821e+01 -1.7221975026891563e+01 0.0000000000000000e+00  -1.4656674731492158e+01 -1.5899176959697677e+01 0.0000000000000000e+00  -1.5160294074497278e+01 -1.5218327630564666e+01 0.0000000000000000e+00  -1.6067510173615744e+01 -1.5043280074504521e+01 0.0000000000000000e+00  -1.7279761195088824e+01 -1.5421750272619182e+01 0.0000000000000000e+00  -1.8704048411141919e+01 -1.5925227809165360e+01 0.0000000000000000e+00  -2.0248703844822220e+01 -1.6564263068899503e+01 0.0000000000000000e+00  -2.1824114842220965e+01 -1.7135516546120069e+01 0.0000000000000000e+00  -2.3354178209143079e+01 -1.7574371735451056e+01 0.0000000000000000e+00  -2.4774489611616058e+01 -1.7383651655902231e+01 0.0000000000000000e+00  -2.6030361926746266e+01 -1.7276624607188538e+01 0.0000000000000000e+00  -2.7087457808435005e+01 -1.5768682475956885e+01 0.0000000000000000e+00  -2.7930657405741901e+01 -1.4715256543183083e+01 0.0000000000000000e+00  -2.8557104549058149e+01 -1.1582706864870836e+01 0.0000000000000000e+00  -2.8988119157693404e+01 -9.3867930328207017e+00 0.0000000000000000e+00  -2.9243894843690352e+01 -4.8417381420504446e+00 0.0000000000000000e+00  -2.9371380928537359e+01 -1.1332528387604850e+00 0.0000000000000000e+00  -2.9391565326357700e+01 -1.3511147493649445e-03 0.0000000000000000e+00  -2.9362957157527333e+01 -6.8602112755761455e+00 0.0000000000000000e+00  -2.9391543567568888e+01 1.3313422404402999e-03 0.0000000000000000e+00  -2.9301254775584553e+01 5.1239449479823462e-01 0.0000000000000000e+00  -2.0102857141432260e+01 1.7336586030259539e+01 0.0000000000000000e+00  -2.0809467223142029e+01 1.6723157305316246e+01 0.0000000000000000e+00  -1.7872038390257309e+01 2.1507375596946883e+01 0.0000000000000000e+00  -1.7174964751348622e+01 2.1067853169519136e+01 0.0000000000000000e+00  -1.5571751295180052e+01 2.1726074456008167e+01 0.0000000000000000e+00  -1.4436750117011345e+01 2.0815289730849567e+01 0.0000000000000000e+00  -1.3215610644286935e+01 1.9595339343309821e+01 0.0000000000000000e+00  -1.2171781516752318e+01 1.7993269129778220e+01 0.0000000000000000e+00  -1.0914640268338816e+01 1.6953211810774267e+01 0.0000000000000000e+00  -1.0028585289912813e+01 1.5413932804672120e+01 0.0000000000000000e+00  -9.3138688106343785e+00 1.3778091743768602e+01 0.0000000000000000e+00  -8.5299611563782616e+00 1.2501729993873084e+01 0.0000000000000000e+00  -7.7901250455375219e+00 1.1296502094416860e+01 0.0000000000000000e+00  -7.0982164437221309e+00 1.0173870664298216e+01 0.0000000000000000e+00  -6.4178902617128895e+00 9.2473665524374251e+00 0.0000000000000000e+00  -5.8037893471576192e+00 8.3259859943369339e+00 0.0000000000000000e+00  -5.2636365214453038e+00 7.4124662950013978e+00 0.0000000000000000e+00  -4.7601402089430982e+00 6.6154568596231513e+00 0.0000000000000000e+00  -4.3184314828321027e+00 5.7713396860237198e+00 0.0000000000000000e+00  -3.9476637862633854e+00 4.9702680137575479e+00 0.0000000000000000e+00  -3.6116740935256626e+00 4.1778021125908733e+00 0.0000000000000000e+00  -3.3291795524458236e+00 3.4941497591239346e+00 0.0000000000000000e+00  -3.0990997413782919e+00 2.6570771246965093e+00 0.0000000000000000e+00  -2.9033321624027710e+00 2.2115238821679606e+00 0.0000000000000000e+00  -2.7399556506171794e+00 1.3212186916624362e+00 0.0000000000000000e+00  -2.6046915572768610e+00 1.1962441433103845e+00 0.0000000000000000e+00  -2.4802513564280053e+00 3.8975021369409218e-01 0.0000000000000000e+00  -2.3003636984024496e+00 -1.7174127647560051e+00 0.0000000000000000e+00  -2.5188237355380916e+00 -4.9780730695238242e+00 0.0000000000000000e+00  -2.0905286713168305e+00 -5.6676326922975457e+00 0.0000000000000000e+00  -2.9940363075017125e+00 -5.2277714641550954e+00 0.0000000000000000e+00  -3.4257636738515687e+00 -5.9690802894456505e+00 0.0000000000000000e+00  -3.9815056511686411e+00 -6.3083388342951929e+00 0.0000000000000000e+00  -4.6696087363804297e+00 -7.2085051340268524e+00 0.0000000000000000e+00  -5.2804654533431536e+00 -7.6938415190936542e+00 0.0000000000000000e+00  -5.8084794649150568e+00 -8.1363852364769453e+00 0.0000000000000000e+00  -6.4683761223038605e+00 -8.6366615179328203e+00 0.0000000000000000e+00  -6.9806044091340969e+00 -8.9488403052817578e+00 0.0000000000000000e+00  -7.0275402377309772e+00 -8.2774947474161316e+00 0.0000000000000000e+00  -8.0749460172479424e+00 -8.6119066863111922e+00 0.0000000000000000e+00  -4.9325095915078201e+00 -2.5175541954869849e+00 0.0000000000000000e+00  -1.6021801601173152e+01 -1.7742127243619557e+01 0.0000000000000000e+00  -1.5668303740532254e+01 -1.5832629094525243e+01 0.0000000000000000e+00  -1.5703738767471242e+01 -1.4481181359483044e+01 0.0000000000000000e+00  -1.6182644477896176e+01 -1.3705326518987025e+01 0.0000000000000000e+00  -1.7058408520901040e+01 -1.3631388479790308e+01 0.0000000000000000e+00  -1.8232297702745040e+01 -1.3821772383169323e+01 0.0000000000000000e+00  -1.9610875631546495e+01 -1.4284932487094466e+01 0.0000000000000000e+00  -2.1102946778004327e+01 -1.4814926607431428e+01 0.0000000000000000e+00  -2.2619139999237298e+01 -1.5326929430341904e+01 0.0000000000000000e+00  -2.4082496908061550e+01 -1.5304560278262747e+01 0.0000000000000000e+00  -2.5430044216065987e+01 -1.5449987402258841e+01 0.0000000000000000e+00  -2.6606076244097853e+01 -1.4242327955184933e+01 0.0000000000000000e+00  -2.7578757107390974e+01 -1.3516005078684389e+01 0.0000000000000000e+00  -2.8330742668757257e+01 -1.0706140781119206e+01 0.0000000000000000e+00  -2.8866234029280793e+01 -8.8139947527919862e+00 0.0000000000000000e+00  -2.9198820020456107e+01 -4.5144917574856747e+00 0.0000000000000000e+00  -2.9368822939886545e+01 -1.0260129830302012e+00 0.0000000000000000e+00  -2.9394100385031567e+01 -1.9321012919850521e-03 0.0000000000000000e+00  -2.9344749481325405e+01 -7.0213900357934822e+00 0.0000000000000000e+00  -2.9394081082586254e+01 1.9039460373633423e-03 0.0000000000000000e+00  -2.9151963376063311e+01 3.8999258338519377e-01 0.0000000000000000e+00  -2.9080611654368376e+01 3.5809457994698297e+00 0.0000000000000000e+00  -1.9939912036913878e+01 1.7838238422333397e+01 0.0000000000000000e+00  -2.0719020909534581e+01 1.7152179188697211e+01 0.0000000000000000e+00  -1.7850714060352495e+01 2.0074280416626230e+01 0.0000000000000000e+00  -1.7219605727260504e+01 1.9367581670921318e+01 0.0000000000000000e+00  -1.5677048181911131e+01 1.9157747991824305e+01 0.0000000000000000e+00  -1.4599426556362523e+01 1.7805476019153161e+01 0.0000000000000000e+00  -1.3431326577724194e+01 1.6467416455645434e+01 0.0000000000000000e+00  -1.2438004985812551e+01 1.5105646641269702e+01 0.0000000000000000e+00  -1.1229158364811333e+01 1.4122083602385176e+01 0.0000000000000000e+00  -1.0389872793257258e+01 1.2742249818815804e+01 0.0000000000000000e+00  -9.7209388364251748e+00 1.1361553308620277e+01 0.0000000000000000e+00  -8.9820634666210779e+00 1.0221881350776597e+01 0.0000000000000000e+00  -8.2864016770634947e+00 9.1704731087883236e+00 0.0000000000000000e+00  -7.6378709768032351e+00 8.2606357885625119e+00 0.0000000000000000e+00  -6.9999749705098102e+00 7.4379257600909439e+00 0.0000000000000000e+00  -6.4272853293834995e+00 6.6344732961117003e+00 0.0000000000000000e+00  -5.9274634205083769e+00 5.8917257853213032e+00 0.0000000000000000e+00  -5.4632632796025629e+00 5.1393750139628285e+00 0.0000000000000000e+00  -5.0596100027475162e+00 4.4441091250034512e+00 0.0000000000000000e+00  -4.7259812832965604e+00 3.7026136258634987e+00 0.0000000000000000e+00  -4.4256677729740970e+00 3.0990492866469457e+00 0.0000000000000000e+00  -4.1782503516821334e+00 2.3386593841651422e+00 0.0000000000000000e+00  -3.9811906979914964e+00 1.9456581261983905e+00 0.0000000000000000e+00  -3.8187807015373325e+00 1.0996628947744826e+00 0.0000000000000000e+00  -3.6847290277195555e+00 1.0220285869863110e+00 0.0000000000000000e+00  -3.5830935585901198e+00 2.2098241258363724e-01 0.0000000000000000e+00  -3.4796168901969078e+00 -1.9571376609032047e+00 0.0000000000000000e+00  -3.4385641753742120e+00 -4.3342971363896741e+00 0.0000000000000000e+00  -3.0484694305341153e+00 -5.0844711032028220e+00 0.0000000000000000e+00  -3.8688890201522481e+00 -4.5129044045766404e+00 0.0000000000000000e+00  -4.3474296470683340e+00 -5.3194181620191543e+00 0.0000000000000000e+00  -4.7819974328265396e+00 -5.4737059171734703e+00 0.0000000000000000e+00  -5.3390533493295367e+00 -6.1771725936483923e+00 0.0000000000000000e+00  -6.0257376581855597e+00 -6.7805573340769785e+00 0.0000000000000000e+00  -6.6318173596190464e+00 -7.3502256077874009e+00 0.0000000000000000e+00  -7.1510622614131432e+00 -7.6557830430052816e+00 0.0000000000000000e+00  -7.7977029345264279e+00 -8.1924955945424678e+00 0.0000000000000000e+00  -8.2923303610380987e+00 -8.2218897867809222e+00 0.0000000000000000e+00  -8.3185997547227828e+00 -7.0564618833601847e+00 0.0000000000000000e+00  -9.3453138497077894e+00 -7.2437358865273795e+00 0.0000000000000000e+00  -6.1878385321790264e+00 -1.1157224747200116e+00 0.0000000000000000e+00  -1.7270052900396205e+01 -1.6367776946257063e+01 0.0000000000000000e+00  -1.6910337830813877e+01 -1.4436706640264227e+01 0.0000000000000000e+00  -1.6933402999489537e+01 -1.3001872986527040e+01 0.0000000000000000e+00  -1.7390984418170170e+01 -1.2340061222075251e+01 0.0000000000000000e+00  -1.8234634911913794e+01 -1.2090295879638942e+01 0.0000000000000000e+00  -1.9366037794063143e+01 -1.2254277321648484e+01 0.0000000000000000e+00  -2.0691439173573585e+01 -1.2621408845157799e+01 0.0000000000000000e+00  -2.2119317718276847e+01 -1.3104844609184456e+01 0.0000000000000000e+00  -2.3560309255533575e+01 -1.3169041749884023e+01 0.0000000000000000e+00  -2.4938053281800922e+01 -1.3496903257245195e+01 0.0000000000000000e+00  -2.6187925281393046e+01 -1.2551499347220549e+01 0.0000000000000000e+00  -2.7257693533866913e+01 -1.2140525165195573e+01 0.0000000000000000e+00  -2.8112472682860115e+01 -9.6608753943657089e+00 0.0000000000000000e+00  -2.8743907408425606e+01 -8.1074998135883511e+00 0.0000000000000000e+00  -2.9147463851280889e+01 -4.0933452392055925e+00 0.0000000000000000e+00  -2.9362301933898824e+01 -8.8164994824926557e-01 0.0000000000000000e+00  -2