<?xml version="1.0"?>
<VTKFile type="UnstructuredGrid"  version="0.1"  >
<UnstructuredGrid>
<Piece  NumberOfPoints="1933" NumberOfCells="3640">
<Points>
<DataArray  type="Float64"  NumberOfComponents="3"  format="ascii">-0.2940036933797712 0.0007217034683338476 0  4.705996315698591 0.0006904277256056144 0  4.706043258059815 7.500690467875982 0  -0.2939567675229109 7.500721714283872 0  9.705996322381914 0.0006591090823061258 0  9.706043308365437 7.500659161004654 0  14.70599634951759 0.0006277139840634143 0  14.70604339813796 7.500627770402181 0  19.70599642523314 0.0005962304772425553 0  19.70604354257486 7.500596288423593 0  24.70599657774616 0.0005646601626341345 0  24.70604375753522 7.500564718643551 0  29.7059968337539 0.0005330134357241952 0  29.70604405922273 7.500533072400312 0  34.70599721834127 0.0005013066509751085 0  34.70604446395814 7.500501366511069 0  39.70599775551192 0.0004695605246620211 0  39.70604498813381 7.500469621931754 0  44.70599846894998 0.0004377993758675472 0  44.70604564831508 7.500437863124348 0  49.70599938284825 0.0004060509656620957 0  49.70604646142992 7.500406117960588 0  54.7060005227429 0.0003743467981945682 0  54.70604744499752 7.500374418057578 0  59.70600191634266 0.0003427228198393651 0  59.70604861735458 7.500342799496734 0  64.70600359436114 0.000311220507938499 0  64.70604999784311 7.500311303925057 0  69.70600559136527 0.000279888389069792 0  69.7060516069219 7.500279980081471 0  74.70600794665563 0.0002487840765602561 0  74.70605346615127 7.500248885837236 0  79.70601070518207 0.0002179769768080947 0  79.70605559798099 7.500218090894553 0  84.70601391848287 0.0001875518946360119 0  84.70605802523542 7.500187680359826 0  89.70601764559552 0.0001576138845957645 0  89.7060607701339 7.500157759507432 0  94.70602195381817 0.0001282948715605472 0  94.70606385260588 7.500128460190144 0  99.7060269190482 9.976283782512496e-05 0  99.70606728754562 7.500099949550216 0  104.7060326251394 7.223480641213332e-05 0  104.7060710805029 7.500072441958535 0  109.7060391611352 4.599554031757623e-05 0  109.7060752211438 7.500046215465485 0  114.7060466140789 2.14249821505024e-05 0  114.7060796737319 7.50002163445829 0  119.7060550527736 -9.607816520305001e-07 0  119.7060843641091 7.499999180539584 0  124.7060644931952 -2.044749989959363e-05 0  124.7060891638877 7.499979493436467 0  129.706074826834 -3.602808403062389e-05 0  129.7060938764221 7.499963421897045 0  134.7060856740862 -4.625867658230016e-05 0  134.7060982396057 7.49995207853125 0  139.7060960852287 -4.904775851044832e-05 0  139.7061019872968 7.499946878188334 0  144.7061039257979 -4.139401002697388e-05 0  144.7061050791096 7.499949517585046 0  149.7061045751337 -1.933459137687616e-05 0  149.7061083904949 7.49996189068077 0  159.7061073738537 1.17180767453359e-18 0  164.706047317629 -7.857726950793014e-05 0  164.7060965989262 7.499910083359923 0  159.706114566725 7.499972347313742 0  169.7060127237786 -0.0001477625646252286 0  169.7060781834879 7.499846559101973 0  174.7059920870351 -0.0002102695597126263 0  174.7060627194941 7.499786577080626 0  179.7059795108239 -0.0002674445304618956 0  179.7060506169458 7.499730706650007 0  184.7059717733102 -0.0003203377173011782 0  184.7060414596654 7.49967853862976 0  189.7059670398698 -0.0003698089999163266 0  189.7060346690909 7.499629487485319 0  194.705964228589 -0.0004165425510978063 0  194.7060297108897 7.4995830051428 0  199.7059626790644 -0.0004610715354967301 0  199.7060261471251 7.499538630919957 0  204.7059619738544 -0.0005038087457227589 0  204.7060236359886 7.499495992003683 0  209.7059618398495 -0.0005450749221310859 0  209.7060219161964 7.49945479021132 0  214.7059620924779 -0.0005851216700474724 0  214.7060207894342 7.499414786925541 0  219.7059626033181 -0.0006241488756397799 0  219.7060201051697 7.499375789900322 0  224.7059632807544 -0.0006623175696723583 0  224.7060197486949 7.499337642706847 0  229.7059640580678 -0.0006997593379779896 0  229.7060196321096 7.499300216604109 0  234.7059648858723 -0.0007365832161244491 0  234.7060196876484 7.499263404364749 0  239.7059657271603 -0.000772880783487326 0  239.7060198627791 7.499227115593246 0  244.7059665539711 -0.0008087299752534947 0  244.7060201166015 7.499191273154725 0  249.7059673450943 -0.0008441979794735541 0  249.7060204171949 7.499155810422326 0  254.705968084467 -0.0008793434764678329 0  254.706020739663 7.499120669127577 0  259.7059687600465 -0.0009142184000102942 0  259.7060210646831 7.499085797658027 0  264.7059693630398 -0.0009488693441038558 0  264.7060213774413 7.499051149692034 0  269.7059698874006 -0.0009833386975974237 0  269.7060216668565 7.499016683096281 0  274.7059703295709 -0.001017665554189929 0  274.7060219250213 7.498982359042302 0  279.7059706884379 -0.00105188641003902 0  279.7060221468232 7.498948141328439 0  284.7059709655268 -0.001086035615473078 0  284.7060223296806 7.49891399592933 0  289.7059711654331 -0.001120145475091133 0  289.7060224733771 7.498879890843472 0  294.7059712965145 -0.001154245761911997 0  294.7060225799289 7.498845796378334 0  299.7059713717746 -0.001188362165877126 0  299.7060226534674 7.498811686110156 0  304.705971409695 -0.001222512706616941 0  304.7060227001891 7.498777538877033 0  309.7059714342247 -0.001256700123758628 0  309.7060227287295 7.498743342267423 0  4.706090046497046 15.00069056771633 0  -0.293909983385701 15.00072174376054 0  9.706090102348453 15.00065928847718 0  14.7060901980557 15.0006279055375 0  19.70609034386404 15.00059642305691 0  24.70609054873337 15.0005648505024 0  29.7060908213215 15.00053320206215 0  34.7060911703098 15.0005014958751 0  39.70609160445354 15.00046975347333 0  44.70609213252736 15.00043799954912 0  49.70609276322973 15.0004062620586 0  54.70609350505563 15.00037457265112 0  59.70609436612259 15.00034296742213 0  64.70609535392099 15.00031148800876 0  69.70609647494771 15.00028018307368 0  74.70609773417718 15.00024911025535 0  79.70609913430428 15.00021833870022 0  84.70610067469393 15.00018795233647 0  89.70610234995505 15.00015805410216 0  94.70610414807288 15.00012877139498 0  99.70610604807233 15.00010026305709 0  104.7061080173106 15.00007272820836 0  109.7061100087696 15.00004641711217 0  114.7061119592952 15.00002164381867 0  119.7061137908187 14.99999879919241 0  124.7061154185612 14.99997836030137 0  129.7061167734321 14.99996088640239 0  134.7061178503887 14.99994697956021 0  139.7061187988277 14.99993716187712 0  144.7061200671145 14.99993156149661 0  149.7061225692178 14.99992913359163 0  164.7061270322458 14.99987983883982 0  159.7061301243047 14.99992724813321 0  169.7061207195584 14.9998278836158 0  174.7061130968485 14.99977514242008 0  179.7061055544353 14.99972361617922 0  184.7060987781658 14.9996740511493 0  189.7060930124845 14.99962657923251 0  194.7060882716939 14.99958107317318 0  199.7060844654813 14.99953731621606 0  204.7060814659815 14.99949507732092 0  209.7060791408995 14.99945414148156 0  214.706077368269 14.99941431955417 0  219.7060760417821 14.99937544922875 0  224.7060750715608 14.99933739255549 0  229.706074382925 14.99930003245577 0  234.7060739144533 14.999263269241 0  239.7060736159383 14.99922701751512 0  244.7060734465057 14.99919120355138 0  249.7060733729942 14.9991557631192 0  254.7060733686027 14.99912063969757 0  259.706073411784 14.99908578300779 0  264.7060734853487 14.9990511478056 0  269.7060735757464 14.99901669288693 0  274.7060736724782 14.9989823802764 0  279.7060737676168 14.99894817458192 0  284.7060738554072 14.99891404251365 0  289.7060739319185 14.99887995257301 0  294.706073994773 14.99884587490809 0  299.7060740429926 14.99881178126724 0  304.7060740771278 14.99877764476931 0  309.7060740999831 14.99874343858675 0  4.706136641764025 22.50069078454074 0  -0.2938633884224264 22.50072188468006 0  9.706136690552682 22.50065953682217 0  14.70613676913314 22.50062816172698 0  19.70613688445905 22.50059667642422 0  24.70613704115987 22.50056509799437 0  29.70613724268427 22.50053344482687 0  34.70613749186224 22.50050173723384 0  39.70613779109561 22.50046999776478 0  44.70613814232598 22.50043825148882 0  49.7061385468695 22.50040652638211 0  54.70613900515964 22.50037485389127 0  59.70613951641163 22.50034326971786 0  64.70614007820572 22.50031181486266 0  69.70614068597584 22.5002805369727 0  74.70614133239094 22.50024949204542 0  79.70614200661932 22.50021874655406 0  84.70614269348462 22.50018838006545 0  89.70614337255783 22.50015848841496 0  94.70614401729203 22.50012918746965 0  99.70614459442656 22.50010061741742 0  104.7061450640737 22.50007294731628 0  109.7061453812105 22.50004637922126 0  114.7061454997411 22.50002115041091 0  119.7061453808857 22.4999975307737 0  124.7061450082711 22.49997580984559 0  129.7061444123294 22.49995626369282 0  134.7061437053374 22.4999390851817 0  139.7061431230856 22.49992425240166 0  144.7061430543871 22.49991130402607 0  149.7061440064754 22.49989901448373 0  164.7061542938332 22.49984644116599 0  159.7061503352493 22.4998848723416 0  169.7061551586459 22.49980321747901 0  174.7061537664064 22.49975759544262 0  179.7061510332239 22.4997113165135 0  184.7061476980176 22.49966544221313 0  189.7061442553581 22.49962051713695 0  194.706140995161 22.49957676111406 0  199.7061380643617 22.49953421179292 0  204.7061355195377 22.49949281403239 0  209.7061333644286 22.49945247128655 0  214.7061315744112 22.49941307338076 0  219.7061301115578 22.49937451060665 0  224.7061289334584 22.49933668023726 0  229.7061279981114 22.49929948900381 0  234.7061272664322 22.49926285351606 0  239.7061267033667 22.49922669970474 0  244.7061262782162 22.49919096185531 0  249.7061259645392 22.49915558152369 0  254.7061257398476 22.4991205064736 0  259.70612558521 22.4990856896977 0  264.7061254848367 22.49905108854415 0  269.7061254256695 22.4990166639518 0  274.7061253969998 22.49898237978943 0  279.706125390108 22.49894820228813 0  284.7061253979386 22.49891409954948 0  289.7061254148097 22.49888004109156 0  294.7061254361915 22.49884599734964 0
[...]
<PointData  Vectors="v"> 
<DataArray  type="Float64"  Name="v"  NumberOfComponents="3" format="ascii">-1.1003957354988396e+00 -7.6633489416656113e+00 0.0000000000000000e+00  -1.6576829347202393e+00 -7.1737924908272612e+00 0.0000000000000000e+00  -1.5274723225320668e+00 -6.3381170617374503e+00 0.0000000000000000e+00  -1.0974168874109542e+00 -7.0185210124131263e+00 0.0000000000000000e+00  -2.3515502861292745e+00 -7.7528151943911450e+00 0.0000000000000000e+00  -2.0843541734256643e+00 -6.7130189073072843e+00 0.0000000000000000e+00  -2.9727795902246110e+00 -8.7745416839324424e+00 0.0000000000000000e+00  -2.7769912293536212e+00 -7.8442841489734114e+00 0.0000000000000000e+00  -3.5164518132358715e+00 -9.0865985719495601e+00 0.0000000000000000e+00  -3.3962153138555662e+00 -8.2734105200998709e+00 0.0000000000000000e+00  -4.1976740998975846e+00 -9.9603286627209524e+00 0.0000000000000000e+00  -3.9371177892162192e+00 -8.9415440470250260e+00 0.0000000000000000e+00  -4.7367993961354458e+00 -1.0314361567674124e+01 0.0000000000000000e+00  -4.6146304083580265e+00 -9.5093207304093372e+00 0.0000000000000000e+00  -4.8158493451936781e+00 -1.0051166465567462e+01 0.0000000000000000e+00  -5.1492315769722152e+00 -9.9369803167659700e+00 0.0000000000000000e+00  -5.8997667183547930e+00 -1.1147122274280994e+01 0.0000000000000000e+00  -5.2230007998867061e+00 -9.5264037252863325e+00 0.0000000000000000e+00  -2.7941218460948418e+00 -5.9836797038124585e+00 0.0000000000000000e+00  -6.3007005775070395e+00 -1.0647657622956642e+01 0.0000000000000000e+00  -1.3915388596680135e+01 -2.1867072895893195e+01 0.0000000000000000e+00  -3.1880938674125043e+00 -5.1921588094261928e+00 0.0000000000000000e+00  -1.3595603073445487e+01 -2.0093135907833481e+01 0.0000000000000000e+00  -1.4301897019142126e+01 -2.0579959329719863e+01 0.0000000000000000e+00  -1.3672762829931294e+01 -1.8773687178504037e+01 0.0000000000000000e+00  -1.3973577263535908e+01 -1.8666113660835880e+01 0.0000000000000000e+00  -1.4203845585795165e+01 -1.8106749073889659e+01 0.0000000000000000e+00  -1.4040910976229561e+01 -1.7319654769388482e+01 0.0000000000000000e+00  -1.5143995018377007e+01 -1.8073962731959508e+01 0.0000000000000000e+00  -1.4560800328376347e+01 -1.6674659491352635e+01 0.0000000000000000e+00  -1.6394179790965985e+01 -1.8465503701650015e+01 0.0000000000000000e+00  -1.5487909492815458e+01 -1.6602211886561207e+01 0.0000000000000000e+00  -1.7860754233176461e+01 -1.9074314354597828e+01 0.0000000000000000e+00  -1.6723574987954549e+01 -1.6887885623456786e+01 0.0000000000000000e+00  -1.9453133171830412e+01 -1.9961354823225900e+01 0.0000000000000000e+00  -1.8174304426230368e+01 -1.7587489484566891e+01 0.0000000000000000e+00  -2.1080846589137209e+01 -2.0700453270710838e+01 0.0000000000000000e+00  -1.9748975774745475e+01 -1.8274407639096168e+01 0.0000000000000000e+00  -2.2667177981953206e+01 -2.1325110150330023e+01 0.0000000000000000e+00  -2.1357835894852585e+01 -1.8962556388180520e+01 0.0000000000000000e+00  -2.4148551399600297e+01 -2.1673124318151249e+01 0.0000000000000000e+00  -2.2923979294638578e+01 -1.9468793313237605e+01 0.0000000000000000e+00  -2.5469535918330305e+01 -2.1708482265847451e+01 0.0000000000000000e+00  -2.4383917017281554e+01 -1.9745669231769053e+01 0.0000000000000000e+00  -2.6594370019849631e+01 -2.0979392251182148e+01 0.0000000000000000e+00  -2.5682040121586812e+01 -1.9311260344992334e+01 0.0000000000000000e+00  -2.7509439229723533e+01 -2.0260501104937717e+01 0.0000000000000000e+00  -2.6784040415695664e+01 -1.8908504593737366e+01 0.0000000000000000e+00  -2.8209044926781992e+01 -1.8112443135212846e+01 0.0000000000000000e+00  -2.7673827652442004e+01 -1.7082429113037939e+01 0.0000000000000000e+00  -2.8715210741450317e+01 -1.6442351894306675e+01 0.0000000000000000e+00  -2.8349946198021094e+01 -1.5705486858334616e+01 0.0000000000000000e+00  -2.9046651914600147e+01 -1.2760733236739718e+01 0.0000000000000000e+00  -2.8828780593319397e+01 -1.2282279075758346e+01 0.0000000000000000e+00  -2.9247472905096075e+01 -1.0100642474220873e+01 0.0000000000000000e+00  -2.9137527563405808e+01 -9.8238193000019507e+00 0.0000000000000000e+00  -2.9342433060958282e+01 -5.2132644935412751e+00 0.0000000000000000e+00  -2.9308935593913702e+01 -5.0874137056517563e+00 0.0000000000000000e+00  -2.9381812191836143e+01 -1.2500431850547555e+00 0.0000000000000000e+00  -2.9383432788263438e+01 -1.2179745183701121e+00 0.0000000000000000e+00  -2.9389262612932324e+01 1.4245746548127097e-09 0.0000000000000000e+00  -2.9389940989207787e+01 -7.0930121283016893e-04 0.0000000000000000e+00  -2.9389262614622666e+01 3.3873346189517122e-19 0.0000000000000000e+00  -2.0123947588813067e+01 7.0914019201416956e+00 0.0000000000000000e+00  -2.9383907318352453e+01 -6.7809493076036453e+00 0.0000000000000000e+00  -2.9389929054534083e+01 6.7739722532304868e-04 0.0000000000000000e+00  -2.0748552507069544e+01 1.3371630312378569e+01 0.0000000000000000e+00  -2.0151800916677530e+01 1.4348657232429177e+01 0.0000000000000000e+00  -1.7730031460594070e+01 2.0811722907592294e+01 0.0000000000000000e+00  -2.0814032881736928e+01 1.6314639540447978e+01 0.0000000000000000e+00  -1.6952652765907708e+01 2.2293679151010924e+01 0.0000000000000000e+00  -1.7833799152002197e+01 2.1162423470783917e+01 0.0000000000000000e+00  -1.5272943604914564e+01 2.5071504763242942e+01 0.0000000000000000e+00  -1.7093983083954207e+01 2.2584930536020913e+01 0.0000000000000000e+00  -1.4061378946401899e+01 2.5285603767490876e+01 0.0000000000000000e+00  -1.5451295302544358e+01 2.3501973612318650e+01 0.0000000000000000e+00  -1.2766743160809057e+01 2.5365321702080198e+01 0.0000000000000000e+00  -1.4277011710139565e+01 2.3455819745571553e+01 0.0000000000000000e+00  -1.1651142356701802e+01 2.4313434866537158e+01 0.0000000000000000e+00  -1.3018854139837220e+01 2.2672983930715116e+01 0.0000000000000000e+00  -1.0323350006331360e+01 2.3145558499884164e+01 0.0000000000000000e+00  -1.1939347849802550e+01 2.1186133087474197e+01 0.0000000000000000e+00  -9.3678258041165243e+00 2.1304378968727299e+01 0.0000000000000000e+00  -1.0647460430641621e+01 1.9903123619575524e+01 0.0000000000000000e+00  -8.5846747029261419e+00 1.9449090819439864e+01 0.0000000000000000e+00  -9.7273715858886600e+00 1.8306185672705400e+01 0.0000000000000000e+00  -7.7329061105418466e+00 1.7756009556302097e+01 0.0000000000000000e+00  -8.9792835786336411e+00 1.6509914826976846e+01 0.0000000000000000e+00  -6.9262073294360418e+00 1.6156706358584049e+01 0.0000000000000000e+00  -8.1623733924781217e+00 1.4977838827011434e+01 0.0000000000000000e+00  -6.1684300976195736e+00 1.4741013986052840e+01 0.0000000000000000e+00  -7.3901171462123596e+00 1.3635342237541682e+01 0.0000000000000000e+00  -5.4230315830533389e+00 1.3445586528759545e+01 0.0000000000000000e+00  -6.6664174175272635e+00 1.2358139745510819e+01 0.0000000000000000e+00  -4.7448675939200156e+00 1.2204869191870216e+01 0.0000000000000000e+00  -5.9547906692124624e+00 1.1217942125181656e+01 0.0000000000000000e+00  -4.1417069413877705e+00 1.1066570325751506e+01 0.0000000000000000e+00  -5.3100088250613702e+00 1.0191865023589896e+01 0.0000000000000000e+00  -3.5760662898806044e+00 9.9780271283574162e+00 0.0000000000000000e+00  -4.7398208795322390e+00 9.1593102972260514e+00 0.0000000000000000e+00  -3.0732642485287234e+00 8.9153523086625253e+00 0.0000000000000000e+00  -4.2068715294992440e+00 8.1905132597176902e+00 0.0000000000000000e+00  -2.6423213019910996e+00 7.9177332717334146e+00 0.0000000000000000e+00  -3.7362946907704035e+00 7.3004965306657530e+00 0.0000000000000000e+00  -2.2471821338894822e+00 6.9136886182550734e+00 0.0000000000000000e+00  -3.3373530403624243e+00 6.3497078427619602e+00 0.0000000000000000e+00  -1.9062644859465414e+00 5.9788058174258261e+00 0.0000000000000000e+00  -2.9736518007437387e+00 5.4961090765724769e+00 0.0000000000000000e+00  -1.6191165843640452e+00 5.0259155874438965e+00 0.0000000000000000e+00  -2.6642256038934828e+00 4.6231790108740771e+00 0.0000000000000000e+00  -1.3664512294965667e+00 4.2110041041748270e+00 0.0000000000000000e+00  -2.4075240153124180e+00 3.8604660785781175e+00 0.0000000000000000e+00  -1.1482416690226622e+00 3.2722767489219473e+00 0.0000000000000000e+00  -2.1862297427000170e+00 2.9718531023892498e+00 0.0000000000000000e+00  -9.5729797475975997e-01 2.7345731069797421e+00 0.0000000000000000e+00  -1.9969724261747164e+00 2.4770426094354474e+00 0.0000000000000000e+00  -7.8103911320333852e-01 1.7843886669177065e+00 0.0000000000000000e+00  -1.8381636877843135e+00 1.5449180265598195e+00 0.0000000000000000e+00  -5.4327925733202054e-01 1.7277392735222223e+00 0.0000000000000000e+00  -1.6879556631459225e+00 1.4020500533816236e+00 0.0000000000000000e+00  -1.8279080659638591e-01 1.2028236486171444e+00 0.0000000000000000e+00  -1.4863922135547083e+00 6.8191742274387868e-01 0.0000000000000000e+00  6.6159933155478345e-01 7.4605280873777709e-03 0.0000000000000000e+00  -1.1404078550551777e+00 -1.2177447043421106e+00 0.0000000000000000e+00  -1.8050050572371603e+00 -5.6926391557338354e+00 0.0000000000000000e+00  -1.3310785569450021e+00 -6.3085737827551123e+00 0.0000000000000000e+00  -2.2354058302080202e+00 -5.8777832976205655e+00 0.0000000000000000e+00  -2.7917756535655469e+00 -6.8062144633343831e+00 0.0000000000000000e+00  -3.4826474208434623e+00 -7.3462363088651133e+00 0.0000000000000000e+00  -4.0987030697731628e+00 -8.1326280797327293e+00 0.0000000000000000e+00  -4.6349665736488523e+00 -8.4965216300018209e+00 0.0000000000000000e+00  -5.3062137240606209e+00 -9.1396149465805880e+00 0.0000000000000000e+00  -5.8327825015720887e+00 -9.4209881087361911e+00 0.0000000000000000e+00  -5.8970539251345979e+00 -9.0374725118102184e+00 0.0000000000000000e+00  -6.9637516637078347e+00 -9.8680091222827002e+00 0.0000000000000000e+00  -3.8393852841373151e+00 -3.9161403422229331e+00 0.0000000000000000e+00  -1.4942467309369205e+01 -1.9164949369479864e+01 0.0000000000000000e+00  -1.4602998107203627e+01 -1.7226459748525635e+01 0.0000000000000000e+00  -1.4656717821084433e+01 -1.5903792717284254e+01 0.0000000000000000e+00  -1.5160333927379899e+01 -1.5222981055454042e+01 0.0000000000000000e+00  -1.6067546198375112e+01 -1.5047889168085474e+01 0.0000000000000000e+00  -1.7279793327433612e+01 -1.5426365559276103e+01 0.0000000000000000e+00  -1.8704076359955742e+01 -1.5929814774026584e+01 0.0000000000000000e+00  -2.0248727677406034e+01 -1.6568761381578462e+01 0.0000000000000000e+00  -2.1824134650585805e+01 -1.7140113169704126e+01 0.0000000000000000e+00  -2.3354194368901037e+01 -1.7579017008934361e+01 0.0000000000000000e+00  -2.4774501741519462e+01 -1.7388500383797481e+01 0.0000000000000000e+00  -2.6030371988121082e+01 -1.7281719775895649e+01 0.0000000000000000e+00  -2.7087464035862187e+01 -1.5774475205415220e+01 0.0000000000000000e+00  -2.7930663785689255e+01 -1.4721384965674558e+01 0.0000000000000000e+00  -2.8557107437124333e+01 -1.1590267997472637e+01 0.0000000000000000e+00  -2.8988123593978013e+01 -9.3949535433594384e+00 0.0000000000000000e+00  -2.9243896674673877e+01 -4.8516389311619657e+00 0.0000000000000000e+00  -2.9371380969276444e+01 -1.1464089085444256e+00 0.0000000000000000e+00  -2.9391565376622449e+01 -1.3511346812383883e-03 0.0000000000000000e+00  -2.9362952578674193e+01 -6.8433715491442202e+00 0.0000000000000000e+00  -2.9391543608193928e+01 1.3313605332161116e-03 0.0000000000000000e+00  -2.9301280576051028e+01 5.1364789839078229e-01 0.0000000000000000e+00  -2.0103415666814861e+01 1.7334995422249250e+01 0.0000000000000000e+00  -2.0810163505274211e+01 1.6717735157365077e+01 0.0000000000000000e+00  -1.7872407226507523e+01 2.1501639782386018e+01 0.0000000000000000e+00  -1.7175621401241255e+01 2.1060993145679298e+01 0.0000000000000000e+00  -1.5572467153310274e+01 2.1718826963258955e+01 0.0000000000000000e+00  -1.4437586897109345e+01 2.0808076837175779e+01 0.0000000000000000e+00  -1.3216561687890177e+01 1.9588385866560277e+01 0.0000000000000000e+00  -1.2172886790514141e+01 1.7986473232701126e+01 0.0000000000000000e+00  -1.0915896694034085e+01 1.6946646159757162e+01 0.0000000000000000e+00  -1.0029913077352472e+01 1.5407693231620344e+01 0.0000000000000000e+00  -9.3151054450817927e+00 1.3772388443008493e+01 0.0000000000000000e+00  -8.5311268850545154e+00 1.2496465760986608e+01 0.0000000000000000e+00  -7.7912390868089574e+00 1.1291664152676882e+01 0.0000000000000000e+00  -7.0992917114629037e+00 1.0169401329834798e+01 0.0000000000000000e+00  -6.4189319403336036e+00 9.2431944029492090e+00 0.0000000000000000e+00  -5.8048074302206780e+00 8.3221145822220475e+00 0.0000000000000000e+00  -5.2646278709972973e+00 7.4088658449802853e+00 0.0000000000000000e+00  -4.7610998705740863e+00 6.6120852946713118e+00 0.0000000000000000e+00  -4.3193536515769670e+00 5.7682242300215805e+00 0.0000000000000000e+00  -3.9485372589195822e+00 4.9673835760158322e+00 0.0000000000000000e+00  -3.6124898708749300e+00 4.1751493867102250e+00 0.0000000000000000e+00  -3.3299244565613506e+00 3.4917208496683982e+00 0.0000000000000000e+00  -3.0997656640953828e+00 2.6549088933697940e+00 0.0000000000000000e+00  -2.9039003756787087e+00 2.2095435342662761e+00 0.0000000000000000e+00  -2.7404248424712661e+00 1.3195648013150547e+00 0.0000000000000000e+00  -2.6050318983320508e+00 1.1947158675135734e+00 0.0000000000000000e+00  -2.4804741798883749e+00 3.8867864109767641e-01 0.0000000000000000e+00  -2.3004219402274466e+00 -1.7172942180433286e+00 0.0000000000000000e+00  -2.5181227082999058e+00 -4.9808884103858206e+00 0.0000000000000000e+00  -2.0898969444108197e+00 -5.6676679358911084e+00 0.0000000000000000e+00  -2.9932899498428900e+00 -5.2313006924551253e+00 0.0000000000000000e+00  -3.4249779409036378e+00 -5.9719951646260530e+00 0.0000000000000000e+00  -3.9808033501212123e+00 -6.3116988990193219e+00 0.0000000000000000e+00  -4.6691486833274256e+00 -7.2120456080322484e+00 0.0000000000000000e+00  -5.2802277220452414e+00 -7.6978060858819903e+00 0.0000000000000000e+00  -5.8084282318420453e+00 -8.1404952896643046e+00 0.0000000000000000e+00  -6.4685951813329003e+00 -8.6411889953781085e+00 0.0000000000000000e+00  -6.9809697105332384e+00 -8.9534697987404464e+00 0.0000000000000000e+00  -7.0278612890099197e+00 -8.2820059153892682e+00 0.0000000000000000e+00  -8.0753856357991296e+00 -8.6167562494639842e+00 0.0000000000000000e+00  -4.9331572468644804e+00 -2.5228842856236167e+00 0.0000000000000000e+00  -1.6021847914399068e+01 -1.7746610262010531e+01 0.0000000000000000e+00  -1.5668348671871335e+01 -1.5837245719472911e+01 0.0000000000000000e+00  -1.5703781121022141e+01 -1.4485837936031363e+01 0.0000000000000000e+00  -1.6182683473810044e+01 -1.3709940713860664e+01 0.0000000000000000e+00  -1.7058443959206645e+01 -1.3636010367115283e+01 0.0000000000000000e+00  -1.8232329293363872e+01 -1.3826367084471306e+01 0.0000000000000000e+00  -1.9610903441217744e+01 -1.4289439249948273e+01 0.0000000000000000e+00  -2.1102970892174458e+01 -1.4819531850646699e+01 0.0000000000000000e+00  -2.2619160678863519e+01 -1.5331582774724430e+01 0.0000000000000000e+00  -2.4082513746437016e+01 -1.5309415861373891e+01 0.0000000000000000e+00  -2.5430058459473322e+01 -1.5455086720270495e+01 0.0000000000000000e+00  -2.6606086481954158e+01 -1.4248122312008769e+01 0.0000000000000000e+00  -2.7578765725849049e+01 -1.3522130330518927e+01 0.0000000000000000e+00  -2.8330747558683750e+01 -1.0713697256838762e+01 0.0000000000000000e+00  -2.8866237992495702e+01 -8.8221465061360522e+00 0.0000000000000000e+00  -2.9198821711973480e+01 -4.5243872015379143e+00 0.0000000000000000e+00  -2.9368823255952940e+01 -1.0391679301557248e+00 0.0000000000000000e+00  -2.9394100496500204e+01 -1.9321286126415891e-03 0.0000000000000000e+00  -2.9344751006954805e+01 -7.0045523988148108e+00 0.0000000000000000e+00  -2.9394081181663601e+01 1.9039721538764889e-03 0.0000000000000000e+00  -2.9151968525852549e+01 3.9127561452811521e-01 0.0000000000000000e+00  -2.9080641271548558e+01 3.5799915732727250e+00 0.0000000000000000e+00  -1.9940457620925205e+01 1.7833033241009570e+01 0.0000000000000000e+00  -2.0719705470077397e+01 1.7145912364748632e+01 0.0000000000000000e+00  -1.7851063610157137e+01 2.0067850071263351e+01 0.0000000000000000e+00  -1.7220241873136477e+01 1.9360412655003536e+01 0.0000000000000000e+00  -1.5677740044744551e+01 1.9150715070062052e+01 0.0000000000000000e+00  -1.4600237476182359e+01 1.7798693612584401e+01 0.0000000000000000e+00  -1.3432250734925070e+01 1.6460853454008163e+01 0.0000000000000000e+00  -1.2439083320528800e+01 1.5099307068814495e+01 0.0000000000000000e+00  -1.1230387371635668e+01 1.4115952629805399e+01 0.0000000000000000e+00  -1.0391173091800358e+01 1.2736411756888186e+01 0.0000000000000000e+00  -9.7221481553740414e+00 1.1356183633441196e+01 0.0000000000000000e+00  -8.9832018621218772e+00 1.0216966641912105e+01 0.0000000000000000e+00  -8.2874884186423028e+00 9.1659462282513537e+00 0.0000000000000000e+00  -7.6389190692459277e+00 8.2564135279758712e+00 0.0000000000000000e+00  -7.0009894850208774e+00 7.4340192683151010e+00 0.0000000000000000e+00  -6.4282762934691542e+00 6.6308330902432386e+00 0.0000000000000000e+00  -5.9284277573454087e+00 5.8883068950151651e+00 0.0000000000000000e+00  -5.4641959318806217e+00 5.1362036039386094e+00 0.0000000000000000e+00  -5.0605052510730086e+00 4.4411518972378783e+00 0.0000000000000000e+00  -4.7268278576679430e+00 3.6998745928711418e+00 0.0000000000000000e+00  -4.4264567555583030e+00 3.0965141860675720e+00 0.0000000000000000e+00  -4.1789683759477469e+00 2.3363729336071373e+00 0.0000000000000000e+00  -3.9818299745629662e+00 1.9435310629549001e+00 0.0000000000000000e+00  -3.8193219519257777e+00 1.0978607028633971e+00 0.0000000000000000e+00  -3.6851716703312767e+00 1.0203064989152779e+00 0.0000000000000000e+00  -3.5834068188361310e+00 2.1973463112572303e-01 0.0000000000000000e+00  -3.4798117406438580e+00 -1.9572649074697805e+00 0.0000000000000000e+00  -3.4379297808587546e+00 -4.3372155089235429e+00 0.0000000000000000e+00  -3.0478750945310651e+00 -5.0845654632545880e+00 0.0000000000000000e+00  -3.8681857964142097e+00 -4.5165014759150504e+00 0.0000000000000000e+00  -4.3466814088321124e+00 -5.3223923148462911e+00 0.0000000000000000e+00  -4.7812095463302926e+00 -5.4769408199130325e+00 0.0000000000000000e+00  -5.3383491165751815e+00 -6.1803502198568863e+00 0.0000000000000000e+00  -6.0252755346831668e+00 -6.7841885687368979e+00 0.0000000000000000e+00  -6.6315776275625984e+00 -7.3540559918252164e+00 0.0000000000000000e+00  -7.1510089671673338e+00 -7.6599052803958729e+00 0.0000000000000000e+00  -7.7979199785093876e+00 -8.1969056752664731e+00 0.0000000000000000e+00  -8.2926934713008649e+00 -8.2264660224438231e+00 0.0000000000000000e+00  -8.3189182279638931e+00 -7.0611338242395680e+00 0.0000000000000000e+00  -9.3457508383937515e+00 -7.2487441310808371e+00 0.0000000000000000e+00  -6.1884829803497956e+00 -1.1211333813481463e+00 0.0000000000000000e+00  -1.7270097772625967e+01 -1.6372391790224437e+01 0.0000000000000000e+00  -1.6910381102375460e+01 -1.4441363983209936e+01 0.0000000000000000e+00  -1.6933443497541969e+01 -1.3006490146821124e+01 0.0000000000000000e+00  -1.7391021706329536e+01 -1.2344687843600214e+01 0.0000000000000000e+00  -1.8234668596341603e+01 -1.2094896570791146e+01 0.0000000000000000e+00  -1.9366067893486697e+01 -1.2258790866682693e+01 0.0000000000000000e+00  -2.0691465769129859e+01 -1.2626021195499561e+01 0.0000000000000000e+00  -2.2119341025665392e+01 -1.3109504807315178e+01 0.0000000000000000e+00  -2.3560328949138754e+01 -1.3173903557112006e+01 0.0000000000000000e+00  -2.4938070120043115e+01 -1.3502007061274208e+01 0.0000000000000000e+00  -2.6187938233223878e+01 -1.2557296870683983e+01 0.0000000000000000e+00  -2.7257703862727041e+01 -1.2146650517047052e+01 0.0000000000000000e+00  -2.8112479249841478e+01 -9.6684313189259701e+00 0.0000000000000000e+00  -2.8743911678531745e+01 -8.1156485383265267e+00 0.0000000000000000e+00  -2.9147465795328660e+01 -4.1032391725330433e+00 0.0000000000000000e+00  -2.9362302458868047e+01 -8.9480474537296739e-01 0.0000000000000000e+00  -2