<?xml version="1.0"?>
<VTKFile type="UnstructuredGrid"  version="0.1"  >
<UnstructuredGrid>
<Piece  NumberOfPoints="1933" NumberOfCells="3640">
<Points>
<DataArray  type="Float64"  NumberOfComponents="3"  format="ascii">0.294028334070358 -0.001339559103942423 0  5.294028363177084 -0.001306121836110562 0  5.293978199425146 7.498693947641525 0  0.2939781594181177 7.498660492929512 0  10.29402841248718 -0.001272737331786218 0  10.29397826566869 7.49872733479098 0  15.29402851014181 -0.001239402461830689 0  15.29397836861808 7.498760667808679 0  20.29402868007593 -0.001206095755596385 0  20.29397851678591 7.498793971693156 0  25.2940289403901 -0.001172786277654245 0  25.29397871674537 7.498827278563974 0  30.29402930384292 -0.001139437793346071 0  30.29397897280232 7.498860624981263 0  35.29402977879691 -0.001106010611116686 0  35.29397928674713 7.498894050647107 0  40.29403037007197 -0.001072462177374956 0  40.29397965767891 7.498927598017374 0  45.29403107955063 -0.001038746950615342 0  45.29398008182086 7.498961312503775 0  50.294031906512 -0.001004815815575422 0  50.29398055225118 7.498995243082412 0  55.29403284770153 -0.0009706151553791778 0  55.29398105848558 7.499029443220673 0  60.29403389714216 -0.0009360856149797198 0  60.29398158585352 7.499063972099226 0  65.2940350456706 -0.0009011605315050539 0  65.29398211459944 7.499098896154512 0  70.29403628015024 -0.0008657639587979018 0  70.29398261862477 7.499134291008695 0  75.2940375822722 -0.0008298081628073201 0  75.29398306375154 7.49917024389635 0  80.29403892678516 -0.0007931904012246717 0  80.29398340534266 7.499206856747394 0  85.29404027889743 -0.000755788713411265 0  85.29398358504612 7.499244250147644 0  90.29404159041677 -0.0007174563203631002 0  90.29398352634178 7.499282568476556 0  95.29404279391088 -0.0006780140486652392 0  95.29398312845524 7.499321986613448 0  100.294043793651 -0.0006372399198949033 0  100.2939822580834 7.499362718692471 0  105.2940444511944 -0.0005948546565676816 0  105.29398073829 7.499405029421664 0  110.2940445617951 -0.0005505013273136013 0  110.293978334015 7.499449248321205 0  115.2940438147799 -0.0005037167304489452 0  115.2939747342369 7.499495786548729 0  120.2940417253543 -0.0004538916561163762 0  120.2939695326812 7.499545153990412 0  125.2940375147248 -0.0004002177891412206 0  125.2939622138252 7.499597969305811 0  130.2940298956321 -0.0003416235671495476 0  130.2939521625197 7.499654944021918 0  135.2940166832963 -0.0002767185398589613 0  135.2939387417343 7.499716796529791 0  140.2939940817162 -0.0002038242075703408 0  140.2939215403853 7.499784001799201 0  145.2939553583401 -0.0001213734589014329 0  145.2939010184006 7.499856205529266 0  150.2938883195172 -2.975205292509529e-05 0  150.2938800615757 7.499931141490456 0  160.2938926261462 1.348849739536152e-18 0  165.293876153922 -4.881204851303118e-05 0  165.2938900841742 7.499939999653739 0  160.2938905897292 7.499973475202963 0  170.2938770655622 -7.654832445389814e-05 0  170.2938892583005 7.499918076940062 0  175.293885341191 -8.981384394908916e-05 0  175.293890229966 7.499907440060273 0  180.2938963523088 -9.260914746318051e-05 0  180.29389294941 7.499905952691044 0  185.2939079300644 -8.768670643673862e-05 0  185.2938968905753 7.499911558097005 0  190.2939190823401 -7.700439101362684e-05 0  190.2939015311165 7.499922606898826 0  195.2939293893471 -6.197106386775643e-05 0  195.293906468422 7.499937840635838 0  200.293938709037 -4.361078650800708e-05 0  200.2939114239755 7.499956312154051 0  205.293947031403 -2.267704954571559e-05 0  205.2939162182817 7.499977308348153 0  210.2939544060946 2.679419653229924e-07 0  210.2939207432022 7.500000288627499 0  215.2939609065762 2.479845919811766e-05 0  215.2939249392881 7.500024839035023 0  220.2939666126255 5.058729425921096e-05 0  220.2939287791464 7.500050638892726 0  225.2939716020654 7.737928237949623e-05 0  225.2939322558701 7.500077436732078 0  230.2939759471525 0.0001049726195834992 0  230.2939353752464 7.500105032889724 0  235.2939797133017 0.0001332054977216742 0  235.2939381506246 7.500133266830498 0  240.293982958967 0.0001619464006859284 0  240.2939405996037 7.5001620078205 0  245.293985736093 0.0001910869549164952 0  245.293942741944 7.500191147988642 0  250.293988090826 0.0002205365916342696 0  250.2939445982998 7.500220597110355 0  255.2939900643533 0.000250218520889039 0  255.2939461895068 7.500250278654218 0  260.2939916937947 0.0002800666819739826 0  260.2939475362317 7.500280126777484 0  265.2939930131395 0.0003100234504247657 0  265.2939486588763 7.500310084061449 0  270.2939940542123 0.0003400379690092036 0  270.2939495776478 7.500340099857395 0  275.2939948477036 0.0003700650440154415 0  275.2939503127211 7.500370129180537 0  280.2939954242496 0.0004000646219391028 0  280.293950884457 7.500400132151807 0  285.2939958155748 0.0004300019490008507 0  285.2939513136056 7.500430074053775 0  290.2939960556078 0.000459848633416468 0  290.2939516214423 7.500459926142756 0  295.2939961813995 0.0004895849976500096 0  295.2939518297871 7.500489667445792 0  300.2939962333643 0.0005192043385925358 0  300.2939519609027 7.500519287861724 0  305.2939962538009 0.0005487199576557111 0  305.2939520374672 7.500548792965597 0  310.2939962813754 0.0005781756704838601 0  310.2939520833754 7.500578211050745 0  5.293927911039427 14.99869409365533 0  0.2939278715252168 14.99866061908536 0  10.29392796473086 14.99872747222785 0  15.2939280387244 14.99876078819868 0  20.29392813504268 14.99879407432602 0  25.29392825358437 14.99882736524177 0  30.29392839259388 14.99886069786179 0  35.29392854854572 14.99889411140825 0  40.29392871581693 14.99892764755701 0  45.29392888626914 14.99896135082787 0  50.29392904876062 14.99899526922395 0  55.29392918856652 14.99902945511023 0  60.29392928667136 14.99906396633387 0  65.29392931889291 14.99909886760903 0  70.29392925479115 14.99913423220919 0  75.29392905632173 14.9991701440292 0  80.29392867619482 14.9992067000945 0  85.29392805593169 14.99924401359934 0  90.29392712366324 14.9992822175388 0  95.29392579184325 14.99932146892847 0  100.2939239552899 14.99936195342461 0  105.2939214904408 14.99940388975012 0  110.2939182575403 14.99944753247629 0  115.2939141089403 14.99949316999757 0  120.2939089090776 14.99954111123325 0  125.293902575272 14.99959164845264 0  130.2938951531134 14.9996449727311 0  135.2938869440082 14.99970100039503 0  140.2938786987737 14.99975904121769 0  145.2938718601281 14.99981720104494 0  150.2938687228652 14.99987134500369 0  165.2938837619925 14.99990968171589 0  160.2938814804051 14.99992065094761 0  170.2938833178637 14.99990144373824 0  175.2938821732741 14.99989845151391 0  180.2938813714306 14.99990115382782 0  185.2938812646865 14.99990905082532 0  190.2938818628177 14.99992135554503 0  195.2938830391572 14.99993727833625 0  200.2938846328367 14.99995612665698 0  205.2938864933016 14.99997732639867 0  210.2938884959406 15.00000041345639 0  215.2938905444657 15.00002501637107 0  220.2938925679319 15.00005083833885 0  225.2938945161396 15.00007764146441 0  230.293896355058 15.00010523390069 0  235.2938980628908 15.00013345967778 0  240.293899626917 15.0001621907749 0  245.2939010410589 15.00019132097371 0  250.2939023040635 15.00022076109775 0  255.2939034181652 15.00025043532436 0  260.2939043881182 15.00028027833436 0  265.2939052205034 15.00031023312961 0  270.2939059232344 15.00034024940391 0  275.2939065051995 15.00037028239816 0  280.2939069759975 15.00040029220792 0  285.2939073457517 15.00043024354161 0  290.2939076249961 15.00046010594072 0  295.2939078247317 15.00048985445521 0  300.2939079568203 15.00051947067963 0  305.2939080351242 15.00054894381885 0  310.2939080781074 15.00057827090793 0  5.293877570487737 22.49869435329068 0  0.2938775338553894 22.49866089864036 0  10.29387760911284 22.49872769669708 0  15.2938776508661 22.49876097268621 0  20.29387769422781 22.4987942196672 0  25.29387773579822 22.49882747432769 0  30.29387777070151 22.49886077356706 0  35.29387779261043 22.49889415551897 0  40.2938777935381 22.49892766022212 0  45.2938777635043 22.49896133022065 0  50.29387769013563 22.49899521122238 0  55.29387755822162 22.49902935286965 0  60.29387734923754 22.49906380964807 0  65.29387704084414 22.49909864194648 0  70.2938766063843 22.49913391727353 0  75.29387601442637 22.49916971162462 0  80.29387522844263 22.49920611096638 0  85.2938742067895 22.49924321275193 0  90.29387290326845 22.4992811272782 0  95.29387126872963 22.49931997850901 0  100.2938692544512 22.49935990365345 0  105.2938668184186 22.4994010502143 0  110.2938639361476 22.49944356825279 0  115.2938606183026 22.49948759405205 0  120.2938569378462 22.49953321895903 0  125.293853069317 22.49958043380731 0  130.2938493408517 22.49962903534514 0  135.2938462934045 22.4996784785376 0  140.2938447272429 22.4997276639463 0  145.2938456878985 22.49977468062404 0  150.2938503008121 22.49981663283704 0  165.2938638421321 22.49987502532763 0  160.2938612128728 22.4998704752511 0  170.2938639959644 22.49987881419952 0  175.2938627224705 22.49988422832538 0  180.2938609059481 22.49989245929725 0  185.2938591154096 22.49990387487673 0  190.2938576441839 22.49991837817529 0  195.2938566009136 22.49993565883956 0  200.2938559883013 22.49995533769041 0  205.2938557566797 22.49997703958348 0  210.2938558362271 22.50000042499863 0  215.2938561545679 22.50002520007008 0  220.293856645373 22.50005111631155 0  225.2938572518107 22.50007796601106 0  230.2938579272441 22.50010557628221 0  235.293858634592 22.50013380315744 0  240.293859345137 22.50016252629107 0  245.2938600371967 22.5001916444418 0  250.2938606948546 22.50022107172517 0  255.2938613068429 22.50025073455672 0  260.2938618655834 22.50028056918949 0  265.2938623663963 22.50031051975448 0  270.2938628068441 22.5003405367273 0  275.2938631862025 22.50037057575776 0  280.2938635050457 22.50040059680721 0  285.2938637649585 22.5004305635326 0  290.2938639684177 22.50046044282685 0  295.2938641189401 22.50049020435143 0  3
[...]
<PointData  Vectors="v"> 
<DataArray  type="Float64"  Name="v"  NumberOfComponents="3" format="ascii">1.0988749100896824e+00 7.6634525680736258e+00 0.0000000000000000e+00  1.6562765076169697e+00 7.1773076533035463e+00 0.0000000000000000e+00  1.5259160598195480e+00 6.3414782579348508e+00 0.0000000000000000e+00  1.0958823266672044e+00 7.0186868600454719e+00 0.0000000000000000e+00  2.3504279034839404e+00 7.7575541884351615e+00 0.0000000000000000e+00  2.0828869970092745e+00 6.7172985939611642e+00 0.0000000000000000e+00  2.9719218300145624e+00 8.7789405334103119e+00 0.0000000000000000e+00  2.7757918625453497e+00 7.8482355143260785e+00 0.0000000000000000e+00  3.5158060148678958e+00 9.0918262890571864e+00 0.0000000000000000e+00  3.3952977844664352e+00 8.2783031313942264e+00 0.0000000000000000e+00  4.1973251960960001e+00 9.9656902801124314e+00 0.0000000000000000e+00  3.9364016065571907e+00 8.9464143064270250e+00 0.0000000000000000e+00  4.7366766118660522e+00 1.0320224275437109e+01 0.0000000000000000e+00  4.6142198758522923e+00 9.5148251922940243e+00 0.0000000000000000e+00  4.8156712033046798e+00 1.0056671803975870e+01 0.0000000000000000e+00  5.1490447507348724e+00 9.9425903245775107e+00 0.0000000000000000e+00  5.8997859608424061e+00 1.1152991015348453e+01 0.0000000000000000e+00  5.2227627245467048e+00 9.5319079786773724e+00 0.0000000000000000e+00  2.7949282725977609e+00 5.9901772159136630e+00 0.0000000000000000e+00  6.3006587096795856e+00 1.0653307942973527e+01 0.0000000000000000e+00  1.3914124847936677e+01 2.1871369809718846e+01 0.0000000000000000e+00  3.1888481896967447e+00 5.1985340816315979e+00 0.0000000000000000e+00  1.3594642480271862e+01 2.0097945352047685e+01 0.0000000000000000e+00  1.4300592933603626e+01 2.0584414556435906e+01 0.0000000000000000e+00  1.3672017387203386e+01 1.8778889009486686e+01 0.0000000000000000e+00  1.3972580180034413e+01 1.8671060955786057e+01 0.0000000000000000e+00  1.4203238496538772e+01 1.8112147862880857e+01 0.0000000000000000e+00  1.4040129480793759e+01 1.7324870948200797e+01 0.0000000000000000e+00  1.5143467124169579e+01 1.8079567073831402e+01 0.0000000000000000e+00  1.4560156040756162e+01 1.6680128427808491e+01 0.0000000000000000e+00  1.6393695257100106e+01 1.8471160385716292e+01 0.0000000000000000e+00  1.5487345035252039e+01 1.6607757500395405e+01 0.0000000000000000e+00  1.7860292245822109e+01 1.9079905591897901e+01 0.0000000000000000e+00  1.6723056384889766e+01 1.6893379385299447e+01 0.0000000000000000e+00  1.9452676327226403e+01 1.9966919118149107e+01 0.0000000000000000e+00  1.8173804823403451e+01 1.7592964603874471e+01 0.0000000000000000e+00  2.1080394246121688e+01 2.0705954590659093e+01 0.0000000000000000e+00  1.9748486500682375e+01 1.8279824885093095e+01 0.0000000000000000e+00  2.2666730021631825e+01 2.1330438185042173e+01 0.0000000000000000e+00  2.1357351747700047e+01 1.8967805423650034e+01 0.0000000000000000e+00  2.4148112632309449e+01 2.1678523830831921e+01 0.0000000000000000e+00  2.2923502156758353e+01 1.9474120899549163e+01 0.0000000000000000e+00  2.5469112258102708e+01 2.1713829841062790e+01 0.0000000000000000e+00  2.4383450378875008e+01 1.9750953833838082e+01 0.0000000000000000e+00  2.6593980213130962e+01 2.0984940172169988e+01 0.0000000000000000e+00  2.5681602002101602e+01 1.9316756508290748e+01 0.0000000000000000e+00  2.7509074745696505e+01 2.0266144210397826e+01 0.0000000000000000e+00  2.6783625741225457e+01 1.8914113662598250e+01 0.0000000000000000e+00  2.8208740672800023e+01 1.8118942547826098e+01 0.0000000000000000e+00  2.7673470994237466e+01 1.7088910849037024e+01 0.0000000000000000e+00  2.8714937508967989e+01 1.6448947092636708e+01 0.0000000000000000e+00  2.8349627081414120e+01 1.5712091063811268e+01 0.0000000000000000e+00  2.9046457725397616e+01 1.2769140264725664e+01 0.0000000000000000e+00  2.8828543106346821e+01 1.2290708261307914e+01 0.0000000000000000e+00  2.9247308000753446e+01 1.0109625118388660e+01 0.0000000000000000e+00  2.9137336192275807e+01 9.8328524492644149e+00 0.0000000000000000e+00  2.9342349412923589e+01 5.2238542986548833e+00 0.0000000000000000e+00  2.9308827180404748e+01 5.0980370471119958e+00 0.0000000000000000e+00  2.9381791875357315e+01 1.2661152550532362e+00 0.0000000000000000e+00  2.9383384514285630e+01 1.2340396870526349e+00 0.0000000000000000e+00  2.9389262612116635e+01 -2.1162999844396745e-09 0.0000000000000000e+00  2.9389916198588661e+01 6.8475140230353927e-04 0.0000000000000000e+00  2.9389262614622499e+01 -3.9929216628348492e-19 0.0000000000000000e+00  2.0124694339761522e+01 -7.1110965112818842e+00 0.0000000000000000e+00  2.9383847024221815e+01 6.7601331052409241e+00 0.0000000000000000e+00  2.9389904732676303e+01 -6.5390809431718744e-04 0.0000000000000000e+00  2.0749661489383513e+01 -1.3369058242289350e+01 0.0000000000000000e+00  2.0152817442138090e+01 -1.4346452524371163e+01 0.0000000000000000e+00  1.7730605624064363e+01 -2.0810374544080403e+01 0.0000000000000000e+00  2.0815325362770366e+01 -1.6312223552368007e+01 0.0000000000000000e+00  1.6953766813681622e+01 -2.2286344173160010e+01 0.0000000000000000e+00  1.7834522038966568e+01 -2.1155831635576387e+01 0.0000000000000000e+00  1.5274029686899265e+01 -2.5063964204823233e+01 0.0000000000000000e+00  1.7095248168037386e+01 -2.2577208447648033e+01 0.0000000000000000e+00  1.4062645081161811e+01 -2.5276884277024806e+01 0.0000000000000000e+00  1.5452489699024371e+01 -2.3493487004335861e+01 0.0000000000000000e+00  1.2768088640339643e+01 -2.5356246641466200e+01 0.0000000000000000e+00  1.4278381906572227e+01 -2.3446826121927920e+01 0.0000000000000000e+00  1.1652645073453320e+01 -2.4304363907995853e+01 0.0000000000000000e+00  1.3020281633466398e+01 -2.2664160144388902e+01 0.0000000000000000e+00  1.0324985697017013e+01 -2.3136833384465785e+01 0.0000000000000000e+00  1.1940921297855020e+01 -2.1177616514623939e+01 0.0000000000000000e+00  9.3694980714537515e+00 -2.1295991445292337e+01 0.0000000000000000e+00  1.0649164415639255e+01 -1.9894836730403995e+01 0.0000000000000000e+00  8.5861587234132521e+00 -1.9441467586837689e+01 0.0000000000000000e+00  9.7291194172951467e+00 -1.8298329529156543e+01 0.0000000000000000e+00  7.7342704174180925e+00 -1.7749019916228562e+01 0.0000000000000000e+00  8.9808447166050076e+00 -1.6502784805357081e+01 0.0000000000000000e+00  6.9274676576232492e+00 -1.6150300033690527e+01 0.0000000000000000e+00  8.1638192547199253e+00 -1.4971311489820817e+01 0.0000000000000000e+00  6.1696161500417652e+00 -1.4735065884917043e+01 0.0000000000000000e+00  7.3914661507771253e+00 -1.3629309645455978e+01 0.0000000000000000e+00  5.4241475019901140e+00 -1.3440125298300623e+01 0.0000000000000000e+00  6.6676956842189616e+00 -1.2352594027466060e+01 0.0000000000000000e+00  4.7459306052940073e+00 -1.2199823569525705e+01 0.0000000000000000e+00  5.9560027617674498e+00 -1.1212836154447469e+01 0.0000000000000000e+00  4.1427169766349019e+00 -1.1061867368619103e+01 0.0000000000000000e+00  5.3111736517393657e+00 -1.0187098096561236e+01 0.0000000000000000e+00  3.5770190739837959e+00 -9.9737050516422343e+00 0.0000000000000000e+00  4.7409351117187395e+00 -9.1549156243372707e+00 0.0000000000000000e+00  3.0741560901017917e+00 -8.9113752004812827e+00 0.0000000000000000e+00  4.2079312659259749e+00 -8.1864576401080491e+00 0.0000000000000000e+00  2.6431436221847244e+00 -7.9140584369798930e+00 0.0000000000000000e+00  3.7372977668863152e+00 -7.2967285138857818e+00 0.0000000000000000e+00  2.2479268556840188e+00 -6.9103570801439673e+00 0.0000000000000000e+00  3.3382871526961275e+00 -6.3462713419259780e+00 0.0000000000000000e+00  1.9069188044762091e+00 -5.9757872709098683e+00 0.0000000000000000e+00  2.9745119038719379e+00 -5.4929639339153304e+00 0.0000000000000000e+00  1.6196792990259548e+00 -5.0232026602225917e+00 0.0000000000000000e+00  2.6649962749123479e+00 -4.6203391128013500e+00 0.0000000000000000e+00  1.3668998769980307e+00 -4.2086007435938297e+00 0.0000000000000000e+00  2.4082078185772500e+00 -3.8578960873310533e+00 0.0000000000000000e+00  1.1485876712243439e+00 -3.2702046244148386e+00 0.0000000000000000e+00  2.1867964671743452e+00 -2.9696370250906381e+00 0.0000000000000000e+00  9.5750964076645073e-01 -2.7327516800865919e+00 0.0000000000000000e+00  1.9974486527557491e+00 -2.4750120670952138e+00 0.0000000000000000e+00  7.8113767960002800e-01 -1.7829896784280903e+00 0.0000000000000000e+00  1.8384932078895713e+00 -1.5433594004164395e+00 0.0000000000000000e+00  5.4326437274788753e-01 -1.7264245083763556e+00 0.0000000000000000e+00  1.6881948532725797e+00 -1.4005334615545224e+00 0.0000000000000000e+00  1.8249398525608906e-01 -1.2022821001078219e+00 0.0000000000000000e+00  1.4864976871481568e+00 -6.8093742202027518e-01 0.0000000000000000e+00  -6.6134251300709790e-01 -7.3646648992349920e-03 0.0000000000000000e+00  1.1401910432139029e+00 1.2170114301784356e+00 0.0000000000000000e+00  1.8034192991850160e+00 5.6960708801516260e+00 0.0000000000000000e+00  1.3295054910686814e+00 6.3087923012504081e+00 0.0000000000000000e+00  2.2337729394437411e+00 5.8819174366698093e+00 0.0000000000000000e+00  2.7902153971862100e+00 6.8097150808031248e+00 0.0000000000000000e+00  3.4813718665148445e+00 7.3506900729555742e+00 0.0000000000000000e+00  4.0976984149138955e+00 8.1371720016243323e+00 0.0000000000000000e+00  4.6341715951774178e+00 8.5015435412176341e+00 0.0000000000000000e+00  5.3057215240931281e+00 9.1448755153026262e+00 0.0000000000000000e+00  5.8325176004920829e+00 9.4266057852800724e+00 0.0000000000000000e+00  5.8967362673832087e+00 9.0427673331023843e+00 0.0000000000000000e+00  6.9636378607965490e+00 9.8735444201260858e+00 0.0000000000000000e+00  3.8400818359319122e+00 3.9226884266039779e+00 0.0000000000000000e+00  1.4941106231069599e+01 1.9169550909944700e+01 0.0000000000000000e+00  1.4601943094422438e+01 1.7231429785698836e+01 0.0000000000000000e+00  1.4655876153791723e+01 1.5909087744673302e+01 0.0000000000000000e+00  1.5159628979941747e+01 1.5228400076874923e+01 0.0000000000000000e+00  1.6066922641374635e+01 1.5053280862513441e+01 0.0000000000000000e+00  1.7279211462715800e+01 1.5431752778184876e+01 0.0000000000000000e+00  1.8703517770089245e+01 1.5935152291639183e+01 0.0000000000000000e+00  2.0248179432488502e+01 1.6573935790948443e+01 0.0000000000000000e+00  2.1823593658980244e+01 1.7145371019523338e+01 0.0000000000000000e+00  2.3353661164311415e+01 1.7584238091150066e+01 0.0000000000000000e+00  2.4773991455099868e+01 1.7393939330612771e+01 0.0000000000000000e+00  2.6029880566715171e+01 1.7287282235703618e+01 0.0000000000000000e+00  2.7087025928022605e+01 1.5780919233223830e+01 0.0000000000000000e+00  2.7930263699135626e+01 1.4727967464358169e+01 0.0000000000000000e+00  2.8556789282900652e+01 1.1598681741120838e+01 0.0000000000000000e+00  2.8987859734055640e+01 9.4039865337933080e+00 0.0000000000000000e+00  2.9243722850321589e+01 4.8622563818366258e+00 0.0000000000000000e+00  2.9371273406031801e+01 1.1624571813602493e+00 0.0000000000000000e+00  2.9391483905649370e+01 1.3052722650500417e-03 0.0000000000000000e+00  2.9362805676565166e+01 6.8224898188060372e+00 0.0000000000000000e+00  2.9391462860130982e+01 -1.2860163654045925e-03 0.0000000000000000e+00  2.9301263148809461e+01 -5.1245600858663787e-01 0.0000000000000000e+00  2.0104473768390669e+01 -1.7332949500785151e+01 0.0000000000000000e+00  2.0811445915809077e+01 -1.6710081017994796e+01 0.0000000000000000e+00  1.7873132190220556e+01 -2.1494665790656558e+01 0.0000000000000000e+00  1.7176848389052164e+01 -2.1052328607295799e+01 0.0000000000000000e+00  1.5573621881049274e+01 -2.1710068212079850e+01 0.0000000000000000e+00  1.4438898034004374e+01 -2.0799334928934162e+01 0.0000000000000000e+00  1.3217920895556347e+01 -1.9580115872335266e+01 0.0000000000000000e+00  1.2174390477554089e+01 -1.7978394905618707e+01 0.0000000000000000e+00  1.0917539171155479e+01 -1.6938890521686474e+01 0.0000000000000000e+00  1.0031601873339490e+01 -1.5400330225115118e+01 0.0000000000000000e+00  9.3166126076825169e+00 -1.3765721244095143e+01 0.0000000000000000e+00  8.5325264467735771e+00 -1.2490313074074299e+01 0.0000000000000000e+00  7.7925459198477069e+00 -1.1286035117701450e+01 0.0000000000000000e+00  7.1005323152793789e+00 -1.0164212335355661e+01 0.0000000000000000e+00  6.4201125052792518e+00 -9.2383688033739926e+00 0.0000000000000000e+00  5.8059436117441132e+00 -8.3176577469059740e+00 0.0000000000000000e+00  5.2657166795008132e+00 -7.4047396043555223e+00 0.0000000000000000e+00  4.7621388778523643e+00 -6.6082408875760796e+00 0.0000000000000000e+00  4.3203369656773196e+00 -5.7646967639829798e+00 0.0000000000000000e+00  3.9494555470432098e+00 -4.9641358425948390e+00 0.0000000000000000e+00  3.6133354585975215e+00 -4.1721853797364039e+00 0.0000000000000000e+00  3.3306856109021963e+00 -3.4890265235606415e+00 0.0000000000000000e+00  3.1004372357826844e+00 -2.6525289425389396e+00 0.0000000000000000e+00  2.9044671783505476e+00 -2.2073719803985350e+00 0.0000000000000000e+00  2.7408890405272008e+00 -1.3178001379953213e+00 0.0000000000000000e+00  2.6053722395738994e+00 -1.1930428769946371e+00 0.0000000000000000e+00  2.4807042616505357e+00 -3.8750030131670116e-01 0.0000000000000000e+00  2.3004774933224641e+00 1.7169958620902315e+00 0.0000000000000000e+00  2.5165140606534360e+00 4.9843870795949616e+00 0.0000000000000000e+00  2.0883368473408437e+00 5.6680112074919213e+00 0.0000000000000000e+00  2.9916430701205843e+00 5.2355198820422650e+00 0.0000000000000000e+00  3.4232671872728835e+00 5.9753651536378980e+00 0.0000000000000000e+00  3.9791816800398743e+00 6.3157171545796142e+00 0.0000000000000000e+00  4.6678002167769348e+00 7.2161662159865978e+00 0.0000000000000000e+00  5.2791577538987449e+00 7.7025173395811395e+00 0.0000000000000000e+00  5.8075643437342732e+00 8.1452892186784052e+00 0.0000000000000000e+00  6.4680367895330608e+00 8.6464731430229893e+00 0.0000000000000000e+00  6.9806361980891305e+00 8.9588937333231140e+00 0.0000000000000000e+00  7.0274819329673646e+00 8.2872018422189040e+00 0.0000000000000000e+00  8.0752228617405137e+00 8.6224780402011696e+00 0.0000000000000000e+00  4.9338066952400643e+00 2.5296044035389840e+00 0.0000000000000000e+00  1.6020436066107031e+01 1.7751251483039407e+01 0.0000000000000000e+00  1.5667237852122886e+01 1.5842311365956794e+01 0.0000000000000000e+00  1.5702880658443823e+01 1.4491099876976534e+01 0.0000000000000000e+00  1.6181919042983186e+01 1.3715222849620805e+01 0.0000000000000000e+00  1.7057754819186485e+01 1.3641312981070579e+01 0.0000000000000000e+00  1.8231684201752589e+01 1.3831634254641367e+01 0.0000000000000000e+00  1.9610279971502152e+01 1.4294551708560515e+01 0.0000000000000000e+00  2.1102358183062609e+01 1.4824732559550698e+01 0.0000000000000000e+00  2.2618554451865649e+01 1.5336751013239498e+01 0.0000000000000000e+00  2.4081925819497581e+01 1.5314805974198658e+01 0.0000000000000000e+00  2.5429482912861868e+01 1.5460605804291136e+01 0.0000000000000000e+00  2.6605556855362810e+01 1.4254526728854833e+01 0.0000000000000000e+00  2.7578269543481870e+01 1.3528681727001549e+01 0.0000000000000000e+00  2.8330329938767346e+01 1.0722082865451387e+01 0.0000000000000000e+00  2.8865875614836888e+01 8.8311595129855984e+00 0.0000000000000000e+00  2.9198554869372334e+01 4.5349862015969755e+00 0.0000000000000000e+00  2.9368628336127255e+01 1.0551984323795989e+00 0.0000000000000000e+00  2.9393932796878744e+01 1.8678407866881341e-03 0.0000000000000000e+00  2.9344487896237787e+01 6.9836220175026202e+00 0.0000000000000000e+00  2.9393914049118639e+01 -1.8402792875116848e-03 0.0000000000000000e+00  2.9151844326993221e+01 -3.9009966881277230e-01 0.0000000000000000e+00  2.9080579167104180e+01 -3.5788844004528642e+00 0.0000000000000000e+00  1.9941458106013407e+01 -1.7825757259398365e+01 0.0000000000000000e+00  2.0720928637211763e+01 -1.7137873449600882e+01 0.0000000000000000e+00  1.7851697296566456e+01 -2.0059938056476607e+01 0.0000000000000000e+00  1.7221374633213557e+01 -1.9351478829145215e+01 0.0000000000000000e+00  1.5678783672285112e+01 -1.9142210144065370e+01 0.0000000000000000e+00  1.4601429467853125e+01 -1.7790506564826327e+01 0.0000000000000000e+00  1.3433490549707058e+01 -1.6453021876431759e+01 0.0000000000000000e+00  1.2440476336013260e+01 -1.5091759818261719e+01 0.0000000000000000e+00  1.1231922779925011e+01 -1.4108689184660900e+01 0.0000000000000000e+00  1.0392760691274130e+01 -1.2729510044977475e+01 0.0000000000000000e+00  9.7235623211829232e+00 -1.1349889263595557e+01 0.0000000000000000e+00  8.9845131221003101e+00 -1.0211215288108571e+01 0.0000000000000000e+00  8.2887119378869336e+00 -9.1606713117935019e+00 0.0000000000000000e+00  7.6400828762929427e+00 -8.2515019896165800e+00 0.0000000000000000e+00  7.0020965251119431e+00 -7.4295004595190539e+00 0.0000000000000000e+00  6.4293424976204294e+00 -6.6266410067399297e+00 0.0000000000000000e+00  5.9294515418604199e+00 -5.8843878527909563e+00 0.0000000000000000e+00  5.4651711176475226e+00 -5.1325953599856593e+00 0.0000000000000000e+00  5.0614288491991548e+00 -4.4378084664973203e+00 0.0000000000000000e+00  4.7276878440155610e+00 -3.6968029392577644e+00 0.0000000000000000e+00  4.4272491091602095e+00 -3.0936903848925970e+00 0.0000000000000000e+00  4.1796735643238838e+00 -2.3338629817381644e+00 0.0000000000000000e+00  3.9824578706401441e+00 -1.9411897111259382e+00 0.0000000000000000e+00  3.8198327996535379e+00 -1.0959488794782783e+00 0.0000000000000000e+00  3.6856027769187736e+00 -1.0184210512516076e+00 0.0000000000000000e+00  3.5836936407306599e+00 -2.1839344802804914e-01 0.0000000000000000e+00  3.4799480106704785e+00 1.9571718367926336e+00 0.0000000000000000e+00  3.4363586072090757e+00 4.3408440209551094e+00 0.0000000000000000e+00  3.0463140355971201e+00 5.0849840917611706e+00 0.0000000000000000e+00  3.8665405070035952e+00 4.5207930623830590e+00 0.0000000000000000e+00  4.3449810031100657e+00 5.3258534088061875e+00 0.0000000000000000e+00  4.7794613087343896e+00 5.4808349776479348e+00 0.0000000000000000e+00  5.3366779919859590e+00 6.1840424819775928e+00 0.0000000000000000e+00  6.0238845569197608e+00 6.7884841007352694e+00 0.0000000000000000e+00  6.6304607749558935e+00 7.3585471886866483e+00 0.0000000000000000e+00  7.1501000712614262e+00 7.6647310080530202e+00 0.0000000000000000e+00  7.7973133471280729e+00 8.2020044227177173e+00 0.0000000000000000e+00  8.2923177544804485e+00 8.2317990691031113e+00 0.0000000000000000e+00  8.3185087132475797e+00 7.0665251826874096e+00 0.0000000000000000e+00  9.3455593273212934e+00 7.2546451017097606e+00 0.0000000000000000e+00  6.1890999766314012e+00 1.1279166009523829e+00 0.0000000000000000e+00  1.7268647043308583e+01 1.6377141259736771e+01 0.0000000000000000e+00  1.6909224989374799e+01 1.4446409119306798e+01 0.0000000000000000e+00  1.6932493828409939e+01 1.3011627914295937e+01 0.0000000000000000e+00  1.7390199178193338e+01 1.2349894259616059e+01 0.0000000000000000e+00  1.8233921256456799e+01 1.2100093208780221e+01 0.0000000000000000e+00  1.9365360610846061e+01 1.2263847700469148e+01 0.0000000000000000e+00  2.0690778284811046e+01 1.2631175178355766e+01 0.0000000000000000e+00  2.2118661461725406e+01 1.3114631452943675e+01 0.0000000000000000e+00  2.3559663957775751e+01 1.3179255168440108e+01 0.0000000000000000e+00  2.4937410990547132e+01 1.3507491467870198e+01 0.0000000000000000e+00  2.6187315946585848e+01 1.2563668077569393e+01 0.0000000000000000e+00  2.7257105942382744e+01 1.2153171933747922e+01 0.0000000000000000e+00  2.8111953106248848e+01 9.6767887452662666e+00 0.0000000000000000e+00  2.8743435358850611e+01 8.1246369138932515e+00 0.0000000000000000e+00  2.9147086507565628e+01 4.1138176363143932e+00 0.0000000000000000e+00  2.9361997181535610e+01 9.1081934726065894e-01 0.0000000000000000e+00  2.9397169082781570e+01 2.3696158813343265e-03 0.0000000000000000e+00  2.9330404831756567e+01 7.2328301818814946e+00 0.0000000000000000e+00  2.9397151654734948e+01 -2.3316849899496944e-03 0.0000000000000000e+00  2.9032350044230959e+01 6.0882238487827076e-03 0.0000000000000000e+00  2.8736581840719946e+01 -3.44905005468