<?xml version="1.0"?>
<VTKFile type="UnstructuredGrid"  version="0.1"  >
<UnstructuredGrid>
<Piece  NumberOfPoints="1933" NumberOfCells="3640">
<Points>
<DataArray  type="Float64"  NumberOfComponents="3"  format="ascii">-0.4752609406690455 -0.002364407306343888 0  4.524739096502274 -0.002297624651167388 0  4.524638892439483 7.49770245253032 0  -0.475361150388857 7.497635662699881 0  9.524739165269077 -0.00223089304085738 0  9.52463895848685 7.497769180532467 0  14.52473929287126 -0.002164186334083225 0  14.52463905389212 7.497835881595542 0  19.5247394969022 -0.002097464932815834 0  19.5246391815914 7.497902597811392 0  24.52473978621085 -0.002030683849628817 0  24.52463934121397 7.497969374667603 0  29.52474016266983 -0.00196379586710114 0  29.52463952880147 7.498036259263914 0  34.5247406226481 -0.001896752471187714 0  34.52463973659014 7.498103299835593 0  39.52474115794868 -0.00182950372125798 0  39.52463995278534 7.498170546026849 0  44.52474175623173 -0.001761997584918496 0  44.52464016123159 7.498238049588873 0  49.52474240099428 -0.001694178972566079 0  49.52464034090253 7.498305865338255 0  54.52474307115717 -0.001625988560382477 0  54.52464046514972 7.498374052311098 0  59.52474374027662 -0.00155736141084319 0  59.52464050065014 7.498442675109104 0  64.52474437535376 -0.001488225349334002 0  64.52464040597641 7.498511805475911 0  69.52474493516453 -0.001418499014486663 0  69.52464012968969 7.49858152417599 0  74.52474536797324 -0.001348089456247442 0  74.52463960781364 7.498651923282121 0  79.52474560839798 -0.001276889099633133 0  79.52463876049168 7.498723109017377 0  84.52474557306341 -0.001204771813331499 0  84.52463748755477 7.498795205344527 0  89.52474515444376 -0.001131587708180188 0  89.52463566262864 7.498868358550208 0  94.52474421193023 -0.00105715612522298 0  94.52463312529386 7.498942743121751 0  99.52474255849351 -0.0009812560391691851 0  99.52462967070338 7.499018569227175 0  104.5247399401682 -0.0009036127911777948 0  104.5246250360258 7.499096091999434 0  109.5247360035164 -0.0008238797032142852 0  109.524618883303 7.499175622385613 0  114.5247302424903 -0.0007416128675108945 0  114.5246107792205 7.499257538086341 0  119.5247219092647 -0.0006562377608054098 0  119.524600174842 7.499342290043325 0  124.5247098610409 -0.0005670088093286708 0  124.5245863946772 7.499430392822619 0  129.5246922916935 -0.0004729718772200567 0  129.5245686589508 7.499522371506343 0  134.5246662546858 -0.0003729670277433339 0  134.5245461947497 7.499618604473077 0  139.5246268056644 -0.0002657918576458061 0  139.5245185592395 7.499718936341813 0  144.5245654465997 -0.0001509105048170328 0  144.5244864391732 7.499821830790236 0  149.5244672491756 -3.103719965978653e-05 0  149.5244534931811 7.499922794519724 0  159.5244717418524 1.314915979728958e-18 0  164.5244832033323 -2.528218845900329e-05 0  164.5244749775159 7.49996507347423 0  159.5244646842545 7.49997758197534 0  169.5245050931554 -2.546927938733398e-05 0  169.5244849851931 7.499970028037461 0  174.5245295454611 -8.530453444990975e-06 0  174.5244958279658 7.499989312890419 0  179.5245532606017 2.052912561526101e-05 0  179.5245072070943 7.500019512982963 0  184.5245749570228 5.833143476287358e-05 0  184.524518607741 7.50005788601514 0  189.5245942576022 0.0001025349947404712 0  189.5245296123216 7.500102378216327 0  194.5246111805872 0.0001514902323846017 0  194.5245399500869 7.500151479039903 0  199.5246259038601 0.0002040171854434503 0  199.5245494737895 7.500204078009118 0  204.5246386567062 0.0002592583504219938 0  204.5245581237641 7.500259353034059 0  209.524649671687 0.0003165804712708694 0  209.5245658969837 7.500316689160224 0  214.5246591647794 0.000375508490296698 0  214.524572824413 7.500375620902353 0  219.5246673286179 0.0004356806488017735 0  219.5245789557035 7.500435791566741 0  224.5246743316224 0.0004968175415693453 0  224.5245843493422 7.500496924459476 0  229.524680319604 0.0005587004494254622 0  229.5245890665748 7.500558802330881 0  234.5246854182682 0.0006211559139944118 0  234.5245931678256 7.5006212525314 0  239.5246897358994 0.0006840445752994621 0  239.5245967107351 7.500684136157692 0  244.5246933659443 0.0007472529718964993 0  244.5245997492207 7.500747340019925 0  249.524696389382 0.0008106874419234116 0  249.5246023331825 7.500810770635855 0  254.5246988768839 0.0008742695507465484 0  254.5246045086108 7.500874349712049 0  259.5247008907771 0.0009379326638538438 0  259.5246063179308 7.500938010748358 0  264.5247024868725 0.001001619419146406 0  264.5246078004914 7.501001696527272 0  269.5247037161813 0.001065279955452769 0  269.5246089931283 7.50106535734512 0  274.5247046265843 0.001128870841771179 0  274.5246099307361 7.501128949921501 0  279.5247052644498 0.001192354739262746 0  279.5246106468147 7.501192436996966 0  284.5247056762015 0.001255700929525199 0  284.5246111739198 7.501255787705562 0  289.5247059096996 0.001318886972870586 0  289.5246115439624 7.501318978891461 0  294.524706015168 0.00138190192983889 0  294.5246117883068 7.501381997624997 0  299.5247060449864 0.00144475177052803 0  299.524611937681 7.501444845247364 0  304.5247060509408 0.0015074676542259 0  304.5246120221594 7.501507543316543 0  309.5247060759569 0.001570116897141761 0  309.5246120721172 7.501570141963834 0  4.524538601450864 14.99770260538378 0  -0.4754614378972611 14.99763583106199 0  9.524538645281632 14.99776930291114 0  14.5245386938195 14.99783597368539 0  19.52453874351562 14.99790266379773 0  24.5245387884869 14.99796941870919 0  29.52453882058897 14.99803628423155 0  34.52453882903944 14.99810330704853 0  39.52453879990262 14.9981705352867 0  44.524538715508 14.99823801923911 0  49.52453855379186 14.99830581224347 0  54.52453828752404 14.99837397170672 0  59.52453788337635 14.9984425602814 0  64.52453730078999 14.99851164721589 0  69.52453649059944 14.99858130991379 0  74.52453539338154 14.99865163574677 0  79.52453393751121 14.99872272416446 0  84.52453203695238 14.99879468912571 0  89.52452958889585 14.99886766181922 0  94.5245264715345 14.99894179350689 0  99.52452254259028 14.99901725803389 0  104.5245176398182 14.99909425295982 0  109.5245115857577 14.99917299710184 0  114.5245042007847 14.99925372005866 0  119.5244953313188 14.99933663516444 0  124.5244849040823 14.99942187996727 0  129.5244730220952 14.99950939589406 0  134.5244601209005 14.99959869955189 0  139.5244471955157 14.99968847329242 0  144.524436065581 14.99977588288275 0  149.5244295059889 14.99985553666579 0  164.5244487036179 14.9999386784738 0  159.5244431362067 14.99992729042323 0  169.5244521528237 14.99995673702849 0  174.5244553025505 14.99998290368922 0  179.5244588612772 15.00001666251935 0  184.5244629465305 15.00005685282792 0  189.5244674349173 15.0001022536234 0  194.5244721380292 15.00015178977244 0  199.5244768779352 15.00020457862493 0  204.5244815129743 15.00025991761378 0  209.524485941337 15.00031725464047 0  214.524490096049 15.00037615730406 0  219.5244939376186 15.00043628628493 0  224.5244974469605 15.00049737394126 0  229.5245006194976 15.00055920765805 0  234.5245034605961 15.00062161708084 0  239.5245059821808 15.00068446437599 0  244.5245082003079 15.00074763679978 0  249.5245101334738 15.0008110410197 0  254.5245118014682 15.00087459877132 0  259.5245132246183 15.00093824355085 0  264.5245144233093 15.0010019181322 0  269.5245154176914 15.00106557277017 0  274.5245162275055 15.00112916400844 0  279.5245168719834 15.00119265405723 0  284.5245173698143 15.00125601074005 0  289.524517739187 15.00131920802433 0  294.5245179980388 15.00138222712831 0  299.524518164739 15.00144505810545 0  304.5245182597069 15.00150770158697 0  309.5245183088482 15.00157016993658 0  4.52443835649399 22.49770285243222 0  -0.4755616783748933 22.49763615639066 0  9.524438382422733 22.49776947740641 0  14.5244383939313 22.49783608364405 0  19.52443838429789 22.49790271733362 0  24.52443834549122 22.4979694221358 0  29.52443826804137 22.49803624116405 0  34.52443814071736 22.49810321811136 0  39.52443795009565 22.49817039804398 0  44.52443768008384 22.49823782811098 0  49.52443731143045 22.49830555827238 0  54.52443682122677 22.49837364208211 0  59.52443618240729 22.49844213753548 0  64.52443536326454 22.49851110797715 0  69.52443432701502 22.49858062305151 0  74.52443303149515 22.49865075965423 0  79.52443142912163 22.49872160279916 0  84.5244294673514 22.49879324623238 0  89.52442709002027 22.49886579248157 0  94.52442424016519 22.49893935177668 0  99.52442086525905 22.49901403884911 0  104.5244169262419 22.49908996590378 0  109.5244124123052 22.49916722890076 0  114.524407364001 22.49924588248559 0  119.5244019076049 22.49932589628574 0  124.5243963030897 22.49940708190698 0  129.5243910050552 22.49948897672774 0  134.5243867277601 22.49957067081928 0  139.5243844876935 22.49965057632802 0  144.5243855653868 22.49972618792348 0  149.5243912857439 22.49979402647751 0  164.524404812533 22.49990783928145 0  159.5244029664352 22.49987918090556 0  169.5244048369791 22.49993825066405 0  174.5244040747251 22.49997246955247 0  179.5244032763252 22.50001120132703 0  184.5244028394992 22.50005435563061 0  189.5244029047784 22.50010147025939 0  194.5244034637826 22.50015196275187 0  199.5244044373183 22.5002052570008 0  204.5244057224306 22.50026083695136 0  209.5244072173477 22.50031826259662 0  214.5244088328356 22.50037716841872 0  219.5244104959715 22.50043725481157 0  224.5244121500634 22.50049827760665 0  229.5244137528525 22.50056003798241 0  234.5244152741505 22.50062237362106 0  239.5244166934813 22.50068515131486 0  244.5244179979763 22.5007482609403 0  249.5244191805994 22.50081161061995 0  254.5244202387088 22.50087512287707 0  259.524421172902 22.50093873160815 0  264.5244219861114 22.50100237972882 0  269.5244226828947 22.50106601738029 0  274.524423268893 22.5011296006076 0  279.5244237504407 22.50119309043571 0  284.5244241343442 22.50125645226487 0  289.5244244278887 22.50131965547435 0  294.5244246392018 22.5013826730421 0  299.5244247781569 22.5014
[...]
<PointData  Vectors="v"> 
<DataArray  type="Float64"  Name="v"  NumberOfComponents="3" format="ascii">-4.3396098029864785e+00 -3.1242958682552548e+00 0.0000000000000000e+00  -4.5385294028423644e+00 -2.5924289411447896e+00 0.0000000000000000e+00  -3.8408843047043320e+00 -2.2942104396682907e+00 0.0000000000000000e+00  -3.6821722371301413e+00 -2.8856593935524586e+00 0.0000000000000000e+00  -4.7229452529949789e+00 -2.4365293604589731e+00 0.0000000000000000e+00  -4.0394780024540173e+00 -2.1600911548944501e+00 0.0000000000000000e+00  -4.8014698536570579e+00 -2.3361603937279694e+00 0.0000000000000000e+00  -4.2234281296321488e+00 -2.2188282288756729e+00 0.0000000000000000e+00  -4.7793053064795599e+00 -1.8177779802612775e+00 0.0000000000000000e+00  -4.3012472015886480e+00 -1.8514098248873567e+00 0.0000000000000000e+00  -4.7943339387546180e+00 -1.5166123711463131e+00 0.0000000000000000e+00  -4.2782223523804559e+00 -1.4943862597302897e+00 0.0000000000000000e+00  -4.7318287555362630e+00 -9.7946093293336522e-01 0.0000000000000000e+00  -4.2926383164767135e+00 -1.0735918628405985e+00 0.0000000000000000e+00  -4.6086130113067449e+00 -3.9502826022367904e-01 0.0000000000000000e+00  -4.2295396241794840e+00 -5.7979832664453534e-01 0.0000000000000000e+00  -4.7789753079401773e+00 -2.0899924243276755e-01 0.0000000000000000e+00  -4.1059513157805476e+00 4.6871237549354315e-02 0.0000000000000000e+00  -4.7544751987541138e+00 2.5349730311321222e-01 0.0000000000000000e+00  -4.2765259656428594e+00 2.1725797425449142e-01 0.0000000000000000e+00  -7.2544939457400766e+00 -3.0152169837287293e+00 0.0000000000000000e+00  -4.2526834815466525e+00 7.3606256549480364e-01 0.0000000000000000e+00  -8.4314244597480990e+00 -4.2227923547838229e+00 0.0000000000000000e+00  -6.7529228826049730e+00 -2.4563083322546011e+00 0.0000000000000000e+00  -8.7664465238709948e+00 -4.0762605566080383e+00 0.0000000000000000e+00  -7.9311044923841347e+00 -3.5709427647495300e+00 0.0000000000000000e+00  -8.7587948817198473e+00 -3.3567626013434415e+00 0.0000000000000000e+00  -8.2690785649957039e+00 -3.3642936435692539e+00 0.0000000000000000e+00  -8.5505104010393236e+00 -2.3514693565729843e+00 0.0000000000000000e+00  -8.2655907353924896e+00 -2.6583581722712886e+00 0.0000000000000000e+00  -8.2655087988279696e+00 -1.2650256722229662e+00 0.0000000000000000e+00  -8.0635896449461075e+00 -1.6862273978526332e+00 0.0000000000000000e+00  -7.9018973921299507e+00 -1.1209919179427719e-01 0.0000000000000000e+00  -7.7861168500962732e+00 -6.4909263293572617e-01 0.0000000000000000e+00  -7.4482959228395957e+00 1.0301226023488119e+00 0.0000000000000000e+00  -7.4315727840709362e+00 3.5981306314979999e-01 0.0000000000000000e+00  -6.8936217570747091e+00 2.2404056607426668e+00 0.0000000000000000e+00  -6.9898898599530641e+00 1.4199501534072172e+00 0.0000000000000000e+00  -6.2261376049052304e+00 3.4917895231908300e+00 0.0000000000000000e+00  -6.4487880279766285e+00 2.5052350701843191e+00 0.0000000000000000e+00  -5.4468893475109592e+00 4.8009043975970709e+00 0.0000000000000000e+00  -5.7978537019233389e+00 3.6486946529337811e+00 0.0000000000000000e+00  -4.5885004643536824e+00 6.0884614556731451e+00 0.0000000000000000e+00  -5.0381927496556846e+00 4.8207704565315925e+00 0.0000000000000000e+00  -3.6911218417033074e+00 7.4507023912713928e+00 0.0000000000000000e+00  -4.2035721576728386e+00 6.1270120789003952e+00 0.0000000000000000e+00  -2.7987987705068100e+00 8.5085060653951512e+00 0.0000000000000000e+00  -3.3316639559185179e+00 7.1978324390660919e+00 0.0000000000000000e+00  -1.9811410001242384e+00 9.6353036452746874e+00 0.0000000000000000e+00  -2.4730117376142626e+00 8.4363663681229557e+00 0.0000000000000000e+00  -1.2700572298743436e+00 9.9912851512030603e+00 0.0000000000000000e+00  -1.6874578871923713e+00 8.9627685274413444e+00 0.0000000000000000e+00  -7.2446303572300941e-01 1.0382495631653176e+01 0.0000000000000000e+00  -1.0223012895203634e+00 9.5963290562188241e+00 0.0000000000000000e+00  -3.3371475869991701e-01 9.2027159127266867e+00 0.0000000000000000e+00  -5.1498057236741379e-01 8.6678000322578264e+00 0.0000000000000000e+00  -1.2329170678436417e-01 8.1785657902063402e+00 0.0000000000000000e+00  -1.8544958047743967e-01 7.8980817293331835e+00 0.0000000000000000e+00  -2.2038804658579429e-02 3.9851874351893248e+00 0.0000000000000000e+00  -1.8313287572510255e-02 3.9009931825069581e+00 0.0000000000000000e+00  -1.0694815816644880e-05 -7.3882715978237535e-05 0.0000000000000000e+00  -7.4071881740945286e-04 -8.3733692835286403e-04 0.0000000000000000e+00  -6.6228031110030596e-13 5.0706144433663552e-19 0.0000000000000000e+00  1.4485933071793495e+00 -7.1453160549403476e+00 0.0000000000000000e+00  -2.7288901726331437e-02 -9.3376920864360660e+00 0.0000000000000000e+00  -7.0761675244259445e-04 6.6112644759396563e-04 0.0000000000000000e+00  -1.9920966332127707e-01 -1.1843243763605825e+01 0.0000000000000000e+00  1.4503204940154706e+00 -9.4160053209066401e+00 0.0000000000000000e+00  -2.0621425003145075e-01 -1.1108422564162369e+01 0.0000000000000000e+00  -1.6201023298648032e-01 -1.1115534711750778e+01 0.0000000000000000e+00  -8.0981127805605102e-01 -1.1015021840427558e+01 0.0000000000000000e+00  -1.3801447675099865e-01 -1.0136174117713558e+01 0.0000000000000000e+00  -9.9469749099267468e-01 -8.8521372308442032e+00 0.0000000000000000e+00  -7.1577589216251269e-01 -8.5942236466476043e+00 0.0000000000000000e+00  -1.2556761788460531e+00 -7.2002112564786582e+00 0.0000000000000000e+00  -8.7782482656832772e-01 -6.8282343331541551e+00 0.0000000000000000e+00  -1.4039059055773229e+00 -5.3677335885064146e+00 0.0000000000000000e+00  -1.1172895877212281e+00 -5.1608787032366150e+00 0.0000000000000000e+00  -1.5663651867150343e+00 -4.0077342734510388e+00 0.0000000000000000e+00  -1.2474174859470710e+00 -3.7797399653994668e+00 0.0000000000000000e+00  -1.6339887823688104e+00 -2.9162933519061895e+00 0.0000000000000000e+00  -1.3934405193918245e+00 -2.8279062082730584e+00 0.0000000000000000e+00  -1.7528805208298643e+00 -2.3172843051101735e+00 0.0000000000000000e+00  -1.4459665775435000e+00 -2.1509821703802223e+00 0.0000000000000000e+00  -1.9002869518119072e+00 -1.9493725476560830e+00 0.0000000000000000e+00  -1.5516068974842070e+00 -1.7392953685356336e+00 0.0000000000000000e+00  -2.0264497609638106e+00 -1.7811755079559060e+00 0.0000000000000000e+00  -1.6870351024508163e+00 -1.6018777667140063e+00 0.0000000000000000e+00  -2.1226340161442998e+00 -1.7103108193093772e+00 0.0000000000000000e+00  -1.8021010520082565e+00 -1.5749176365474606e+00 0.0000000000000000e+00  -2.1914506555008337e+00 -1.6629906381281889e+00 0.0000000000000000e+00  -1.8884323655365698e+00 -1.5681180702551329e+00 0.0000000000000000e+00  -2.2122627621281357e+00 -1.6194534300042949e+00 0.0000000000000000e+00  -1.9482755134673737e+00 -1.5957803948211176e+00 0.0000000000000000e+00  -2.2095320891901036e+00 -1.5826682442867057e+00 0.0000000000000000e+00  -1.9607366452431494e+00 -1.5936989641466934e+00 0.0000000000000000e+00  -2.1930681351507220e+00 -1.5281093842783757e+00 0.0000000000000000e+00  -1.9504123825035546e+00 -1.5593696324625133e+00 0.0000000000000000e+00  -2.1551868042955826e+00 -1.4594522355851565e+00 0.0000000000000000e+00  -1.9269015898159270e+00 -1.5224042360828300e+00 0.0000000000000000e+00  -2.1082681586887735e+00 -1.3909927029128994e+00 0.0000000000000000e+00  -1.8823159231211601e+00 -1.4671386827440178e+00 0.0000000000000000e+00  -2.0628136691374586e+00 -1.2922014243910334e+00 0.0000000000000000e+00  -1.8291204599430066e+00 -1.3659891541302303e+00 0.0000000000000000e+00  -2.0033696377089312e+00 -1.2083049115770974e+00 0.0000000000000000e+00  -1.7776370284268854e+00 -1.3028318240246113e+00 0.0000000000000000e+00  -1.9419246357870807e+00 -1.0649366869828443e+00 0.0000000000000000e+00  -1.7123662650783795e+00 -1.1623598561653821e+00 0.0000000000000000e+00  -1.8714119917009611e+00 -9.7514036484060795e-01 0.0000000000000000e+00  -1.6451895734588662e+00 -1.0860209745659515e+00 0.0000000000000000e+00  -1.7899304723428759e+00 -7.2466957652584785e-01 0.0000000000000000e+00  -1.5691792259080446e+00 -8.5207736776578491e-01 0.0000000000000000e+00  -1.6834818332939818e+00 -6.7429827130280029e-01 0.0000000000000000e+00  -1.4819974178419406e+00 -8.3886943531488078e-01 0.0000000000000000e+00  -1.5519546652800138e+00 -1.8873851860996213e-01 0.0000000000000000e+00  -1.3702866571075523e+00 -3.9135755692164498e-01 0.0000000000000000e+00  -1.3785822230138807e+00 -2.9476963573334436e-01 0.0000000000000000e+00  -1.2328380247374588e+00 -5.5943994231854444e-01 0.0000000000000000e+00  -1.1019002609561528e+00 6.3800406846096913e-01 0.0000000000000000e+00  -1.0546461515525580e+00 2.1716606491238064e-01 0.0000000000000000e+00  -6.3485943974003944e-01 7.9399564464785710e-01 0.0000000000000000e+00  -7.7114800979738973e-01 8.9699739049568336e-02 0.0000000000000000e+00  4.6812398827425744e-01 2.8945691692372316e-01 0.0000000000000000e+00  -3.0138853379915720e-01 -1.3729094783247129e+00 0.0000000000000000e+00  -3.1263456125680475e+00 -2.0569259302969134e+00 0.0000000000000000e+00  -2.9412466405447018e+00 -2.6063403708612629e+00 0.0000000000000000e+00  -3.2835786884299591e+00 -1.8635830068943657e+00 0.0000000000000000e+00  -3.4796096408863493e+00 -1.9446199402345161e+00 0.0000000000000000e+00  -3.6602906720251682e+00 -1.7368014373572134e+00 0.0000000000000000e+00  -3.7342539312466649e+00 -1.5315904717939677e+00 0.0000000000000000e+00  -3.7067378552401533e+00 -1.0545632466707109e+00 0.0000000000000000e+00  -3.7165231961209719e+00 -6.7695261820936536e-01 0.0000000000000000e+00  -3.6490568459259332e+00 -1.4124411137961704e-01 0.0000000000000000e+00  -3.5213157225137368e+00 4.7140742470518165e-01 0.0000000000000000e+00  -3.6893429204414132e+00 6.9986143387736477e-01 0.0000000000000000e+00  -3.6634943804066604e+00 1.2903240042271453e+00 0.0000000000000000e+00  -6.1563544775774197e+00 -1.8083504879235963e+00 0.0000000000000000e+00  -7.3280335387965687e+00 -2.8580236116175204e+00 0.0000000000000000e+00  -7.6647840901943702e+00 -2.6640463541764179e+00 0.0000000000000000e+00  -7.6620154559439033e+00 -1.9866128869974364e+00 0.0000000000000000e+00  -7.4641357347836550e+00 -1.0618091255839361e+00 0.0000000000000000e+00  -7.1928879861437842e+00 -1.6794489059067622e-01 0.0000000000000000e+00  -6.8463279137499899e+00 7.6411056972882541e-01 0.0000000000000000e+00  -6.4159294006508425e+00 1.7021201391263803e+00 0.0000000000000000e+00  -5.8895406256050338e+00 2.6815116513602084e+00 0.0000000000000000e+00  -5.2562344735918289e+00 3.6954240988985760e+00 0.0000000000000000e+00  -4.5202911049807613e+00 4.8908725353718658e+00 0.0000000000000000e+00  -3.7144295058524497e+00 5.9106505263776672e+00 0.0000000000000000e+00  -2.8785590380227237e+00 7.1717054189226692e+00 0.0000000000000000e+00  -2.0629359594654009e+00 7.8180197546662340e+00 0.0000000000000000e+00  -1.3326909491350662e+00 8.6276117045896665e+00 0.0000000000000000e+00  -7.2674742222819211e-01 7.9613314962474622e+00 0.0000000000000000e+00  -3.0245912573538153e-01 7.4339462215417917e+00 0.0000000000000000e+00  -4.8362949025829376e-02 3.7384804834923164e+00 0.0000000000000000e+00  -2.4887658061521168e-03 -1.5921647081871908e-03 0.0000000000000000e+00  -5.5059365495281010e-02 -9.1803228493062363e+00 0.0000000000000000e+00  -2.4475939914411493e-03 1.2963789589775208e-03 0.0000000000000000e+00  -2.0800747405044079e-01 -1.1643207769664302e+01 0.0000000000000000e+00  1.3189659596883332e+00 -8.7378477372699077e+00 0.0000000000000000e+00  -2.3451358630558736e-01 -1.0198857423640360e+01 0.0000000000000000e+00  -1.6876922744665118e-01 -7.7513609368014604e+00 0.0000000000000000e+00  -7.0957637019827824e-01 -6.6006613766418942e+00 0.0000000000000000e+00  -8.4436232169689085e-01 -4.8197091414380369e+00 0.0000000000000000e+00  -1.0575172418136853e+00 -3.5969216719677974e+00 0.0000000000000000e+00  -1.1669542884872797e+00 -2.6201014250562902e+00 0.0000000000000000e+00  -1.2946984848676928e+00 -2.0826719688593971e+00 0.0000000000000000e+00  -1.3309568379095023e+00 -1.5896904619887253e+00 0.0000000000000000e+00  -1.4223259830470252e+00 -1.4061771977267605e+00 0.0000000000000000e+00  -1.5453994288099282e+00 -1.4096519515658708e+00 0.0000000000000000e+00  -1.6491083177192749e+00 -1.4446976033240881e+00 0.0000000000000000e+00  -1.7256635759410668e+00 -1.5111731475980392e+00 0.0000000000000000e+00  -1.7770815242182294e+00 -1.5798690047012824e+00 0.0000000000000000e+00  -1.7819758529407681e+00 -1.5789810668393982e+00 0.0000000000000000e+00  -1.7650570064108064e+00 -1.5612061418787382e+00 0.0000000000000000e+00  -1.7357703433450473e+00 -1.5374090772947406e+00 0.0000000000000000e+00  -1.6858479420878660e+00 -1.4488076143600961e+00 0.0000000000000000e+00  -1.6277797923586497e+00 -1.3827924404845504e+00 0.0000000000000000e+00  -1.5717735148406049e+00 -1.2630341122834188e+00 0.0000000000000000e+00  -1.5020679998329101e+00 -1.1893666475357916e+00 0.0000000000000000e+00  -1.4306034409216819e+00 -9.6872941786089617e-01 0.0000000000000000e+00  -1.3502789582108869e+00 -9.7215459411777461e-01 0.0000000000000000e+00  -1.2588184134419658e+00 -5.6178240724414197e-01 0.0000000000000000e+00  -1.1425972556576984e+00 -7.6788300407407917e-01 0.0000000000000000e+00  -1.0009351263477433e+00 -5.3468906653025963e-02 0.0000000000000000e+00  -8.1795932155512685e-01 -3.3725033628639267e-01 0.0000000000000000e+00  -5.3039939750563070e-01 -2.0812293424032799e+00 0.0000000000000000e+00  -2.2581737793697685e+00 -1.7810201242055237e+00 0.0000000000000000e+00  -2.0855162469061215e+00 -2.3448241977987800e+00 0.0000000000000000e+00  -2.4403140520247759e+00 -1.6310017352177537e+00 0.0000000000000000e+00  -2.5920833722911292e+00 -1.6547274478226099e+00 0.0000000000000000e+00  -2.7814987540006126e+00 -1.4713076406487982e+00 0.0000000000000000e+00  -2.9535722801543201e+00 -1.4272194275202486e+00 0.0000000000000000e+00  -3.0173483006273041e+00 -1.1030331871858963e+00 0.0000000000000000e+00  -2.9788416297758378e+00 -6.7019441371530808e-01 0.0000000000000000e+00  -2.9768485729273091e+00 -2.5016314632569775e-01 0.0000000000000000e+00  -2.8979183562603064e+00 2.7322183688142954e-01 0.0000000000000000e+00  -2.7608605108277144e+00 9.4718375477765571e-01 0.0000000000000000e+00  -2.9223548812867084e+00 1.2469492900288033e+00 0.0000000000000000e+00  -2.8858837992709794e+00 1.9181287386194115e+00 0.0000000000000000e+00  -5.3570135174179807e+00 -1.1150551946342611e+00 0.0000000000000000e+00  -6.5092567021859855e+00 -2.1644408144788976e+00 0.0000000000000000e+00  -6.8367314359235651e+00 -1.9927850577854209e+00 0.0000000000000000e+00  -6.8304305362675635e+00 -1.3574210775482478e+00 0.0000000000000000e+00  -6.6328721240233870e+00 -5.7085832205807097e-01 0.0000000000000000e+00  -6.3648009254300355e+00 2.5079386123684955e-01 0.0000000000000000e+00  -6.0252658015227460e+00 1.0654538560853315e+00 0.0000000000000000e+00  -5.6051565811101600e+00 1.9046959711953044e+00 0.0000000000000000e+00  -5.0934550200025299e+00 2.7634516593527829e+00 0.0000000000000000e+00  -4.4825079187130239e+00 3.8089752967518788e+00 0.0000000000000000e+00  -3.7757121764229362e+00 4.7344679110226338e+00 0.0000000000000000e+00  -3.0115908016538535e+00 5.9552646015741235e+00 0.0000000000000000e+00  -2.2281670739112376e+00 6.6497483523719794e+00 0.0000000000000000e+00  -1.4860801538000608e+00 7.5891988651903688e+00 0.0000000000000000e+00  -8.4096723546674879e-01 7.1463549195387479e+00 0.0000000000000000e+00  -3.5763734767537791e-01 6.8689037771418997e+00 0.0000000000000000e+00  -5.5372959783730615e-02 3.5205254266334602e+00 0.0000000000000000e+00  -5.2169996122229095e-03 -2.2756758759168100e-03 0.0000000000000000e+00  -6.4343503949502404e-02 -8.9348849200147225e+00 0.0000000000000000e+00  -5.1801017689952298e-03 1.8527852721927499e-03 0.0000000000000000e+00  -3.4697115039389936e-01 -1.1368934399768992e+01 0.0000000000000000e+00  -5.0413458079015205e-01 -1.1092071007531631e+01 0.0000000000000000e+00  1.1108793404930757e+00 -7.9430907746621076e+00 0.0000000000000000e+00  -3.4878098877422198e-01 -7.8985249282452754e+00 0.0000000000000000e+00  -2.1755750626476034e-01 -5.8343910526986758e+00 0.0000000000000000e+00  -7.0581965259604695e-01 -4.6480245808232219e+00 0.0000000000000000e+00  -7.9994874623816270e-01 -3.3060049410615275e+00 0.0000000000000000e+00  -9.7788063652974755e-01 -2.4788888655198136e+00 0.0000000000000000e+00  -1.0590560877704418e+00 -1.9111937086713382e+00 0.0000000000000000e+00  -1.1615862606339726e+00 -1.5524874272367775e+00 0.0000000000000000e+00  -1.1762737721840282e+00 -1.2847332049958438e+00 0.0000000000000000e+00  -1.2486582318899777e+00 -1.2384970603192991e+00 0.0000000000000000e+00  -1.3547300568951672e+00 -1.3011802690180649e+00 0.0000000000000000e+00  -1.4435143718133383e+00 -1.4068421652156213e+00 0.0000000000000000e+00  -1.5074001355834938e+00 -1.5116460598463772e+00 0.0000000000000000e+00  -1.5479249947237077e+00 -1.5792726266987525e+00 0.0000000000000000e+00  -1.5436223931594153e+00 -1.5932398947640019e+00 0.0000000000000000e+00  -1.5189474805136072e+00 -1.5870178063912985e+00 0.0000000000000000e+00  -1.4829405699612435e+00 -1.5287611694352494e+00 0.0000000000000000e+00  -1.4270887061243980e+00 -1.4745191388349297e+00 0.0000000000000000e+00  -1.3637003624552524e+00 -1.3513709065045461e+00 0.0000000000000000e+00  -1.3026138835696230e+00 -1.2980542768925472e+00 0.0000000000000000e+00  -1.2280047302430497e+00 -1.0801783694645868e+00 0.0000000000000000e+00  -1.1515231616664592e+00 -1.0967115518201955e+00 0.0000000000000000e+00  -1.0662130792733755e+00 -7.0354190563818941e-01 0.0000000000000000e+00  -9.6928631390257558e-01 -9.4623046928998589e-01 0.0000000000000000e+00  -8.4801816942436514e-01 -2.7119336855051163e-01 0.0000000000000000e+00  -7.0018037587911641e-01 -6.1505151532782432e-01 0.0000000000000000e+00  -5.1327192230351815e-01 -2.5182750665305451e+00 0.0000000000000000e+00  -1.6216438258432482e+00 -1.5244412341579643e+00 0.0000000000000000e+00  -1.4523168694279220e+00 -2.0873712277596161e+00 0.0000000000000000e+00  -1.7903886280832115e+00 -1.3623224041801290e+00 0.0000000000000000e+00  -1.9650928279295627e+00 -1.4335022332435450e+00 0.0000000000000000e+00  -2.1072264990505825e+00 -1.1953062255174165e+00 0.0000000000000000e+00  -2.2842926938081423e+00 -1.1789986200131990e+00 0.0000000000000000e+00  -2.4416305068852733e+00 -1.0191985527186558e+00 0.0000000000000000e+00  -2.4881985031783715e+00 -7.4090746922598694e-01 0.0000000000000000e+00  -2.4308132825313997e+00 -2.6668351793584472e-01 0.0000000000000000e+00  -2.4096906779259424e+00 1.4168617560546484e-01 0.0000000000000000e+00  -2.3132874062168796e+00 7.3135475822194695e-01 0.0000000000000000e+00  -2.1619301671584621e+00 1.4804613160086664e+00 0.0000000000000000e+00  -2.3105744503983625e+00 1.8497957594772767e+00 0.0000000000000000e+00  -2.2502148400155804e+00 2.5648584957309271e+00 0.0000000000000000e+00  -4.6806490991295258e+00 -4.6323549451365703e-01 0.0000000000000000e+00  -5.7983918499802201e+00 -1.5164190487958293e+00 0.0000000000000000e+00  -6.1059610747759283e+00 -1.3766817452130922e+00 0.0000000000000000e+00  -6.0863838471104641e+00 -8.7271488668615949e-01 0.0000000000000000e+00  -5.8809662216059744e+00 -1.5595950065264763e-01 0.0000000000000000e+00  -5.6065643688773346e+00 5.5422443554830914e-01 0.0000000000000000e+00  -5.2631191657996377e+00 1.2740816322720292e+00 0.0000000000000000e+00  -4.8423839396105359e+00 1.9988320033821712e+00 0.0000000000000000e+00  -4.3348665232371877e+00 2.8997583816400150e+00 0.0000000000000000e+00  -3.7344558428662151e+00 3.6908687820459107e+00 0.0000000000000000e+00  -3.0516671898788146e+00 4.8309527316578649e+00 0.0000000000000000e+00  -2.3230134632713249e+00 5.5179733111338942e+00 0.0000000000000000e+00  -1.6012721489078767e+00 6.5231220543798791e+00 0.0000000000000000e+00  -9.3732026763755183e-01 6.2707036379770216e+00 0.0000000000000000e+00  -4.1975744198232118e-01 6.2180046215441376e+00 0.0000000000000000e+00  -7.2963542280244556e-02 3.2540361241567912e+