<?xml version="1.0"?>
<VTKFile type="UnstructuredGrid"  version="0.1"  >
<UnstructuredGrid>
<Piece  NumberOfPoints="1933" NumberOfCells="3640">
<Points>
<DataArray  type="Float64"  NumberOfComponents="3"  format="ascii">0.4752952331260334 0.001269295520136842 0  5.475295264240151 0.00120554332628223 0  5.475390960883195 7.501205661432536 0  0.4753908866153659 7.501269337445913 0  10.47529529460129 0.001141672814399516 0  10.47539110228677 7.501141820404905 0  15.47529538721831 0.001077602642596573 0  15.47539134954829 7.501077760822665 0  20.47529561699485 0.001013308873664386 0  20.47539174204522 7.501013470189236 0  25.4752960576714 0.0009488030485525719 0  25.47539232035007 7.500948965174933 0  30.47529677805801 0.0008841195207486608 0  30.47539312539411 7.500884282522278 0  35.47529784209129 0.0008193081027286189 0  35.47539419786577 7.500819473180178 0  40.47529931038787 0.0007544300715064769 0  40.47539557806944 7.50075459899098 0  45.47530124229743 0.0006895564207361785 0  45.47539730613674 7.500689731270978 0  50.47530369804761 0.0006247677094536324 0  50.47539942242673 7.500624950822541 0  55.47530674083936 0.0005601551497176108 0  55.47540196797549 7.500560349105365 0  60.47531043886142 0.0004958227764857365 0  60.47540498487772 7.500496030450271 0  65.47531486724104 0.0004318906961898525 0  65.47540851648702 7.50043211532991 0  70.47532010994685 0.000368499545050481 0  70.4754126073143 7.500368744822313 0  75.47532626165035 0.000305816428384181 0  75.47541730246039 7.500306086531729 0  80.47533342950408 0.0002440427826363286 0  80.47542264634741 7.500244342386097 0  85.47534173471941 0.0001834248329900649 0  85.4754286804108 7.500183758931861 0  90.47535131367107 0.0001242676543399417 0  90.47543543923537 7.500124641023023 0  95.47536231798294 6.69543480098432e-05 0  95.4754429443831 7.500067370184652 0  100.4753749125021 1.197262438818256e-05 0  100.4754511948384 7.500012429458336 0  105.4753892690509 -4.004770421623885e-05 0  105.475460152579 7.499960437237523 0  110.4754055518251 -8.828091269934957e-05 0  110.4754697214126 7.499912193447539 0  115.4754238864133 -0.0001316268589976416 0  115.4754797171688 7.499868742240334 0  120.4754442967044 -0.0001685948826794941 0  120.4754898285053 7.49983145555033 0  125.4754665787787 -0.0001971306557010251 0  125.4754995721982 7.499802139784864 0  130.475490050744 -0.000214358421605279 0  130.4755082600959 7.49978315977796 0  135.4755130571623 -0.0002162067233474649 0  135.4755150294838 7.49977755214507 0  140.4755319832305 -0.0001969144212734741 0  140.4755190742598 7.499789054230684 0  145.4755392655132 -0.0001486264913815476 0  145.4755204279812 7.499821928293547 0  150.4755192123338 -6.249162955287055e-05 0  150.4755222249246 7.499880737620556 0  160.4755282581478 8.059013733594509e-19 0  165.4753781028006 -0.0002062094576589055 0  165.4755021992468 7.499762926914372 0  160.475546423571 7.499927036983027 0  170.4752952848477 -0.0003827619887779952 0  170.4754572775927 7.499601647610141 0  175.4752486818682 -0.0005378668052349537 0  175.4754202130019 7.499453519861128 0  180.4752224199334 -0.0006761706365685269 0  180.4753918966868 7.499318839445378 0  185.475207946827 -0.0008012603386790754 0  185.4753711161455 7.499195754712137 0  190.4752004889028 -0.0009159748015872156 0  190.4753562818856 7.499082191434201 0  195.4751972997881 -0.001022513762150084 0  195.4753459589831 7.498976333033895 0  200.4751967510628 -0.001122558734670076 0  200.4753389923029 7.498876701967118 0  205.4751978467405 -0.001217392378565718 0  205.4753344957157 7.498782127526748 0  210.4751999583754 -0.001307998946564325 0  210.475331803712 7.498691688198099 0  215.4752026774216 -0.001395141858643749 0  215.4753304203584 7.498604656405394 0  220.4752057309821 -0.001479421117759672 0  220.4753299763262 7.498520453056338 0  225.4752089324612 -0.001561315034395123 0  225.4753301956974 7.498438612326342 0  230.4752121518347 -0.001641210422733136 0  230.4753308713211 7.498358755050224 0  235.475215297214 -0.001719424552061085 0  235.4753318468521 7.498280568776393 0  240.475218303082 -0.001796221262281262 0  240.4753330037441 7.49820379279122 0  245.4752211225996 -0.001871822951082853 0  245.4753342518453 7.498128206793513 0  250.4752237224681 -0.001946419624691068 0  250.4753355225826 7.498053622237972 0  255.4752260794698 -0.002020175839508608 0  255.4753367640213 7.497979875637069 0  260.4752281781508 -0.002093236107053861 0  260.4753379372786 7.497906823314419 0  265.4752300093452 -0.002165729154163517 0  265.4753390139438 7.497834337254892 0  270.4752315693452 -0.002237771296377578 0  270.4753399742481 7.497762301814412 0  275.4752328596436 -0.002309469071629777 0  275.4753408057989 7.497690611150556 0  280.4752338872128 -0.00238092117101745 0  280.4753415027426 7.497619167329862 0  285.4752346653467 -0.002452219565482443 0  285.4753420652352 7.49754787917583 0  290.4752352150752 -0.002523449517641132 0  290.4753424990895 7.497476662061373 0  295.4752355671415 -0.002594687808893572 0  295.4753428155034 7.497405439042736 0  300.475235764253 -0.002665997853736977 0  300.4753430307738 7.497334143994474 0  305.4752358627333 -0.002737419120709366 0  305.4753431662044 7.497262727722563 0  310.4752359310046 -0.002808945870785962 0  310.4753432492678 7.497191168324211 0  5.475486249292866 15.00120594496643 0  0.4754861646480162 15.00126944387584 0  10.47548640096909 15.00114216945977 0  15.47548665513118 15.0010781245896 0  20.47548703731385 15.00101382869611 0  25.47548756941173 15.00094931348346 0  30.47548827220876 15.00088462273964 0  35.4754891661465 15.00081981051324 0  40.47549027135987 15.00075493984959 0  45.47549160742987 15.00069008239419 0  50.47549319300992 15.00062531889752 0  55.47549504534383 15.00056074059717 0  60.47549717962458 15.00049645147991 0  65.47549960810947 15.00043257148464 0  70.47550233887635 15.00036924078029 0  75.47550537408674 15.00030662533947 0  80.47550870759011 15.00024492412721 0  85.47551232168959 15.00018437833788 0  90.47551618288657 15.00012528323943 0  95.47552023649175 15.00006800330013 0  100.4755244001649 15.00001299133043 0  105.4755285569257 14.99996081224031 0  110.4755325491266 14.99991217141449 0  115.4755361768149 14.99986794605233 0  120.4755392074394 14.99982921390806 0  125.4755414100026 14.99979726532219 0  130.47554263645 14.99977356662262 0  135.4755429861395 14.99975960679365 0  140.4755430998921 14.99975648528892 0  145.4755446129648 14.99976393317261 0  150.4755506542263 14.99977798454244 0  165.4755729661275 14.99967820163687 0  160.4755797389659 14.999796134393 0  170.4755572442125 14.99955029787313 0  175.4755381526207 14.99942258686815 0  180.475519431144 14.9992999849373 0  185.4755028457138 14.99918404632844 0  190.4754889761272 14.99907476153221 0  195.4754778020842 14.99897151024446 0  200.4754690420023 14.99887350174497 0  205.4754623299038 14.99877996093179 0  210.4754573002048 14.9986901962729 0  215.4754536235946 14.99860361568705 0  220.4754510183766 14.99851972124709 0  225.4754492503574 14.99843809669903 0  230.4754481280077 14.99835839381341 0  235.4754474962154 14.9982803199039 0  240.4754472301212 14.99820362720986 0  245.4754472296524 14.99812810415818 0  250.475447414925 14.99805356827549 0  255.4754477224822 14.99797986046409 0  260.4754481022769 14.99790684037863 0  265.475448515261 14.99783438268633 0  270.4754489314759 14.99776237404945 0  275.475449328522 14.99769071072095 0  280.4754496903141 14.99761929669531 0  285.4754500060625 14.99754804240052 0  290.475450269406 14.9974768639438 0  295.4754504777781 14.99740568289532 0  300.4754506321532 14.99733442641776 0  305.4754507376892 14.99726302696886 0  310.4754508062196 14.99719141915601 0  5.475581052201087 22.50120654335704 0  0.4755809675994609 22.50126986185187 0  10.47558118255676 22.50114283627915 0  15.47558138614431 22.50107880111832 0  20.4755816794349 22.50101448941905 0  25.47558207276377 22.50094995197778 0  30.47558257322251 22.50088524280831 0  35.47558318603012 22.50082042095723 0  40.47558391493249 22.50075555150227 0  45.47558476202363 22.50069070646151 0  50.47558572721915 22.50062596598519 0  55.47558680748905 22.50056142002321 0  60.47558799588653 22.50049717058807 0  65.47558928036513 22.50043333471692 0  70.47559064236108 22.50037004824604 0  75.47559205512226 22.50030747053404 0  80.47559348179334 22.50024579028686 0  85.47559487333208 22.50018523263807 0  90.47559616646029 22.50012606758839 0  95.47559728207702 22.5000686197611 0  100.4755981249404 22.50001327908766 0  105.4755985860393 22.49996051133586 0  110.475598550016 22.49991086602907 0  115.4755979113339 22.49986497679098 0  120.4755966045446 22.49982354468737 0  125.4755946555636 22.49978728755571 0  130.4755922608729 22.49975682614645 0  135.4755898965111 22.49973246007227 0  140.4755884407347 22.49971376522641 0  145.4755892478408 22.49969893607745 0  150.4755940108274 22.49968388339113 0  165.4756299146879 22.49958397342159 0  160.4756192581923 22.49967369324305 0  170.4756320163873 22.49948210542031 0  175.4756280624497 22.49937492082849 0  180.4756206513514 22.49926712960584 0  185.4756117991853 22.49916144007226 0  190.4756028140034 22.49905912610906 0  195.4755944359045 22.498960597556 0  200.4755870191394 22.49886580130361 0  205.4755806804224 22.49877446440925 0  210.475575401883 22.49868622941145 0  215.4755710967261 22.49860072453462 0  220.4755676486996 22.49851759710014 0  225.4755649345504 22.49843652713265 0  230.4755628359783 22.49835723082002 0  235.4755612453644 22.49827945911108 0  240.4755600679426 22.49820299424832 0  245.4755592220432 22.49812764565607 0  250.4755586383509 22.49805324586773 0  255.4755582587348 22.49797964678867 0  260.4755580349257 22.49790671639854 0  265.4755579272158 22.49783433590486 0  270.4755579032314 22.49776239732093 0  275.47555793681 22.49769080142773 0  280.4755580069916 22.49761945607148 0  285.4755580971232 22.49754827472953 0  290.4755581941102 22.49747717522442 0  295.4755582879021 22.49740607833357 0  300.475558
[...]
<PointData  Vectors="v"> 
<DataArray  type="Float64"  Name="v"  NumberOfComponents="3" format="ascii">4.3368021665553069e+00 3.1246702161310198e+00 0.0000000000000000e+00  4.5359105791499825e+00 2.5991241137325898e+00 0.0000000000000000e+00  3.8380982074950678e+00 2.3006215791003215e+00 0.0000000000000000e+00  3.6794705767236877e+00 2.8861586068458944e+00 0.0000000000000000e+00  4.7208917731370663e+00 2.4456035814024548e+00 0.0000000000000000e+00  4.0368840049956525e+00 2.1683209799928331e+00 0.0000000000000000e+00  4.7999353986046538e+00 2.3447246253065814e+00 0.0000000000000000e+00  4.2214013266334440e+00 2.2266172926295393e+00 0.0000000000000000e+00  4.7781605044713809e+00 1.8277686844066368e+00 0.0000000000000000e+00  4.2997374207494969e+00 1.8608134799599627e+00 0.0000000000000000e+00  4.7937897725290943e+00 1.5270262276751554e+00 0.0000000000000000e+00  4.2771037718483127e+00 1.5038995511378233e+00 0.0000000000000000e+00  4.7316547309938715e+00 9.9072120051235446e-01 0.0000000000000000e+00  4.2921196294785702e+00 1.0842937021894417e+00 0.0000000000000000e+00  4.6082361066616171e+00 4.0567075207663617e-01 0.0000000000000000e+00  4.2293917148616034e+00 5.9074082995518262e-01 0.0000000000000000e+00  4.7789964432195688e+00 2.2032147068858060e-01 0.0000000000000000e+00  4.1056005257445634e+00 -3.6143009612815344e-02 0.0000000000000000e+00  4.7546506786612976e+00 -2.4218216749170679e-01 0.0000000000000000e+00  4.2765736875301688e+00 -2.0617643657605250e-01 0.0000000000000000e+00  7.2540136303329161e+00 3.0253775006726937e+00 0.0000000000000000e+00  4.2528854847988988e+00 -7.2485292912529131e-01 0.0000000000000000e+00  8.4307831803186026e+00 4.2330240907467021e+00 0.0000000000000000e+00  6.7524691099967313e+00 2.4668102292048570e+00 0.0000000000000000e+00  8.7657566535215814e+00 4.0867520857344299e+00 0.0000000000000000e+00  7.9304895214548523e+00 3.5815121551915770e+00 0.0000000000000000e+00  8.7581089491067594e+00 3.3674320923879124e+00 0.0000000000000000e+00  8.2684148960724713e+00 3.3749523196575515e+00 0.0000000000000000e+00  8.5498572724118418e+00 2.3625054075869731e+00 0.0000000000000000e+00  8.2649314905542877e+00 2.6693350172492134e+00 0.0000000000000000e+00  8.2648945211992881e+00 1.2762335534490916e+00 0.0000000000000000e+00  8.0629636714943107e+00 1.6973652863349276e+00 0.0000000000000000e+00  7.9013220685174490e+00 1.2329576848398112e-01 0.0000000000000000e+00  7.7855303612688331e+00 6.6021776629509288e-01 0.0000000000000000e+00  7.4477573430045414e+00 -1.0188140781276345e+00 0.0000000000000000e+00  7.4310266808690244e+00 -3.4857325945590439e-01 0.0000000000000000e+00  6.8931145968590357e+00 -2.2290676784217123e+00 0.0000000000000000e+00  6.9893813121280512e+00 -1.4086745722708793e+00 0.0000000000000000e+00  6.2256572943653685e+00 -3.4806001641449944e+00 0.0000000000000000e+00  6.4483121238855041e+00 -2.4941024389420123e+00 0.0000000000000000e+00  5.4464336060080960e+00 -4.7894128178438349e+00 0.0000000000000000e+00  5.7974058724083424e+00 -3.6372577219707636e+00 0.0000000000000000e+00  4.5880673144266861e+00 -6.0768584035040778e+00 0.0000000000000000e+00  5.0377708371348575e+00 -4.8092193020890113e+00 0.0000000000000000e+00  3.6907104809068070e+00 -7.4385952888817979e+00 0.0000000000000000e+00  4.2031733464869117e+00 -6.1149560034400796e+00 0.0000000000000000e+00  2.7984139646575277e+00 -8.4959496179840084e+00 0.0000000000000000e+00  3.3312896117278412e+00 -7.1853306837138442e+00 0.0000000000000000e+00  1.9807863040861251e+00 -9.6211160454678026e+00 0.0000000000000000e+00  2.4726639408840185e+00 -8.4222378096761616e+00 0.0000000000000000e+00  1.2697427795089029e+00 -9.9766436714528908e+00 0.0000000000000000e+00  1.6871443020784949e+00 -8.9481943536930579e+00 0.0000000000000000e+00  7.2419811240641974e-01 -1.0364603064308744e+01 0.0000000000000000e+00  1.0220283343472136e+00 -9.5785159520731149e+00 0.0000000000000000e+00  3.3351350573827143e-01 -9.1837745927602885e+00 0.0000000000000000e+00  5.1476215014377191e-01 -8.6489537478101273e+00 0.0000000000000000e+00  1.2316615155691768e-01 -8.1565414861007426e+00 0.0000000000000000e+00  1.8529531558416285e-01 -7.8761714074180098e+00 0.0000000000000000e+00  2.1992931841506171e-02 -3.9547403714291693e+00 0.0000000000000000e+00  1.8236487895663636e-02 -3.8706689127038354e+00 0.0000000000000000e+00  -5.2354613254663483e-09 1.1596104957397061e-10 0.0000000000000000e+00  7.4420564865064812e-04 7.1246301649775139e-04 0.0000000000000000e+00  8.9637929220773084e-11 -5.2374253360249419e-19 0.0000000000000000e+00  -1.4474379338035350e+00 7.1096997323498377e+00 0.0000000000000000e+00  2.7397281408705180e-02 9.3004368455050841e+00 0.0000000000000000e+00  7.4193771190624968e-04 -7.5352460277766165e-04 0.0000000000000000e+00  2.0087457849861601e-01 1.1843917349057929e+01 0.0000000000000000e+00  -1.4491307550993198e+00 9.4160082955665647e+00 0.0000000000000000e+00  2.0690522027152106e-01 1.1109427705154395e+01 0.0000000000000000e+00  1.6367988235249384e-01 1.1117986791633278e+01 0.0000000000000000e+00  8.1133705938759992e-01 1.1025690069327787e+01 0.0000000000000000e+00  1.3870805010756174e-01 1.0145595213692445e+01 0.0000000000000000e+00  9.9619360863907169e-01 8.8638881593301537e+00 0.0000000000000000e+00  7.1728653186520042e-01 8.6059815097956953e+00 0.0000000000000000e+00  1.2574691078283604e+00 7.2140275501295221e+00 0.0000000000000000e+00  8.7931143146962643e-01 6.8415793463740888e+00 0.0000000000000000e+00  1.4058769020323807e+00 5.3824084267306107e+00 0.0000000000000000e+00  1.1190735485577732e+00 5.1752571711361730e+00 0.0000000000000000e+00  1.5686595301283701e+00 4.0224893116162814e+00 0.0000000000000000e+00  1.2493855731259775e+00 3.7939898188312742e+00 0.0000000000000000e+00  1.6365590863106847e+00 2.9306024169497924e+00 0.0000000000000000e+00  1.3957374188657599e+00 2.8417851910601892e+00 0.0000000000000000e+00  1.7556038482265552e+00 2.3310791966307498e+00 0.0000000000000000e+00  1.4485449823538892e+00 2.1645401910172111e+00 0.0000000000000000e+00  1.9027955648818555e+00 1.9619322326060404e+00 0.0000000000000000e+00  1.5543414179935955e+00 1.7521738619641989e+00 0.0000000000000000e+00  2.0288047602500043e+00 1.7926629851031650e+00 0.0000000000000000e+00  1.6895584410750775e+00 1.6135952875927537e+00 0.0000000000000000e+00  2.1248629973022553e+00 1.7208343799887269e+00 0.0000000000000000e+00  1.8044734412966412e+00 1.5856310404382938e+00 0.0000000000000000e+00  2.1935891973266131e+00 1.6727540587443948e+00 0.0000000000000000e+00  1.8906806825815099e+00 1.5780180621007482e+00 0.0000000000000000e+00  2.2143156992537558e+00 1.6284223929591128e+00 0.0000000000000000e+00  1.9504354710829572e+00 1.6048782785192688e+00 0.0000000000000000e+00  2.2115253302545606e+00 1.5909714755686626e+00 0.0000000000000000e+00  1.9628127981279149e+00 1.6020921577684410e+00 0.0000000000000000e+00  2.1949982429734991e+00 1.5358755004341944e+00 0.0000000000000000e+00  1.9524303063292641e+00 1.5672305239931172e+00 0.0000000000000000e+00  2.1570426285711726e+00 1.4666154686899548e+00 0.0000000000000000e+00  1.9288580055123905e+00 1.5296786038311756e+00 0.0000000000000000e+00  2.1100405539639793e+00 1.3976192661023719e+00 0.0000000000000000e+00  1.8841996681400788e+00 1.4738900654276734e+00 0.0000000000000000e+00  2.0644830795577738e+00 1.2983616671711655e+00 0.0000000000000000e+00  1.8309219837780670e+00 1.3723031914293604e+00 0.0000000000000000e+00  2.0049195867502880e+00 1.2139251020579060e+00 0.0000000000000000e+00  1.7793374112988736e+00 1.3086306470138342e+00 0.0000000000000000e+00  1.9433283317312835e+00 1.0700707906711429e+00 0.0000000000000000e+00  1.7139482008232423e+00 1.1677120001678269e+00 0.0000000000000000e+00  1.8726639848462940e+00 9.7979572313692154e-01 0.0000000000000000e+00  1.6466274079631265e+00 1.0909032570780661e+00 0.0000000000000000e+00  1.7909855704895001e+00 7.2883592670560537e-01 0.0000000000000000e+00  1.5704655921169377e+00 8.5653620096046301e-01 0.0000000000000000e+00  1.6843581865669270e+00 6.7793735078087047e-01 0.0000000000000000e+00  1.4830905837432715e+00 8.4277634128135281e-01 0.0000000000000000e+00  1.5525766615214440e+00 1.9196927593054078e-01 0.0000000000000000e+00  1.3711990333537334e+00 3.9496349157279192e-01 0.0000000000000000e+00  1.3789998234873291e+00 2.9731570468884860e-01 0.0000000000000000e+00  1.2335034889061065e+00 5.6229399429229066e-01 0.0000000000000000e+00  1.1020236714332210e+00 -6.3567025873548344e-01 0.0000000000000000e+00  1.0551007527060421e+00 -2.1440455940510730e-01 0.0000000000000000e+00  6.3445110796294513e-01 -7.9301302803584273e-01 0.0000000000000000e+00  7.7131968649566984e-01 -8.7923831100797795e-02 0.0000000000000000e+00  -4.6774732618958048e-01 -2.8939120351917647e-01 0.0000000000000000e+00  3.0104354939500166e-01 1.3717954354272508e+00 0.0000000000000000e+00  3.1237306983395730e+00 2.0634622966412741e+00 0.0000000000000000e+00  2.9387026633271134e+00 2.6069455077790034e+00 0.0000000000000000e+00  3.2808827044598603e+00 1.8715290372050963e+00 0.0000000000000000e+00  3.4771078303515317e+00 1.9515647591529821e+00 0.0000000000000000e+00  3.6583543702896293e+00 1.7454300624919259e+00 0.0000000000000000e+00  3.7328365119461600e+00 1.5405166826509524e+00 0.0000000000000000e+00  3.7057113406901059e+00 1.0643645538106550e+00 0.0000000000000000e+00  3.7160976639003573e+00 6.8733677180924124e-01 0.0000000000000000e+00  3.6490025064497433e+00 1.5227227306997804e-01 0.0000000000000000e+00  3.5210594632109973e+00 -4.6091988933074141e-01 0.0000000000000000e+00  3.6894854819292968e+00 -6.8888519889823674e-01 0.0000000000000000e+00  3.6637915567150139e+00 -1.2787748596660125e+00 0.0000000000000000e+00  6.1559969087300663e+00 1.8191888179456173e+00 0.0000000000000000e+00  7.3275160966489707e+00 2.8687600547666743e+00 0.0000000000000000e+00  7.6642193223263497e+00 2.6750123584868981e+00 0.0000000000000000e+00  7.6614565832906303e+00 1.9976922849304399e+00 0.0000000000000000e+00  7.4636115011136548e+00 1.0728651835416467e+00 0.0000000000000000e+00  7.1924052707592603e+00 1.7911380204058047e-01 0.0000000000000000e+00  6.8458873000410376e+00 -7.5290256567984615e-01 0.0000000000000000e+00  6.4155283147532467e+00 -1.6910486308792676e+00 0.0000000000000000e+00  5.8891740581206191e+00 -2.6701305742327235e+00 0.0000000000000000e+00  5.2558983216634365e+00 -3.6839261034215878e+00 0.0000000000000000e+00  4.5199822255936333e+00 -4.8788667137399377e+00 0.0000000000000000e+00  3.7141470521994471e+00 -5.8981990479493813e+00 0.0000000000000000e+00  2.8783020556608325e+00 -7.1576304198596121e+00 0.0000000000000000e+00  2.0627104381260231e+00 -7.8035045585679681e+00 0.0000000000000000e+00  1.3325004670714451e+00 -8.6098669061020701e+00 0.0000000000000000e+00  7.2660440179335362e-01 -7.9425657052389660e+00 0.0000000000000000e+00  3.0237122162452562e-01 -7.4121312804269337e+00 0.0000000000000000e+00  4.8347975293647663e-02 -3.7082607202910118e+00 0.0000000000000000e+00  2.5523374967908303e-03 1.3594968386473805e-03 0.0000000000000000e+00  5.5288538220139273e-02 9.1430366060909378e+00 0.0000000000000000e+00  2.5480681225101666e-03 -1.5506613222561120e-03 0.0000000000000000e+00  2.0826729264928551e-01 1.1641565808586659e+01 0.0000000000000000e+00  -1.3176494874734459e+00 8.7396224044447148e+00 0.0000000000000000e+00  2.3630763890187736e-01 1.0209727911799240e+01 0.0000000000000000e+00  1.6957163407392792e-01 7.7618767818484136e+00 0.0000000000000000e+00  7.1119860323221151e-01 6.6140180041837775e+00 0.0000000000000000e+00  8.4595912952730090e-01 4.8336195052051263e+00 0.0000000000000000e+00  1.0594149363853838e+00 3.6108767960066852e+00 0.0000000000000000e+00  1.1690393725885668e+00 2.6334756008221438e+00 0.0000000000000000e+00  1.2971158869763422e+00 2.0957995021538625e+00 0.0000000000000000e+00  1.3336571016473084e+00 1.6023311190706391e+00 0.0000000000000000e+00  1.4251843204158126e+00 1.4182122068711873e+00 0.0000000000000000e+00  1.5480478241722846e+00 1.4205938886274974e+00 0.0000000000000000e+00  1.6516063893055752e+00 1.4547858048697424e+00 0.0000000000000000e+00  1.7280384415125400e+00 1.5204059123706708e+00 0.0000000000000000e+00  1.7793686951352370e+00 1.5883893708888788e+00 0.0000000000000000e+00  1.7841796173751387e+00 1.5869300890283060e+00 0.0000000000000000e+00  1.7672031863828261e+00 1.5685734025377187e+00 0.0000000000000000e+00  1.7378557148080480e+00 1.5442696461511858e+00 0.0000000000000000e+00  1.6878610050498943e+00 1.4552444447543895e+00 0.0000000000000000e+00  1.6297117057842148e+00 1.3887429724858367e+00 0.0000000000000000e+00  1.5736046026205539e+00 1.2685627432528839e+00 0.0000000000000000e+00  1.5037821434310450e+00 1.1944647549704845e+00 0.0000000000000000e+00  1.4321731580484514e+00 9.7341291321648271e-01 0.0000000000000000e+00  1.3517003639466387e+00 9.7635166589716316e-01 0.0000000000000000e+00  1.2600441549398558e+00 5.6565380243607066e-01 0.0000000000000000e+00  1.1436491826284394e+00 7.7110985530017984e-01 0.0000000000000000e+00  1.0017334226887349e+00 5.6535945129049296e-02 0.0000000000000000e+00  8.1855744638721650e-01 3.3945144550914841e-01 0.0000000000000000e+00  5.3073003866085344e-01 2.0809066946910901e+00 0.0000000000000000e+00  2.2557139411852258e+00 1.7876631252721058e+00 0.0000000000000000e+00  2.0831863423463597e+00 2.3456245960458539e+00 0.0000000000000000e+00  2.4377868078582328e+00 1.6390735209779379e+00 0.0000000000000000e+00  2.5894774391281143e+00 1.6613887241020691e+00 0.0000000000000000e+00  2.7790856801061810e+00 1.4790919816005743e+00 0.0000000000000000e+00  2.9517271226426991e+00 1.4353703932394755e+00 0.0000000000000000e+00  3.0160223734459324e+00 1.1122471365372943e+00 0.0000000000000000e+00  2.9779083411058100e+00 6.7967756464237328e-01 0.0000000000000000e+00  2.9765174576562026e+00 2.6063252478728455e-01 0.0000000000000000e+00  2.8979601214324200e+00 -2.6243465242331138e-01 0.0000000000000000e+00  2.7607012886579994e+00 -9.3680176973813434e-01 0.0000000000000000e+00  2.9225952448208559e+00 -1.2356342147677117e+00 0.0000000000000000e+00  2.8862804920753189e+00 -1.9062470876612383e+00 0.0000000000000000e+00  5.3567589045648027e+00 1.1260569575750639e+00 0.0000000000000000e+00  6.5088462520423453e+00 2.1754830237446581e+00 0.0000000000000000e+00  6.8362768010911443e+00 2.0038528917099887e+00 0.0000000000000000e+00  6.8299844969033412e+00 1.3684183394816771e+00 0.0000000000000000e+00  6.6324639396837775e+00 5.8195807795170951e-01 0.0000000000000000e+00  6.3644370377337198e+00 -2.3965674085175012e-01 0.0000000000000000e+00  6.0249469925570844e+00 -1.0544501705558553e+00 0.0000000000000000e+00  5.6048803607406121e+00 -1.8933761696532156e+00 0.0000000000000000e+00  5.0932167369506827e+00 -2.7520097963038568e+00 0.0000000000000000e+00  4.4823024875585231e+00 -3.7970232726638269e+00 0.0000000000000000e+00  3.7755385207427818e+00 -4.7220675461515178e+00 0.0000000000000000e+00  3.0114455492102303e+00 -5.9412412808041584e+00 0.0000000000000000e+00  2.2280533557113138e+00 -6.6352889527715559e+00 0.0000000000000000e+00  1.4859995305923630e+00 -7.5715159838256847e+00 0.0000000000000000e+00  8.4093038945849041e-01 -7.1276598490804197e+00 0.0000000000000000e+00  3.5764902393057557e-01 -6.8471718993346222e+00 0.0000000000000000e+00  5.5453329324311032e-02 -3.4903973308645466e+00 0.0000000000000000e+00  5.3721252693309934e-03 1.9436509919223840e-03 0.0000000000000000e+00  6.4654570617924123e-02 8.8974816460445787e+00 0.0000000000000000e+00  5.3677506920610388e-03 -2.2569330385113170e-03 0.0000000000000000e+00  3.4736315516294258e-01 1.1367272735247203e+01 0.0000000000000000e+00  5.0453579952216854e-01 1.1092204006957333e+01 0.0000000000000000e+00  -1.1094267790876042e+00 7.9532834083000870e+00 0.0000000000000000e+00  3.5069587555377385e-01 7.9104971827012847e+00 0.0000000000000000e+00  2.1848036308073832e-01 5.8465106709660475e+00 0.0000000000000000e+00  7.0755838627132739e-01 4.6619524088553517e+00 0.0000000000000000e+00  8.0166266805906305e-01 3.3194963734862735e+00 0.0000000000000000e+00  9.7989612959594785e-01 2.4919719159336045e+00 0.0000000000000000e+00  1.0612601469675367e+00 1.9238190285070480e+00 0.0000000000000000e+00  1.1641220473466538e+00 1.5646997488809269e+00 0.0000000000000000e+00  1.1790926379915871e+00 1.2965318811929054e+00 0.0000000000000000e+00  1.2516349177509274e+00 1.2497574932648776e+00 0.0000000000000000e+00  1.3574961762082987e+00 1.3114977003968316e+00 0.0000000000000000e+00  1.4461299547405229e+00 1.4162635872305747e+00 0.0000000000000000e+00  1.5098922381351803e+00 1.5203015342370294e+00 0.0000000000000000e+00  1.5503289851382929e+00 1.5873488746307525e+00 0.0000000000000000e+00  1.5459429128799602e+00 1.6006951422652675e+00 0.0000000000000000e+00  1.5212105134252756e+00 1.5939709282714780e+00 0.0000000000000000e+00  1.4851426603991762e+00 1.5353066610319881e+00 0.0000000000000000e+00  1.4292191633807911e+00 1.4805917543614757e+00 0.0000000000000000e+00  1.3657496913938396e+00 1.3570503438483599e+00 0.0000000000000000e+00  1.3045636935930243e+00 1.3033278180439922e+00 0.0000000000000000e+00  1.2298371630203009e+00 1.0850764433732041e+00 0.0000000000000000e+00  1.1532143142658022e+00 1.1011319507870485e+00 0.0000000000000000e+00  1.0677535123210748e+00 7.0770190134018141e-01 0.0000000000000000e+00  9.7063820672852774e-01 9.4972130062265692e-01 0.0000000000000000e+00  8.4918969474012640e-01 2.7463131084992798e-01 0.0000000000000000e+00  7.0110928790431626e-01 6.1755680956138859e-01 0.0000000000000000e+00  5.1401608513097519e-01 2.5183754419050568e+00 0.0000000000000000e+00  1.6193967975207568e+00 1.5312772270470141e+00 0.0000000000000000e+00  1.4501359926403810e+00 2.0882695412880867e+00 0.0000000000000000e+00  1.7880153448271114e+00 1.3704982574820701e+00 0.0000000000000000e+00  1.9626547522362723e+00 1.4402861957954554e+00 0.0000000000000000e+00  2.1047087471179542e+00 1.2028036313030837e+00 0.0000000000000000e+00  2.2819706086586469e+00 1.1863015140770119e+00 0.0000000000000000e+00  2.4398771397776837e+00 1.0276331410809518e+00 0.0000000000000000e+00  2.4869666908338370e+00 7.4979906576000577e-01 0.0000000000000000e+00  2.4299759035014019e+00 2.7624763684041548e-01 0.0000000000000000e+00  2.4094576718720506e+00 -1.3146199330802327e-01 0.0000000000000000e+00  2.3134286978878111e+00 -7.2067678263962942e-01 0.0000000000000000e+00  2.1618716228161690e+00 -1.4697440964423150e+00 0.0000000000000000e+00  2.3109168413821832e+00 -1.8381540286795326e+00 0.0000000000000000e+00  2.2507172401608124e+00 -2.5528237057442529e+00 0.0000000000000000e+00  4.6805066698045668e+00 4.7453357235729465e-01 0.0000000000000000e+00  5.7980997113840305e+00 1.5275563365516520e+00 0.0000000000000000e+00  6.1056293656963954e+00 1.3876621979143404e+00 0.0000000000000000e+00  6.0860653771970572e+00 8.8375139913377743e-01 0.0000000000000000e+00  5.8806892284473609e+00 1.6702283810056229e-01 0.0000000000000000e+00  5.6063356778585272e+00 -5.4329592298690377e-01 0.0000000000000000e+00  5.2629396006961544e+00 -1.2628340644082485e+00 0.0000000000000000e+00  4.8422511700499111e+00 -1.9874563283271136e+00 0.0000000000000000e+00  4.3347751497612235e+00 -2.8878672359609148e+00 0.0000000000000000e+00  3.7344029163766468e+00 -3.6785270899552391e+00 0.0000000000000000e+00  3.0516486613952254e+00 -4.8169862308184639e+00 0.0000000000000000e+00  2.3230304942909763e+00 -5.5035708840847439e+00 0.0000000000000000e+00  1.6013229001006872e+00 -6.5055008125280587e+00 0.0000000000000000e+00  9.3741416023588686e-01 -6.2520751070300404e+00 0.0000000000000000e+00  4.1989617868897627e-01 -6.1963477040558113e+00 0.0000000000000000e+00  7.3167080849933522e-02 -3.2239898321122999e+00 0.0000000000000000e+00  9.0926652374116890e-03 2.4625576741130616e-03 0.0000000000000000e+00  7.9498692895855136e-02 8.6154227237306120e+00 0.0000000000000000e+00  9.0881641310237953e-03 -2.8795869486013480e-03 0.0000000000000000e+00  3.9966497534640644e-01 1.0838008915610750e+01 0.0000000000000000e+00  7.6987980662379130e-01 1.0840485875123578e+01 0.0000000000000000e