<?xml version="1.0"?>
<VTKFile type="UnstructuredGrid"  version="0.1"  >
<UnstructuredGrid>
<Piece  NumberOfPoints="1933" NumberOfCells="3640">
<Points>
<DataArray  type="Float64"  NumberOfComponents="3"  format="ascii">-0.0002736796412813325 0.00208170701705261 0  4.999726313641591 0.00200857169630601 0  4.999836068988002 7.502008586567983 0  -0.0001639434573058041 7.502081686456884 0  9.999726288731514 0.001935403840501893 0  9.999836103127622 7.501935436014045 0  14.99972626293086 0.001862146593994889 0  14.99983617556451 7.501862187397204 0  19.99972626511713 0.001788765314681891 0  19.99983630502096 7.501788810593759 0  24.99972632843607 0.001715240756442619 0  24.99983651266028 7.501715288733187 0  29.99972648732281 0.001641564266696937 0  29.99983682179768 7.501641614467046 0  34.99972677667436 0.001567734471279545 0  34.99983725769955 7.501567787166091 0  39.99972723210182 0.001493755092355905 0  39.99983784762797 7.50149381101004 0  44.99972789073234 0.001419633620372234 0  44.99983862112906 7.501419693811156 0  49.99972879230974 0.001345380633755612 0  49.99983961052445 7.501345446422643 0  54.99972998048963 0.001271009627588232 0  54.99984085156862 7.501271082623861 0  59.99973150430478 0.001196537270241104 0  59.99984238424749 7.50119661941901 0  64.99973341982462 0.001121984055973677 0  64.99984425370559 7.501122077728597 0  69.99973579206281 0.001047375365651144 0  69.99984651130009 7.50104748349447 0  74.99973869721842 0.0009727429923130762 0  74.99984921578404 7.500972869263639 0  79.99974222536576 0.0008981272400040869 0  79.99985243461964 7.500898276369499 0  84.99974648375135 0.0008235797722454609 0  84.99985624541448 7.500823757901136 0  89.9997516009139 0.0007491674847161386 0  89.99986073744435 7.500749382755395 0  94.99975773192909 0.0006749778284726638 0  94.99986601318194 7.500675241225737 0  99.99976506519765 0.0006011262564306785 0  99.9998721896492 7.500601452833997 0  104.9997738313661 0.0005277668821268632 0  104.9998793992379 7.500528177520395 0  109.9997843151935 0.0004551081685742225 0  109.9998877893254 7.500455631981436 0  114.9997968714425 0.0003834367839943498 0  114.999897519471 7.500384114069298 0  119.9998119460937 0.0003131552272742882 0  119.9999087540652 7.500314040042116 0  124.9998301040641 0.0002448435897065414 0  124.9999216469101 7.500246002565548 0  129.9998520633012 0.0001793653289552252 0  129.9999363123583 7.500180862425191 0  134.9998787303167 0.0001180564997428105 0  134.9999527761888 7.500119894860953 0  139.9999112176672 6.307883807932635e-05 0  139.9999709022373 7.500065023563195 0  144.999950781837 1.80999302041596e-05 0  144.9999903123522 7.500019196138783 0  149.999998493809 -1.040525199130152e-05 0  150.0000104109027 7.499987019004585 0  160 4.001745772050208e-19 0  164.9999153321289 -9.149061852263324e-05 0  164.999984121917 7.499898109595432 0  160.0000127131055 7.499973800538054 0  169.9998592285643 -0.0001824873469164086 0  169.9999550263019 7.4998121843851 0  174.9998202739974 -0.0002728898022000258 0  174.9999294164273 7.499723994584174 0  179.9997922877176 -0.0003620972541709317 0  179.9999079818111 7.499635958028333 0  184.999771646318 -0.0004498735352755463 0  184.9998904212044 7.499548861363074 0  189.9997561172333 -0.0005362239998255342 0  189.9998761724693 7.499462924475067 0  194.9997442676261 -0.0006212543575742556 0  194.9998646614385 7.49937815434149 0  199.9997351421175 -0.0007050975676483796 0  199.9998553816811 7.499294479981688 0  204.9997280801439 -0.0007878836431373013 0  204.9998479112974 7.499211806908422 0  209.9997226094805 -0.0008697296691429316 0  209.9998419072046 7.499130038873395 0  214.9997183824575 -0.0009507381182717409 0  214.9998370929045 7.499049085861779 0  219.9997151366259 -0.001030998098157971 0  219.9998332458523 7.498968866366286 0  224.9997126697292 -0.001110587334227194 0  224.9998301864587 7.498889307403507 0  229.9997108232557 -0.001189574085917679 0  229.9998277691469 7.498810343745562 0  234.9997094712703 -0.001268018767310845 0  234.9998258752914 7.49873191696623 0  239.9997085125934 -0.001345975258312761 0  239.9998244077081 7.49865397452277 0  244.9997078651633 -0.001423491960759139 0  244.9998232863634 7.498576468935675 0  249.9997074618629 -0.001500612666136635 0  249.9998224450214 7.498499357065915 0  254.9997072473649 -0.001577377295788168 0  254.9998218286142 7.498422599466935 0  259.999707175696 -0.001653822565159432 0  259.9998213911646 7.498346159782539 0  264.9997072083397 -0.001729982615860442 0  264.9998210941456 7.498270004161282 0  269.9997073127449 -0.001805889654132388 0  269.9998209051855 7.498194100659004 0  274.9997074611815 -0.0018815746308121 0  274.9998207970561 7.498118418603295 0  279.9997076299057 -0.00195706799335061 0  279.9998207469067 7.498042927897978 0  284.9997077986617 -0.002032400528766887 0  284.9998207357042 7.497967598256206 0  289.9997079505904 -0.002107604283344435 0  289.9998207478624 7.497892398374868 0  294.9997080726957 -0.002182713455947687 0  294.9998207710229 7.497817295113184 0  299.999708157114 -0.002257764928863135 0  299.9998207959397 7.497742252831793 0  304.9997082035247 -0.002332797478956232 0  304.9998208164189 7.497667233188709 0  309.9997082230865 -0.002407846952820828 0  309.9998208293538 7.497592195759609 0  4.999945661862447 15.00200864449702 0  -5.435793413643975e-05 15.00208164383297 0  9.999945713920276 15.00193554501489 0  14.9999458165273 15.00186232091832 0  19.99994598494043 15.00178895581202 0  24.99994623381977 15.00171544064105 0  29.99994657849459 15.00164177244366 0  34.99994703557312 15.00156795307844 0  39.99994762325394 15.00149398820875 0  44.99994836153019 15.00141988664339 0  49.99994927237682 15.00134566004807 0  54.999950379951 15.00127132301665 0  59.99995171080696 15.0011968934958 0  64.99995329410746 15.00112239357709 0  69.99995516179935 15.00104785069876 0  74.99995734870528 15.00097329933785 0  79.99995989245929 15.00089878332236 0  84.99996283318178 15.00082435896077 0  89.99996621273795 15.00075009928138 0  94.99997007335178 15.00067609981048 0  99.99997445524934 15.00060248651525 0  104.9999793928746 15.00052942681838 0  109.9999849090825 15.00045714497651 0  114.9999910066124 15.00038594359757 0  119.99999765624 15.00031623354777 0  125.0000047816335 15.00024857456448 0  130.000012242855 15.00018372731423 0  135.000019825032 15.00012271086301 0  140.0000272481049 15.00006683736505 0  145.00003422876 15.00001762731703 0  150.0000406346153 14.9999762900085 0  165.000036681471 14.99987102882092 0  160.0000434702255 14.99993884307613 0  170.0000266927453 14.99979400821205 0  175.0000151226765 14.9997120336533 0  180.0000034622169 14.99962799900239 0  184.9999925594489 14.99954345110867 0  189.9999827961028 14.99945915380792 0  194.9999742816348 14.9993754582742 0  199.9999669825235 14.99929250466277 0  204.99996079829 14.99921032733311 0  209.9999556034303 14.99912890910653 0  214.9999512692785 14.99904820906758 0  219.9999476745709 14.99896817669503 0  224.9999447098715 14.99888875894204 0  229.9999422787953 14.99880990368609 0  234.9999402976525 14.99873156131324 0  239.9999386943883 14.9986536853453 0  244.9999374072751 14.99857623257564 0  249.9999363835929 14.99849916295036 0  254.9999355783993 14.99842243931311 0  259.9999349534356 14.99834602706959 0  264.9999344761775 14.99826989379542 0  269.9999341190258 14.99819400879454 0  274.9999338586171 14.99811834260669 0  279.999933675238 14.99804286646012 0  284.9999335523138 14.99796755166757 0  289.9999334759275 14.9978923689669 0  294.9999334343428 14.997817287805 0  299.9999334174746 14.99774227552292 0  304.9999334162822 14.99766729622164 0  309.9999334220871 14.99759230847001 0  5.000054977040018 22.5020088125549 0  5.495470309313522e-05 22.502081674131 0  10.00005502828416 22.50193578929112 0  15.00005512587719 22.50186260620304 0  20.00005528223978 22.50178926407818 0  25.00005550733499 22.50171576480215 0  30.00005581024428 22.5016421122618 0  35.00005620006601 22.5015683126166 0  40.00005668637431 22.50149437433233 0  45.00005727940486 22.50142030821092 0  50.00005799007167 22.50134612754959 0  55.00005882986625 22.50127184850551 0  60.00005981065496 22.50119749071989 0  65.00006094436301 22.50112307825463 0  70.00006224251013 22.50104864090561 0  75.00006371554407 22.50097421598358 0  80.00006537189442 22.50089985068676 0  85.00006721664717 22.50082560523842 0  90.00006924971501 22.5007515570225 0  95.00007146335837 22.50067780602615 0  100.0000738389058 22.50060448198107 0  105.0000763425582 22.50053175366814 0  110.0000789202857 22.50045984085824 0  115.0000814921134 22.50038902917818 0  120.0000839466939 22.50031968753244 0  125.0000861381388 22.50025228596885 0  130.0000878888166 22.5001874078137 0  135.0000890040645 22.50012574112117 0  140.0000893062099 22.50006801686849 0  145.0000886911485 22.50001483014026 0  150.0000871877443 22.49996624371585 0  165.0000936196919 22.49984197910073 0  160.0000893674949 22.49990636889893 0  170.0000947022664 22.49977046246722 0  175.0000932062775 22.49969396560443 0  180.00008996968 22.4996144366186 0  185.0000857712185 22.49953331622134 0  190.0000811932284 22.49945154435305 0  195.0000766207633 22.49936969116849 0  200.0000722849048 22.49928808372652 0  205.0000683093064 22.49920689786613 0  210.0000647475519 22.49912621819049 0  215.0000616098926 22.49904607540944 0  220.0000588812457 22.4989664690444 0  225.0000565328417 22.49888738106537 0  230.0000545295235 22.49880878402488 0  235.0000528341859 22.49873064588177 0  240.0000514103734 22.49865293283734 0  245.0000502237229 22.49857561097237 0  250.0000492426859 22.49849864715498 0  255.0000484388215 22.49842200949718 0  260.0000477868286 22.4983456675268 0  265.0000472644338 22.49826959217269 0  270.0000468521925 22.49819375562317 0  275.0000465332449 22.4981181310932 0  280.0000462930288 22.4980426925235 0  285.0000461189563 22.49796741422521 0  290.0000460000289 22.49789227047428 0  295.0000459263693 22.49781723503725 0  300.0000458886212 22.497742280553
[...]
<PointData  Vectors="v"> 
<DataArray  type="Float64"  Name="v"  NumberOfComponents="3" format="ascii">1.5797925228573231e+00 -5.7307893048295382e+00 0.0000000000000000e+00  1.1455445051644078e+00 -5.5694721908491918e+00 0.0000000000000000e+00  8.4445588875944255e-01 -4.9182557386787087e+00 0.0000000000000000e+00  1.1763754382800711e+00 -5.2335167483072356e+00 0.0000000000000000e+00  5.6577994877675319e-01 -6.2445916389050593e+00 0.0000000000000000e+00  4.1041473159222136e-01 -5.3758318738132083e+00 0.0000000000000000e+00  -6.7847249493067736e-03 -7.3282524743527899e+00 0.0000000000000000e+00  -1.6840608106831823e-01 -6.4707097600479750e+00 0.0000000000000000e+00  -5.6402767601167569e-01 -7.9604853020247566e+00 0.0000000000000000e+00  -7.3940366247447686e-01 -7.1267087113970788e+00 0.0000000000000000e+00  -1.2358393365255507e+00 -9.0202305989554628e+00 0.0000000000000000e+00  -1.2944075474792949e+00 -8.0153693810099380e+00 0.0000000000000000e+00  -1.8134868553891366e+00 -9.7061131943231391e+00 0.0000000000000000e+00  -1.9628891937448456e+00 -8.8430649230694502e+00 0.0000000000000000e+00  -1.9686492174166299e+00 -9.8041386188440871e+00 0.0000000000000000e+00  -2.5363793014271572e+00 -9.5758213747391743e+00 0.0000000000000000e+00  -2.9471355776371735e+00 -1.1014920506664065e+01 0.0000000000000000e+00  -2.6864916863170589e+00 -9.5525513474490804e+00 0.0000000000000000e+00  1.4334279284222057e-01 -6.1374811087068482e+00 0.0000000000000000e+00  -3.6586294526078285e+00 -1.0778996129358625e+01 0.0000000000000000e+00  -9.4325625454273325e+00 -2.0000411387589118e+01 0.0000000000000000e+00  -5.6078308775334007e-01 -5.6443012128997250e+00 0.0000000000000000e+00  -8.3853398999505409e+00 -1.7480196581845860e+01 0.0000000000000000e+00  -1.0129088605613736e+01 -1.9058790331789144e+01 0.0000000000000000e+00  -8.2553855153661360e+00 -1.6251313614778184e+01 0.0000000000000000e+00  -9.0725597086690009e+00 -1.6456116767415956e+01 0.0000000000000000e+00  -8.7911310685863668e+00 -1.6029040678736894e+01 0.0000000000000000e+00  -8.9309561302724170e+00 -1.5237396251552877e+01 0.0000000000000000e+00  -9.8599384652434381e+00 -1.6617524617064287e+01 0.0000000000000000e+00  -9.4529354774525451e+00 -1.5028674803771317e+01 0.0000000000000000e+00  -1.1286197421337526e+01 -1.7680510014392905e+01 0.0000000000000000e+00  -1.0504819577718608e+01 -1.5557024456917018e+01 0.0000000000000000e+00  -1.2977435582966121e+01 -1.9001877523378614e+01 0.0000000000000000e+00  -1.1911906225693725e+01 -1.6483687192568471e+01 0.0000000000000000e+00  -1.4850102669997904e+01 -2.0594860685806264e+01 0.0000000000000000e+00  -1.3581694870570953e+01 -1.7806831694892459e+01 0.0000000000000000e+00  -1.6820579492894492e+01 -2.2081982429827477e+01 0.0000000000000000e+00  -1.5429287883221210e+01 -1.9148967399239464e+01 0.0000000000000000e+00  -1.8819403321084934e+01 -2.3480096750235791e+01 0.0000000000000000e+00  -1.7372522807117925e+01 -2.0507908385223001e+01 0.0000000000000000e+00  -2.0782350611826491e+01 -2.4637210804344377e+01 0.0000000000000000e+00  -1.9340930008511243e+01 -2.1720855547796699e+01 0.0000000000000000e+00  -2.2633826365382230e+01 -2.5468384661008013e+01 0.0000000000000000e+00  -2.1270335634299801e+01 -2.2722167085381749e+01 0.0000000000000000e+00  -2.4313253516022286e+01 -2.5581217022028838e+01 0.0000000000000000e+00  -2.3084261041512701e+01 -2.3095062604503379e+01 0.0000000000000000e+00  -2.5779792423865246e+01 -2.5516149875341402e+01 0.0000000000000000e+00  -2.4725111764699289e+01 -2.3354167611107407e+01 0.0000000000000000e+00  -2.6984724368680645e+01 -2.4064397283387386e+01 0.0000000000000000e+00  -2.6145559858568745e+01 -2.2293443964081384e+01 0.0000000000000000e+00  -2.7930347708811404e+01 -2.2614416319377174e+01 0.0000000000000000e+00  -2.7307159557353565e+01 -2.1241925672961379e+01 0.0000000000000000e+00  -2.8598970970557254e+01 -1.9174337549447056e+01 0.0000000000000000e+00  -2.8197066338602607e+01 -1.8210021193748915e+01 0.0000000000000000e+00  -2.9041267035276675e+01 -1.5785160871329731e+01 0.0000000000000000e+00  -2.8819329070205459e+01 -1.5177740077143083e+01 0.0000000000000000e+00  -2.9266266202774073e+01 -1.0264698035627241e+01 0.0000000000000000e+00  -2.9194376765906302e+01 -9.9654734223601036e+00 0.0000000000000000e+00  -2.9368187838742738e+01 -3.7087617060244908e+00 0.0000000000000000e+00  -2.9372131125963715e+01 -3.6246461759758599e+00 0.0000000000000000e+00  -2.9389262614372974e+01 -5.3805650125107448e-12 0.0000000000000000e+00  -2.9389474445837536e+01 -2.1072641143294717e-04 0.0000000000000000e+00  -2.9389262614623760e+01 1.5028803800689203e-19 0.0000000000000000e+00  -2.1018828921280090e+01 1.1504112241387787e+01 0.0000000000000000e+00  -2.9366975798376604e+01 -1.0138381723964529e+00 0.0000000000000000e+00  -2.9389472734458298e+01 2.1399696132745413e-04 0.0000000000000000e+00  -2.0625019837709239e+01 2.0691354419083638e+01 0.0000000000000000e+00  -2.1047720167318463e+01 2.0168288807857074e+01 0.0000000000000000e+00  -1.7602290830863559e+01 2.7677032480224593e+01 0.0000000000000000e+00  -2.0713474867203910e+01 2.3184519134019880e+01 0.0000000000000000e+00  -1.6451804428362653e+01 2.9102125863348451e+01 0.0000000000000000e+00  -1.7748192765118869e+01 2.7427619103983165e+01 0.0000000000000000e+00  -1.4657874090031328e+01 3.0543254093791241e+01 0.0000000000000000e+00  -1.6651248241114008e+01 2.7897319733976580e+01 0.0000000000000000e+00  -1.3285023311604418e+01 2.9736553627921456e+01 0.0000000000000000e+00  -1.4908449845573058e+01 2.7723016297192785e+01 0.0000000000000000e+00  -1.1898807482158650e+01 2.8683746823566743e+01 0.0000000000000000e+00  -1.3586175848977689e+01 2.6646419389657019e+01 0.0000000000000000e+00  -1.0682804905991475e+01 2.6791324035519160e+01 0.0000000000000000e+00  -1.2247621020936563e+01 2.5009947076698577e+01 0.0000000000000000e+00  -9.3132351016994406e+00 2.4948830761951758e+01 0.0000000000000000e+00  -1.1077866276449642e+01 2.2934784309203604e+01 0.0000000000000000e+00  -8.2842475309784351e+00 2.2737383572565886e+01 0.0000000000000000e+00  -9.7535266770711981e+00 2.1233359789984313e+01 0.0000000000000000e+00  -7.4100359294153444e+00 2.0654599153431086e+01 0.0000000000000000e+00  -8.7681609783547483e+00 1.9381914633319596e+01 0.0000000000000000e+00  -6.4803335080874760e+00 1.8857474629002706e+01 0.0000000000000000e+00  -7.9364119963805830e+00 1.7500623925713185e+01 0.0000000000000000e+00  -5.6142247076356488e+00 1.7214300458596480e+01 0.0000000000000000e+00  -7.0484237264873331e+00 1.5951807587579456e+01 0.0000000000000000e+00  -4.8139410771046602e+00 1.5769311048212446e+01 0.0000000000000000e+00  -6.2228452246480543e+00 1.4605042277269389e+01 0.0000000000000000e+00  -4.0557059298911238e+00 1.4446933727470809e+01 0.0000000000000000e+00  -5.4621834896732091e+00 1.3344895770429570e+01 0.0000000000000000e+00  -3.3792499567483874e+00 1.3183458220746777e+01 0.0000000000000000e+00  -4.7428801824084141e+00 1.2203379794382867e+01 0.0000000000000000e+00  -2.7862784308233262e+00 1.2011427054111470e+01 0.0000000000000000e+00  -4.1044987124889705e+00 1.1156063020874367e+01 0.0000000000000000e+00  -2.2440652595195432e+00 1.0880440213030758e+01 0.0000000000000000e+00  -3.5488544191474460e+00 1.0100653481034110e+01 0.0000000000000000e+00  -1.7702736077284713e+00 9.7754501689842765e+00 0.0000000000000000e+00  -3.0434754191463362e+00 9.0976918641628117e+00 0.0000000000000000e+00  -1.3674323224602976e+00 8.7167713806491722e+00 0.0000000000000000e+00  -2.6057880964915876e+00 8.1451518109227479e+00 0.0000000000000000e+00  -1.0090417790684196e+00 7.6608672242179452e+00 0.0000000000000000e+00  -2.2386734495800233e+00 7.1553227243209152e+00 0.0000000000000000e+00  -7.0610979998628365e-01 6.6373703018053449e+00 0.0000000000000000e+00  -1.9153221663905837e+00 6.2148994558054360e+00 0.0000000000000000e+00  -4.6254591530533246e-01 5.6289678965302441e+00 0.0000000000000000e+00  -1.6474228095663446e+00 5.2947666241812215e+00 0.0000000000000000e+00  -2.6024989894361039e-01 4.6592408389544646e+00 0.0000000000000000e+00  -1.4377042774075068e+00 4.3874589963223114e+00 0.0000000000000000e+00  -1.0783181472373049e-01 3.6893528528873443e+00 0.0000000000000000e+00  -1.2702991969438635e+00 3.4906442721119366e+00 0.0000000000000000e+00  1.8110502919769704e-03 2.8515403015638774e+00 0.0000000000000000e+00  -1.1500894962416675e+00 2.7192473352145012e+00 0.0000000000000000e+00  7.0921830784571441e-02 1.9668229070128391e+00 0.0000000000000000e+00  -1.0762334488653984e+00 1.8909274975044903e+00 0.0000000000000000e+00  1.3766879084953959e-01 1.3337066757474785e+00 0.0000000000000000e+00  -1.0361615328525702e+00 1.2681154013112887e+00 0.0000000000000000e+00  2.0947903292939435e-01 7.1223564746881074e-01 0.0000000000000000e+00  -1.0098111137180317e+00 6.2665121254822043e-01 0.0000000000000000e+00  3.7234411821951602e-01 -1.7139822830448673e-01 0.0000000000000000e+00  -9.5416726942857466e-01 -3.6943919121912133e-01 0.0000000000000000e+00  1.2529522313334854e-01 -4.4194960940811532e+00 0.0000000000000000e+00  4.8478438623541192e-01 -4.6962558911555528e+00 0.0000000000000000e+00  -2.0788078798669354e-01 -4.7239965850223369e+00 0.0000000000000000e+00  -6.4299247126498393e-01 -5.6022967350336232e+00 0.0000000000000000e+00  -1.2220704594674794e+00 -6.2705641186987107e+00 0.0000000000000000e+00  -1.7922816016238095e+00 -7.1836551315262200e+00 0.0000000000000000e+00  -2.3454232460882354e+00 -7.8422110109893488e+00 0.0000000000000000e+00  -3.0105012312682331e+00 -8.7185778260865909e+00 0.0000000000000000e+00  -3.5786588537677133e+00 -9.3309348209886451e+00 0.0000000000000000e+00  -3.7218403508265330e+00 -9.3260943162812371e+00 0.0000000000000000e+00  -4.6845509833357459e+00 -1.0297709557903055e+01 0.0000000000000000e+00  -1.5761847495749126e+00 -4.7109012416161677e+00 0.0000000000000000e+00  -1.1138331188406310e+01 -1.8044315135926173e+01 0.0000000000000000e+00  -1.0074672670376387e+01 -1.5457163426397726e+01 0.0000000000000000e+00  -9.9202116964387432e+00 -1.4254393573053916e+01 0.0000000000000000e+00  -1.0425473555175355e+01 -1.3992262564894574e+01 0.0000000000000000e+00  -1.1454913661821854e+01 -1.4388737057183844e+01 0.0000000000000000e+00  -1.2834734153587302e+01 -1.5319649726670804e+01 0.0000000000000000e+00  -1.4473141692549335e+01 -1.6399149031609145e+01 0.0000000000000000e+00  -1.6283740200558466e+01 -1.7617855866689688e+01 0.0000000000000000e+00  -1.8184428642813817e+01 -1.8794507500932326e+01 0.0000000000000000e+00  -2.0105857075288771e+01 -1.9860086920134979e+01 0.0000000000000000e+00  -2.1980974743973253e+01 -2.0408391160951606e+01 0.0000000000000000e+00  -2.3734872266509740e+01 -2.0931916780893875e+01 0.0000000000000000e+00  -2.5308542955341757e+01 -2.0203934319358929e+01 0.0000000000000000e+00  -2.6655806513663652e+01 -1.9550368903993821e+01 0.0000000000000000e+00  -2.7733548082423813e+01 -1.6919338672779372e+01 0.0000000000000000e+00  -2.8539030781380372e+01 -1.4312272527040566e+01 0.0000000000000000e+00  -2.9057002251726026e+01 -9.4428572556294803e+00 0.0000000000000000e+00  -2.9341483352382241e+01 -3.4526547628202215e+00 0.0000000000000000e+00  -2.9389987353144065e+01 -4.0238269873126730e-04 0.0000000000000000e+00  -2.9328823518824290e+01 -1.1735281160830504e+00 0.0000000000000000e+00  -2.9389984137708556e+01 4.3344810875467444e-04 0.0000000000000000e+00  -2.9172603302924216e+01 7.7092256438033786e+00 0.0000000000000000e+00  -2.0918116637348220e+01 2.2735410322828152e+01 0.0000000000000000e+00  -2.0664759569917617e+01 2.3021847544820506e+01 0.0000000000000000e+00  -1.7767768422568910e+01 2.6293017558897759e+01 0.0000000000000000e+00  -1.6736690527942837e+01 2.5141427006857139e+01 0.0000000000000000e+00  -1.5050274899101401e+01 2.4698559130418662e+01 0.0000000000000000e+00  -1.3783660643881710e+01 2.3032069472711196e+01 0.0000000000000000e+00  -1.2495021644938552e+01 2.1208588164580966e+01 0.0000000000000000e+00  -1.1372390304846620e+01 1.9274495781919132e+01 0.0000000000000000e+00  -1.0092999115443202e+01 1.7929925162986347e+01 0.0000000000000000e+00  -9.1505556525203087e+00 1.6277507051578372e+01 0.0000000000000000e+00  -8.3597204774588683e+00 1.4644272313470712e+01 0.0000000000000000e+00  -7.5116814072205011e+00 1.3389938752247687e+01 0.0000000000000000e+00  -6.7245119291254891e+00 1.2226166166394563e+01 0.0000000000000000e+00  -6.0008086120613147e+00 1.1146329859786164e+01 0.0000000000000000e+00  -5.3174482000536729e+00 1.0219542856719199e+01 0.0000000000000000e+00  -4.7137991755502817e+00 9.2874586389079390e+00 0.0000000000000000e+00  -4.1917323858074020e+00 8.3594961383247028e+00 0.0000000000000000e+00  -3.7190729249841761e+00 7.5079436751188746e+00 0.0000000000000000e+00  -3.3132270186887620e+00 6.6232698251108717e+00 0.0000000000000000e+00  -2.9770331504301062e+00 5.7484079608442293e+00 0.0000000000000000e+00  -2.6840753832896080e+00 4.9106216144748878e+00 0.0000000000000000e+00  -2.4456881474633620e+00 4.0908144095182379e+00 0.0000000000000000e+00  -2.2651756112504082e+00 3.2560869914508697e+00 0.0000000000000000e+00  -2.1258478895395765e+00 2.5570794365435248e+00 0.0000000000000000e+00  -2.0341997944744405e+00 1.7944095067754564e+00 0.0000000000000000e+00  -1.9863730648725189e+00 1.2280410931678001e+00 0.0000000000000000e+00  -1.9748956603133454e+00 5.9728603943244118e-01 0.0000000000000000e+00  -1.9725488933665281e+00 -4.3118169885227553e-01 0.0000000000000000e+00  -1.1243604497729096e+00 -3.8783192000046967e+00 0.0000000000000000e+00  -8.0288733884802965e-01 -4.2170374787210827e+00 0.0000000000000000e+00  -1.4869159677673089e+00 -4.2213224018279298e+00 0.0000000000000000e+00  -1.8247546102234340e+00 -4.9473858481247701e+00 0.0000000000000000e+00  -2.2634125149099127e+00 -5.4002941527933688e+00 0.0000000000000000e+00  -2.8452827259912095e+00 -6.3277716932518464e+00 0.0000000000000000e+00  -3.4168142913685617e+00 -7.0137307701243472e+00 0.0000000000000000e+00  -3.9686854599164456e+00 -7.7238157954451250e+00 0.0000000000000000e+00  -4.6299633106845111e+00 -8.4839821910045750e+00 0.0000000000000000e+00  -5.1910122364091160e+00 -9.1196623065128666e+00 0.0000000000000000e+00  -5.3225726882707720e+00 -8.8647654334798904e+00 0.0000000000000000e+00  -6.2701478079581721e+00 -9.3846369043150606e+00 0.0000000000000000e+00  -3.1504857912293520e+00 -3.7057206356251577e+00 0.0000000000000000e+00  -1.2711672152950115e+01 -1.7054544230661943e+01 0.0000000000000000e+00  -1.1645995754000012e+01 -1.4496684616099989e+01 0.0000000000000000e+00  -1.1478980379372507e+01 -1.3251399771058436e+01 0.0000000000000000e+00  -1.1961711605900248e+01 -1.2868200947157266e+01 0.0000000000000000e+00  -1.2959501008510905e+01 -1.3280392076061043e+01 0.0000000000000000e+00  -1.4298996450407634e+01 -1.3978560509586201e+01 0.0000000000000000e+00  -1.5887353487153536e+01 -1.4945149513874744e+01 0.0000000000000000e+00  -1.7639009226322333e+01 -1.5993913390536461e+01 0.0000000000000000e+00  -1.9471403480013926e+01 -1.7036736374456687e+01 0.0000000000000000e+00  -2.1312307723994067e+01 -1.7660721338470463e+01 0.0000000000000000e+00  -2.3096648091808646e+01 -1.8378416781710829e+01 0.0000000000000000e+00  -2.4744907837324629e+01 -1.7925824683883395e+01 0.0000000000000000e+00  -2.6201749166172196e+01 -1.7629120218531497e+01 0.0000000000000000e+00  -2.7412347399538586e+01 -1.5401023502168371e+01 0.0000000000000000e+00  -2.8346512873731569e+01 -1.3235806576730887e+01 0.0000000000000000e+00  -2.8977784425948862e+01 -8.7664092311937925e+00 0.0000000000000000e+00  -2.9334550182918157e+01 -3.2107273807816785e+00 0.0000000000000000e+00  -2.9390789115916544e+01 -5.7642073214275356e-04 0.0000000000000000e+00  -2.9304828388668806e+01 -1.4864001848303701e+00 0.0000000000000000e+00  -2.9390786169892198e+01 6.2799489568789906e-04 0.0000000000000000e+00  -2.8937348845247460e+01 7.4173508804227133e+00 0.0000000000000000e+00  -2.8768893732349127e+01 1.0434862691532670e+01 0.0000000000000000e+00  -2.0626504036669690e+01 2.2743032969647217e+01 0.0000000000000000e+00  -2.0503642674099726e+01 2.2028418571933955e+01 0.0000000000000000e+00  -1.7716233090804185e+01 2.3674608326283501e+01 0.0000000000000000e+00  -1.6783594694267475e+01 2.2234076923077936e+01 0.0000000000000000e+00  -1.5182955874324566e+01 2.1194898369255924e+01 0.0000000000000000e+00  -1.3995485110888417e+01 1.9331639698464734e+01 0.0000000000000000e+00  -1.2777347145176183e+01 1.7642878795631493e+01 0.0000000000000000e+00  -1.1720804240894312e+01 1.6059598613804276e+01 0.0000000000000000e+00  -1.0503036258549093e+01 1.4910721761007560e+01 0.0000000000000000e+00  -9.6190936224727253e+00 1.3502571272613926e+01 0.0000000000000000e+00  -8.8845476883788717e+00 1.2161013837707484e+01 0.0000000000000000e+00  -8.0907637752762334e+00 1.1087040464433375e+01 0.0000000000000000e+00  -7.3555981327717390e+00 1.0100747728478344e+01 0.0000000000000000e+00  -6.6820047601474579e+00 9.2329813740764859e+00 0.0000000000000000e+00  -6.0467581864152908e+00 8.4191921682209117e+00 0.0000000000000000e+00  -5.4893135997176730e+00 7.6121442203756562e+00 0.0000000000000000e+00  -5.0117312178261297e+00 6.8336024751355913e+00 0.0000000000000000e+00  -4.5820319669078744e+00 6.0479588816292553e+00 0.0000000000000000e+00  -4.2175299900674919e+00 5.2767847476775600e+00 0.0000000000000000e+00  -3.9216137640973834e+00 4.5025343466634249e+00 0.0000000000000000e+00  -3.6673642161256788e+00 3.7645014530655749e+00 0.0000000000000000e+00  -3.4671516516233591e+00 3.0145381593772487e+00 0.0000000000000000e+00  -3.3227447220073443e+00 2.3786923271706133e+00 0.0000000000000000e+00  -3.2201448481743546e+00 1.6829340376045399e+00 0.0000000000000000e+00  -3.1609505768599186e+00 1.1882042121505882e+00 0.0000000000000000e+00  -3.1505563339470859e+00 6.0003196551533966e-01 0.0000000000000000e+00  -3.1624541754060442e+00 -4.0103836395542203e-01 0.0000000000000000e+00  -2.4375332957353781e+00 -3.3932848283968626e+00 0.0000000000000000e+00  -2.1521722873924785e+00 -3.7931125654546758e+00 0.0000000000000000e+00  -2.7634518576774005e+00 -3.6726333391590491e+00 0.0000000000000000e+00  -3.1339300358493021e+00 -4.4345754731900486e+00 0.0000000000000000e+00  -3.4805658491647993e+00 -4.7362616768826520e+00 0.0000000000000000e+00  -3.9281689084109357e+00 -5.4496706445043603e+00 0.0000000000000000e+00  -4.5177281967217366e+00 -6.1521220737560922e+00 0.0000000000000000e+00  -5.0951177718050875e+00 -6.8938664894244184e+00 0.0000000000000000e+00  -5.6498878576217724e+00 -7.4926705223654384e+00 0.0000000000000000e+00  -6.3097329374318090e+00 -8.2819678467879640e+00 0.0000000000000000e+00  -6.8639805865112660e+00 -8.6758926454336098e+00 0.0000000000000000e+00  -6.9837122070775770e+00 -7.9735388607227522e+00 0.0000000000000000e+00  -7.9185386773065076e+00 -8.3892765358354104e+00 0.0000000000000000e+00  -4.7986016828044642e+00 -2.7037610143921378e+00 0.0000000000000000e+00  -1.4377863133872154e+01 -1.6083252338727370e+01 0.0000000000000000e+00  -1.3327291111068883e+01 -1.3501401894210545e+01 0.0000000000000000e+00  -1.3160207339095205e+01 -1.2152941162631173e+01 0.0000000000000000e+00  -1.3629818755214878e+01 -1.1802621044879652e+01 0.0000000000000000e+00  -1.4600351403860897e+01 -1.1995812151117558e+01 0.0000000000000000e+00  -1.5901273105300719e+01 -1.2598647293388336e+01 0.0000000000000000e+00  -1.7438870396505315e+01 -1.3410755049897634e+01 0.0000000000000000e+00  -1.9126720877874767e+01 -1.4342178742569093e+01 0.0000000000000000e+00  -2.0881328299595811e+01 -1.4963351058182823e+01 0.0000000000000000e+00  -2.2630108292854462e+01 -1.5780415245225589e+01 0.0000000000000000e+00  -2.4301936257534017e+01 -1.5540183660601011e+01 0.0000000000000000e+00  -2.5822010947634183e+01 -1.5554203351750507e+01 0.0000000000000000e+00  -2.7122827386191556e+01 -1.3696917241543177e+01 0.0000000000000000e+00  -2.8164578357572122e+01 -1.1988152056808911e+01 0.0000000000000000e+00  -2.8887978338704222e+01 -7.9430049960376738e+00 0.0000000000000000e+00  -2.9317099389426939e+01 -2.9016824589236627e+00 0.0000000000000000e+00  -2.9391849862