<?xml version="1.0"?>
<VTKFile type="UnstructuredGrid"  version="0.1"  >
<UnstructuredGrid>
<Piece  NumberOfPoints="1933" NumberOfCells="3640">
<Points>
<DataArray  type="Float64"  NumberOfComponents="3"  format="ascii">-0.0002756762596130558 0.002151454266107379 0  4.99972431283045 0.002078010308805665 0  4.999834528915736 7.502078013492218 0  -0.0001654764983312629 7.502151426861575 0  9.999724281927755 0.002004543669373771 0  9.999834550767719 7.502004562651789 0  14.99972424308564 0.00193100069456168 0  14.99983460305267 7.501931028016826 0  19.999724219802 0.00185734583123743 0  19.99983470203086 7.501857377741774 0  24.99972424041438 0.001783556553676823 0  24.99983486652193 7.501783591349191 0  29.9997243352328 0.001709619479337717 0  29.99983511767897 7.50170965662866 0  34.99972453561943 0.00163552753212367 0  34.99983547883355 7.50163556719902 0  39.99972487409242 0.001561277980503471 0  39.9998359755601 7.501561320770317 0  44.99972538498058 0.00148687116695198 0  44.9998366359699 7.501486918003843 0  49.99972610539703 0.001412309773696364 0  49.99983749120786 7.501412361857489 0  54.99972707643298 0.001337598511566032 0  54.99983857612688 7.501337657327608 0  59.9997283445479 0.001262744159990191 0  59.9998399301253 7.501262811530452 0  64.99972996318071 0.001187755923139382 0  64.99984159814646 7.501187834098679 0  69.99973199463918 0.001112646100833601 0  69.99984363185146 7.50111273790048 0  74.99973451236146 0.001037431106307847 0  74.99984609098678 7.501037540123529 0  79.99973760368061 0.000962132900810242 0  79.99984904497256 7.50096226380755 0  84.99974137328019 0.0008867809640239871 0  84.9998525747431 7.500886939965923 0  89.99974594760872 0.0008114149900109206 0  89.99985677485626 7.500811610520715 0  94.9997514806461 0.0007360886090828985 0  94.99986175586709 7.500736332407876 0  99.99975816160511 0.0006608746203624504 0  99.99986764688521 7.500661183428122 0  104.9997662254535 0.0005858725424807991 0  104.9998745980911 7.500586270791234 0  109.9997759676118 0.0005112198795554195 0  109.9998827826787 7.500511743949324 0  114.9997877649125 0.0004371096202378468 0  114.9998923970995 7.500437814460898 0  119.9998021060093 0.0003638186969123679 0  119.999903657349 7.500364787673091 0  124.999819635988 0.0002917566462235639 0  124.9999167869875 7.50029311466596 0  129.9998412218606 0.0002215532784665007 0  129.9999319890574 7.500223479381765 0  134.9998680470684 0.0001542252370378526 0  134.9999493886108 7.500156947068191 0  139.9999017409006 9.150968611709425e-05 0  139.9999689261113 7.500095218621841 0  144.9999445324669 3.656863594256195e-05 0  144.9999901818208 7.500041063324737 0  149.9999993555083 -4.452334764462827e-06 0  150.0000121500241 7.499999041265326 0  160 6.246542470757346e-19 0  164.9999234882551 -7.770713263535339e-05 0  164.9999853673755 7.499914288523583 0  160.0000119491223 7.499979286563927 0  169.9998709112017 -0.0001581910920143076 0  169.9999583092288 7.499837684363063 0  174.9998331763531 -0.0002404261416009467 0  174.9999342147168 7.499757105989222 0  179.9998052518192 -0.0003232299286716341 0  179.9999137437918 7.49967518633994 0  184.9997841031882 -0.0004059397511471311 0  184.9998967001508 7.49959300064164 0  189.9997678050965 -0.0004882427897835462 0  189.9998826422416 7.499511024278176 0  194.9997550861637 -0.00057000851559353 0  194.9998710979438 7.499429469010328 0  199.9997450758206 -0.0006511945996458012 0  199.9998616384317 7.499348422595936 0  204.9997371574895 -0.000731800251987445 0  204.999853897889 7.499267912419089 0  209.9997308809529 -0.0008118439497473177 0  209.9998475726356 7.499187935928245 0  214.9997259086227 -0.0008913528731846632 0  214.9998424133727 7.499108475651234 0  219.9997219816398 -0.0009703578341496936 0  219.999838216079 7.499029506806324 0  224.9997188978267 -0.001048890775513856 0  224.9998348136142 7.498951001275854 0  229.9997164968924 -0.001126983491146229 0  229.9998320686253 7.498872929748747 0  234.9997146501919 -0.001204666945675327 0  234.9998298677792 7.498795262910602 0  239.9997132534234 -0.001281970908496816 0  239.9998281171471 7.498717972114917 0  244.999712221276 -0.001358923770346425 0  244.9998267385298 7.498641029752215 0  249.999711483406 -0.001435552482176217 0  249.9998256665257 7.498564409426694 0  254.9997109813445 -0.001511882590565876 0  254.9998248461856 7.498488085995112 0  259.9997106660726 -0.001587938362242897 0  259.9998242311246 7.498412035492995 0  264.9997104960932 -0.001663743001973964 0  264.9998237820023 7.498336234955559 0  269.9997104358798 -0.001739318977419869 0  269.9998234653 7.498260662128747 0  274.9997104546424 -0.001814688473153818 0  274.9998232523466 7.498185295057028 0  279.9997105253747 -0.001889874003435885 0  279.9998231185673 7.49811011152869 0  284.9997106242105 -0.001964899215966674 0  284.9998230429271 7.498035088358942 0  289.9997107301637 -0.002039789905883355 0  289.999823007559 7.497960200501825 0  294.9997108254216 -0.002114575201460221 0  294.9998229975555 7.497885420015819 0  299.999710896493 -0.002189288699722866 0  299.9998230008711 7.497810714981532 0  304.9997109366864 -0.002263968785143121 0  304.9998230082685 7.497736048588894 0  309.9997109506267 -0.002338655692827948 0  309.9998230132258 7.497661378656991 0  4.999944611326339 15.00207804570489 0  -5.540104051870998e-05 15.00215136789849 0  9.99994465180472 15.00200464390353 0  14.99994473661497 15.00193113468218 0  19.99994487974085 15.00185749789882 0  24.99994509491361 15.00178372002064 0  29.99994539672627 15.00170979289057 0  34.99994580122041 15.00163571252616 0  39.99994632622546 15.00156147813967 0  44.99994699161183 15.00148709145444 0  49.99994781953865 15.00141255632956 0  54.99994883472885 15.00133787868333 0  59.99995006477766 15.0012630667083 0  64.99995154048466 15.00118813138613 0  69.99995329618652 15.00111308733413 0  74.99995537005272 15.00103795404723 0  79.99995780428239 15.00096275764266 0  84.99996064510859 15.00088753327625 0  89.99996394245731 15.00081232848977 0  94.99996774902438 15.00073720788627 0  99.999972118402 15.00066225974073 0  104.9999771016935 15.00058760547751 0  109.9999827417922 15.00051341343714 0  114.9999890641764 15.00043991907131 0  119.9999960627767 15.0003674546659 0  125.0000036794836 15.00029649271875 0  130.0000117768815 15.00022770735131 0  135.0000201073849 15.00016205471941 0  140.0000282910877 15.00010085725673 0  145.0000358332698 15.00004581973881 0  150.0000422382252 14.99999871762013 0  165.0000353218341 14.99989394630235 0  160.0000420726825 14.99995545125334 0  170.0000260520207 14.9998234113285 0  175.0000154200113 14.99974739253159 0  180.000004649286 14.99966852849118 0  184.9999944762785 14.99958835019378 0  189.9999852564767 14.99950770091896 0  194.9999771125992 14.99942703757498 0  199.9999700391016 14.99934660356116 0  204.9999639661232 14.99926652387952 0  209.9999587961908 14.99918685731739 0  214.9999544242912 14.99910762531221 0  219.9999507482399 14.99902882812489 0  224.9999476735719 14.9989504540478 0  229.999945115431 14.99887248474219 0  234.9999429988792 14.99879489838806 0  239.9999412584166 14.99871767156949 0  244.9999398371554 14.99864078040705 0  249.9999386858785 14.99856420122417 0  254.9999377621057 14.99848791090947 0  259.9999370292263 14.99841188706698 0  264.9999364557219 14.99833610800433 0  269.9999360144881 14.99826055258505 0  274.9999356822473 14.99818519995555 0  279.9999354390409 14.99811002914922 0  284.9999352677788 14.9980350185668 0  289.9999351538082 14.9979601453334 0  294.999935084457 14.99788538453225 0  299.9999350484769 14.99781070829037 0  304.9999350353043 14.99773608455968 0  309.9999350340224 14.99766147493989 0  5.000054441535388 22.50207816426543 0  5.442635982128019e-05 22.5021513545893 0  10.00005448350112 22.50200483892906 0  15.00005456843644 22.50193137387277 0  20.00005470820973 22.50185776420563 0  25.00005491266267 22.50178400633447 0  30.00005519102623 22.50171009851685 0  35.0000555527591 22.50163604095729 0  40.00005600800951 22.50156183573234 0  45.00005656784041 22.50148748672157 0  50.0000572443073 22.50141299964923 0  55.00005805043272 22.50133838229965 0  60.00005900009218 22.50126364495212 0  65.00006010779808 22.50118880108196 0  70.00006138834722 22.50111386838627 0  75.00006285627342 22.50103887021861 0  80.00006452501995 22.50096383755277 0  85.00006640571277 22.50088881164874 0  90.00006850537503 22.5008138476664 0  95.00007082437423 22.50073901957151 0  100.0000733528469 22.50066442680875 0  105.000076065813 22.50059020337517 0  110.0000789167262 22.50051653008806 0  115.000081829375 22.50044365092109 0  120.0000846885209 22.50037189405527 0  125.0000873306767 22.50030169722103 0  130.00008953833 22.50023363379356 0  135.000091043951 22.50016842843027 0  140.0000915537279 22.50010693403435 0  145.0000908015866 22.50005000842809 0  150.000088629916 22.49999817887186 0  165.0000916414934 22.49987249908569 0  160.0000881724536 22.49993339662991 0  170.0000925797481 22.49980510825638 0  175.0000913577755 22.49973282351381 0  180.0000886072077 22.4996572637418 0  185.0000849599063 22.49957971328731 0  190.0000809107588 22.499501065486 0  195.0000768009629 22.49942190300399 0  200.0000728453214 22.49934259247141 0  205.000069166898 22.49926335847445 0  210.0000658266396 22.49918433449174 0  215.0000628454773 22.49910559618004 0  220.0000602197356 22.49902718265471 0  225.0000579314475 22.49894910999719 0  230.0000559550589 22.49887137983533 0  235.0000542616771 22.4987939848204 0  240.000052821691 22.49871691214455 0  245.0000516063317 22.49864014580885 0  250.0000505885529 22.49856366808245 0  255.0000497434836 22.49848746042678 0  260.0000490486117 22.49841150405597 0  265.0000484838063 22.49833578024094 0  270.0000480312358 22.49826027042552 0  275.0000476752235 22.49818495619892 0  280.0000474020457 22.4981098191551 0  285.0000471996736 22.49803484066195 0  290.0000470574338 22.49796000155813 0  295.0000469655483 22.49788528178597 0  300.0000469144898 22.49781065993804 0  30
[...]
<PointData  Vectors="v"> 
<DataArray  type="Float64"  Name="v"  NumberOfComponents="3" format="ascii">1.5666318683845821e+00 -5.7170422108480299e+00 0.0000000000000000e+00  1.1331476192124474e+00 -5.5576313347314930e+00 0.0000000000000000e+00  8.3135546081564249e-01 -4.9075604268352482e+00 0.0000000000000000e+00  1.1626585007035943e+00 -5.2206945779116287e+00 0.0000000000000000e+00  5.5395735696797899e-01 -6.2328081491283278e+00 0.0000000000000000e+00  3.9807787594076549e-01 -5.3649095811384582e+00 0.0000000000000000e+00  -1.7822676181480600e-02 -7.3149934489457786e+00 0.0000000000000000e+00  -1.8016910606022307e-01 -6.4586272437958447e+00 0.0000000000000000e+00  -5.7404808713943134e-01 -7.9467214200784388e+00 0.0000000000000000e+00  -7.5038274954783979e-01 -7.1144704831414121e+00 0.0000000000000000e+00  -1.2451472460017938e+00 -9.0056997398726004e+00 0.0000000000000000e+00  -1.3043700090493560e+00 -8.0019064766341028e+00 0.0000000000000000e+00  -1.8220090203901658e+00 -9.6913359545552549e+00 0.0000000000000000e+00  -1.9721402831147796e+00 -8.8294653410673529e+00 0.0000000000000000e+00  -1.9761013472143472e+00 -9.7884219653199303e+00 0.0000000000000000e+00  -2.5448459563543042e+00 -9.5617085746803863e+00 0.0000000000000000e+00  -2.9539593037670908e+00 -1.0999267693687132e+01 0.0000000000000000e+00  -2.6938897693452342e+00 -9.5378399678288268e+00 0.0000000000000000e+00  1.3767226102888272e-01 -6.1210726186094773e+00 0.0000000000000000e+00  -3.6654007655779286e+00 -1.0764315443484426e+01 0.0000000000000000e+00  -9.4390496524245133e+00 -1.9986290286961690e+01 0.0000000000000000e+00  -5.6640292815026516e-01 -5.6289554828986095e+00 0.0000000000000000e+00  -8.3909928233258704e+00 -1.7465939252733033e+01 0.0000000000000000e+00  -1.0135526910814562e+01 -1.9045782337958389e+01 0.0000000000000000e+00  -8.2602457052422835e+00 -1.6237045530865938e+01 0.0000000000000000e+00  -9.0781657790569561e+00 -1.6443035911149948e+01 0.0000000000000000e+00  -8.7952492617216702e+00 -1.6014821600958363e+01 0.0000000000000000e+00  -8.9357715418517341e+00 -1.5224288328734616e+01 0.0000000000000000e+00  -9.8633725625161315e+00 -1.6603554418582814e+01 0.0000000000000000e+00  -9.4570110591267866e+00 -1.5015728962377114e+01 0.0000000000000000e+00  -1.1289013123007756e+01 -1.7666865078268472e+01 0.0000000000000000e+00  -1.0508213370064173e+01 -1.5544305416987459e+01 0.0000000000000000e+00  -1.2979701917392589e+01 -1.8988595384185626e+01 0.0000000000000000e+00  -1.1914683996709773e+01 -1.6471227422398449e+01 0.0000000000000000e+00  -1.4851889795993397e+01 -2.0582149510714451e+01 0.0000000000000000e+00  -1.3583925725054254e+01 -1.7794837742291580e+01 0.0000000000000000e+00  -1.6821957453842618e+01 -2.2069859386064827e+01 0.0000000000000000e+00  -1.5431042071470193e+01 -1.9137456591086693e+01 0.0000000000000000e+00  -1.8820439250609329e+01 -2.3468593198096261e+01 0.0000000000000000e+00  -1.7373870424260829e+01 -2.0496916366323667e+01 0.0000000000000000e+00  -2.0783106692761926e+01 -2.4626484794207300e+01 0.0000000000000000e+00  -1.9341938230587392e+01 -2.1710547831151846e+01 0.0000000000000000e+00  -2.2634359701972752e+01 -2.5458464299001562e+01 0.0000000000000000e+00  -2.1271066722778809e+01 -2.2712579317950933e+01 0.0000000000000000e+00  -2.4313614662300591e+01 -2.5572004911709172e+01 0.0000000000000000e+00  -2.3084772064188268e+01 -2.3086106935118597e+01 0.0000000000000000e+00  -2.5780024746580004e+01 -2.5507932250118063e+01 0.0000000000000000e+00  -2.4725453426486332e+01 -2.3346141195721618e+01 0.0000000000000000e+00  -2.6984864509608638e+01 -2.4056941730697705e+01 0.0000000000000000e+00  -2.6145775171964484e+01 -2.2286123597665252e+01 0.0000000000000000e+00  -2.7930425814373507e+01 -2.2607911321461138e+01 0.0000000000000000e+00  -2.7307285662035724e+01 -2.1235510100508382e+01 0.0000000000000000e+00  -2.8599009865148318e+01 -1.9168664720661333e+01 0.0000000000000000e+00  -2.8197132288465117e+01 -1.8204401141637106e+01 0.0000000000000000e+00  -2.9041284798323201e+01 -1.5780496302825920e+01 0.0000000000000000e+00  -2.8819358639759663e+01 -1.5173100063608867e+01 0.0000000000000000e+00  -2.9266273698588190e+01 -1.0260800137696792e+01 0.0000000000000000e+00  -2.9194386510644858e+01 -9.9615811975987452e+00 0.0000000000000000e+00  -2.9368188981207137e+01 -3.7053739283793865e+00 0.0000000000000000e+00  -2.9372131813642429e+01 -3.6212572563640659e+00 0.0000000000000000e+00  -2.9389262614516628e+01 -2.3021998975989919e-12 0.0000000000000000e+00  -2.9389474435554366e+01 -2.1071651150227522e-04 0.0000000000000000e+00  -2.9389262614623942e+01 1.6928147886540547e-19 0.0000000000000000e+00  -2.1017009270901283e+01 1.1500256633440110e+01 0.0000000000000000e+00  -2.9366974852941919e+01 -1.0204567858447839e+00 0.0000000000000000e+00  -2.9389472724110977e+01 2.1398684717886359e-04 0.0000000000000000e+00  -2.0625473626181620e+01 2.0681461444527681e+01 0.0000000000000000e+00  -2.1045899260286763e+01 2.0161775527032095e+01 0.0000000000000000e+00  -1.7602902431555151e+01 2.7666322740872683e+01 0.0000000000000000e+00  -2.0713905908945126e+01 2.3174017692070240e+01 0.0000000000000000e+00  -1.6453658510740592e+01 2.9087925912856768e+01 0.0000000000000000e+00  -1.7748763159260051e+01 2.7415265629813977e+01 0.0000000000000000e+00  -1.4660421103863928e+01 3.0528341327511431e+01 0.0000000000000000e+00  -1.6653045021556455e+01 2.7883429138156945e+01 0.0000000000000000e+00  -1.3288401036179156e+01 2.9720238178213933e+01 0.0000000000000000e+00  -1.4910923019398799e+01 2.7707932824155613e+01 0.0000000000000000e+00  -1.1902858544958642e+01 2.8666783494460589e+01 0.0000000000000000e+00  -1.3589464424542241e+01 2.6630452514723476e+01 0.0000000000000000e+00  -1.0687521890521019e+01 2.6774149049502242e+01 0.0000000000000000e+00  -1.2251567649709594e+01 2.4993758170884060e+01 0.0000000000000000e+00  -9.3184868867074240e+00 2.4931868296390796e+01 0.0000000000000000e+00  -1.1082463983646205e+01 2.2918611200432458e+01 0.0000000000000000e+00  -8.2900005117713320e+00 2.2720823941705078e+01 0.0000000000000000e+00  -9.7586446066739878e+00 2.1217539571693820e+01 0.0000000000000000e+00  -7.4161732606034407e+00 2.0638896714340365e+01 0.0000000000000000e+00  -8.7737658218622716e+00 1.9366776419651160e+01 0.0000000000000000e+00  -6.4868052901670072e+00 1.8842861297782562e+01 0.0000000000000000e+00  -7.9423870494175528e+00 1.7486499907123857e+01 0.0000000000000000e+00  -5.6209655085087338e+00 1.7200963871767335e+01 0.0000000000000000e+00  -7.0547192613838687e+00 1.5938862268572764e+01 0.0000000000000000e+00  -4.8208803357240946e+00 1.5757346708096046e+01 0.0000000000000000e+00  -6.2293960182202888e+00 1.4593363449718439e+01 0.0000000000000000e+00  -4.0627823973362567e+00 1.4436499681062621e+01 0.0000000000000000e+00  -5.4689191515454638e+00 1.3334655498107557e+01 0.0000000000000000e+00  -3.3864052747044853e+00 1.3174557765387334e+01 0.0000000000000000e+00  -4.7497396616570020e+00 1.2194585732051541e+01 0.0000000000000000e+00  -2.7934391758767529e+00 1.2003988390659243e+01 0.0000000000000000e+00  -4.1114238536677776e+00 1.1148620769833506e+01 0.0000000000000000e+00  -2.2511772485734980e+00 1.0874477167692245e+01 0.0000000000000000e+00  -3.5557719934180350e+00 1.0094605717032975e+01 0.0000000000000000e+00  -1.7772725330885983e+00 9.7708008256368952e+00 0.0000000000000000e+00  -3.0503314208846000e+00 9.0928615140979367e+00 0.0000000000000000e+00  -1.3742567558287919e+00 8.7133115424505245e+00 0.0000000000000000e+00  -2.6125184417938256e+00 8.1414189334772278e+00 0.0000000000000000e+00  -1.0156309071538028e+00 7.6584120076447171e+00 0.0000000000000000e+00  -2.2452168325612631e+00 7.1525034457182697e+00 0.0000000000000000e+00  -7.1241661807051604e-01 6.6358558061826711e+00 0.0000000000000000e+00  -1.9216180373918839e+00 6.2129504288257342e+00 0.0000000000000000e+00  -4.6849738585758566e-01 5.6279760879540301e+00 0.0000000000000000e+00  -1.6534241791297102e+00 5.2932310104299090e+00 0.0000000000000000e+00  -2.6580933209457497e-01 4.6590700290148401e+00 0.0000000000000000e+00  -1.4433385211756058e+00 4.3866891821203406e+00 0.0000000000000000e+00  -1.1292648493262855e-01 3.6891510040786608e+00 0.0000000000000000e+00  -1.2755293089862103e+00 3.4897349226210252e+00 0.0000000000000000e+00  -2.7451354110882473e-03 2.8524227281594761e+00 0.0000000000000000e+00  -1.1548436657156593e+00 2.7193109335531482e+00 0.0000000000000000e+00  6.6974824277627173e-02 1.9669236301664346e+00 0.0000000000000000e+00  -1.0804367711968292e+00 1.8901048344764304e+00 0.0000000000000000e+00  1.3460053014000728e-01 1.3360922221935301e+00 0.0000000000000000e+00  -1.0397455920681757e+00 1.2691709400917301e+00 0.0000000000000000e+00  2.0782366292255117e-01 7.1473662938784899e-01 0.0000000000000000e+00  -1.0125025061833757e+00 6.2702520587621147e-01 0.0000000000000000e+00  3.7380828462856486e-01 -1.7066679091604067e-01 0.0000000000000000e+00  -9.5544023180242743e-01 -3.7340304799693808e-01 0.0000000000000000e+00  1.1170700354030989e-01 -4.4097252620497729e+00 0.0000000000000000e+00  4.7068132006447244e-01 -4.6842064203909617e+00 0.0000000000000000e+00  -2.2085306775231214e-01 -4.7142190717522610e+00 0.0000000000000000e+00  -6.5520236077234018e-01 -5.5910740926604277e+00 0.0000000000000000e+00  -1.2337082343131660e+00 -6.2595005785852074e+00 0.0000000000000000e+00  -1.8031376938289303e+00 -7.1717156772263850e+00 0.0000000000000000e+00  -2.3552654241446476e+00 -7.8296767550407163e+00 0.0000000000000000e+00  -3.0196351818581366e+00 -8.7056396773486906e+00 0.0000000000000000e+00  -3.5870119061201007e+00 -9.3178240248775168e+00 0.0000000000000000e+00  -3.7291286826472789e+00 -9.3123515056440240e+00 0.0000000000000000e+00  -4.6912166805967432e+00 -1.0284087615149105e+01 0.0000000000000000e+00  -1.5817032688097199e+00 -4.6966652041527217e+00 0.0000000000000000e+00  -1.1144672724194537e+01 -1.8032479444956444e+01 0.0000000000000000e+00  -1.0080186512044902e+01 -1.5445238345150191e+01 0.0000000000000000e+00  -9.9249396926481097e+00 -1.4242554504755926e+01 0.0000000000000000e+00  -1.0429466667714006e+01 -1.3980563239364850e+01 0.0000000000000000e+00  -1.1458230144654348e+01 -1.4377198396067497e+01 0.0000000000000000e+00  -1.2837439977202388e+01 -1.5308473434350265e+01 0.0000000000000000e+00  -1.4475305983579476e+01 -1.6388350474246842e+01 0.0000000000000000e+00  -1.6285433383998733e+01 -1.7607471012260806e+01 0.0000000000000000e+00  -1.8185720915755411e+01 -1.8784706374619539e+01 0.0000000000000000e+00  -2.0106815587131390e+01 -1.9850912225164144e+01 0.0000000000000000e+00  -2.1981661766304629e+01 -2.0399762805711184e+01 0.0000000000000000e+00  -2.3735345066135395e+01 -2.0924141646115682e+01 0.0000000000000000e+00  -2.5308851724671484e+01 -2.0196799945174082e+01 0.0000000000000000e+00  -2.6655994762912236e+01 -1.9544083270489182e+01 0.0000000000000000e+00  -2.7733652079857482e+01 -1.6913804038759476e+01 0.0000000000000000e+00  -2.8539080065340883e+01 -1.4307681282903523e+01 0.0000000000000000e+00  -2.9057020002022423e+01 -9.4389894858416064e+00 0.0000000000000000e+00  -2.9341485588058035e+01 -3.4492726684685473e+00 0.0000000000000000e+00  -2.9389987319259046e+01 -4.0236402777042962e-04 0.0000000000000000e+00  -2.9328825578215376e+01 -1.1801457310213290e+00 0.0000000000000000e+00  -2.9389984103551207e+01 4.3342803849853826e-04 0.0000000000000000e+00  -2.9172605578511497e+01 7.6999409793880575e+00 0.0000000000000000e+00  -2.0916279104066469e+01 2.2728274227712582e+01 0.0000000000000000e+00  -2.0665156297573134e+01 2.3009686194211245e+01 0.0000000000000000e+00  -1.7768287291132594e+01 2.6280954946789176e+01 0.0000000000000000e+00  -1.6738418021664490e+01 2.5127347135498471e+01 0.0000000000000000e+00  -1.5052661978412383e+01 2.4683805081127204e+01 0.0000000000000000e+00  -1.3786846005072782e+01 2.3016857961485194e+01 0.0000000000000000e+00  -1.2498848357093992e+01 2.1193382394432977e+01 0.0000000000000000e+00  -1.1376851733906797e+01 1.9259446421551967e+01 0.0000000000000000e+00  -1.0097964720285150e+01 1.7915508202224682e+01 0.0000000000000000e+00  -9.1559924242937054e+00 1.6263929511014329e+01 0.0000000000000000e+00  -8.3655121468657061e+00 1.4631798921231747e+01 0.0000000000000000e+00  -7.5177786624452807e+00 1.3378634226403069e+01 0.0000000000000000e+00  -6.7308499888433966e+00 1.2216194881935206e+01 0.0000000000000000e+00  -6.0073175779308308e+00 1.1137713453960801e+01 0.0000000000000000e+00  -5.3240675139409408e+00 1.0212191310268944e+01 0.0000000000000000e+00  -4.7204711597710682e+00 9.2813920285881970e+00 0.0000000000000000e+00  -4.1983842977077712e+00 8.3545662056380987e+00 0.0000000000000000e+00  -3.7256512279206095e+00 7.5040153208000238e+00 0.0000000000000000e+00  -3.3196680458032577e+00 6.6201634094974748e+00 0.0000000000000000e+00  -2.9832760331619164e+00 5.7460811094152238e+00 0.0000000000000000e+00  -2.6900599093251860e+00 4.9086380203365634e+00 0.0000000000000000e+00  -2.4513677241345340e+00 4.0894876556744766e+00 0.0000000000000000e+00  -2.2704778277009154e+00 3.2545657101244130e+00 0.0000000000000000e+00  -2.1307361874389863e+00 2.5564228783535432e+00 0.0000000000000000e+00  -2.0386022797849668e+00 1.7927556420044597e+00 0.0000000000000000e+00  -1.9902156677526790e+00 1.2281608749034114e+00 0.0000000000000000e+00  -1.9781091700469091e+00 5.9631751569196589e-01 0.0000000000000000e+00  -1.9748614898956898e+00 -4.3728077393419729e-01 0.0000000000000000e+00  -1.1382021318017848e+00 -3.8693200744222076e+00 0.0000000000000000e+00  -8.1731970012692312e-01 -4.2058746934201690e+00 0.0000000000000000e+00  -1.5002437909610282e+00 -4.2124675203958164e+00 0.0000000000000000e+00  -1.8374686735545249e+00 -4.9373047609188321e+00 0.0000000000000000e+00  -2.2753674278315406e+00 -5.3900860082751745e+00 0.0000000000000000e+00  -2.8566698997293498e+00 -6.3170012392345614e+00 0.0000000000000000e+00  -3.4274251820034789e+00 -7.0027131258664790e+00 0.0000000000000000e+00  -3.9782888318432827e+00 -7.7119351762651922e+00 0.0000000000000000e+00  -4.6388656806105599e+00 -8.4720373687375652e+00 0.0000000000000000e+00  -5.1991416590448640e+00 -9.1075105882873366e+00 0.0000000000000000e+00  -5.3296459957033768e+00 -8.8520712799197607e+00 0.0000000000000000e+00  -6.2766075709199924e+00 -9.3721140080945844e+00 0.0000000000000000e+00  -3.1558076479557773e+00 -3.6926465421854542e+00 0.0000000000000000e+00  -1.2717826621120786e+01 -1.7043853371658834e+01 0.0000000000000000e+00  -1.1651332121871103e+01 -1.4486016923161365e+01 0.0000000000000000e+00  -1.1483540896482067e+01 -1.3240795333108267e+01 0.0000000000000000e+00  -1.1965547631542677e+01 -1.2857669804278371e+01 0.0000000000000000e+00  -1.2962671112580416e+01 -1.3270124332230880e+01 0.0000000000000000e+00  -1.4301566793726364e+01 -1.3968566771744181e+01 0.0000000000000000e+00  -1.5889393484004390e+01 -1.4935463903878047e+01 0.0000000000000000e+00  -1.7640589418046673e+01 -1.5984706211617244e+01 0.0000000000000000e+00  -1.9472594110375667e+01 -1.7028054855431680e+01 0.0000000000000000e+00  -2.1313175993894401e+01 -1.7652492741796635e+01 0.0000000000000000e+00  -2.3097256327283237e+01 -1.8370955347835878e+01 0.0000000000000000e+00  -2.4745312964517247e+01 -1.7918928444562287e+01 0.0000000000000000e+00  -2.6202001542829755e+01 -1.7623007099808667e+01 0.0000000000000000e+00  -2.7412490037113756e+01 -1.5395606838796621e+01 0.0000000000000000e+00  -2.8346581950431577e+01 -1.3231287864002347e+01 0.0000000000000000e+00  -2.8977809592597595e+01 -8.7625812654723187e+00 0.0000000000000000e+00  -2.9334553258752138e+01 -3.2073578688468785e+00 0.0000000000000000e+00  -2.9390789045957490e+01 -5.7639440810756406e-04 0.0000000000000000e+00  -2.9304835673539454e+01 -1.4930008158966437e+00 0.0000000000000000e+00  -2.9390786099489400e+01 6.2796632209702579e-04 0.0000000000000000e+00  -2.8937376927711302e+01 7.4080585391865279e+00 0.0000000000000000e+00  -2.8768909414613532e+01 1.0424930362127826e+01 0.0000000000000000e+00  -2.0624654657720875e+01 2.2734203695723021e+01 0.0000000000000000e+00  -2.0504002332682369e+01 2.2016515824574356e+01 0.0000000000000000e+00  -1.7716688279281044e+01 2.3662321114288943e+01 0.0000000000000000e+00  -1.6785231826063733e+01 2.2220291589747660e+01 0.0000000000000000e+00  -1.5185225675067811e+01 2.1180864236084364e+01 0.0000000000000000e+00  -1.3998526211120662e+01 1.9317376191246080e+01 0.0000000000000000e+00  -1.2781003014634974e+01 1.7628762079115955e+01 0.0000000000000000e+00  -1.1725068682602108e+01 1.6045918613658099e+01 0.0000000000000000e+00  -1.0507779277420337e+01 1.4897832334355096e+01 0.0000000000000000e+00  -9.6242829954934948e+00 1.3490612232018533e+01 0.0000000000000000e+00  -8.8900680616377112e+00 1.2150150206201188e+01 0.0000000000000000e+00  -8.0965667843400766e+00 1.1077413599462002e+01 0.0000000000000000e+00  -7.3616200628069643e+00 1.0092371626722215e+01 0.0000000000000000e+00  -6.6881768093696454e+00 9.2257800239419900e+00 0.0000000000000000e+00  -6.0530208833320076e+00 8.4131899813404107e+00 0.0000000000000000e+00  -5.4956103458934384e+00 7.6071703454505020e+00 0.0000000000000000e+00  -5.0179903272022859e+00 6.8295505213536289e+00 0.0000000000000000e+00  -4.5882008515761061e+00 6.0446340610211813e+00 0.0000000000000000e+00  -4.2235459348269417e+00 5.2741486947537748e+00 0.0000000000000000e+00  -3.9274166575149017e+00 4.5001518982238791e+00 0.0000000000000000e+00  -3.6728947005504029e+00 3.7627061856780197e+00 0.0000000000000000e+00  -3.4723635955222707e+00 3.0124405737681341e+00 0.0000000000000000e+00  -3.3275666107742095e+00 2.3774042693781605e+00 0.0000000000000000e+00  -3.2245400845806187e+00 1.6805424391902435e+00 0.0000000000000000e+00  -3.1648487449953326e+00 1.1874731837776797e+00 0.0000000000000000e+00  -3.1538817431830184e+00 5.9811287218598785e-01 0.0000000000000000e+00  -3.1651424704795046e+00 -4.0850054721192686e-01 0.0000000000000000e+00  -2.4515767423618708e+00 -3.3851709557522960e+00 0.0000000000000000e+00  -2.1667445732817332e+00 -3.7827439570721921e+00 0.0000000000000000e+00  -2.7769059302264081e+00 -3.6645474962218381e+00 0.0000000000000000e+00  -3.1468732720557635e+00 -4.4254121591036446e+00 0.0000000000000000e+00  -3.4928998697928111e+00 -4.7271882188534349e+00 0.0000000000000000e+00  -3.9397500467289497e+00 -5.4397466488170192e+00 0.0000000000000000e+00  -4.5287494904977450e+00 -6.1422625842581091e+00 0.0000000000000000e+00  -5.1053722416242904e+00 -6.8834898444650525e+00 0.0000000000000000e+00  -5.6591456570407104e+00 -7.4817690459525243e+00 0.0000000000000000e+00  -6.3183018160417488e+00 -8.2709666347890387e+00 0.0000000000000000e+00  -6.8717896129308755e+00 -8.6647729237407045e+00 0.0000000000000000e+00  -6.9904790239232923e+00 -7.9619262592216451e+00 0.0000000000000000e+00  -7.9247064727190555e+00 -8.3778978443674816e+00 0.0000000000000000e+00  -4.8036461171956315e+00 -2.6918141321822233e+00 0.0000000000000000e+00  -1.4383754874072627e+01 -1.6073800789612335e+01 0.0000000000000000e+00  -1.3332379548814103e+01 -1.3491950118868253e+01 0.0000000000000000e+00  -1.3164535262077978e+01 -1.2143485523952895e+01 0.0000000000000000e+00  -1.3633437982154984e+01 -1.1793340860295160e+01 0.0000000000000000e+00  -1.4603320942754419e+01 -1.1986706691045491e+01 0.0000000000000000e+00  -1.5903659412599625e+01 -1.2589745730691966e+01 0.0000000000000000e+00  -1.7440743107560330e+01 -1.3402226089569490e+01 0.0000000000000000e+00  -1.9128150724226835e+01 -1.4334070056777664e+01 0.0000000000000000e+00  -2.0882385518533095e+01 -1.4955594421475176e+01 0.0000000000000000e+00  -2.2630860077888350e+01 -1.5773332160904824e+01 0.0000000000000000e+00  -2.4302444762551914e+01 -1.5533580424091047e+01 0.0000000000000000e+00  -2.5822332924408311e+01 -1.5548307193660985e+01 0.0000000000000000e+00  -2.7123012944423486e+01 -1.3691653594142430e+01 0.0000000000000000e+00  -2.8164669927519142e+01 -1.1983730714913234e+01 0.0000000000000000e+00  -2.8888012640552098e+01 -7.9392329385223350e+00 0.0000000000000000e+00  -2.9317103944283662e+01 -2.8983316530875345e+00 0.0000000000000000e+00  -2.939184974