<?xml version="1.0"?>
<VTKFile type="UnstructuredGrid"  version="0.1"  >
<UnstructuredGrid>
<Piece  NumberOfPoints="1933" NumberOfCells="3640">
<Points>
<DataArray  type="Float64"  NumberOfComponents="3"  format="ascii">0.294037452789691 -0.001654456806929886 0  5.294037500740751 -0.001619596524834564 0  5.293985212417411 7.498380525510058 0  0.2939851407990504 7.498345625996501 0  10.29403757700561 -0.001584833340725071 0  10.29398533392352 7.498415298096635 0  15.29403773334458 -0.001550178513529731 0  15.29398552751783 7.498449952372819 0  20.29403801789364 -0.001515606455626796 0  20.29398581278614 7.498484521101397 0  25.29403847038048 -0.001481071460345845 0  25.29398620684066 7.498519052645154 0  30.29403912211512 -0.001446515998388801 0  30.29398672370832 7.498553605452302 0  35.29403999735446 -0.001411874711953964 0  35.2939873738763 7.498588245115648 0  40.29404111482305 -0.001377075999771998 0  40.29398816402674 7.498623043210298 0  45.29404248898167 -0.001342042149405428 0  45.29398909682719 7.498658077332084 0  50.29404413093111 -0.001306688508251596 0  50.29399017063658 7.498693431990198 0  55.29404604893869 -0.001270921926254859 0  55.29399137901159 7.498729200179294 0  60.29404824858616 -0.001234638544385325 0  60.29399270990695 7.49876548557916 0  65.29405073252354 -0.001197720890912904 0  65.29399414445081 7.498802405424559 0  70.29405349976228 -0.001160034151897206 0  70.29399565515115 7.498840094171605 0  75.29405654438386 -0.001121421381657233 0  75.2939972033306 7.498878708173569 0  80.29405985343196 -0.001081697293637565 0  80.29399873550567 7.498918431682553 0  85.29406340359894 -0.001040640099542405 0  85.29400017831229 7.498959484623988 0  90.29406715603916 -0.0009979806145721014 0  90.29400143141132 7.499002132760388 0  95.29407104817764 -0.0009533874761229746 0  95.29400235759813 7.499046701072865 0  100.2940749805382 -0.0009064467717409023 0  100.2940027691038 7.499093591428482 0  105.2940787951173 -0.0008566335605341233 0  105.294002408856 7.499143305802359 0  110.2940822390426 -0.0008032716181728539 0  110.2940009255167 7.499196476282828 0  115.2940849021287 -0.0007454762200595365 0  115.2939978419261 7.49925390229895 0  120.2940861072866 -0.0006820731638353633 0  120.2939925194409 7.499316592756135 0  125.2940847145945 -0.0006114867333879681 0  125.2939841284661 7.499385803317717 0  130.2940787654778 -0.0005315941203988233 0  130.2939716545839 7.499463041084283 0  135.2940648282074 -0.0004395678349349085 0  135.2939540139074 7.499549969027085 0  140.2940367803622 -0.0003318194120888684 0  140.2939304505287 7.499648063998659 0  145.2939835109837 -0.000204507867700639 0  145.293901611821 7.499757772886024 0  150.2938844420792 -5.653909050345408e-05 0  150.2938722298805 7.499877035484902 0  160.2938926261451 1.196174677846672e-18 0  165.2938394824687 -0.0001108082098277747 0  165.2938844849788 7.499867226824227 0  160.2938940218323 7.499948795025853 0  170.2938245470983 -0.0001858200188155257 0  170.2938745020283 7.49980339017886 0  175.2938273506242 -0.0002358052573749202 0  175.293868665052 7.499758535026235 0  180.2938380966355 -0.0002673824490031531 0  180.2938670569956 7.49972955591817 0  185.2938519669105 -0.0002852239019964473 0  185.2938686795627 7.499713096958121 0  190.2938665876448 -0.0002927195238903733 0  190.2938724679119 7.499706358738415 0  195.2938808129873 -0.0002923414052588698 0  195.293877560388 7.4997071611044 0  200.2938941195897 -0.0002859024984829021 0  200.2938833294137 7.499713842476375 0  205.293906299764 -0.0002747449679116406 0  205.2938893432611 7.499725141262796 0  210.2939173043136 -0.0002598747934334185 0  210.2938953165974 7.49974009519496 0  215.293927161481 -0.0002420565449531051 0  215.2939010676812 7.499757963845596 0  220.2939359350004 -0.0002218797779815236 0  220.2939064858467 7.499778171252998 0  225.2939437024309 -0.0001998056892694625 0  225.2939115082372 7.499800264040806 0  230.293950544107 -0.0001762001840803527 0  230.2939161036899 7.499823880912567 0  235.2939565376973 -0.0001513575963299999 0  235.2939202617895 7.499848730325744 0  240.2939617557553 -0.0001255179405384513 0  240.2939239855262 7.499874574011514 0  245.2939662648851 -9.887963985559891e-05 0  245.293927286441 7.499901214683449 0  250.2939701257886 -7.160904408627991e-05 0  250.2939301814634 7.499928486773364 0  255.2939733938174 -4.384762753796188e-05 0  255.2939326909192 7.499956249386629 0  260.2939761198212 -1.571746756954108e-05 0  260.2939348373322 7.499984380920043 0  265.2939783512217 1.267459852660117e-05 0  265.2939366447845 7.500012774967633 0  270.2939801332527 4.123389326218319e-05 0  270.29393813866 7.50004133727835 0  275.2939815103901 6.987577858161092e-05 0  275.2939393456417 7.500069983645136 0  280.2939825279658 9.852450618397148e-05 0  280.2939402938592 7.500098638713104 0  285.2939832339655 0.0001271132010085953 0  285.2939410130859 7.500127235810925 0  290.2939836809015 0.0001555853484300493 0  290.2939415348679 7.50015571804452 0  295.2939839275125 0.0001838984630211169 0  295.2939418925093 7.50018404105318 0  300.293984039545 0.0002120310711815308 0  300.2939421208739 7.500212178007753 0  305.2939840879774 0.0002399947261150094 0  305.2939422563436 7.50024012760538 0  310.2939841408785 0.0002678530136994946 0  310.2939423381872 7.500267926064665 0  5.293932669912068 14.99838078720127 0  0.2939325969971182 14.99834582566731 0  10.29393277567011 14.99841556033726 0  15.29393292969402 14.998450193534 0  20.29393313972989 14.99848473642199 0  25.29393340985001 14.99851924379288 0  30.29393374160536 14.99855377594881 0  35.29393413401301 14.99858839840271 0  40.29393458310217 14.99862318186521 0  45.29393508127764 14.99865820274478 0  50.29393561655748 14.99869354417799 0  55.2939361716584 14.99872929757283 0  60.29393672286616 14.99876556467276 0  65.29393723861635 14.99880246018849 0  70.29393767769599 14.99884011508911 0  75.29393798697913 14.99887868068931 0  80.29393809860851 14.99891833371159 0  85.29393792657122 14.99895928253346 0  90.29393736269276 14.99900177483247 0  95.29393627227 14.99904610676693 0  100.2939344899357 14.99909263358906 0  105.2939318171213 14.99914178098448 0  110.2939280238583 14.9991940551014 0  115.2939228601417 14.99925004646754 0  120.2939160861902 14.99931041750555 0  125.2939075373322 14.99937585289537 0  130.2938972478675 14.99944693290337 0  135.2938856665523 14.99952385654212 0  140.2938739937826 14.99960588669398 0  145.2938646240228 14.99969029901088 0  150.2938614875702 14.99977040964429 0  165.2938898641748 14.99980659244899 0  160.2938877503997 14.99984592908791 0  170.2938861888709 14.99976919796476 0  175.2938808276058 14.9997394364805 0  180.2938760266846 14.99971890438489 0  185.2938726405512 14.99970717251276 0  190.2938707969039 14.99970309599669 0  195.2938703093268 14.99970540913722 0  200.2938708910442 14.99971295464356 0  205.29387225374 14.99972475042108 0  210.2938741466966 14.99973999045661 0  215.2938763672304 14.99975802266301 0  220.2938787585777 14.99977832169053 0  225.2938812032079 14.99980046360035 0  230.2938836152437 14.99982410450733 0  235.2938859335393 14.99984896336217 0  240.2938881159003 14.99987480836018 0  245.2938901344967 14.99990144630884 0  250.2938919723338 14.99992871433378 0  255.2938936205835 14.99995647341072 0  260.293895076602 14.99998460332962 0  265.2938963424573 15.00001299880043 0  270.2938974238466 15.00004156650151 0  275.293898329286 15.00007022294674 0  280.2938990694886 15.00009889311236 0  285.2938996569029 15.00012750981522 0  290.2939001053829 15.00015601385975 0  295.2939004301485 15.00018435493961 0  300.2939006482994 15.00021249312148 0  305.2939007805614 15.00024040029271 0  310.2939008554749 15.00026805986501 0  5.293879960606496 22.4983812695032 0  0.2938798917830302 22.49834630143917 0  10.29388004094141 22.49841600632791 0  15.2938801395961 22.49845058531553 0  20.29388025753074 22.49848507043436 0  25.29388039188683 22.49851952303208 0  30.29388053711089 22.49855400534455 0  35.2938806852492 22.49858858230684 0  40.29388082572564 22.49862332271252 0  45.29388094483096 22.49865830025952 0  50.29388102504836 22.49869359473635 0  55.29388104426945 22.49872929346508 0  60.29388097492016 22.49876549306154 0  65.29388078300904 22.4988023015546 0  70.29388042712262 22.498839840897 0  75.29387985743038 22.49887824988936 0  80.29387901483223 22.49891768750405 0  85.29387783049339 22.4989583365214 0  90.29387622620841 22.49900040723474 0  95.2938741163365 22.49904414068583 0  100.2938714125156 22.49908981034755 0  105.2938680330476 22.49913772020955 0  110.2938639197838 22.49918819556477 0  115.2938590664831 22.4992415600493 0  120.2938535636692 22.49929808814056 0  125.2938476651616 22.49935791592048 0  130.2938418786918 22.49942088466086 0  135.2938370732967 22.49948628425638 0  140.2938345721039 22.49955246613021 0  145.2938361497716 22.49961633644831 0  150.29384377111 22.49967290877608 0  165.2938727027229 22.49973773149789 0  160.2938665506238 22.49974887116132 0  170.2938735056001 22.49972298255539 0  175.2938709995427 22.49970947278634 0  180.2938669970643 22.49969987462918 0  185.2938627278906 22.49969525894066 0  190.293858878659 22.49969573815689 0  195.2938557552125 22.49970094535061 0  200.2938534334117 22.49971032308815 0  205.2938518661878 22.49972327673926 0  210.2938509505534 22.49973924676131 0  215.2938505660594 22.4997577369711 0  220.2938505950444 22.49977832067165 0  225.293850932069 22.49980063662362 0  230.2938514872919 22.49982438108452 0  235.2938521866852 22.49984929895965 0  240.2938529707448 22.4998751754371 0  245.2938537926233 22.49990182863025 0  250.2938546161572 22.49992910334759 0  255.2938554140239 22.49995686593178 0  260.2938561661039 22.49998500004758 0  265.2938568580858 22.50001340328788 0  270.2938574802818 22.50004198448003 0  275.2938580266493 22.50007066159192 0  280.2938584939968 22.50009936014785 0  285.2938588813973 22.5001280120525 0  290.2938591898712 22.50015655467032 0  295.2938594224933 22.500184929876
[...]
<PointData  Vectors="v"> 
<DataArray  type="Float64"  Name="v"  NumberOfComponents="3" format="ascii">1.0983298730376378e+00 7.6633500853603698e+00 0.0000000000000000e+00  1.6557834274213661e+00 7.1790103640228482e+00 0.0000000000000000e+00  1.5253811314908177e+00 6.3431031569781915e+00 0.0000000000000000e+00  1.0953686035762578e+00 7.0186164373141295e+00 0.0000000000000000e+00  2.3500800585995494e+00 7.7599453740872750e+00 0.0000000000000000e+00  2.0824038077910094e+00 6.7194715837460599e+00 0.0000000000000000e+00  2.9717073860128158e+00 8.7812021683438992e+00 0.0000000000000000e+00  2.7754537848712846e+00 7.8502965696847333e+00 0.0000000000000000e+00  3.5157060685438517e+00 9.0944478823260582e+00 0.0000000000000000e+00  3.3950932851641826e+00 8.2807528093622587e+00 0.0000000000000000e+00  4.1973881041686045e+00 9.9684495238571493e+00 0.0000000000000000e+00  3.9363115372702016e+00 8.9489288572319143e+00 0.0000000000000000e+00  4.7368275454594304e+00 1.0323167248970387e+01 0.0000000000000000e+00  4.6142927710746378e+00 9.5176359661582648e+00 0.0000000000000000e+00  4.8157974532634009e+00 1.0059497871162447e+01 0.0000000000000000e+00  5.1492056817763148e+00 9.9454535985198813e+00 0.0000000000000000e+00  5.8999838394410284e+00 1.1155929877246855e+01 0.0000000000000000e+00  5.2228990413945402e+00 9.5347388651646554e+00 0.0000000000000000e+00  2.7952496857865357e+00 5.9932269036662227e+00 0.0000000000000000e+00  6.3008666694741402e+00 1.0656175109193835e+01 0.0000000000000000e+00  1.3914099391662404e+01 2.1873873450325100e+01 0.0000000000000000e+00  3.1891798982221666e+00 5.2015492648320407e+00 0.0000000000000000e+00  1.3594615339315490e+01 2.0100540585331117e+01 0.0000000000000000e+00  1.4300577520793292e+01 2.0587013431759537e+01 0.0000000000000000e+00  1.3671989563051680e+01 1.8781576043539744e+01 0.0000000000000000e+00  1.3972563205168585e+01 1.8673749957022263e+01 0.0000000000000000e+00  1.4203210789262243e+01 1.8114882557486787e+01 0.0000000000000000e+00  1.4040111882730161e+01 1.7327606054572950e+01 0.0000000000000000e+00  1.5143440152031650e+01 1.8082379166362532e+01 0.0000000000000000e+00  1.4560138549495683e+01 1.6682939552559223e+01 0.0000000000000000e+00  1.6393669546622682e+01 1.8473995652811620e+01 0.0000000000000000e+00  1.5487328236266778e+01 1.6610590606184243e+01 0.0000000000000000e+00  1.7860268262500767e+01 1.9082717034398428e+01 0.0000000000000000e+00  1.6723040768194842e+01 1.6896187645361238e+01 0.0000000000000000e+00  1.9452654323276739e+01 1.9969736413326544e+01 0.0000000000000000e+00  1.8173790620653364e+01 1.7595777812267894e+01 0.0000000000000000e+00  2.1080374595313117e+01 2.0708757802962694e+01 0.0000000000000000e+00  1.9748474099995263e+01 1.8282623398382739e+01 0.0000000000000000e+00  2.2666712815284136e+01 2.1333191418233710e+01 0.0000000000000000e+00  2.1357341288911527e+01 1.8970553717086482e+01 0.0000000000000000e+00  2.4148097824224909e+01 2.1681335410388701e+01 0.0000000000000000e+00  2.2923493706823489e+01 1.9476927854124821e+01 0.0000000000000000e+00  2.5469099460894359e+01 2.1716666878188835e+01 0.0000000000000000e+00  2.4383443749359436e+01 1.9753787332998826e+01 0.0000000000000000e+00  2.6593969363481783e+01 2.0987892898922176e+01 0.0000000000000000e+00  2.5681597413784321e+01 1.9319707932089237e+01 0.0000000000000000e+00  2.7509063850231900e+01 2.0269227377304226e+01 0.0000000000000000e+00  2.6783621635057386e+01 1.8917198775395399e+01 0.0000000000000000e+00  2.8208731010529302e+01 1.8122431686248920e+01 0.0000000000000000e+00  2.7673468681386389e+01 1.7092406533888795e+01 0.0000000000000000e+00  2.8714924456282187e+01 1.6452606811445726e+01 0.0000000000000000e+00  2.8349623062170874e+01 1.5715763503858515e+01 0.0000000000000000e+00  2.9046446685064126e+01 1.2773661123168353e+01 0.0000000000000000e+00  2.8828540988754547e+01 1.2295246974257251e+01 0.0000000000000000e+00  2.9247290724161267e+01 1.0114457680960617e+01 0.0000000000000000e+00  2.9137330899137588e+01 9.8377112278286774e+00 0.0000000000000000e+00  2.9342339321321905e+01 5.2298060730453901e+00 0.0000000000000000e+00  2.9308824607197462e+01 5.1040106798198677e+00 0.0000000000000000e+00  2.9381791280543972e+01 1.2739489039341456e+00 0.0000000000000000e+00  2.9383384560265220e+01 1.2418806116291188e+00 0.0000000000000000e+00  2.9389262609882902e+01 -4.0216902894135615e-09 0.0000000000000000e+00  2.9389916193328499e+01 6.8474671818628710e-04 0.0000000000000000e+00  2.9389262614644892e+01 -3.9929168531829267e-19 0.0000000000000000e+00  2.0125084925696751e+01 -7.1204207102914623e+00 0.0000000000000000e+00  2.9383850356478469e+01 6.7501455970939945e+00 0.0000000000000000e+00  2.9389904729863769e+01 -6.5390515484105803e-04 0.0000000000000000e+00  2.0750072546380441e+01 -1.3369257763475801e+01 0.0000000000000000e+00  2.0153127556893040e+01 -1.4346726864712465e+01 0.0000000000000000e+00  1.7730813566000325e+01 -2.0809426895799049e+01 0.0000000000000000e+00  2.0815677894134414e+01 -1.6311045262839421e+01 0.0000000000000000e+00  1.6954116951629622e+01 -2.2283104386228224e+01 0.0000000000000000e+00  1.7834687465908733e+01 -2.1152820230835950e+01 0.0000000000000000e+00  1.5274408169781617e+01 -2.5060176480471089e+01 0.0000000000000000e+00  1.7095557446535150e+01 -2.2573488701754894e+01 0.0000000000000000e+00  1.4063087507544022e+01 -2.5272614775773125e+01 0.0000000000000000e+00  1.5452836772762373e+01 -2.3489321124065579e+01 0.0000000000000000e+00  1.2768596033528434e+01 -2.5351710128872575e+01 0.0000000000000000e+00  1.4278795514887243e+01 -2.3442393660367060e+01 0.0000000000000000e+00  1.1653243239931211e+01 -2.4299830888951160e+01 0.0000000000000000e+00  1.3020764132347200e+01 -2.2659764681882457e+01 0.0000000000000000e+00  1.0325675913530434e+01 -2.3132425021469647e+01 0.0000000000000000e+00  1.1941496811204129e+01 -2.1173347941838554e+01 0.0000000000000000e+00  9.3702316198662423e+00 -2.1291760142377889e+01 0.0000000000000000e+00  1.0649833455403076e+01 -1.9890669455731111e+01 0.0000000000000000e+00  8.5868409460200681e+00 -1.9437589976689452e+01 0.0000000000000000e+00  9.7298322810962272e+00 -1.8294373791247033e+01 0.0000000000000000e+00  7.7349123065278960e+00 -1.7745464555390235e+01 0.0000000000000000e+00  8.9815068501129112e+00 -1.6499168478782650e+01 0.0000000000000000e+00  6.9280806988572028e+00 -1.6147028969737040e+01 0.0000000000000000e+00  8.1644414961465959e+00 -1.4967996885023314e+01 0.0000000000000000e+00  6.1702080942363500e+00 -1.4732026139815149e+01 0.0000000000000000e+00  7.3920598339263286e+00 -1.3626238229925818e+01 0.0000000000000000e+00  5.4247217347241303e+00 -1.3437321546952527e+01 0.0000000000000000e+00  6.6682686163160882e+00 -1.2349763842357900e+01 0.0000000000000000e+00  4.7464927610682661e+00 -1.2197224779703770e+01 0.0000000000000000e+00  5.9565582786107916e+00 -1.1210219368225724e+01 0.0000000000000000e+00  4.1432654870420143e+00 -1.1059438045935218e+01 0.0000000000000000e+00  5.3117173097243233e+00 -1.0184648437135584e+01 0.0000000000000000e+00  3.5775510079287218e+00 -9.9714612699269143e+00 0.0000000000000000e+00  4.7414653681226557e+00 -9.1526471096813573e+00 0.0000000000000000e+00  3.0746679822691196e+00 -8.9093018914256064e+00 0.0000000000000000e+00  4.2084451541627619e+00 -8.1843543604951385e+00 0.0000000000000000e+00  2.6436289781039064e+00 -7.9121359047222830e+00 0.0000000000000000e+00  3.7377917723385869e+00 -7.2947662517202954e+00 0.0000000000000000e+00  2.2483804836253647e+00 -6.9086052233028772e+00 0.0000000000000000e+00  3.3387548077750666e+00 -6.3444719355356725e+00 0.0000000000000000e+00  1.9073330732318148e+00 -5.9741918312811997e+00 0.0000000000000000e+00  2.9749479591549157e+00 -5.4913094990211109e+00 0.0000000000000000e+00  1.6200499380650573e+00 -5.0217639729871131e+00 0.0000000000000000e+00  2.6653931142658873e+00 -4.6188349843611682e+00 0.0000000000000000e+00  1.3672162845621025e+00 -4.2073166310688999e+00 0.0000000000000000e+00  2.4085611128030999e+00 -3.8565306803275057e+00 0.0000000000000000e+00  1.1488501555423265e+00 -3.2690927049377385e+00 0.0000000000000000e+00  2.1870956890256887e+00 -2.9684441983037568e+00 0.0000000000000000e+00  9.5770145766550885e-01 -2.7317709400588810e+00 0.0000000000000000e+00  1.9976939334778991e+00 -2.4739254876240695e+00 0.0000000000000000e+00  7.8126729447990240e-01 -1.7822185198281364e+00 0.0000000000000000e+00  1.8386680643690865e+00 -1.5424948980332034e+00 0.0000000000000000e+00  5.4330401975812115e-01 -1.7257415143133190e+00 0.0000000000000000e+00  1.6883073500105523e+00 -1.3997159464096680e+00 0.0000000000000000e+00  1.8240743656847680e-01 -1.2019668997603068e+00 0.0000000000000000e+00  1.4865205535624795e+00 -6.8043314853469383e-01 0.0000000000000000e+00  -6.6124781630328267e-01 -7.3790580959321927e-03 0.0000000000000000e+00  1.1400881993613339e+00 1.2167250157762906e+00 0.0000000000000000e+00  1.8029079561377988e+00 5.6977279291675069e+00 0.0000000000000000e+00  1.3290202105890525e+00 6.3087612769921542e+00 0.0000000000000000e+00  2.2332401512632729e+00 5.8840126699085893e+00 0.0000000000000000e+00  2.7897342008662593e+00 6.8115579567674081e+00 0.0000000000000000e+00  3.4810359656544181e+00 7.3529392007408942e+00 0.0000000000000000e+00  4.0974960037845429e+00 8.1395146416385522e+00 0.0000000000000000e+00  4.6340837241681223e+00 8.5041096176530750e+00 0.0000000000000000e+00  5.3057966152261384e+00 9.1476065848957884e+00 0.0000000000000000e+00  5.8326807972302479e+00 9.4294739529459619e+00 0.0000000000000000e+00  5.8968748771835688e+00 9.0455264186841031e+00 0.0000000000000000e+00  6.9638482227192311e+00 9.8763778440669192e+00 0.0000000000000000e+00  3.8404163757247431e+00 3.9257965732009952e+00 0.0000000000000000e+00  1.4941092941082292e+01 1.9172243900689597e+01 0.0000000000000000e+00  1.4601928355272531e+01 1.7234167143149499e+01 0.0000000000000000e+00  1.4655860843404570e+01 1.5911899465381239e+01 0.0000000000000000e+00  1.5159613798984630e+01 1.5231232309300783e+01 0.0000000000000000e+00  1.6066908136724660e+01 1.5056087002817007e+01 0.0000000000000000e+00  1.7279197878839817e+01 1.5434562784534911e+01 0.0000000000000000e+00  1.8703505478524256e+01 1.5937946743105661e+01 0.0000000000000000e+00  2.0248168582850472e+01 1.6576679469480073e+01 0.0000000000000000e+00  2.1823584371729467e+01 1.7148173240500487e+01 0.0000000000000000e+00  2.3353653375809841e+01 1.7587067313275835e+01 0.0000000000000000e+00  2.4773985536501758e+01 1.7396887711159120e+01 0.0000000000000000e+00  2.6029875467377700e+01 1.7290366574041510e+01 0.0000000000000000e+00  2.7087022811263015e+01 1.5784416768577147e+01 0.0000000000000000e+00  2.7930260266196949e+01 1.4731646023273592e+01 0.0000000000000000e+00  2.8556787784542159e+01 1.1603228613360770e+01 0.0000000000000000e+00  2.8987857208872477e+01 9.4088576814815568e+00 0.0000000000000000e+00  2.9243721825876321e+01 4.8682386520012040e+00 0.0000000000000000e+00  2.9371273401710496e+01 1.1703002732735635e+00 0.0000000000000000e+00  2.9391483882106559e+01 1.3052641593237567e-03 0.0000000000000000e+00  2.9362808433844467e+01 6.8125125105287117e+00 0.0000000000000000e+00  2.9391462842157168e+01 -1.2860092783524026e-03 0.0000000000000000e+00  2.9301247964095367e+01 -5.1334882842610918e-01 0.0000000000000000e+00  2.0104784812102743e+01 -1.7331837871336521e+01 0.0000000000000000e+00  2.0811805662424693e+01 -1.6706824894700919e+01 0.0000000000000000e+00  1.7873307568279863e+01 -2.1491170881274609e+01 0.0000000000000000e+00  1.7177173183640992e+01 -2.1048229177637907e+01 0.0000000000000000e+00  1.5573986433620586e+01 -2.1705739520302256e+01 0.0000000000000000e+00  1.4439331887675694e+01 -2.0795044450209783e+01 0.0000000000000000e+00  1.3218425352606545e+01 -1.9575986071264783e+01 0.0000000000000000e+00  1.2174988824138721e+01 -1.7974368183174903e+01 0.0000000000000000e+00  1.0918231377971814e+01 -1.6934999498080227e+01 0.0000000000000000e+00  1.0032338293313373e+01 -1.5396636319224417e+01 0.0000000000000000e+00  9.3172984634457485e+00 -1.3762346006281916e+01 0.0000000000000000e+00  8.5331724782683516e+00 -1.2487198336241009e+01 0.0000000000000000e+00  7.7931635465331945e+00 -1.1283173409982769e+01 0.0000000000000000e+00  7.1011293004249092e+00 -1.0161569206924455e+01 0.0000000000000000e+00  6.4206921264110246e+00 -9.2359012123168771e+00 0.0000000000000000e+00  5.8065114746915159e+00 -8.3153689389884704e+00 0.0000000000000000e+00  5.2662712107109009e+00 -7.4026116187154898e+00 0.0000000000000000e+00  4.7626770706767321e+00 -6.6062486770890496e+00 0.0000000000000000e+00  4.3208553531432301e+00 -5.7628576396533129e+00 0.0000000000000000e+00  3.9499476044790796e+00 -4.9624338694267909e+00 0.0000000000000000e+00  3.6137959670349411e+00 -4.1706222654864744e+00 0.0000000000000000e+00  3.3311069007809668e+00 -3.4875956914215469e+00 0.0000000000000000e+00  3.1008150725013710e+00 -2.6512548315020692e+00 0.0000000000000000e+00  2.9047908501283914e+00 -2.2062045304571605e+00 0.0000000000000000e+00  2.7411589744609195e+00 -1.3168298140058829e+00 0.0000000000000000e+00  2.6055715368917571e+00 -1.1921320780085667e+00 0.0000000000000000e+00  2.4808415008021214e+00 -3.8686154991937288e-01 0.0000000000000000e+00  2.3005256368661744e+00 1.7168985445446410e+00 0.0000000000000000e+00  2.5160290132445504e+00 4.9860836713473642e+00 0.0000000000000000e+00  2.0878911863530334e+00 5.6680397645707545e+00 0.0000000000000000e+00  2.9911316976340179e+00 5.2376473829435026e+00 0.0000000000000000e+00  3.4227341990861473e+00 5.9771303521379515e+00 0.0000000000000000e+00  3.9787004651014861e+00 6.3177481752268250e+00 0.0000000000000000e+00  4.6674641922017885e+00 7.2183083548742308e+00 0.0000000000000000e+00  5.2789553277007952e+00 7.7049115609546801e+00 0.0000000000000000e+00  5.8074764487574697e+00 8.1477756190857988e+00 0.0000000000000000e+00  6.4681119243022254e+00 8.6492091496832391e+00 0.0000000000000000e+00  6.9807994533704472e+00 8.9616901912445357e+00 0.0000000000000000e+00  7.0276207679493421e+00 8.2899271752324140e+00 0.0000000000000000e+00  8.0754336605369392e+00 8.6254050305967418e+00 0.0000000000000000e+00  4.9341420638147682e+00 2.5328052904675333e+00 0.0000000000000000e+00  1.6020422641618612e+01 1.7753993098953497e+01 0.0000000000000000e+00  1.5667223108776891e+01 1.5845125576454524e+01 0.0000000000000000e+00  1.5702865465325562e+01 1.4493932922568721e+01 0.0000000000000000e+00  1.6181904072669838e+01 1.3718028345230836e+01 0.0000000000000000e+00  1.7057740384082912e+01 1.3644121134099434e+01 0.0000000000000000e+00  1.8231670682160985e+01 1.3834425875897196e+01 0.0000000000000000e+00  1.9610267524723675e+01 1.4297291844103881e+01 0.0000000000000000e+00  2.1102346946952586e+01 1.4827530871232740e+01 0.0000000000000000e+00  2.2618544446372393e+01 1.5339576413004142e+01 0.0000000000000000e+00  2.4081917449222189e+01 1.5317751047120671e+01 0.0000000000000000e+00  2.5429475573071517e+01 1.5463688269181114e+01 0.0000000000000000e+00  2.6605551515362411e+01 1.4258023743884086e+01 0.0000000000000000e+00  2.7578264880586897e+01 1.3532362508185484e+01 0.0000000000000000e+00  2.8330327302216471e+01 1.0726632747576767e+01 0.0000000000000000e+00  2.8865873398256543e+01 8.8360360427709193e+00 0.0000000000000000e+00  2.9198553933123609e+01 4.5409717529347926e+00 0.0000000000000000e+00  2.9368628176396502e+01 1.0630422557442645e+00 0.0000000000000000e+00  2.9393932744423040e+01 1.8678300229380107e-03 0.0000000000000000e+00  2.9344487041619942e+01 6.9736433020732287e+00 0.0000000000000000e+00  2.9393914003826058e+01 -1.8402697679060110e-03 0.0000000000000000e+00  2.9151841514378617e+01 -3.9097511260344342e-01 0.0000000000000000e+00  2.9080561973926226e+01 -3.5783597331835639e+00 0.0000000000000000e+00  1.9941777239347491e+01 -1.7822567958250556e+01 0.0000000000000000e+00  2.0721295736753675e+01 -1.7134125912996520e+01 0.0000000000000000e+00  1.7851884585828255e+01 -2.0056063969661455e+01 0.0000000000000000e+00  1.7221712082030312e+01 -1.9347215984589273e+01 0.0000000000000000e+00  1.5679162985950178e+01 -1.9138024471849644e+01 0.0000000000000000e+00  1.4601879213732415e+01 -1.7786482875137512e+01 0.0000000000000000e+00  1.3434011527962605e+01 -1.6449135066881436e+01 0.0000000000000000e+00  1.2441091246739525e+01 -1.5088009983611549e+01 0.0000000000000000e+00  1.1232631849964916e+01 -1.4105060673047028e+01 0.0000000000000000e+00  1.0393514026971054e+01 -1.2726057790887564e+01 0.0000000000000000e+00  9.7242649988393701e+00 -1.1346714248951466e+01 0.0000000000000000e+00  8.9851759953679302e+00 -1.0208310523599026e+01 0.0000000000000000e+00  8.2893463951887068e+00 -9.1579968605344337e+00 0.0000000000000000e+00  7.6406966260122173e+00 -8.2490081962667627e+00 0.0000000000000000e+00  7.0026929121104660e+00 -7.4271938330799943e+00 0.0000000000000000e+00  6.4299271071796626e+00 -6.6244928234500575e+00 0.0000000000000000e+00  5.9300227635481599e+00 -5.8823710170607466e+00 0.0000000000000000e+00  5.4657260062291968e+00 -5.1307263625774109e+00 0.0000000000000000e+00  5.0619638862494094e+00 -4.4360668518226465e+00 0.0000000000000000e+00  4.7281965448131009e+00 -3.6951923657655743e+00 0.0000000000000000e+00  4.4277262056706004e+00 -3.0922006595154117e+00 0.0000000000000000e+00  4.1801115000925879e+00 -2.3325235447717110e+00 0.0000000000000000e+00  3.9828522195288611e+00 -1.9399411102918800e+00 0.0000000000000000e+00  3.8201731801151486e+00 -1.0948978155420044e+00 0.0000000000000000e+00  3.6858891773247495e+00 -1.0174046251807976e+00 0.0000000000000000e+00  3.5839097298003599e+00 -2.1766157333748148e-01 0.0000000000000000e+00  3.4801025803160002e+00 1.9572088019327891e+00 0.0000000000000000e+00  3.4359138387820609e+00 4.3426002379679467e+00 0.0000000000000000e+00  3.0458911622397924e+00 5.0850460712158005e+00 0.0000000000000000e+00  3.8660560738062366e+00 4.5229601385909577e+00 0.0000000000000000e+00  4.3444700615213723e+00 5.3276508983334789e+00 0.0000000000000000e+00  4.7789289216625779e+00 5.4827883395117665e+00 0.0000000000000000e+00  5.3361972556531700e+00 6.1859665124675756e+00 0.0000000000000000e+00  6.0235491056947987e+00 6.7906778242374370e+00 0.0000000000000000e+00  6.6302588941828633e+00 7.3608617343063409e+00 0.0000000000000000e+00  7.1500127734871706e+00 7.6672223381983899e+00 0.0000000000000000e+00  7.7973890693059307e+00 8.2046687156607536e+00 0.0000000000000000e+00  8.2924817223515159e+00 8.2345618024150955e+00 0.0000000000000000e+00  8.3186485140313842e+00 7.0693440734760067e+00 0.0000000000000000e+00  9.3457711458285182e+00 7.2576649882209017e+00 0.0000000000000000e+00  6.1894367353602222e+00 1.1311658713581334e+00 0.0000000000000000e+00  1.7268633975780933e+01 1.6379959739205400e+01 0.0000000000000000e+00  1.6909210764425975e+01 1.4449244676962616e+01 0.0000000000000000e+00  1.6932479303016706e+01 1.3014434295860147e+01 0.0000000000000000e+00  1.7390184819126073e+01 1.2352701947870878e+01 0.0000000000000000e+00  1.8233907493494215e+01 1.2102883302621214e+01 0.0000000000000000e+00  1.9365347639456154e+01 1.2266585537270645e+01 0.0000000000000000e+00  2.0690766253077978e+01 1.2633970711788066e+01 0.0000000000000000e+00  2.2118650430114887e+01 1.3117453962111192e+01 0.0000000000000000e+00  2.3559654297160318e+01 1.3182197487045396e+01 0.0000000000000000e+00  2.4937402406589786e+01 1.3510572006773756e+01 0.0000000000000000e+00  2.6187309198687082e+01 1.2567163772092766e+01 0.0000000000000000e+00  2.7257100397983823e+01 1.2156853072832316e+01 0.0000000000000000e+00  2.8111949552025354e+01 9.6813392477203148e+00 0.0000000000000000e+00  2.8743433004301668e+01 8.1295154405494578e+00 0.0000000000000000e+00  2.9147085440697513e+01 4.1198041974143953e+00 0.0000000000000000e+00  2.9361996909849410e+01 9.1866330850635813e-01 0.0000000000000000e+00  2.9397168994610958e+01 2.3696033236169545e-03 0.0000000000000000e+00  2.9330404258909329e+01 7.2228519443748906e+00 0.0000000000000000e+00  2.9397151574805125e+01 -2.3316766964821645e-03 0.0000000000000000e+00  2.9032347975418752e+01 5.2112178290006847e-03 0.0000000000000000e+00  2.8736579048342495e+01 -3.44850548889