<?xml version="1.0"?>
<VTKFile type="UnstructuredGrid"  version="0.1"  >
<UnstructuredGrid>
<Piece  NumberOfPoints="1933" NumberOfCells="3640">
<Points>
<DataArray  type="Float64"  NumberOfComponents="3"  format="ascii">-0.0002579821139889193 0.001539375570582071 0  4.99974204367516 0.001468691225782684 0  4.999848139694506 7.501468796690731 0  -0.0001519272454972298 7.501539408081571 0  9.999742065237839 0.001397897991563026 0  9.999848269059425 7.50139803239499 0  14.99974214055346 0.001326914232076387 0  14.99984849765568 7.501327059505058 0  19.99974234017938 0.001255712394867336 0  19.99984886327647 7.501255861268795 0  24.99974273450855 0.00118429867261364 0  24.99984940523612 7.501184448789963 0  29.99974338992667 0.001112701086415409 0  29.99985016359263 7.501112852416157 0  34.99974436870524 0.00104096246479308 0  34.99985117859091 7.501041116107675 0  39.99974573040343 0.0009691365562743061 0  39.99985249055391 7.500969294194072 0  44.99974753381173 0.0008972862566867005 0  44.99985414012723 7.500897449915948 0  49.99974983903496 0.0008254833476103961 0  49.99985616872834 7.50082565532256 0  54.99975270957281 0.0007538094090582654 0  54.99985861907228 7.500753992268309 0  59.99975621436636 0.0006823577552119672 0  59.99986153566765 7.500682554395157 0  64.99976042983161 0.0006112363845839986 0  64.9998649651824 7.500611450110103 0  69.99976544190524 0.000540572061600252 0  69.99986895657565 7.500540806680791 0  74.9997713481271 0.0004705157773154495 0  74.99987356085312 7.500470775692764 0  79.99977825974773 0.00040124999556906 0  79.99987883024424 7.500401540257506 0  84.99978630379418 0.0003329983056053675 0  84.99988481650503 7.50033332455019 0  89.99979562490421 0.0002660384134471386 0  89.99989156789307 7.500266406517675 0  94.99980638652147 0.0002007198741501004 0  94.99989912414475 7.500201134963754 0  99.99981877059633 0.0001374886940902578 0  99.99990750848494 7.500137952729909 0  104.9998329740909 7.692207415740737e-05 0  104.9999167153011 7.50007742838504 0  109.9998491988857 1.977837110880189e-05 0  109.9999266917242 7.500020299717219 0  114.9998676283688 -3.292979038305967e-05 0  114.9999373111991 7.499967533269867 0  119.9998883773596 -7.982686802766111e-05 0  119.999948337943 7.499920404723728 0  124.9999113888519 -0.0001190111329249026 0  124.9999593848761 7.499880603805212 0  129.999936224671 -0.0001478086397406145 0  129.9999698787419 7.499850361450012 0  134.9999616438533 -0.0001624084085205767 0  134.9999790757439 7.49983257966671 0  139.9999847523928 -0.0001573592631341466 0  139.9999862458293 7.499830907600045 0  144.9999992661373 -0.0001250773991411701 0  144.9999913335641 7.499849672682198 0  149.9999918158233 -5.653908806260688e-05 0  149.9999969228026 7.499893836223513 0  160.0000000000011 1.050806893417863e-18 0  164.999852174492 -0.0001982619481741074 0  164.9999744785261 7.499772777748518 0  160.0000186239918 7.499931295130007 0  169.9997687780138 -0.0003706776042865206 0  169.9999296115036 7.49961466728009 0  174.9997203986611 -0.0005243194541257967 0  174.9998922747443 7.499467546059004 0  179.9996919553355 -0.0006630955563811862 0  179.9998633864456 7.499332162807846 0  184.999675261772 -0.0007900761439354081 0  184.9998418320702 7.49920706666211 0  189.9996657058068 -0.0009077328659292141 0  189.9998261151622 7.499090496861593 0  194.9996606041463 -0.001018002552483158 0  194.9998148709551 7.498980872997929 0  199.9996583447216 -0.001122376811907691 0  199.9998069918356 7.498876893678816 0  204.999657926513 -0.001221999486552099 0  204.9998016214871 7.498777519796819 0  209.999658707058 -0.001317751941520934 0  209.9997981116475 7.498681928878966 0  214.9996602608024 -0.001410320209399428 0  214.9997959751942 7.498589468656663 0  219.9996622976655 -0.001500245218589548 0  219.9997948461608 7.498499617968714 0  224.9996646149341 -0.001587959526985289 0  224.9997944485958 7.498411956103149 0  229.9996670680056 -0.001673814012403547 0  229.999794573283 7.498326139465627 0  234.9996695520485 -0.00175809732720243 0  234.9997950606645 7.498241884007654 0  239.9996719901626 -0.001841050209135319 0  239.9997957883951 7.498158951988822 0  244.9996743255325 -0.001922876144953527 0  244.9997966622827 7.498077141937737 0  249.9996765161071 -0.002003749437471984 0  249.9997976096745 7.497996280957938 0  254.9996785309512 -0.002083821408487372 0  254.9997985746241 7.497916218755981 0  259.9996803477367 -0.002163225246244564 0  259.9997995143503 7.497836822944512 0  264.9996819510799 -0.002242079847516323 0  264.9998003966615 7.497757975305727 0  269.9996833315205 -0.002320492886565386 0  269.9998011981024 7.497679568803037 0  274.9996844850703 -0.002398563246029507 0  274.9998019026509 7.497601505214938 0  279.9996854132922 -0.002476382847695488 0  279.9998025008349 7.497523693348303 0  284.9996861239353 -0.002554037798636935 0  284.9998029891606 7.49744604788476 0  289.9996866321449 -0.00263160857912242 0  289.9998033697295 7.497368489040057 0  294.9996869622752 -0.00270916866864461 0  294.9998036499591 7.497290943394508 0  299.9996871500897 -0.002786780388131981 0  299.9998038423065 7.497213346499301 0  304.9996872446584 -0.002864485526066063 0  304.9998039641771 7.497135648166955 0  309.9996873077807 -0.002942285881350969 0  309.9998040389423 7.497057821621778 0  4.999953850132995 15.00146905392499 0  -4.622724151476243e-05 15.00153949214988 0  9.999953991912184 15.00139835641864 0  14.99995423239763 15.0013274011043 0  19.99995459670393 15.00125620064443 0  24.99995510667979 15.00118478070378 0  29.99995578335001 15.00111317859708 0  34.99995664770257 15.00104144146162 0  39.99995772078245 15.00096962496532 0  44.99995902351934 15.00089779283669 0  49.99996057644235 15.00082601724942 0  54.99996239930375 15.00075438003857 0  59.99996451056693 15.00068297475059 0  64.99996692668269 15.00061190958291 0  69.99996966104624 15.0005413113393 0  74.99997272250894 15.00047133060973 0  79.99997611328587 15.00040214847935 0  84.99997982608078 15.00033398518466 0  89.99998384023732 15.00026711126394 0  94.9999881167702 15.00020186187951 0  99.99999259225933 15.00013865508152 0  104.9999971719797 15.00007801472905 0  110.0000017234299 15.0000205983497 0  115.0000060730787 14.9999672288897 0  120.0000100122278 14.99991892602169 0  125.000013323347 14.99987692529251 0  130.0000158470577 14.99984265762865 0  135.0000176222426 14.99981762892777 0  140.0000191430718 14.9998030705734 0  145.0000217652567 14.99979907328814 0  150.0000281729667 14.99980245650813 0  165.0000471899145 14.99969348457507 0  160.0000542679053 14.99981015355763 0  170.0000316358108 14.99956625009605 0  175.0000128029566 14.99943817304045 0  179.999994254463 14.99931412375765 0  184.9999777031975 14.9991957708369 0  189.9999637339991 14.99908326169813 0  194.9999523534224 14.99897612763236 0  199.9999433110927 14.99887370837885 0  204.9999362692627 14.99877533564521 0  209.9999308852333 14.9986804034058 0  214.9999268470909 14.99858838743929 0  219.9999238857644 14.99849884361739 0  224.9999217758524 14.99841139848568 0  229.9999203316731 14.99832573807953 0  234.9999194017638 14.99824159737181 0  239.9999188633065 14.99815875114678 0  244.9999186171084 14.99807700641021 0  249.9999185833359 14.99799619618526 0  254.9999186979937 14.9979161744694 0  259.9999189100792 14.99783681213495 0  264.9999191792948 14.99775799358896 0  269.9999194742226 14.9976796140539 0  274.999919770857 14.99760157737359 0  279.999920051403 14.99752379429344 0  284.999920303288 14.99744618120219 0  289.9999205183131 14.99736865934651 0  294.9999206920066 14.99729115450432 0  299.9999208233023 14.99721359694109 0  304.9999209149814 14.99713592093317 0  309.9999209757171 14.99705806158701 0  5.000059085453007 22.50146960555165 0  5.900762052740705e-05 22.50153986046463 0  10.00005920858164 22.50139898229157 0  15.00005940421927 22.50132804348346 0  20.00005968905833 22.50125683393355 0  25.00006007399503 22.50118539799767 0  30.00006056694463 22.501113783198 0  35.00006117420522 22.50104204185228 0  40.00006190089292 22.50097023194885 0  45.00006275082213 22.50089841794385 0  50.00006372605019 22.50082667182954 0  55.00006482619025 22.50075507465638 0  60.00006604752524 22.50068371862388 0  65.00006738191468 22.50061270984129 0  70.00006881546634 22.50054217187018 0  75.0000703269441 22.50047225018654 0  80.00007188590563 22.50040311772158 0  85.00007345061134 22.50033498165171 0  90.00007496585535 22.50026809157746 0  95.00007636105764 22.50020274912044 0  100.0000775492834 22.50013931868843 0  105.0000784283968 22.50007823856603 0  110.0000788863966 22.50002003030908 0  115.0000788142002 22.4999653022029 0  120.000078130709 22.49991473853553 0  125.0000768265733 22.49986905949437 0  130.0000750334549 22.49982892507293 0  135.0000731216988 22.49979473902617 0  140.0000718140696 22.49976628658943 0  145.0000722621135 22.49974212566724 0  150.0000759401948 22.49971871842497 0  165.0001088777366 22.49960552664768 0  160.0000985586543 22.49969693737421 0  170.0001110777113 22.49950208398737 0  175.0001074584492 22.49939299615248 0  180.0001004565725 22.4992827616411 0  185.000091988783 22.4991740320701 0  190.0000833148167 22.49906810788237 0  195.0000751593654 22.49896546178998 0  200.000067879508 22.4988661138468 0  205.0000616033682 22.49876986187917 0  210.0000563274049 22.49867641155627 0  215.0000519790684 22.49858544514832 0  220.0000484548632 22.4984966552563 0  225.0000456422994 22.49840975944127 0  230.0000434318078 22.49832450489248 0  235.0000417226474 22.49824066818378 0  240.0000404253378 22.4981580528254 0  245.0000394621731 22.49807648601006 0  250.0000387667314 22.49799581524466 0  255.0000382829208 22.49791590518332 0  260.0000379638388 22.49783663478604 0  265.0000377706221 22.49775789483363 0  270.0000376713389 22.49767958578753 0  275.0000376399674 22.4976016159667 0  280.0000376554601 22.49752390000418 0  285.0000377009018 22.49744635752727 0  290.0000377627839 22.49736891195766 0  295.0000378304679 22.49729148920757 0  300.00
[...]
<PointData  Vectors="v"> 
<DataArray  type="Float64"  Name="v"  NumberOfComponents="3" format="ascii">1.5803101920095797e+00 -5.7323628158414746e+00 0.0000000000000000e+00  1.1460703443986104e+00 -5.5677217522627256e+00 0.0000000000000000e+00  8.4496091343515389e-01 -4.9165177391185741e+00 0.0000000000000000e+00  1.1769803463064139e+00 -5.2349407749816068e+00 0.0000000000000000e+00  5.6650913055325836e-01 -6.2416608162357807e+00 0.0000000000000000e+00  4.1092819582411361e-01 -5.3732056274092557e+00 0.0000000000000000e+00  -5.8894903673473407e-03 -7.3257206864763162e+00 0.0000000000000000e+00  -1.6768908305951924e-01 -6.4684263909653978e+00 0.0000000000000000e+00  -5.6303437781657051e-01 -7.9573384507110978e+00 0.0000000000000000e+00  -7.3852076970924474e-01 -7.1237086240122682e+00 0.0000000000000000e+00  -1.2346169452744749e+00 -9.0169359678297543e+00 0.0000000000000000e+00  -1.2934264456076587e+00 -8.0124177561544023e+00 0.0000000000000000e+00  -1.8121747251248594e+00 -9.7024881842463486e+00 0.0000000000000000e+00  -1.9616790550401619e+00 -8.8395742065488179e+00 0.0000000000000000e+00  -1.9674872065541789e+00 -9.8008361990606971e+00 0.0000000000000000e+00  -2.5350793461054106e+00 -9.5722940347463545e+00 0.0000000000000000e+00  -2.9459167665126675e+00 -1.1011424943168500e+01 0.0000000000000000e+00  -2.6853418339478941e+00 -9.5491402372862044e+00 0.0000000000000000e+00  1.4472222786163369e-01 -6.1337838634272313e+00 0.0000000000000000e+00  -3.6574226984799103e+00 -1.0775544626266305e+01 0.0000000000000000e+00  -9.4318253410259132e+00 -1.9997655343660433e+01 0.0000000000000000e+00  -5.5941591616338959e-01 -5.6405689595939625e+00 0.0000000000000000e+00  -8.3846997551395273e+00 -1.7477319089084386e+01 0.0000000000000000e+00  -1.0128363167756230e+01 -1.9055770250940370e+01 0.0000000000000000e+00  -8.2548379022514382e+00 -1.6248302961814016e+01 0.0000000000000000e+00  -9.0719314240580911e+00 -1.6452969171766895e+01 0.0000000000000000e+00  -8.7906694215407004e+00 -1.6025970177068380e+01 0.0000000000000000e+00  -8.9304203213833109e+00 -1.5234197608096077e+01 0.0000000000000000e+00  -9.8595550546382196e+00 -1.6614312035268966e+01 0.0000000000000000e+00  -9.4524854601362449e+00 -1.5025344592631807e+01 0.0000000000000000e+00  -1.1285883787915719e+01 -1.7677240474571246e+01 0.0000000000000000e+00  -1.0504447544346212e+01 -1.5553649092133600e+01 0.0000000000000000e+00  -1.2977183301871513e+01 -1.8998627802162197e+01 0.0000000000000000e+00  -1.1911603648138007e+01 -1.6480343505340134e+01 0.0000000000000000e+00  -1.4849903455727455e+01 -2.0591549988359045e+01 0.0000000000000000e+00  -1.3581452973918559e+01 -1.7803438366235476e+01 0.0000000000000000e+00  -1.6820425832498785e+01 -2.2078640233803323e+01 0.0000000000000000e+00  -1.5429098529725339e+01 -1.9145553376685051e+01 0.0000000000000000e+00  -1.8819288117138335e+01 -2.3476787147964369e+01 0.0000000000000000e+00  -1.7372378079494069e+01 -2.0504536983291562e+01 0.0000000000000000e+00  -2.0782267476176475e+01 -2.4633709580551020e+01 0.0000000000000000e+00  -1.9340822677008738e+01 -2.1717301901948815e+01 0.0000000000000000e+00  -2.2633769154451130e+01 -2.5464752120724935e+01 0.0000000000000000e+00  -2.1270258999403470e+01 -2.2718491602169586e+01 0.0000000000000000e+00  -2.4313217125630793e+01 -2.5577285431639854e+01 0.0000000000000000e+00  -2.3084209608900416e+01 -2.3091098351361975e+01 0.0000000000000000e+00  -2.5779769573109302e+01 -2.5511866591706596e+01 0.0000000000000000e+00  -2.4725078336416903e+01 -2.3349863142175803e+01 0.0000000000000000e+00  -2.6984712289805373e+01 -2.4059269749808884e+01 0.0000000000000000e+00  -2.6145541573903810e+01 -2.2288309312216686e+01 0.0000000000000000e+00  -2.7930335755032349e+01 -2.2608868621502765e+01 0.0000000000000000e+00  -2.7307147574966354e+01 -2.1236388509020756e+01 0.0000000000000000e+00  -2.8598961531102564e+01 -1.9167153136366622e+01 0.0000000000000000e+00  -2.8197061348149052e+01 -1.8202865927511464e+01 0.0000000000000000e+00  -2.9041246430076164e+01 -1.5777247352412594e+01 0.0000000000000000e+00  -2.8819322017424284e+01 -1.5169880025595432e+01 0.0000000000000000e+00  -2.9266245269324710e+01 -1.0255011907879258e+01 0.0000000000000000e+00  -2.9194371247534352e+01 -9.9558511226512501e+00 0.0000000000000000e+00  -2.9368184683118205e+01 -3.6953594286023681e+00 0.0000000000000000e+00  -2.9372131336657578e+01 -3.6112790461896389e+00 0.0000000000000000e+00  -2.9389262613238174e+01 -2.9236337761314404e-11 0.0000000000000000e+00  -2.9389474442809913e+01 -2.1072370523669839e-04 0.0000000000000000e+00  -2.9389262614600984e+01 1.8880549567956889e-19 0.0000000000000000e+00  -2.1018582531302009e+01 1.1486122614501086e+01 0.0000000000000000e+00  -2.9366977046453233e+01 -1.0320233686281914e+00 0.0000000000000000e+00  -2.9389472732796005e+01 2.1399520010873487e-04 0.0000000000000000e+00  -2.0624450268406498e+01 2.0691165562689402e+01 0.0000000000000000e+00  -2.1047364935509354e+01 2.0167739976521329e+01 0.0000000000000000e+00  -1.7602084966445485e+01 2.7677936241242392e+01 0.0000000000000000e+00  -2.0712850705703342e+01 2.3186090524327458e+01 0.0000000000000000e+00  -1.6451193961723941e+01 2.9107770504729299e+01 0.0000000000000000e+00  -1.7747960979202610e+01 2.7432686599783118e+01 0.0000000000000000e+00  -1.4657196833714508e+01 3.0549694972509602e+01 0.0000000000000000e+00  -1.6650622260796695e+01 2.7903692917297246e+01 0.0000000000000000e+00  -1.3284175645829736e+01 2.9744048798325483e+01 0.0000000000000000e+00  -1.4907771965080117e+01 2.7730262567824621e+01 0.0000000000000000e+00  -1.1897814887115013e+01 2.8691792239477838e+01 0.0000000000000000e+00  -1.3585332311106287e+01 2.6654252073027486e+01 0.0000000000000000e+00  -1.0681625623798295e+01 2.6799419789646791e+01 0.0000000000000000e+00  -1.2246638118184263e+01 2.5017761302545630e+01 0.0000000000000000e+00  -9.3118754468180818e+00 2.4956737510921485e+01 0.0000000000000000e+00  -1.1076699628218542e+01 2.2942420666244264e+01 0.0000000000000000e+00  -8.2827863475570780e+00 2.2745036033704114e+01 0.0000000000000000e+00  -9.7521813078794359e+00 2.1240857315644789e+01 0.0000000000000000e+00  -7.4086589897484965e+00 2.0661632076695213e+01 0.0000000000000000e+00  -8.7667145683429588e+00 1.9389071681398296e+01 0.0000000000000000e+00  -6.4790087185735148e+00 1.8863948784448240e+01 0.0000000000000000e+00  -7.9350504828914028e+00 1.7507175579551461e+01 0.0000000000000000e+00  -5.6129363789837470e+00 1.7220266084391962e+01 0.0000000000000000e+00  -7.0471148792586229e+00 1.5957827594422515e+01 0.0000000000000000e+00  -4.8126807935664191e+00 1.5774861261827605e+01 0.0000000000000000e+00  -6.2215731778840473e+00 1.4610634623429620e+01 0.0000000000000000e+00  -4.0544680951943413e+00 1.4452040915270146e+01 0.0000000000000000e+00  -5.4609399133219059e+00 1.3350036880401674e+01 0.0000000000000000e+00  -3.3780256087112503e+00 1.3188178029400339e+01 0.0000000000000000e+00  -4.7416594106252417e+00 1.2208120023728384e+01 0.0000000000000000e+00  -2.7850770959002280e+00 1.2015825483651733e+01 0.0000000000000000e+00  -4.1032916747245052e+00 1.1160496142924327e+01 0.0000000000000000e+00  -2.2428915947384001e+00 1.0884477511526692e+01 0.0000000000000000e+00  -3.5476706788943977e+00 1.0104732424702851e+01 0.0000000000000000e+00  -1.7691360480031166e+00 9.7791582330882658e+00 0.0000000000000000e+00  -3.0423195724179499e+00 9.1014541537176576e+00 0.0000000000000000e+00  -1.3663476784711628e+00 8.7201910168031880e+00 0.0000000000000000e+00  -2.6046685175880930e+00 8.1486508431366982e+00 0.0000000000000000e+00  -1.0080192313240244e+00 7.6639600852146783e+00 0.0000000000000000e+00  -2.2376069702078270e+00 7.1585087022552072e+00 0.0000000000000000e+00  -7.0516584933082560e-01 6.6401670356917686e+00 0.0000000000000000e+00  -1.9143179046265217e+00 6.2178140330215177e+00 0.0000000000000000e+00  -4.6169200035548630e-01 5.6314783954876697e+00 0.0000000000000000e+00  -1.6464972494890926e+00 5.2974120868650472e+00 0.0000000000000000e+00  -2.5950742805493959e-01 4.6614614739409124e+00 0.0000000000000000e+00  -1.4368688339752367e+00 4.3898467136175636e+00 0.0000000000000000e+00  -1.0720186709585626e-01 3.6912688575555692e+00 0.0000000000000000e+00  -1.2695752788901453e+00 3.4927289496213141e+00 0.0000000000000000e+00  2.2908996894439129e-03 2.8532084301528884e+00 0.0000000000000000e+00  -1.1494780934117395e+00 2.7211405965139805e+00 0.0000000000000000e+00  7.1264661854746905e-02 1.9681281360370573e+00 0.0000000000000000e+00  -1.0757722376897663e+00 1.8924381872468221e+00 0.0000000000000000e+00  1.3782463728211194e-01 1.3348210976254595e+00 0.0000000000000000e+00  -1.0358372665017901e+00 1.2695104810545816e+00 0.0000000000000000e+00  2.0934557589748023e-01 7.1269007540770701e-01 0.0000000000000000e+00  -1.0096739386205009e+00 6.2753977855290977e-01 0.0000000000000000e+00  3.7248703521780396e-01 -1.7141155790626530e-01 0.0000000000000000e+00  -9.5431964259967572e-01 -3.6986695977833589e-01 0.0000000000000000e+00  1.2589002906997382e-01 -4.4176088099900293e+00 0.0000000000000000e+00  4.8546664999674288e-01 -4.6975491744767641e+00 0.0000000000000000e+00  -2.0738553217022782e-01 -4.7213829526722693e+00 0.0000000000000000e+00  -6.4248848775729206e-01 -5.6003181032017855e+00 0.0000000000000000e+00  -1.2213630154645867e+00 -6.2678126542493287e+00 0.0000000000000000e+00  -1.7914079708136794e+00 -7.1808504610483084e+00 0.0000000000000000e+00  -2.3444513207799123e+00 -7.8390635030093403e+00 0.0000000000000000e+00  -3.0093000124247227e+00 -8.7151850022862849e+00 0.0000000000000000e+00  -3.5773676188638692e+00 -9.3272991558084222e+00 0.0000000000000000e+00  -3.7206989344795804e+00 -9.3227274040019417e+00 0.0000000000000000e+00  -4.6833524752981823e+00 -1.0294224654172364e+01 0.0000000000000000e+00  -1.5748261491545132e+00 -4.7069019213287762e+00 0.0000000000000000e+00  -1.1137612872974573e+01 -1.8041026149904901e+01 0.0000000000000000e+00  -1.0074051387224571e+01 -1.5453828729290668e+01 0.0000000000000000e+00  -9.9196826033861356e+00 -1.4250935847164310e+01 0.0000000000000000e+00  -1.0425029877035398e+01 -1.3988770010208196e+01 0.0000000000000000e+00  -1.1454547490967640e+01 -1.4385287890065268e+01 0.0000000000000000e+00  -1.2834436594678973e+01 -1.5316162684255682e+01 0.0000000000000000e+00  -1.4472904135201921e+01 -1.6395652740054580e+01 0.0000000000000000e+00  -1.6283554105926758e+01 -1.7614413148252371e+01 0.0000000000000000e+00  -1.8184285994412871e+01 -1.8790892840464508e+01 0.0000000000000000e+00  -2.0105750388416858e+01 -1.9856360214166909e+01 0.0000000000000000e+00  -2.1980897947297432e+01 -2.0404385664959559e+01 0.0000000000000000e+00  -2.3734818121729543e+01 -2.0927581770543568e+01 0.0000000000000000e+00  -2.5308507958890246e+01 -2.0198780187675617e+01 0.0000000000000000e+00  -2.6655783249092899e+01 -1.9544825959006221e+01 0.0000000000000000e+00  -2.7733535661309741e+01 -1.6912189002261169e+01 0.0000000000000000e+00  -2.8539022608591040e+01 -1.4304431760113800e+01 0.0000000000000000e+00  -2.9056998410078773e+01 -9.4332570348879550e+00 0.0000000000000000e+00  -2.9341483301264098e+01 -3.4392971347229402e+00 0.0000000000000000e+00  -2.9389987339595162e+01 -4.0237796334971693e-04 0.0000000000000000e+00  -2.9328824033925969e+01 -1.1917153614008131e+00 0.0000000000000000e+00  -2.9389984127278929e+01 4.3344383283706216e-04 0.0000000000000000e+00  -2.9172578174108562e+01 7.7083994240111373e+00 0.0000000000000000e+00  -2.0917774204270597e+01 2.2736601695879745e+01 0.0000000000000000e+00  -2.0664161046777973e+01 2.3027560709615695e+01 0.0000000000000000e+00  -1.7767571201287652e+01 2.6298811190997792e+01 0.0000000000000000e+00  -1.6736107984162416e+01 2.5148606100856178e+01 0.0000000000000000e+00  -1.5049643913634572e+01 2.4706145254633398e+01 0.0000000000000000e+00  -1.3782867799689605e+01 2.3039673711003033e+01 0.0000000000000000e+00  -1.2494091527163397e+01 2.1215945501497938e+01 0.0000000000000000e+00  -1.1371277168206879e+01 1.9281724269740419e+01 0.0000000000000000e+00  -1.0091707449477260e+01 1.7936928314612533e+01 0.0000000000000000e+00  -9.1491632298927019e+00 1.6284183539323720e+01 0.0000000000000000e+00  -8.3584130089030531e+00 1.4650370128456807e+01 0.0000000000000000e+00  -7.5104265834106139e+00 1.3395585613416097e+01 0.0000000000000000e+00  -6.7232940233069041e+00 1.2231349443853642e+01 0.0000000000000000e+00  -5.9996192485903324e+00 1.1151103956600563e+01 0.0000000000000000e+00  -5.3162816329116840e+00 1.0223996314176384e+01 0.0000000000000000e+00  -4.7126464089001585e+00 9.2915721680394494e+00 0.0000000000000000e+00  -4.1906029333412027e+00 8.3632999389021236e+00 0.0000000000000000e+00  -3.7179713352677690e+00 7.5114967966369157e+00 0.0000000000000000e+00  -3.3121617150392701e+00 6.6265350553867268e+00 0.0000000000000000e+00  -2.9760209097375752e+00 5.7514155066235491e+00 0.0000000000000000e+00  -2.6831253213861235e+00 4.9133847776638362e+00 0.0000000000000000e+00  -2.4448167432622725e+00 4.0933369539380795e+00 0.0000000000000000e+00  -2.2643942950610985e+00 3.2583386205547233e+00 0.0000000000000000e+00  -2.1251779916935325e+00 2.5591412636555537e+00 0.0000000000000000e+00  -2.0336424289809392e+00 1.7961452300184968e+00 0.0000000000000000e+00  -1.9859657562828323e+00 1.2296415644254461e+00 0.0000000000000000e+00  -1.9746253444243203e+00 5.9845520659801787e-01 0.0000000000000000e+00  -1.9724659393374748e+00 -4.3117542691421235e-01 0.0000000000000000e+00  -1.1237002427931784e+00 -3.8763015425217295e+00 0.0000000000000000e+00  -8.0210052617254413e-01 -4.2181416361385260e+00 0.0000000000000000e+00  -1.4863428107450458e+00 -4.2185598774845969e+00 0.0000000000000000e+00  -1.8242805937971700e+00 -4.9454202765269661e+00 0.0000000000000000e+00  -2.2629297093430947e+00 -5.3978479558733889e+00 0.0000000000000000e+00  -2.8445959666598482e+00 -6.3252162360084272e+00 0.0000000000000000e+00  -3.4159610310730066e+00 -7.0107309012220842e+00 0.0000000000000000e+00  -3.9677333671671819e+00 -7.7207669077486338e+00 0.0000000000000000e+00  -4.6287814120739617e+00 -8.4804818675539195e+00 0.0000000000000000e+00  -5.1897396690625595e+00 -9.1160718251598620e+00 0.0000000000000000e+00  -5.3214494413173083e+00 -8.8613660385841548e+00 0.0000000000000000e+00  -6.2689670050708131e+00 -9.3808869239645940e+00 0.0000000000000000e+00  -3.1491446977104443e+00 -3.7014513863510570e+00 0.0000000000000000e+00  -1.2710969064085614e+01 -1.7051069806320594e+01 0.0000000000000000e+00  -1.1645389186300507e+01 -1.4493092407957663e+01 0.0000000000000000e+00  -1.1478465347256261e+01 -1.3247781256255591e+01 0.0000000000000000e+00  -1.1961281218926542e+01 -1.2864636208806830e+01 0.0000000000000000e+00  -1.2959146980456037e+01 -1.3276801319764584e+01 0.0000000000000000e+00  -1.4298710044229820e+01 -1.3974972543462011e+01 0.0000000000000000e+00  -1.5887125739227800e+01 -1.4941626936422688e+01 0.0000000000000000e+00  -1.7638831539310022e+01 -1.5990230326283793e+01 0.0000000000000000e+00  -1.9471267659787287e+01 -1.7032952179610152e+01 0.0000000000000000e+00  -2.1312206848796187e+01 -1.7656668658418983e+01 0.0000000000000000e+00  -2.3096574773094126e+01 -1.8374045358524022e+01 0.0000000000000000e+00  -2.4744857611021654e+01 -1.7920644086272752e+01 0.0000000000000000e+00  -2.6201715374605470e+01 -1.7623562232918928e+01 0.0000000000000000e+00  -2.7412327660504914e+01 -1.5393867371547707e+01 0.0000000000000000e+00  -2.8346501847749526e+01 -1.3227968997454566e+01 0.0000000000000000e+00  -2.8977779946160442e+01 -8.7568148059642468e+00 0.0000000000000000e+00  -2.9334549750409089e+01 -3.1973722062032413e+00 0.0000000000000000e+00  -2.9390789085610301e+01 -5.7641436416048890e-04 0.0000000000000000e+00  -2.9304827280959241e+01 -1.5045869349896430e+00 0.0000000000000000e+00  -2.9390786143613116e+01 6.2798879141475025e-04 0.0000000000000000e+00  -2.8937339828341887e+01 7.4165053199638118e+00 0.0000000000000000e+00  -2.8768866899950975e+01 1.0435726785998613e+01 0.0000000000000000e+00  -2.0626176126934240e+01 2.2748363153567013e+01 0.0000000000000000e+00  -2.0503061066797493e+01 2.2034848248721410e+01 0.0000000000000000e+00  -1.7716059991397021e+01 2.3681210384065544e+01 0.0000000000000000e+00  -1.6783037989155350e+01 2.2241596991091338e+01 0.0000000000000000e+00  -1.5182353736857696e+01 2.1202258983597311e+01 0.0000000000000000e+00  -1.3994722557309585e+01 1.9338789666072977e+01 0.0000000000000000e+00  -1.2776447869072285e+01 1.7649830448922849e+01 0.0000000000000000e+00  -1.1719721846370337e+01 1.6066333952752196e+01 0.0000000000000000e+00  -1.0501775610147032e+01 1.4917245473900323e+01 0.0000000000000000e+00  -9.6177322099925693e+00 1.3508794779627555e+01 0.0000000000000000e+00  -8.8832710658790379e+00 1.2166739010192757e+01 0.0000000000000000e+00  -8.0895398189921934e+00 1.1092278602217560e+01 0.0000000000000000e+00  -7.3544110851914128e+00 1.0105564231422848e+01 0.0000000000000000e+00  -6.6808461690762417e+00 9.2374688443848125e+00 0.0000000000000000e+00  -6.0456223971990113e+00 8.4233261282239464e+00 0.0000000000000000e+00  -5.4881915715971115e+00 7.6159826680145368e+00 0.0000000000000000e+00  -5.0106324133857054e+00 6.8371971391197803e+00 0.0000000000000000e+00  -4.5809609907336162e+00 6.0512782146646416e+00 0.0000000000000000e+00  -4.2164952092906347e+00 5.2798715529687561e+00 0.0000000000000000e+00  -3.9206319536970748e+00 4.5053904850270605e+00 0.0000000000000000e+00  -3.6664444874120150e+00 3.7671417156902831e+00 0.0000000000000000e+00  -3.4663105061594850e+00 3.0169246493416497e+00 0.0000000000000000e+00  -3.3219935070855588e+00 2.3809211777508286e+00 0.0000000000000000e+00  -3.2195050384659534e+00 1.6848384231151992e+00 0.0000000000000000e+00  -3.1604231242771119e+00 1.1900298812129591e+00 0.0000000000000000e+00  -3.1501789840834324e+00 6.0140670171938182e-01 0.0000000000000000e+00  -3.1622140642388370e+00 -4.0075125701728564e-01 0.0000000000000000e+00  -2.4367835006190259e+00 -3.3910781837557438e+00 0.0000000000000000e+00  -2.1513348304061122e+00 -3.7940860496712605e+00 0.0000000000000000e+00  -2.7628282064914189e+00 -3.6697406603461831e+00 0.0000000000000000e+00  -3.1333929366101803e+00 -4.4324613946907681e+00 0.0000000000000000e+00  -3.4801277075800301e+00 -4.7338290831657330e+00 0.0000000000000000e+00  -3.9277213073804695e+00 -5.4474211429273041e+00 0.0000000000000000e+00  -4.5170761058383979e+00 -6.1493722705676550e+00 0.0000000000000000e+00  -5.0942983632710321e+00 -6.8909662386442116e+00 0.0000000000000000e+00  -5.6489687794998247e+00 -7.4895152608712863e+00 0.0000000000000000e+00  -6.3085830203869007e+00 -8.2785139685631908e+00 0.0000000000000000e+00  -6.8627390525904275e+00 -8.6722711277740743e+00 0.0000000000000000e+00  -6.9826191536655440e+00 -7.9698758878596765e+00 0.0000000000000000e+00  -7.9173868328262387e+00 -8.3852584327736874e+00 0.0000000000000000e+00  -4.7972888274907790e+00 -2.6993075309556915e+00 0.0000000000000000e+00  -1.4377185417425336e+01 -1.6079522074464837e+01 0.0000000000000000e+00  -1.3326708918496429e+01 -1.3497650689595009e+01 0.0000000000000000e+00  -1.3159715513084468e+01 -1.2149252442166327e+01 0.0000000000000000e+00  -1.3629410033913915e+01 -1.1798916970732515e+01 0.0000000000000000e+00  -1.4600017599213732e+01 -1.1992123043521500e+01 0.0000000000000000e+00  -1.5901005178616522e+01 -1.2595036067186141e+01 0.0000000000000000e+00  -1.7438659343983616e+01 -1.3406995674831506e+01 0.0000000000000000e+00  -1.9126557974894368e+01 -1.4338330298679216e+01 0.0000000000000000e+00  -2.0881205803290584e+01 -1.4959245482219552e+01 0.0000000000000000e+00  -2.2630018361944053e+01 -1.5776002083976897e+01 0.0000000000000000e+00  -2.4301873388050822e+01 -1.5534971337393481e+01 0.0000000000000000e+00  -2.5821968639595454e+01 -1.5548624232082100e+01 0.0000000000000000e+00  -2.7122801871483222e+01 -1.3689747807285841e+01 0.0000000000000000e+00  -2.8164564675055967e+01 -1.1980309319540416e+01 0.0000000000000000e+00  -2.8887972918634233e+01 -7.9334091369086339e+00 0.0000000000000000e+00  -2.9317098649108235e+01 -2.8883268879833266e+00 0.0000000000000000e+00  -2.9391849810