<?xml version="1.0"?>
<VTKFile type="UnstructuredGrid"  version="0.1"  >
<UnstructuredGrid>
<Piece  NumberOfPoints="1933" NumberOfCells="3640">
<Points>
<DataArray  type="Float64"  NumberOfComponents="3"  format="ascii">0.2935822006664397 0.001944072684536809 0  5.293582223215467 0.001860015060169745 0  5.293708388226671 7.501860117966396 0  0.293708322148419 7.50194409805387 0  10.29358223719028 0.001775846850643182 0  10.29370851847059 7.501775981336616 0  15.29358230146699 0.001691476935475456 0  15.29370875167685 7.501691623827834 0  20.29358248967744 0.001606870642605645 0  20.29370912810995 7.501607022063307 0  25.29358287638846 0.001522028908265107 0  25.29370969008808 7.501522182196322 0  30.29358353274047 0.001436975865299721 0  30.29371048118076 7.501437130876292 0  35.2935845261412 0.001351751411195279 0  35.29371154563577 7.501351909252922 0  40.29358592164989 0.00126640700955403 0  40.29371292828849 7.501266569451771 0  45.29358778400939 0.001181003696840162 0  45.29371467486443 7.501181172914918 0  50.29359017988417 0.001095611675291078 0  50.29371683252447 7.501095790165824 0  55.29359318014457 0.001010311140800209 0  55.29371945052267 7.501010501730152 0  60.29359686216121 0.0009251941840427179 0  60.29372258086988 7.500925400091175 0  65.29360131213468 0.0008403677497903169 0  65.29372627890508 7.500840592684247 0  70.29360662749727 0.0007559577690040731 0  70.29373060367497 7.500756206052669 0  75.29361291942953 0.0006721147129846313 0  75.29373561798711 7.500672391412262 0  80.29362031550789 0.0005890209817849602 0  80.29374138794491 7.50058933202293 0  85.29362896245658 0.0005069007592254026 0  85.29374798168067 7.500507252962874 0  90.29363902887421 0.000426033285907694 0  90.2937554668477 7.500426434174422 0  95.29365070761824 0.0003467709840276876 0  95.29376390621393 7.500347228036334 0  100.2936642171321 0.0002695646169294896 0  100.2937733503928 7.500270083262947 0  105.2936798002367 0.0001949988496271101 0  105.2937838263255 7.500195577687871 0  110.2936977173402 0.0001238434649785113 0  110.2937953196841 7.500124463485252 0  115.2937182279362 5.712851404669658e-05 0  115.2938077490832 7.500057729549481 0  120.2937415480038 -3.743508907070179e-06 0  120.2938209305468 7.499996686729506 0  125.2937677583892 -5.682790197152666e-05 0  125.2938345338438 7.499943081288351 0  130.293796613851 -9.937903066905661e-05 0  130.2938480424372 7.499899237518888 0  135.2938271506714 -0.0001274593691712241 0  135.2938607565698 7.499868216003019 0  140.293856882492 -0.0001353800217975902 0  140.2938719507424 7.499853942276591 0  145.2938801335523 -0.0001150821832744433 0  145.2938814825194 7.499861235404653 0  150.2938844419556 -5.653908777024349e-05 0  150.2938916672307 7.499895943460565 0  160.2938926261471 1.014587192007917e-18 0  165.2937327290108 -0.0002091409467761316 0  165.2938646721142 7.499761043381173 0  160.2939133513198 7.499929155178005 0  170.2936405396059 -0.000393745720473658 0  170.2938152577033 7.499591124220096 0  175.2935855427697 -0.0005604060147683082 0  175.2937738129601 7.499431153538969 0  180.2935520019539 -0.0007126789606627555 0  180.293741359459 7.499282370437798 0  185.2935313109321 -0.000853425814726546 0  185.2937167677215 7.499143569580639 0  190.2935185769803 -0.0009849969455716378 0  190.2936984868393 7.499013125957889 0  195.2935109230977 -0.001109257344144739 0  195.2936850884456 7.498889538782384 0  200.2935065993326 -0.001227654660471335 0  200.2936754040419 7.498771555333989 0  205.2935045036763 -0.001341305004019337 0  205.293668523258 7.498658167183905 0  210.2935039177656 -0.001451071860190282 0  210.2936637514494 7.498548571596029 0  215.2935043577074 -0.00155762963134771 0  215.2936605623127 7.498442129112001 0  220.2935054877245 -0.001661511733886219 0  220.2936585569994 7.498338326841195 0  225.2935070687469 -0.001763146008837272 0  225.2936574320074 7.49823674928384 0  230.2935089268717 -0.001862880551897986 0  230.2936569550153 7.49813705595717 0  235.2935109334016 -0.001961002585749498 0  235.2936569470426 7.498038964465787 0  240.2935129918194 -0.002057752364752815 0  240.2936572693655 7.497942237707011 0  245.2935150290518 -0.002153333550108612 0  245.2936578139282 7.497846674143315 0  250.2935169894656 -0.002247921071607749 0  250.2936584962936 7.497752100328185 0  255.2935188306816 -0.002341667187533195 0  255.2936592504492 7.4976583650868 0  260.2935205206331 -0.002434706239143754 0  260.2936600249672 7.497565334918764 0  265.2935220355496 -0.00252715844345421 0  265.2936607801806 7.497472890316223 0  270.2935233586409 -0.002619132954898154 0  270.2936614861244 7.497380922788288 0  275.2935244793996 -0.002710730333454862 0  275.2936621210641 7.497289332464916 0  280.293525393477 -0.002802044463944321 0  280.2936626704791 7.497198026233206 0  285.2935261031648 -0.002893163852810845 0  285.2936631263917 7.497106916452692 0  290.2935266185154 -0.002984172042520627 0  290.2936634869182 7.497015920421132 0  295.2935269591705 -0.003075146551136073 0  295.2936637559565 7.496924960942463 0  300.2935271567517 -0.003166155105255235 0  300.2936639429019 7.496833968604069 0  305.2935272572549 -0.003257246641809768 0  305.2936640625513 7.496742886690854 0  310.2935273215028 -0.003348431826392067 0  310.2936641360723 7.496651679933287 0  5.293834149694671 15.00186037442864 0  0.2938340719510453 15.00194416631707 0  10.29383429612589 15.00177631350802 0  15.29383454810553 15.00169197875135 0  20.29383493309517 15.00160737790126 0  25.29383547533927 15.00152253277205 0  30.29383619848094 15.00143747766888 0  35.29383712645549 15.00135225735449 0  40.29383828365628 15.0012669255851 0  45.29383969482286 15.00118154451025 0  50.29384138481762 15.00109618497134 0  55.29384337831918 15.00101092767509 0  60.29384569939046 15.00092586524285 0  65.29384837084498 15.00084110519291 0  70.29385141330178 15.00075677398578 0  75.29385484379776 15.00067302235038 0  80.29385867378932 15.00059003221187 0  85.29386290634932 15.00050802566501 0  90.29386753234051 15.00042727658291 0  95.29387252537292 15.00034812560649 0  100.2938778354516 15.00027099939447 0  105.2938833815623 15.00019643502877 0  110.2938890441588 15.00012511014799 0  115.2938946600711 15.00005787823291 0  120.293900025297 14.99999580545925 0  125.2939049164884 14.99994019853436 0  130.2939091507814 14.9998925975899 0  135.2939127164307 14.99985467546691 0  140.2939160197633 14.99982791404602 0  145.2939202868941 14.99981276126329 0  150.2939280463627 14.99980648028776 0  165.2939457226293 14.99967946354539 0  160.2939541091781 14.9998058191193 0  170.2939285431622 14.99954094930272 0  175.2939079003612 14.99940050310654 0  180.2938875193668 14.99926340784216 0  185.2938692189909 14.99913159870763 0  190.2938536404125 14.99900538896301 0  195.293840813711 14.99888441331411 0  200.2938304925181 14.99876807681382 0  205.2938223323594 14.99865575301001 0  210.2938159784744 14.99854686299737 0  215.2938111047228 14.99844090024892 0  220.2938074274246 14.99833743216402 0  225.293804707137 14.99823609270147 0  230.293802745167 14.99813657252003 0  235.2938013782545 14.99803860930262 0  240.2938004730269 14.9979419792236 0  245.2937999209275 14.99784648976759 0  250.2937996338569 14.99775197380943 0  255.2937995405452 14.9976582847672 0  260.2937995835965 14.99756529263359 0  265.2937997170974 14.99747288071524 0  270.2937999046965 14.99738094294884 0  275.2938001180535 14.9972893817026 0  280.2938003355617 14.99719810601248 0  285.2938005412935 14.99710703024009 0  290.2938007240828 14.99701607316234 0  295.2938008767997 14.99692515747878 0  300.2938009959167 14.99683420956107 0  305.2938010817739 14.9967431587163 0  310.2938011403302 14.9966519336219 0  5.293959394357828 22.50186093545932 0  0.2939593155467412 22.50194452021609 0  10.29395952302967 22.50177696363223 0  15.29395973153524 22.50169265482875 0  20.29396003869184 22.50160805134416 0  25.29396045724947 22.50152319532154 0  30.29396099693476 22.50143813238583 0  35.29396166595903 22.50135291324979 0  40.29396247154198 22.50126759455139 0  45.29396341984459 22.50118223961789 0  50.29396451554332 22.5010969195186 0  55.29396576115666 22.50101171459783 0  60.29396715615856 22.50092671660992 0  65.29396869586851 22.50084203156526 0  70.2939703700834 22.50075778340929 0  75.2939721614112 22.50067411868694 0  80.29397404328266 22.50059121237337 0  85.29397597765666 22.5005092750743 0  90.29397791253351 22.50042856178394 0  95.29397977956449 22.50034938230132 0  100.2939814923558 22.50027211316001 0  105.2939829465878 22.50019721038002 0  110.293984023899 22.50012522123121 0  115.2939846027124 22.50005679104569 0  120.2939845808137 22.49999265714979 0  125.2939839162559 22.49993361497377 0  130.2939826939396 22.49988042957589 0  135.2939812220658 22.49983364723203 0  140.2939801485061 22.49979323628227 0  145.293980547074 22.49975796547317 0  150.2939838310509 22.49972448256861 0  165.2940171534655 22.49958916197917 0  160.2940064200905 22.49969065748629 0  170.2940194344384 22.49947455994496 0  175.2940155929219 22.49935342997339 0  180.2940081415026 22.49923050025183 0  185.2939990813227 22.49910862250267 0  190.2939897428303 22.49898924855671 0  195.2939809024713 22.49887295891148 0  200.293972952056 22.49875984836966 0  205.293966041276 22.49864976603444 0  210.2939601787291 22.49854245259894 0  215.2939552975761 22.49843761419377 0  220.2939512958187 22.4983349596077 0  225.2939480598147 22.49823421729173 0  230.2939454772599 22.49813514164541 0  235.293943443811 22.49803751388383 0  240.2939418659848 22.49794114035909 0  245.2939406619726 22.49784584984424 0  250.2939397613362 22.49775149054353 0  255.293939104167 22.49765792719138 0  260.2939386400079 22.49756503839567 0  265.2939383267342 22.49747271427634 0  270.2939381294555 22.49738085440181 0  275.2939380194887 22.49728936600435 0  280.2939379734035 22.49719816244405 0  285.2939379721466 22.49710716187145 0  290.2939380002622 22.49701628599156 0  295.2939380452679 22.49692545871391 0  300.29393809726
[...]
<PointData  Vectors="v"> 
<DataArray  type="Float64"  Name="v"  NumberOfComponents="3" format="ascii">3.6573540960754354e+00 -1.6115931956281058e+00 0.0000000000000000e+00  3.5119999751213355e+00 -1.8358024629677423e+00 0.0000000000000000e+00  2.8946600608740827e+00 -1.6177704944589897e+00 0.0000000000000000e+00  3.0018105685929677e+00 -1.4515984795200048e+00 0.0000000000000000e+00  3.2680433754806577e+00 -2.3476344690254143e+00 0.0000000000000000e+00  2.7492383342983970e+00 -1.9821259205605490e+00 0.0000000000000000e+00  2.9630466229548720e+00 -3.0798756336527302e+00 0.0000000000000000e+00  2.5055806624340362e+00 -2.6228969970479112e+00 0.0000000000000000e+00  2.6051796067367552e+00 -3.7899804916080910e+00 0.0000000000000000e+00  2.2011124512256961e+00 -3.2542334910285602e+00 0.0000000000000000e+00  2.1996740261707362e+00 -4.6307929876997740e+00 0.0000000000000000e+00  1.8441001098408705e+00 -4.0240992288699990e+00 0.0000000000000000e+00  1.8042559347768554e+00 -5.3860796315765871e+00 0.0000000000000000e+00  1.4402721429607737e+00 -4.7948390344039966e+00 0.0000000000000000e+00  1.6320041394561338e+00 -5.8083576558629115e+00 0.0000000000000000e+00  1.0470574003486577e+00 -5.5527553000545256e+00 0.0000000000000000e+00  1.1327818112803176e+00 -6.6711877003742792e+00 0.0000000000000000e+00  8.7769578512113477e-01 -5.9258593409853813e+00 0.0000000000000000e+00  3.0277267278897635e+00 -3.9425927783596051e+00 0.0000000000000000e+00  3.8252875282462323e-01 -6.7889421060051687e+00 0.0000000000000000e+00  -1.3458188549578727e+00 -1.0490975061240231e+01 0.0000000000000000e+00  2.2824324836532219e+00 -3.9360500549325144e+00 0.0000000000000000e+00  2.8614154281296534e-02 -8.1870363277415130e+00 0.0000000000000000e+00  -2.0862808727975475e+00 -1.0254131909522483e+01 0.0000000000000000e+00  3.1587786246193789e-01 -7.5179503781158035e+00 0.0000000000000000e+00  -7.0532411161142905e-01 -7.9566689756641500e+00 0.0000000000000000e+00  -2.0028953071871455e-02 -7.8251554915289789e+00 0.0000000000000000e+00  -4.0903685533945316e-01 -7.3311425076900054e+00 0.0000000000000000e+00  -8.0935690026470397e-01 -8.8099125254040285e+00 0.0000000000000000e+00  -7.3386195805490184e-01 -7.6382286022621591e+00 0.0000000000000000e+00  -1.8670019089207299e+00 -1.0138210719828985e+01 0.0000000000000000e+00  -1.5088470862531480e+00 -8.5654742936706434e+00 0.0000000000000000e+00  -3.1369881585392561e+00 -1.1667411026570688e+01 0.0000000000000000e+00  -2.5499895822420950e+00 -9.7791827604897126e+00 0.0000000000000000e+00  -4.5747141935879512e+00 -1.3357752081602076e+01 0.0000000000000000e+00  -3.8011134797841102e+00 -1.1220368632956953e+01 0.0000000000000000e+00  -6.1353545005879999e+00 -1.5024786885275176e+01 0.0000000000000000e+00  -5.2159764173306602e+00 -1.2705006650737580e+01 0.0000000000000000e+00  -7.7832329335204937e+00 -1.6662336437721748e+01 0.0000000000000000e+00  -6.7513907155255639e+00 -1.4215695184859442e+01 0.0000000000000000e+00  -9.4780106710247214e+00 -1.8186276831514864e+01 0.0000000000000000e+00  -8.3702410644875052e+00 -1.5671767391862296e+01 0.0000000000000000e+00  -1.1152804714099195e+01 -1.9495582641639931e+01 0.0000000000000000e+00  -1.0032181598853271e+01 -1.7014858089640306e+01 0.0000000000000000e+00  -1.2745363323596157e+01 -2.0406809069410631e+01 0.0000000000000000e+00  -1.1669079594031423e+01 -1.8052209732183183e+01 0.0000000000000000e+00  -1.4203216227259132e+01 -2.1019938495696476e+01 0.0000000000000000e+00  -1.3222050112025586e+01 -1.8873743708987462e+01 0.0000000000000000e+00  -1.5453241513741999e+01 -2.0817858035222123e+01 0.0000000000000000e+00  -1.4630612635615165e+01 -1.8982400639831798e+01 0.0000000000000000e+00  -1.6477121419058754e+01 -2.0141298205306903e+01 0.0000000000000000e+00  -1.5834006617279190e+01 -1.8657446296856097e+01 0.0000000000000000e+00  -1.7227530031470238e+01 -1.8254559464755314e+01 0.0000000000000000e+00  -1.6795077079925932e+01 -1.7172769171562884e+01 0.0000000000000000e+00  -1.7742335508993051e+01 -1.5429914012147455e+01 0.0000000000000000e+00  -1.7493165378766609e+01 -1.4724001618131958e+01 0.0000000000000000e+00  -1.8011406653836204e+01 -1.1382783186199699e+01 0.0000000000000000e+00  -1.7928588491813468e+01 -1.1024602162648677e+01 0.0000000000000000e+00  -1.8136940345810604e+01 -4.7332083128244031e+00 0.0000000000000000e+00  -1.8141699164229411e+01 -4.6292714312896210e+00 0.0000000000000000e+00  -1.8163563202232940e+01 4.7167124017957417e-11 0.0000000000000000e+00  -1.8163229810175469e+01 3.1822714840566658e-04 0.0000000000000000e+00  -1.8163563200073732e+01 -2.0716412866946499e-19 0.0000000000000000e+00  -1.3884970840644767e+01 1.1499121763279318e+01 0.0000000000000000e+00  -1.8132846269967846e+01 5.1167579136543129e+00 0.0000000000000000e+00  -1.8163230960583512e+01 -3.3660964405361949e-04 0.0000000000000000e+00  -1.2622730633041945e+01 2.0107672030069573e+01 0.0000000000000000e+00  -1.3903838665239194e+01 1.8283734637761675e+01 0.0000000000000000e+00  -1.0750939412007487e+01 2.3971414375958528e+01 0.0000000000000000e+00  -1.2700381735287010e+01 2.1200353489482712e+01 0.0000000000000000e+00  -9.6662179927354526e+00 2.4801679097147737e+01 0.0000000000000000e+00  -1.0883270221299551e+01 2.3222677869102487e+01 0.0000000000000000e+00  -8.4432381979821383e+00 2.4356491584586795e+01 0.0000000000000000e+00  -9.8476284542733534e+00 2.2561782992304604e+01 0.0000000000000000e+00  -7.4332423431274481e+00 2.2838553991736603e+01 0.0000000000000000e+00  -8.6703646232318654e+00 2.1363851507859540e+01 0.0000000000000000e+00  -6.4847474748974534e+00 2.1056057680530987e+01 0.0000000000000000e+00  -7.7049255418635436e+00 1.9668815944730778e+01 0.0000000000000000e+00  -5.6325582175068591e+00 1.9046026903289356e+01 0.0000000000000000e+00  -6.7970704822774026e+00 1.7803768706539909e+01 0.0000000000000000e+00  -4.7440996407362190e+00 1.7232455015124820e+01 0.0000000000000000e+00  -5.9836181117060114e+00 1.5932728829194403e+01 0.0000000000000000e+00  -4.0345382667793634e+00 1.5495136375851487e+01 0.0000000000000000e+00  -5.1324400357984725e+00 1.4462614316623434e+01 0.0000000000000000e+00  -3.4032855562330004e+00 1.3979614452340059e+01 0.0000000000000000e+00  -4.4580267231727451e+00 1.3063430423069819e+01 0.0000000000000000e+00  -2.7508201315268432e+00 1.2764182150696973e+01 0.0000000000000000e+00  -3.8604179007983421e+00 1.1814936138327024e+01 0.0000000000000000e+00  -2.1561654036468663e+00 1.1704126305912709e+01 0.0000000000000000e+00  -3.2405901338796377e+00 1.0840302181923938e+01 0.0000000000000000e+00  -1.6190865516370985e+00 1.0781253030220332e+01 0.0000000000000000e+00  -2.6770735006688948e+00 1.0003146895399379e+01 0.0000000000000000e+00  -1.1376590405100642e+00 9.9364624746841006e+00 0.0000000000000000e+00  -2.1700274084677327e+00 9.2408133159529253e+00 0.0000000000000000e+00  -7.2130694885484636e-01 9.1323406683838577e+00 0.0000000000000000e+00  -1.7178217485338030e+00 8.5334887966064787e+00 0.0000000000000000e+00  -3.6504608559550050e-01 8.3738467258298765e+00 0.0000000000000000e+00  -1.3296939979530065e+00 7.8645855190686849e+00 0.0000000000000000e+00  -5.3400257915302986e-02 7.6319519908736231e+00 0.0000000000000000e+00  -1.0008573096170663e+00 7.1889980942826162e+00 0.0000000000000000e+00  2.1036447138700443e-01 6.9062966280237204e+00 0.0000000000000000e+00  -7.1611926870167752e-01 6.5345673452196662e+00 0.0000000000000000e+00  4.3116558855281822e-01 6.1905727934624224e+00 0.0000000000000000e+00  -4.7854756892856337e-01 5.8830109752789612e+00 0.0000000000000000e+00  6.1583606789890011e-01 5.4857128001306021e+00 0.0000000000000000e+00  -2.8355188115522395e-01 5.2318241041408644e+00 0.0000000000000000e+00  7.6497239882465906e-01 4.7641693030928476e+00 0.0000000000000000e+00  -1.2413814399957251e-01 4.5634451822885715e+00 0.0000000000000000e+00  8.7180497473241325e-01 4.0850736980509215e+00 0.0000000000000000e+00  -1.9427160763928081e-04 3.9472333920850984e+00 0.0000000000000000e+00  9.4631885620444478e-01 3.3305698594606348e+00 0.0000000000000000e+00  8.2321879776760531e-02 3.2415702711735266e+00 0.0000000000000000e+00  9.7458602839060671e-01 2.6996113919986588e+00 0.0000000000000000e+00  1.3175227741215223e-01 2.6787298548917033e+00 0.0000000000000000e+00  9.6085644558786065e-01 1.8814024120184236e+00 0.0000000000000000e+00  1.3685731615131058e-01 1.9251661874119692e+00 0.0000000000000000e+00  8.9625009841278225e-01 1.3996365264331583e+00 0.0000000000000000e+00  9.7358665311031031e-02 1.5165625378949945e+00 0.0000000000000000e+00  7.6625550344314908e-01 4.3166398992764904e-01 0.0000000000000000e+00  1.1817098707937918e-02 6.5157369096992268e-01 0.0000000000000000e+00  5.2156635180427879e-01 -4.9835181686645150e-02 0.0000000000000000e+00  -1.4734384603508330e-01 3.3317909698165443e-01 0.0000000000000000e+00  -5.8940422520231080e-02 -2.8479633281953431e-01 0.0000000000000000e+00  -4.0368550296012851e-01 6.1942784706530685e-01 0.0000000000000000e+00  2.0087354751633399e+00 -1.4560215053305734e+00 0.0000000000000000e+00  2.1165993359891688e+00 -1.2920582220772896e+00 0.0000000000000000e+00  1.8999004343636268e+00 -1.7626548419685644e+00 0.0000000000000000e+00  1.7522369362981012e+00 -2.2562250218682114e+00 0.0000000000000000e+00  1.5063962554892714e+00 -2.7964360082517352e+00 0.0000000000000000e+00  1.2000339399930033e+00 -3.4874194968668841e+00 0.0000000000000000e+00  8.4139539192427104e-01 -4.1886462243854004e+00 0.0000000000000000e+00  4.3681028367349090e-01 -4.9632340852139230e+00 0.0000000000000000e+00  4.4191636892926343e-02 -5.6723312853949199e+00 0.0000000000000000e+00  -1.2345220288042208e-01 -6.0484015866129006e+00 0.0000000000000000e+00  -6.1436804878322560e-01 -6.7897744118313055e+00 0.0000000000000000e+00  1.2907959009762713e+00 -3.7014157396319445e+00 0.0000000000000000e+00  -3.0786707139365981e+00 -1.0027296885140698e+01 0.0000000000000000e+00  -1.6973259038459889e+00 -7.7796985166215347e+00 0.0000000000000000e+00  -1.3938474313598228e+00 -7.1560859327000159e+00 0.0000000000000000e+00  -1.7078949940729014e+00 -7.4126964967954363e+00 0.0000000000000000e+00  -2.4664608703659461e+00 -8.2293257943834508e+00 0.0000000000000000e+00  -3.4869022350820078e+00 -9.3570119544676977e+00 0.0000000000000000e+00  -4.7136960843045976e+00 -1.0600180726922831e+01 0.0000000000000000e+00  -6.0987190190775351e+00 -1.1933183329212291e+01 0.0000000000000000e+00  -7.5987432699959072e+00 -1.3265428445325753e+01 0.0000000000000000e+00  -9.1776620368231079e+00 -1.4550493877398964e+01 0.0000000000000000e+00  -1.0791392814295810e+01 -1.5627785203632239e+01 0.0000000000000000e+00  -1.2373412451657964e+01 -1.6581201619820604e+01 0.0000000000000000e+00  -1.3862594743078185e+01 -1.6909431449926508e+01 0.0000000000000000e+00  -1.5199324709374821e+01 -1.6904547505027256e+01 0.0000000000000000e+00  -1.6316716182570023e+01 -1.5776428742367868e+01 0.0000000000000000e+00  -1.7189001795926586e+01 -1.3752552381705213e+01 0.0000000000000000e+00  -1.7771326374791659e+01 -1.0414823585487269e+01 0.0000000000000000e+00  -1.8104142343953807e+01 -4.4226003714667934e+00 0.0000000000000000e+00  -1.8162421585259700e+01 6.0656471671579530e-04 0.0000000000000000e+00  -1.8092016011728308e+01 4.9208037104222928e+00 0.0000000000000000e+00  -1.8162423656384959e+01 -6.9195876964499401e-04 0.0000000000000000e+00  -1.7900921355154310e+01 1.1959226295741715e+01 0.0000000000000000e+00  -1.3742497945243489e+01 1.9452732669511832e+01 0.0000000000000000e+00  -1.2625408711257505e+01 2.0539559631622087e+01 0.0000000000000000e+00  -1.0876325515982115e+01 2.1048412541836758e+01 0.0000000000000000e+00  -9.9042292307500990e+00 1.9627665411315196e+01 0.0000000000000000e+00  -8.7786641003782844e+00 1.8253747745254135e+01 0.0000000000000000e+00  -7.8638818598009701e+00 1.6468127175746371e+01 0.0000000000000000e+00  -6.9996611340323129e+00 1.4737053726002790e+01 0.0000000000000000e+00  -6.2266262090098135e+00 1.3209401483424715e+01 0.0000000000000000e+00  -5.4132811220346584e+00 1.2073386696696788e+01 0.0000000000000000e+00  -4.7742136435673741e+00 1.0938271278115133e+01 0.0000000000000000e+00  -4.2095258306795902e+00 9.9302061966664628e+00 0.0000000000000000e+00  -3.6214071713607985e+00 9.1760095258361396e+00 0.0000000000000000e+00  -3.0876702411569710e+00 8.4971951527764062e+00 0.0000000000000000e+00  -2.6086727119511592e+00 7.8717259608958310e+00 0.0000000000000000e+00  -2.1833578878164377e+00 7.2979560998016018e+00 0.0000000000000000e+00  -1.8207715665400011e+00 6.7104586362399727e+00 0.0000000000000000e+00  -1.5162565009101194e+00 6.1218398314358051e+00 0.0000000000000000e+00  -1.2550389276014668e+00 5.5404655702269539e+00 0.0000000000000000e+00  -1.0401571874442848e+00 4.9525295217107148e+00 0.0000000000000000e+00  -8.6706732230735839e-01 4.3374904471560107e+00 0.0000000000000000e+00  -7.2917763896342802e-01 3.7738548226134192e+00 0.0000000000000000e+00  -6.2612461114750217e-01 3.1305067827911528e+00 0.0000000000000000e+00  -5.6432199595701327e-01 2.6163672570907677e+00 0.0000000000000000e+00  -5.3489300735063294e-01 1.9304843542784023e+00 0.0000000000000000e+00  -5.5021973484113296e-01 1.5860344425598167e+00 0.0000000000000000e+00  -6.0841919936896238e-01 7.9432326699581557e-01 0.0000000000000000e+00  -7.1457734313340648e-01 5.7925375802790346e-01 0.0000000000000000e+00  -8.9106439318675368e-01 1.0196630009639667e+00 0.0000000000000000e+00  6.9997509465595464e-01 -1.2919519650304827e+00 0.0000000000000000e+00  7.9208400288816461e-01 -1.1573117136446061e+00 0.0000000000000000e+00  5.8839376707321300e-01 -1.5955803605414829e+00 0.0000000000000000e+00  4.7330428691569504e-01 -2.0307652132559624e+00 0.0000000000000000e+00  3.1935717768408906e-01 -2.4232315283454162e+00 0.0000000000000000e+00  6.6474471038124455e-02 -3.0234575111317965e+00 0.0000000000000000e+00  -2.4700076130234089e-01 -3.6470037870795120e+00 0.0000000000000000e+00  -6.1164486643463056e-01 -4.3532239993908073e+00 0.0000000000000000e+00  -1.0211602727385669e+00 -5.0819004355743376e+00 0.0000000000000000e+00  -1.4164689868683109e+00 -5.7980355071145784e+00 0.0000000000000000e+00  -1.5826887395242404e+00 -6.0573501716221463e+00 0.0000000000000000e+00  -2.0682885208395421e+00 -6.5632713204310509e+00 0.0000000000000000e+00  -1.6270794375239603e-01 -3.4678727516730192e+00 0.0000000000000000e+00  -4.5450080740027881e+00 -9.8438767209851807e+00 0.0000000000000000e+00  -3.1744252388141758e+00 -7.6144456314829876e+00 0.0000000000000000e+00  -2.8689180002048058e+00 -6.9509098344261000e+00 0.0000000000000000e+00  -3.1712217564088001e+00 -7.1068322687352623e+00 0.0000000000000000e+00  -3.9100243317594847e+00 -7.8476343276036866e+00 0.0000000000000000e+00  -4.9035781597351278e+00 -8.7869070549326995e+00 0.0000000000000000e+00  -6.0950945769053133e+00 -9.8878660161081449e+00 0.0000000000000000e+00  -7.4373271329904274e+00 -1.1054459803257107e+01 0.0000000000000000e+00  -8.8860630113572636e+00 -1.2229573443023760e+01 0.0000000000000000e+00  -1.0401395930701215e+01 -1.3260984764306144e+01 0.0000000000000000e+00  -1.1941003562433878e+01 -1.4276138666563794e+01 0.0000000000000000e+00  -1.3431941323351582e+01 -1.4749694544795236e+01 0.0000000000000000e+00  -1.4816496805003524e+01 -1.4995142893971030e+01 0.0000000000000000e+00  -1.6023320511914800e+01 -1.4196316047906723e+01 0.0000000000000000e+00  -1.6999350292614835e+01 -1.2583620009664038e+01 0.0000000000000000e+00  -1.7688193894093146e+01 -9.6475913805583584e+00 0.0000000000000000e+00  -1.8095456331890354e+01 -4.1384309701968611e+00 0.0000000000000000e+00  -1.8161163114854553e+01 8.6604765347737659e-04 0.0000000000000000e+00  -1.8071377220526514e+01 4.5756959184520936e+00 0.0000000000000000e+00  -1.8161165222016294e+01 -1.0058147176844354e-03 0.0000000000000000e+00  -1.7669549909238302e+01 1.1609319860446710e+01 0.0000000000000000e+00  -1.7468306086559767e+01 1.3304658502315727e+01 0.0000000000000000e+00  -1.3433587647755113e+01 1.8972536353325214e+01 0.0000000000000000e+00  -1.2455146922276024e+01 1.8504753000782014e+01 0.0000000000000000e+00  -1.0814257822780007e+01 1.8246605813124663e+01 0.0000000000000000e+00  -9.9354782457491702e+00 1.6624483103238358e+01 0.0000000000000000e+00  -8.8880519123822879e+00 1.5152531320911246e+01 0.0000000000000000e+00  -8.0439504629674712e+00 1.3489507658210066e+01 0.0000000000000000e+00  -7.2407665744721106e+00 1.2094633722963252e+01 0.0000000000000000e+00  -6.5241601568101473e+00 1.0894120657965289e+01 0.0000000000000000e+00  -5.7622314270681558e+00 1.0018292881988755e+01 0.0000000000000000e+00  -5.1710528778918095e+00 9.1190305111079066e+00 0.0000000000000000e+00  -4.6516621933383719e+00 8.3279395832223777e+00 0.0000000000000000e+00  -4.1062993580210261e+00 7.7288132907400904e+00 0.0000000000000000e+00  -3.6125333091178446e+00 7.1834419387847515e+00 0.0000000000000000e+00  -3.1712386198103566e+00 6.6884853866902434e+00 0.0000000000000000e+00  -2.7813441876257743e+00 6.1936898464605772e+00 0.0000000000000000e+00  -2.4521075899384450e+00 5.6906724704707408e+00 0.0000000000000000e+00  -2.1792394582909185e+00 5.1731866439695349e+00 0.0000000000000000e+00  -1.9482370215837024e+00 4.6537439264655260e+00 0.0000000000000000e+00  -1.7621959412980996e+00 4.1007197328633014e+00 0.0000000000000000e+00  -1.6171378911189893e+00 3.5889478089122799e+00 0.0000000000000000e+00  -1.5062031816916506e+00 2.9978777538622290e+00 0.0000000000000000e+00  -1.4298410452545078e+00 2.5442395078427937e+00 0.0000000000000000e+00  -1.3934383836113611e+00 1.9080733402381025e+00 0.0000000000000000e+00  -1.3900788227808027e+00 1.6275778014431712e+00 0.0000000000000000e+00  -1.4285919341385505e+00 9.0456117531658808e-01 0.0000000000000000e+00  -1.5137300987633138e+00 7.5289585837878092e-01 0.0000000000000000e+00  -1.6367462014541236e+00 1.3087541594440530e+00 0.0000000000000000e+00  -5.0483979503534460e-01 -1.1505623764721871e+00 0.0000000000000000e+00  -4.3304284849696623e-01 -1.0543077390840296e+00 0.0000000000000000e+00  -6.0210799685389493e-01 -1.4224048969088716e+00 0.0000000000000000e+00  -7.2317730328729490e-01 -1.8504113119464756e+00 0.0000000000000000e+00  -8.4966182539667934e-01 -2.1835529513722105e+00 0.0000000000000000e+00  -1.0167657213111583e+00 -2.6347420574079932e+00 0.0000000000000000e+00  -1.2835079607084876e+00 -3.1668156804804188e+00 0.0000000000000000e+00  -1.6112363176055271e+00 -3.7969312304217846e+00 0.0000000000000000e+00  -1.9893383897267840e+00 -4.4596405279525877e+00 0.0000000000000000e+00  -2.4097887444701156e+00 -5.1993533850016673e+00 0.0000000000000000e+00  -2.8116923412981638e+00 -5.8069365278720335e+00 0.0000000000000000e+00  -2.9794390739807568e+00 -5.8358180656428953e+00 0.0000000000000000e+00  -3.4651003100442765e+00 -6.3203783388309693e+00 0.0000000000000000e+00  -1.5741109460088945e+00 -3.2481500326428234e+00 0.0000000000000000e+00  -5.9927273581250855e+00 -9.6461382518507364e+00 0.0000000000000000e+00  -4.6527972470449992e+00 -7.3996790875185372e+00 0.0000000000000000e+00  -4.3595460166121631e+00 -6.6527857310512886e+00 0.0000000000000000e+00  -4.6619414430336192e+00 -6.7477169635857273e+00 0.0000000000000000e+00  -5.3887523464859184e+00 -7.3100862646320621e+00 0.0000000000000000e+00  -6.3623747241066031e+00 -8.1216755102397968e+00 0.0000000000000000e+00  -7.5249326398661491e+00 -9.0682319840013026e+00 0.0000000000000000e+00  -8.8281142089687030e+00 -1.0091682383808863e+01 0.0000000000000000e+00  -1.0226187526876172e+01 -1.1031993737058682e+01 0.0000000000000000e+00  -1.1678066315536491e+01 -1.2025513828594763e+01 0.0000000000000000e+00  -1.3133301738571946e+01 -1.2580437315321980e+01 0.0000000000000000e+00  -1.4523087543592542e+01 -1.3013317815696547e+01 0.0000000000000000e+00  -1.5773096209836018e+01 -1.2484275445051075e+01 0.0000000000000000e+00  -1.6827263313928491e+01 -1.1271379571148262e+01 0.0000000000000000e+00  -1.7594206705564083e+01 -8.7364637750689393e+00 0.0000000000000000e+00  -1.8073710715409547e+01 -3.7827778449847567e+00 0.0000000000000000e+00  -1.8159505319500020e+01 1.0955875968927554e-03 0.0000000000