<?xml version="1.0"?>
<VTKFile type="UnstructuredGrid"  version="0.1"  >
<UnstructuredGrid>
<Piece  NumberOfPoints="1933" NumberOfCells="3640">
<Points>
<DataArray  type="Float64"  NumberOfComponents="3"  format="ascii">-0.4754259794857483 -0.001191677521210381 0  4.52457405903678 -0.00116841595440717 0  4.524539170492766 7.498831683252848 0  -0.4754608878947663 7.498808388612456 0  9.524574119666028 -0.001145234023024499 0  9.524539270000613 7.498854873461211 0  14.52457424484909 -0.001122143096297224 0  14.52453942920628 7.498877964284063 0  19.52457447456991 -0.001099123926177014 0  19.52453966466146 7.498900980940872 0  24.52457484219502 -0.001076140421649778 0  24.52453999101966 7.498923961762035 0  29.52457537434702 -0.001053146540788208 0  29.52454042053302 7.498946953584174 0  34.5245760919737 -0.001030089652487087 0  34.52454096268004 7.498970009258964 0  39.52457701158846 -0.001006911909692224 0  39.52454162395732 7.498993186632043 0  44.52457814633013 -0.0009835504172289824 0  44.52454240772686 7.499016548519272 0  49.52457950674315 -0.000959936599411786 0  49.52454331400618 7.499040163394301 0  54.52458110126304 -0.0009359949614550655 0  54.52454433910565 7.499064106641806 0  59.52458293640747 -0.0009116413082023226 0  59.52454547502859 7.499088462331474 0  64.52458501666237 -0.0008867803914365223 0  64.52454670853807 7.499113325545781 0  69.52458734401316 -0.0008613028782159329 0  69.52454801977579 7.499138805363907 0  74.52458991702959 -0.0008350814498282799 0  74.52454938027196 7.499165028675565 0  79.52459272932367 -0.0008079657379104289 0  79.52455075011997 7.499192145084359 0  84.52459576708301 -0.000779775662521389 0  84.524552073997 7.499220333268844 0  89.52459900515764 -0.0007502925313904567 0  89.52455327557828 7.499249809310871 0  94.52460240081864 -0.0007192469544792565 0  94.5245542497195 7.499280837679963 0  99.52460588363591 -0.0006863021722898527 0  99.52455485158953 7.499313745769201 0  104.5246093387399 -0.0006510307222415509 0  104.5245548817491 7.499348943063837 0  109.52461257852 -0.0006128813997319225 0  109.5245540661905 7.499386946032867 0  114.5246152937351 -0.0005711321756471472 0  114.5245520309707 7.499428409273372 0  119.524616967313 -0.0005248232820836416 0  119.5245482732997 7.499474161352711 0  124.5246167196143 -0.0004726639556586598 0  124.5245421371037 7.49952523803037 0  129.5246130264088 -0.0004129094774953941 0  129.5245328162444 7.499582891451147 0  134.5246031984262 -0.0003432226808394351 0  134.5245194438446 7.499648522338068 0  139.5245824103203 -0.0002606028714119575 0  139.5245014056452 7.499723419265542 0  144.524541863529 -0.0001617298542473083 0  144.524479194348 7.499808097983935 0  149.5244652019753 -4.518015468202976e-05 0  149.5244565494201 7.499901108977284 0  159.5244717418525 8.931776918192459e-19 0  164.5244239774005 -9.470844231481989e-05 0  164.524464557397 7.499887027107741 0  159.5244736671634 7.49995725936895 0  169.5244086611836 -0.0001607439296411659 0  169.5244549972629 7.49983027060967 0  174.5244086547243 -0.000206705159142841 0  174.5244489440006 7.499788559699085 0  179.5244157077029 -0.0002378389961992666 0  179.524446518009 7.499759581961987 0  184.524425723158 -0.0002578648400974937 0  184.524446905317 7.499740707519406 0  189.5244366530414 -0.0002694954559418578 0  189.524449219779 7.499729710663735 0  194.5244474856581 -0.0002747176078886136 0  194.5244527361947 7.499724845524855 0  199.5244577396751 -0.0002749931937718807 0  199.5244569207134 7.499724775378775 0  204.5244672062928 -0.0002714074205469714 0  204.5244614015633 7.499728481836356 0  209.5244758162608 -0.0002647755774517043 0  209.5244659292003 7.499735185974392 0  214.5244835706701 -0.0002557186323731577 0  214.5244703412924 7.499744286981772 0  219.5244905046952 -0.0002447163914643467 0  219.5244745358801 7.499755316445844 0  224.5244966685388 -0.0002321449528980686 0  224.524478452037 7.499767904850891 0  229.5245021174644 -0.0002183033041518272 0  229.5244820563801 7.499781757106738 0  234.524506906682 -0.0002034324303902268 0  234.524485333843 7.499796634600419 0  239.5245110888587 -0.0001877292305288564 0  239.5244882814367 7.499812341924074 0  244.5245147130776 -0.0001713567968304561 0  244.5244909040817 7.499828716960777 0  249.5245178246009 -0.0001544521117661212 0  249.5244932118604 7.499845623400724 0  254.5245204651124 -0.0001371318768952556 0  254.5244952182538 7.499862945041293 0  259.5245226732459 -0.000119496957028615 0  259.5244969390515 7.499880581424253 0  264.5245244853337 -0.0001016357598189826 0  264.5244983917388 7.499898444509448 0  269.5245259363148 -8.362674829606774e-05 0  269.524499595214 7.499916456195109 0  274.5245270608229 -6.554018049835758e-05 0  274.5245005697262 7.49993454658801 0  279.5245278944384 -4.743906730755496e-05 0  279.5245013369484 7.499952653014052 0  284.5245284751132 -2.937921641884243e-05 0  284.5245019201043 7.499970719854283 0  289.5245288446712 -1.14080603683933e-05 0  289.5245023440451 7.499988699401629 0  294.5245290501993 6.438286572490451e-06 0  294.5245026352217 7.500006554066404 0  299.5245291447292 2.414067687312805e-05 0  299.524502821511 7.50002426040805 0  304.5245291858903 4.170672119080702e-05 0  304.5245029321723 7.500041815618471 0  309.5245292294688 5.91864339743735e-05 0  309.5245029989533 7.500059247287518 0  4.524504070359038 14.99883189684998 0  -0.4754959893742293 14.998808548132 0  9.524504157895995 14.99885508954304 0  14.52450428641828 14.99887816432945 0  19.52450446279134 14.9989011605947 0  24.52450469089333 14.99892412217504 0  29.5245049725978 14.99894709758419 0  34.52450530779019 14.9989701397152 0  39.52450569401693 14.9989933057834 0  44.52450612598383 14.99901665769694 0  49.52450659495287 14.99904026286882 0  54.52450708801835 14.99906419545607 0  59.52450758721102 14.99908853803171 0  64.52450806837068 14.9991133837279 0  69.52450849971252 14.99913883892592 0  74.52450884001608 14.99916502660681 0  79.52450903636195 14.99919209051312 0  84.52450902136813 14.99922020030105 0  89.52450870993741 14.99924955787017 0  94.52450799567681 14.99928040500646 0  99.52450674744331 14.99931303229368 0  104.5245048070806 14.99934778878393 0  109.5245019904973 14.99938509087878 0  114.5244980962175 14.99942542669214 0  119.5244929288213 14.99946934780931 0  124.5244863498358 14.99951743199242 0  129.524478375633 14.99957018497608 0  134.5244693487648 14.99962782243957 0  139.524460207564 14.99968982802998 0  144.5244528422317 14.99975410721432 0  149.5244503740066 14.99981538307801 0  164.5244726296151 14.99983676482334 0  159.5244710954487 14.99987281410715 0  169.5244693074147 14.99980172054544 0  174.524464505944 14.99977248901762 0  179.5244601209669 14.99975053359552 0  184.5244568945745 14.99973561105165 0  189.5244549567124 14.99972685372109 0  194.5244541676752 14.99972326961902 0  199.5244542976482 14.99972393935576 0  204.5244551108684 14.99972807672152 0  209.5244563997848 14.99973503311363 0  214.5244579949121 14.9997442817214 0  219.5244597638772 14.99975539673776 0  224.5244616063868 14.99976803356768 0  229.524463448261 14.99978191195661 0  234.5244652358814 14.99979680229917 0  239.5244669315045 14.99981251478286 0  244.5244685095101 14.99982889086613 0  249.5244699534952 14.99984579661196 0  254.5244712540622 14.99986311747618 0  259.5244724071633 14.99988075423982 0  264.5244734128645 14.99989861985535 0  269.524474274428 14.99991663704886 0  274.5244749976234 14.99993473657972 0  279.5244755901909 14.99995285611124 0  284.524476061443 14.99997093968655 0  289.5244764219719 14.99998893782485 0  294.5244766835924 15.0000068082264 0  299.5244768597329 15.0000245169452 0  304.5244769668235 15.00004203951688 0  309.5244770276601 15.00005936061742 0  4.524468824466053 22.49883229285764 0  -0.4755312320721373 22.49880893333917 0  9.524468891467084 22.49885545929516 0  14.52446897512951 22.49887849196851 0  19.52446907672926 22.4989014425335 0  24.52446919436198 22.49892436056646 0  29.52446932391412 22.49894729642797 0  34.52446945933775 22.49897030273164 0  39.52446959249072 22.49899343527677 0  44.52446971273228 22.49901675388874 0  49.52446980638023 22.49904032337766 0  54.52446985607364 22.49906421471148 0  59.52446984005843 22.49908850645532 0  64.52446973140377 22.4991132865132 0  69.52446949716672 22.49913865420146 0  74.52446909755305 22.49916472267639 0  79.52446848517276 22.4991916217128 0  84.52446760458268 22.49921950077341 0  89.52446639245953 22.49924853218847 0  94.52446477898759 22.49927891403389 0  99.52446269141564 22.49931087186628 0  104.5244600612872 22.49934465771004 0  109.5244568376025 22.49938054336801 0  114.5244530091024 22.49941880292335 0  119.5244486397384 22.49945967578635 0  124.5244439215749 22.49950329642249 0  129.5244392472609 22.49954957006236 0  134.5244352965603 22.49959796716441 0  139.5244331122589 22.49964721052206 0  144.5244341010852 22.49969486038695 0  149.5244398280562 22.49973693648629 0  164.5244631298616 22.49977980356831 0  159.524457732808 22.49979309470878 0  169.524464027218 22.49976321602023 0  174.5244620948452 22.49974733744535 0  179.5244588361935 22.4997344239485 0  184.5244552862577 22.49972542105227 0  189.5244520335436 22.49972047638822 0  194.5244493492345 22.4997193304906 0  199.5244473103985 22.49972155584369 0  204.5244458885843 22.49972668547613 0  209.5244450058668 22.49973427472369 0  214.5244445673813 22.49974392630957 0  219.5244444787272 22.49975529674035 0  224.5244446543015 22.49976809397193 0  229.5244450204965 22.49978207156004 0  234.5244455161754 22.4997970218777 0  239.5244460918217 22.49981276958714 0  244.5244467081464 22.49982916583878 0  249.5244473345618 22.49984608332542 0  254.5244479477303 22.49986341216427 0  259.5244485302578 22.49988105652245 0  264.5244490695723 22.49989893188787 0  269.524449556965 22.49991696289575 0  274.5244499867926 22.49993508163274 0  279.5244503558253 22.4999532263483 0  284.5244506627593 22.49997134049291 0  289.5244509079455 22.49998937195923 0  294.5244510934581 
[...]
<PointData  Vectors="v"> 
<DataArray  type="Float64"  Name="v"  NumberOfComponents="3" format="ascii">-3.3622474491076044e+00 -6.6673397518691440e+00 0.0000000000000000e+00  -3.8295896591023668e+00 -6.0350928391693364e+00 0.0000000000000000e+00  -3.3179575191665154e+00 -5.3343393315158796e+00 0.0000000000000000e+00  -2.9540616802940147e+00 -6.1213063316106915e+00 0.0000000000000000e+00  -4.3723280302204817e+00 -6.2962397222829098e+00 0.0000000000000000e+00  -3.7848457936776989e+00 -5.4828647590631476e+00 0.0000000000000000e+00  -4.8047319480756228e+00 -6.8657545399878170e+00 0.0000000000000000e+00  -4.3265344112057758e+00 -6.2184038678231355e+00 0.0000000000000000e+00  -5.1269824388448271e+00 -6.7380536425330106e+00 0.0000000000000000e+00  -4.7572643306176783e+00 -6.2563449052394633e+00 0.0000000000000000e+00  -5.5572023522232135e+00 -7.0918520304119586e+00 0.0000000000000000e+00  -5.0772704044017436e+00 -6.4485944713762171e+00 0.0000000000000000e+00  -5.8517257206460105e+00 -6.9785906838916079e+00 0.0000000000000000e+00  -5.5048196895682846e+00 -6.5392845818520691e+00 0.0000000000000000e+00  -5.8244297929376394e+00 -6.4547679207304096e+00 0.0000000000000000e+00  -5.7961799274102717e+00 -6.4983918917573931e+00 0.0000000000000000e+00  -6.5995969572485844e+00 -7.0171088404124040e+00 0.0000000000000000e+00  -5.7653904149012725e+00 -5.8573339597037286e+00 0.0000000000000000e+00  -4.6649602694321510e+00 -3.5399139286190699e+00 0.0000000000000000e+00  -6.5368458810106178e+00 -6.4450177271118214e+00 0.0000000000000000e+00  -1.3083674016108899e+01 -1.5377157228943867e+01 0.0000000000000000e+00  -4.5983141164876757e+00 -2.7524983767103874e+00 0.0000000000000000e+00  -1.3613426050074906e+01 -1.5027035893069945e+01 0.0000000000000000e+00  -1.3012552802875801e+01 -1.4236192730627019e+01 0.0000000000000000e+00  -1.3868167608285901e+01 -1.4120931640487274e+01 0.0000000000000000e+00  -1.3537803560724775e+01 -1.3742162033937083e+01 0.0000000000000000e+00  -1.4191663903011552e+01 -1.3264026523789907e+01 0.0000000000000000e+00  -1.3788296194540679e+01 -1.2782233944125656e+01 0.0000000000000000e+00  -1.4643979227709082e+01 -1.2622414921113316e+01 0.0000000000000000e+00  -1.4107447541583591e+01 -1.1947258258589033e+01 0.0000000000000000e+00  -1.5240493888579342e+01 -1.2192934908566770e+01 0.0000000000000000e+00  -1.4555586824190602e+01 -1.1301658976059823e+01 0.0000000000000000e+00  -1.5922161503439048e+01 -1.1856675197476067e+01 0.0000000000000000e+00  -1.5147781444175234e+01 -1.0837247957271861e+01 0.0000000000000000e+00  -1.6625962895604552e+01 -1.1698974545510968e+01 0.0000000000000000e+00  -1.5825259937078412e+01 -1.0646096191285093e+01 0.0000000000000000e+00  -1.7289136055815241e+01 -1.1407786354743942e+01 0.0000000000000000e+00  -1.6525484360586063e+01 -1.0415453074773488e+01 0.0000000000000000e+00  -1.7857012892686683e+01 -1.1020482493795566e+01 0.0000000000000000e+00  -1.7185393888619256e+01 -1.0170044351240517e+01 0.0000000000000000e+00  -1.8290948132485980e+01 -1.0426465404751823e+01 0.0000000000000000e+00  -1.7751022614910777e+01 -9.7761961376263500e+00 0.0000000000000000e+00  -1.8576846306287369e+01 -9.6525470720945741e+00 0.0000000000000000e+00  -1.8183815738964480e+01 -9.2229179607709568e+00 0.0000000000000000e+00  -1.8717422006228734e+01 -8.3599652595484226e+00 0.0000000000000000e+00  -1.8470276147495056e+01 -8.1470724644065768e+00 0.0000000000000000e+00  -1.8731479181651814e+01 -7.2618148839892740e+00 0.0000000000000000e+00  -1.8612480048428068e+01 -7.2362653174806795e+00 0.0000000000000000e+00  -1.8658523777364508e+01 -5.2376106692411843e+00 0.0000000000000000e+00  -1.8631727092913366e+01 -5.3420076622759298e+00 0.0000000000000000e+00  -1.8531878028862927e+01 -3.9852895129095760e+00 0.0000000000000000e+00  -1.8564094571098781e+01 -4.1655468132796161e+00 0.0000000000000000e+00  -1.8399533560085054e+01 -1.4676707656857009e+00 0.0000000000000000e+00  -1.8448951595496062e+01 -1.6578636960860176e+00 0.0000000000000000e+00  -1.8282153136381705e+01 -5.5256505187798577e-01 0.0000000000000000e+00  -1.8326232981665775e+01 -7.1210408614425036e-01 0.0000000000000000e+00  -1.8210805132759486e+01 1.8356408336509520e+00 0.0000000000000000e+00  -1.8228520922932805e+01 1.7400419603021537e+00 0.0000000000000000e+00  -1.8172579488358490e+01 1.6943621707297731e+00 0.0000000000000000e+00  -1.8171281401045920e+01 1.6621298216586806e+00 0.0000000000000000e+00  -1.8163571105151320e+01 -5.4632769081906417e-05 0.0000000000000000e+00  -1.8164444438167003e+01 -9.6814597601119386e-04 0.0000000000000000e+00  -1.8163563200167058e+01 4.6285404307695033e-19 0.0000000000000000e+00  -1.1541940327356679e+01 -3.8537982285776914e-02 0.0000000000000000e+00  -1.8177123667999741e+01 -9.9671909128362906e+00 0.0000000000000000e+00  -1.8164414101310879e+01 8.2215486460253374e-04 0.0000000000000000e+00  -1.2946367354314088e+01 9.4441874066993414e-01 0.0000000000000000e+00  -1.1558067017069266e+01 3.0483185188838218e+00 0.0000000000000000e+00  -1.1085244480150370e+01 5.9974795587522367e+00 0.0000000000000000e+00  -1.2963807949734537e+01 3.2138783578364909e+00 0.0000000000000000e+00  -1.0977766766304862e+01 6.9723472529985093e+00 0.0000000000000000e+00  -1.1107189483296183e+01 6.8162322314675681e+00 0.0000000000000000e+00  -1.0053879467479568e+01 1.0026221841548182e+01 0.0000000000000000e+00  -1.1006950771334624e+01 8.6487912224782040e+00 0.0000000000000000e+00  -9.4663387099200911e+00 1.1179751835664284e+01 0.0000000000000000e+00  -1.0091830387512790e+01 1.0307246237128187e+01 0.0000000000000000e+00  -8.7577655560370413e+00 1.2361723291574302e+01 0.0000000000000000e+00  -9.5140349826764812e+00 1.1309361995114049e+01 0.0000000000000000e+00  -8.1686281078460823e+00 1.2552150888139700e+01 0.0000000000000000e+00  -8.8168207793225086e+00 1.1679124880505258e+01 0.0000000000000000e+00  -7.3897345521511832e+00 1.2504849042387573e+01 0.0000000000000000e+00  -8.2398351750623338e+00 1.1348396969664845e+01 0.0000000000000000e+00  -6.8726325179707386e+00 1.1737047867432180e+01 0.0000000000000000e+00  -7.4738048303400078e+00 1.0973764678892076e+01 0.0000000000000000e+00  -6.4797407526764177e+00 1.0817603723703501e+01 0.0000000000000000e+00  -6.9704162810089541e+00 1.0241124128946630e+01 0.0000000000000000e+00  -6.0313061549378268e+00 9.8749960984753233e+00 0.0000000000000000e+00  -6.5917941489931904e+00 9.2157071495179910e+00 0.0000000000000000e+00  -5.5921921830901775e+00 8.9302131751010680e+00 0.0000000000000000e+00  -6.1580471744593002e+00 8.2853274445525074e+00 0.0000000000000000e+00  -5.1663967086873033e+00 8.0843846852322070e+00 0.0000000000000000e+00  -5.7341324320341212e+00 7.4596880667549748e+00 0.0000000000000000e+00  -4.7185815648441460e+00 7.3105437354872436e+00 0.0000000000000000e+00  -5.3238535894526793e+00 6.6531037104296606e+00 0.0000000000000000e+00  -4.2977668205764781e+00 6.5663578831590232e+00 0.0000000000000000e+00  -4.8917506715407040e+00 5.9495902195639099e+00 0.0000000000000000e+00  -3.9148211662865786e+00 5.8964736242025193e+00 0.0000000000000000e+00  -4.4868754292296122e+00 5.3365630797525396e+00 0.0000000000000000e+00  -3.5418292083112339e+00 5.2660448598290710e+00 0.0000000000000000e+00  -4.1199536852512688e+00 4.7211529665395187e+00 0.0000000000000000e+00  -3.2020906646847145e+00 4.6514880431598193e+00 0.0000000000000000e+00  -3.7630234154226345e+00 4.1564649908618483e+00 0.0000000000000000e+00  -2.9076728929122515e+00 4.0958946355207253e+00 0.0000000000000000e+00  -3.4393226432604176e+00 3.6688376450080495e+00 0.0000000000000000e+00  -2.6267401279289793e+00 3.5271136715063638e+00 0.0000000000000000e+00  -3.1609572802703183e+00 3.1201577056579310e+00 0.0000000000000000e+00  -2.3780859981872555e+00 3.0378394824705275e+00 0.0000000000000000e+00  -2.8958535913970969e+00 2.6793368217277704e+00 0.0000000000000000e+00  -2.1570629992836277e+00 2.5043256607091080e+00 0.0000000000000000e+00  -2.6631207395648668e+00 2.1869292181866382e+00 0.0000000000000000e+00  -1.9505776885464170e+00 2.1553921707240402e+00 0.0000000000000000e+00  -2.4575169017194263e+00 1.8600506452507284e+00 0.0000000000000000e+00  -1.7499586241102119e+00 1.6062551727328072e+00 0.0000000000000000e+00  -2.2668983324463849e+00 1.3189197347427588e+00 0.0000000000000000e+00  -1.5506995778833024e+00 1.5739497002927292e+00 0.0000000000000000e+00  -2.0809201872720737e+00 1.2896225776931207e+00 0.0000000000000000e+00  -1.3346527517584230e+00 9.2105087056745372e-01 0.0000000000000000e+00  -1.8978644752870621e+00 6.0953027139826255e-01 0.0000000000000000e+00  -1.0167592816090354e+00 1.4624649937430971e+00 0.0000000000000000e+00  -1.6949375301294092e+00 1.0011632629493012e+00 0.0000000000000000e+00  -5.0538520361899086e-01 1.2342609005713956e+00 0.0000000000000000e+00  -1.3952059391623439e+00 4.7714502232110995e-01 0.0000000000000000e+00  6.9825246948522945e-01 1.8349943086951867e-01 0.0000000000000000e+00  -8.9111973107122910e-01 -1.6012597619629196e+00 0.0000000000000000e+00  -3.0478516710188193e+00 -4.7887416279282053e+00 0.0000000000000000e+00  -2.6405309261488474e+00 -5.5098808275641646e+00 0.0000000000000000e+00  -3.4110448653097198e+00 -4.7834420205808561e+00 0.0000000000000000e+00  -3.8760312543910973e+00 -5.4074760989365771e+00 0.0000000000000000e+00  -4.4146097815912464e+00 -5.6125852283481619e+00 0.0000000000000000e+00  -4.8409975254017734e+00 -5.9717359372005951e+00 0.0000000000000000e+00  -5.1553615106260011e+00 -5.9017045734800764e+00 0.0000000000000000e+00  -5.5761763244424403e+00 -6.0657002481980546e+00 0.0000000000000000e+00  -5.8598731766098897e+00 -5.9084482324611916e+00 0.0000000000000000e+00  -5.8206467983966901e+00 -5.2928188252149519e+00 0.0000000000000000e+00  -6.5837290561835964e+00 -5.6649186430399432e+00 0.0000000000000000e+00  -4.6366916688917081e+00 -1.6212648496535955e+00 0.0000000000000000e+00  -1.3039742746397087e+01 -1.2961150398560934e+01 0.0000000000000000e+00  -1.3554083356017552e+01 -1.2411764841744002e+01 0.0000000000000000e+00  -1.3795405435177200e+01 -1.1474358734679180e+01 0.0000000000000000e+00  -1.4104943696388242e+01 -1.0634891536890954e+01 0.0000000000000000e+00  -1.4543333373295544e+01 -9.9551284427222146e+00 0.0000000000000000e+00  -1.5124901526691954e+01 -9.6366037629487309e+00 0.0000000000000000e+00  -1.5790970289042891e+01 -9.3717268196907426e+00 0.0000000000000000e+00  -1.6479615473084277e+01 -9.1869298360648983e+00 0.0000000000000000e+00  -1.7127943212412255e+01 -8.9347248603632199e+00 0.0000000000000000e+00  -1.7682165855919067e+01 -8.5793371696150320e+00 0.0000000000000000e+00  -1.8105125831908360e+01 -7.7227017367336623e+00 0.0000000000000000e+00  -1.8383245279425651e+01 -7.0263669228269370e+00 0.0000000000000000e+00  -1.8519971417556697e+01 -5.3152429318275169e+00 0.0000000000000000e+00  -1.8537017205967906e+01 -4.2648301376725701e+00 0.0000000000000000e+00  -1.8472874619396428e+01 -1.8288800364004403e+00 0.0000000000000000e+00  -1.8364772820077356e+01 -8.8368169144981901e-01 0.0000000000000000e+00  -1.8260639619875914e+01 1.5988970854862206e+00 0.0000000000000000e+00  -1.8182407276031441e+01 1.6059126378900537e+00 0.0000000000000000e+00  -1.8166536148626658e+01 -1.8422441561168662e-03 0.0000000000000000e+00  -1.8181347066717180e+01 -9.9085376807856953e+00 0.0000000000000000e+00  -1.8166495019013869e+01 1.6137895391590083e-03 0.0000000000000000e+00  -1.8237758617907804e+01 -6.8788183462800854e+00 0.0000000000000000e+00  -1.1609351088471056e+01 5.3139314017239609e+00 0.0000000000000000e+00  -1.3006226814176886e+01 4.0306615006641699e+00 0.0000000000000000e+00  -1.1150053789706934e+01 8.5000779394059389e+00 0.0000000000000000e+00  -1.1053568911347227e+01 8.9392411163650500e+00 0.0000000000000000e+00  -1.0146032919060689e+01 1.0446639398433492e+01 0.0000000000000000e+00  -9.5763308550933282e+00 1.0639469492803389e+01 0.0000000000000000e+00  -8.8892801510894177e+00 1.0489286149029457e+01 0.0000000000000000e+00  -8.3231457097367194e+00 9.8313415710731302e+00 0.0000000000000000e+00  -7.5686320320753051e+00 9.4933041946389061e+00 0.0000000000000000e+00  -7.0775038651915674e+00 8.6554871131572071e+00 0.0000000000000000e+00  -6.7118164873252688e+00 7.6424867933134388e+00 0.0000000000000000e+00  -6.2914052119524113e+00 6.8321196380918554e+00 0.0000000000000000e+00  -5.8814547308420346e+00 6.0462883586828156e+00 0.0000000000000000e+00  -5.4855940863222710e+00 5.3101130965737564e+00 0.0000000000000000e+00  -5.0681398927910548e+00 4.7381370831778993e+00 0.0000000000000000e+00  -4.6781370249752081e+00 4.1797646915259099e+00 0.0000000000000000e+00  -4.3261926014306464e+00 3.6299613314815833e+00 0.0000000000000000e+00  -3.9841481699434862e+00 3.1922055183785365e+00 0.0000000000000000e+00  -3.6752547811403629e+00 2.7113834508808896e+00 0.0000000000000000e+00  -3.4114769533967895e+00 2.2903717165998430e+00 0.0000000000000000e+00  -3.1607242890257385e+00 1.8461929073957830e+00 0.0000000000000000e+00  -2.9419423010555374e+00 1.5600962982275839e+00 0.0000000000000000e+00  -2.7500778270441271e+00 1.0407091821407490e+00 0.0000000000000000e+00  -2.5725304109705234e+00 1.0190191758928031e+00 0.0000000000000000e+00  -2.3997011975241627e+00 3.4149168753631337e-01 0.0000000000000000e+00  -2.2285112782153012e+00 7.0581910220057553e-01 0.0000000000000000e+00  -2.0384843477746482e+00 3.2122730266772329e-02 0.0000000000000000e+00  -1.7495411331867181e+00 -2.3476620748468267e+00 0.0000000000000000e+00  -2.9520134363027011e+00 -4.1783143341113442e+00 0.0000000000000000e+00  -2.5806189321973187e+00 -4.9521205399164137e+00 0.0000000000000000e+00  -3.3582704177909735e+00 -4.2401335323805718e+00 0.0000000000000000e+00  -3.7188808163900267e+00 -4.7127736494249124e+00 0.0000000000000000e+00  -4.1794434441170916e+00 -4.8092299613775422e+00 0.0000000000000000e+00  -4.7111398661919583e+00 -5.3383808983394934e+00 0.0000000000000000e+00  -5.1281565112402667e+00 -5.4381166827798300e+00 0.0000000000000000e+00  -5.4307443890305143e+00 -5.4441620878388752e+00 0.0000000000000000e+00  -5.8374320186008237e+00 -5.4938882483610243e+00 0.0000000000000000e+00  -6.1052708594808722e+00 -5.3633949852769147e+00 0.0000000000000000e+00  -6.0495458564702096e+00 -4.5318886842195107e+00 0.0000000000000000e+00  -6.7967425372467352e+00 -4.5534288093701649e+00 0.0000000000000000e+00  -4.8321007456842056e+00 -3.7212699229881857e-01 0.0000000000000000e+00  -1.3212825957370049e+01 -1.1656058821170610e+01 0.0000000000000000e+00  -1.3706482911005873e+01 -1.1124482517623827e+01 0.0000000000000000e+00  -1.3930769862878163e+01 -1.0183138539120216e+01 0.0000000000000000e+00  -1.4222851241838507e+01 -9.3109301437901379e+00 0.0000000000000000e+00  -1.4642000699021096e+01 -8.7791114089461253e+00 0.0000000000000000e+00  -1.5201823649852008e+01 -8.3889612034042127e+00 0.0000000000000000e+00  -1.5843984222620939e+01 -8.1716997933115429e+00 0.0000000000000000e+00  -1.6506489875488061e+01 -7.9806117683261197e+00 0.0000000000000000e+00  -1.7127296327551282e+01 -7.7663242065272398e+00 0.0000000000000000e+00  -1.7654111699240865e+01 -7.1063945051678381e+00 0.0000000000000000e+00  -1.8050114589091901e+01 -6.6243572366146335e+00 0.0000000000000000e+00  -1.8304689330993668e+01 -5.1236997208513184e+00 0.0000000000000000e+00  -1.8421657310567188e+01 -4.2456780330340012e+00 0.0000000000000000e+00  -1.8427781455111521e+01 -1.9289026126249036e+00 0.0000000000000000e+00  -1.8360040455155215e+01 -1.0333532655519910e+00 0.0000000000000000e+00  -1.8266889625038235e+01 1.4519305877823794e+00 0.0000000000000000e+00  -1.8185167420539258e+01 1.5374813706341051e+00 0.0000000000000000e+00  -1.8169801061238054e+01 -2.6338280687040324e-03 0.0000000000000000e+00  -1.8175847439786057e+01 -9.8564758981014009e+00 0.0000000000000000e+00  -1.8169764288778218e+01 2.3072270963442397e-03 0.0000000000000000e+00  -1.8231393329557061e+01 -6.7849779124758767e+00 0.0000000000000000e+00  -1.8284423077697195e+01 -4.6422891120999052e+00 0.0000000000000000e+00  -1.1637253904469940e+01 6.1140437370792977e+00 0.0000000000000000e+00  -1.3020945475688547e+01 5.7172713045053802e+00 0.0000000000000000e+00  -1.1167017962833459e+01 8.7989061536129913e+00 0.0000000000000000e+00  -1.1078826095364608e+01 9.0951214297655589e+00 0.0000000000000000e+00  -1.0183648676661198e+01 9.7949038900829599e+00 0.0000000000000000e+00  -9.6276404086161129e+00 9.4704025552064159e+00 0.0000000000000000e+00  -8.9559053506480630e+00 8.9943571735216814e+00 0.0000000000000000e+00  -8.4054056183282704e+00 8.3744924686838029e+00 0.0000000000000000e+00  -7.6674099260976956e+00 7.9321647219794320e+00 0.0000000000000000e+00  -7.1934554238325434e+00 7.1080381077549788e+00 0.0000000000000000e+00  -6.8455573894807769e+00 6.2161136221441007e+00 0.0000000000000000e+00  -6.4437549140273829e+00 5.4465863025320251e+00 0.0000000000000000e+00  -6.0532765800088635e+00 4.7321199310519084e+00 0.0000000000000000e+00  -5.6774938017053049e+00 4.1281014487729450e+00 0.0000000000000000e+00  -5.2805795563718982e+00 3.6110981313070183e+00 0.0000000000000000e+00  -4.9113774796979595e+00 3.1184579735792868e+00 0.0000000000000000e+00  -4.5802062948213988e+00 2.6954814713139288e+00 0.0000000000000000e+00  -4.2587841176448240e+00 2.2640961019498942e+00 0.0000000000000000e+00  -3.9701226628967050e+00 1.9105672800826552e+00 0.0000000000000000e+00  -3.7261590360660790e+00 1.4853085822448093e+00 0.0000000000000000e+00  -3.4944249083707977e+00 1.2469971945259843e+00 0.0000000000000000e+00  -3.2942222941298418e+00 7.6689925164465145e-01 0.0000000000000000e+00  -3.1196838367057724e+00 7.6704759791192134e-01 0.0000000000000000e+00  -2.9593764932519462e+00 9.4293503362777975e-02 0.0000000000000000e+00  -2.8015502102728953e+00 4.6352814170234363e-01 0.0000000000000000e+00  -2.6473306471547255e+00 -2.4392522828438781e-01 0.0000000000000000e+00  -2.4678329634212788e+00 -2.7660035806959353e+00 0.0000000000000000e+00  -3.1270764852921320e+00 -3.6218947537476156e+00 0.0000000000000000e+00  -2.7813404286919416e+00 -4.4326095041085294e+00 0.0000000000000000e+00  -3.4973055664728809e+00 -3.6322878312281963e+00 0.0000000000000000e+00  -3.9010223486602209e+00 -4.1745546547251609e+00 0.0000000000000000e+00  -4.2574343100084144e+00 -4.1227792510019619e+00 0.0000000000000000e+00  -4.7111760511417566e+00 -4.5474570660158147e+00 0.0000000000000000e+00  -5.2328891302073135e+00 -4.8217582203179177e+00 0.0000000000000000e+00  -5.6363180638289583e+00 -5.0019082877148380e+00 0.0000000000000000e+00  -5.9218190098722188e+00 -4.8977603774414602e+00 0.0000000000000000e+00  -6.3084909570372378e+00 -4.9771731451657377e+00 0.0000000000000000e+00  -6.5546535982802885e+00 -4.6309604568173972e+00 0.0000000000000000e+00  -6.4773201162847878e+00 -3.4477109207663852e+00 0.0000000000000000e+00  -7.2037868249062846e+00 -3.3353175474523176e+00 0.0000000000000000e+00  -5.2150860228401967e+00 8.9393189717353394e-01 0.0000000000000000e+00  -1.3566286053661123e+01 -1.0403855323157629e+01 0.0000000000000000e+00  -1.4034777924869692e+01 -9.8612677172059726e+00 0.0000000000000000e+00  -1.4239117860645703e+01 -8.8880907431767948e+00 0.0000000000000000e+00  -1.4509814729995540e+01 -8.1675908807281594e+00 0.0000000000000000e+00  -1.4904260360990284e+01 -7.5702373155629008e+00 0.0000000000000000e+00  -1.5433912942023696e+01 -7.2326397064166557e+00 0.0000000000000000e+00  -1.6040792341193640e+01 -7.0146794455955366e+00 0.0000000000000000e+00  -1.6663238033186250e+01 -6.8655560310755783e+00 0.0000000000000000e+00  -1.7240154146614060e+01 -6.3484936213508867e+00 0.0000000000000000e+00  -1.7720568950784585e+01 -6.0622603068843670e+00 0.0000000000000000e+00  -1.8071044821194604e+01 -4.7735694924913625e+00 0.0000000000000000e+00  -1.8281864143593445e+01 -4.0950568853298339e+00 0.0000000000000000e+00  -1.8364090854516061e+01 -1.9417622800010983e+00 0.0000000000000000e+00  -1.8344001060335771e+01 -1.1378959586276820e+00 0.0000000000000000e+00  -1.8273554829800574e+01 1.3099350118302411e+00 0.0000000000000000e+00  -1.8192022803472209e+01 1.4619982186679485e+00 0.0000000000000000e+00  -1.8174