<?xml version="1.0"?>
<VTKFile type="UnstructuredGrid"  version="0.1"  >
<UnstructuredGrid>
<Piece  NumberOfPoints="1933" NumberOfCells="3640">
<Points>
<DataArray  type="Float64"  NumberOfComponents="3"  format="ascii">0.2940288406548358 -0.001357053414814432 0  5.294028870808486 -0.001323537091621261 0  5.293978589026282 7.498676535305889 0  0.2939785472630526 7.498643000328108 0  10.29402892161609 -0.001290075994966878 0  10.29397865833999 7.498709999423082 0  15.29402902253098 -0.001256667795051286 0  15.29397876632523 7.498743405843032 0  20.29402919883261 -0.001223290792505609 0  20.29397892210979 7.49877677999562 0  25.29402946982308 -0.001189913231274515 0  25.29397913285234 7.498810154902817 0  30.2940298492916 -0.001156497693661336 0  30.2939794033988 7.498843568340756 0  35.29403034648372 -0.001123003062205364 0  35.29397973602271 7.4988770614499 0  40.29403096699182 -0.001089385169551749 0  40.29398013024448 7.498910678303855 0  45.29403171339722 -0.001055596686917055 0  45.2939805826453 7.498944466102344 0  50.29403258563579 -0.001021586524737836 0  50.29398108659672 7.498978475795534 0  55.2940335810931 -0.0009872988698458002 0  55.29398163183902 7.499012763046775 0  60.29403469443423 -0.0009526718947457887 0  60.29398220384743 7.499047389508917 0  65.29403591715217 -0.0009176361138464409 0  65.29398278291556 7.49908242444053 0  70.29403723678524 -0.0008821123105525218 0  70.29398334286735 7.499117946732345 0  75.29403863571289 -0.0008460089057166976 0  75.29398384927491 7.499154047458868 0  80.29404008936683 -0.0008092185712329076 0  80.29398425700965 7.499190833123478 0  85.2940415635934 -0.0007716138004757579 0  85.29398450688559 7.499228429830873 0  90.29404301071959 -0.0007330410141137145 0  90.29398452105923 7.499266988704015 0  95.29404436358297 -0.0006933125837723447 0  95.29398419673238 7.499306692961224 0  100.2940455262466 -0.000652195868024752 0  100.293983397576 7.49934776716627 0  105.2940463591809 -0.0006093979414204395 0  105.2939819422018 7.499390489208708 0  110.2940466549663 -0.0005645441340985566 0  110.2939795890899 7.499435205418069 0  115.2940460974012 -0.0005171478264535559 0  115.2939760179891 7.499482348522637 0  120.294044191008 -0.0004665684201885286 0  120.2939708097152 7.499532456131887 0  125.2940401369306 -0.0004119549667951805 0  125.2939634312975 7.499586182294476 0  130.2940326106146 -0.0003521775014136028 0  130.2939532454052 7.499644282735934 0  135.2940193580055 -0.0002857657382896452 0  135.2939395901827 7.499707528324003 0  140.2939964538571 -0.0002109350686232428 0  140.2939220353896 7.499776449688698 0  145.2939569223728 -0.0001259920553469786 0  145.2939010513669 7.499850737040184 0  150.2938881041002 -3.124024746055922e-05 0  150.2938796264812 7.499928135598105 0  160.2938926261462 1.300120380789373e-18 0  165.2938741166141 -5.22563280804464e-05 0  165.2938897731141 7.499935956662108 0  160.2938907804062 7.499972104048986 0  170.293874147869 -8.261904511984783e-05 0  170.2938884385166 7.499911705382724 0  175.2938821194971 -9.792455916659616e-05 0  175.2938890319261 7.499899167480007 0  180.2938931158907 -0.0001023188605145653 0  180.2938915109546 7.499896152788073 0  185.2939048210111 -9.866108134931344e-05 0  185.2938953233095 7.499900532394357 0  190.2939161659805 -8.898865102818543e-05 0  190.2938999165069 7.499910593028045 0  195.2939266906735 -7.476950124113026e-05 0  195.293904862433 7.499925025022624 0  200.2939362318587 -5.707152117167717e-05 0  200.2939098631792 7.49994284153341 0  205.2939447685472 -3.668090572817186e-05 0  205.2939147252372 7.499963298983421 0  210.2939523448971 -1.418451421703184e-05 0  210.2939193306248 7.499985833355336 0  215.2939590318607 9.973099990528858e-06 0  215.2939236130989 7.500010012554796 0  220.2939649083243 3.545015412266403e-05 0  220.2939275406405 7.500035501721346 0  225.2939700520964 6.198003719338303e-05 0  225.2939311032341 7.500062038169347 0  230.2939745358823 8.935182850123105e-05 0  230.2939343046142 7.500089413255829 0  235.2939784257776 0.0001173963573696499 0  235.2939371568097 7.500117459167449 0  240.2939817810197 0.0001459760800182901 0  240.2939396766081 7.500146039196161 0  245.2939846543676 0.0001749776201495663 0  245.2939418833133 7.500175040503369 0  250.2939870927762 0.0002043061989441135 0  250.2939437973725 7.500204368678765 0  255.2939891382199 0.0002338814328924259 0  255.2939454395928 7.500233943615205 0  260.2939908285811 0.000263634149266949 0  260.2939468307446 7.500263696372157 0  265.2939921985953 0.0002935039895712965 0  265.2939479914339 7.500293566809414 0  270.2939932808322 0.0003234376621281294 0  270.2939489421555 7.500323501855916 0  275.2939941067482 0.0003533877818853987 0  275.2939497034457 7.500353454347879 0  280.2939947077957 0.0003833123123060474 0  280.2939502960971 7.500383382435366 0  285.2939951166027 0.0004131747151047511 0  285.2939507413611 7.500413249625742 0  290.2939953681304 0.0004429450361253364 0  290.2939510610835 7.500443025611415 0  295.2939955006342 0.0004726023307323624 0  295.2939512777226 7.500472688120118 0  300.2939955559362 0.0005021390752365221 0  300.2939514142408 7.500502226121355 0  305.2939955779281 0.0005315684739237621 0  305.293951494078 7.500531644808072 0  310.2939956069097 0.0005609354407734603 0  310.2939515419825 7.500560972913886 0  5.293928175413164 14.99867668774625 0  0.2939281340433387 14.99864313056815 0  10.2939282319972 14.99871014379353 0  15.2939283104369 14.99874353294257 0  20.29392841307284 14.99877688888895 0  25.29392854003559 14.99881024738453 0  30.29392868975323 14.99884364664443 0  35.29392885884154 14.9988771273514 0  40.29392904176933 14.99891073279437 0  45.29392923042843 14.99894450926473 0  50.29392941363042 14.99897850671745 0  55.29392957650831 14.99901277968659 0  60.29392969978558 14.99904738845799 0  65.29392975886987 14.99908240052341 0  70.29392972272271 14.99911789236162 0  75.29392955246179 14.99915395161307 0  80.29392919965471 14.99919067973079 0  85.29392860429307 14.99922819519701 0  90.29392769249075 14.99926663737806 0  95.29392637408181 14.9993061710197 0  100.2939245405407 14.9993469912002 0  105.2939220641381 14.9993893281404 0  110.2939188001064 14.99943345038809 0  115.2939145951114 14.99947966312292 0  120.2939093077997 14.99952829490325 0  125.2939028509364 14.99957965979897 0  130.293895269484 14.99963397050715 0  135.2938868730351 14.99969115905898 0  140.2938784373836 14.99975053262274 0  145.2938714581219 14.99981015092281 0  150.2938683209042 14.99986573747737 0  165.2938841010088 14.99990395444983 0  160.2938818287365 14.99991649963823 0  170.2938834773737 14.9998940966683 0  175.293882098526 14.99988961726267 0  180.2938810745122 14.99989102877557 0  185.29388078558 14.99989783528014 0  190.2938812480568 14.99990922993137 0  195.2938823319562 14.99992439663134 0  200.2938838694153 14.99994261701854 0  205.2938857022261 14.99996329431841 0  210.2938876987712 14.99998594543106 0  215.2938897568519 15.00001018330692 0  220.2938918007555 15.00003569844511 0  225.2938937765418 15.00006224261457 0  230.2938956472997 15.00008961552166 0  235.2938973890468 15.00011765424762 0  240.2938989874245 15.00014622500592 0  245.2939004351469 15.00017521674632 0  250.2939017300863 15.00020453619807 0  255.2939028738627 15.00023410402728 0  260.2939038708191 15.00026385186534 0  265.2939047272858 15.0002937200312 0  270.2939054510532 15.00032365582894 0  275.293906050989 15.00035361234796 0  280.2939065367538 15.00038354773277 0  285.2939069186001 15.00041342492005 0  290.2939072072465 15.00044321185479 0  295.2939074139281 15.00047288217825 0  300.2939075507979 15.00050241628903 0  305.2939076320995 15.00053180242989 0  310.2939076768567 15.00056103687905 0  5.293877703265496 22.49867695975202 0  0.2938776648447336 22.49864342102413 0  10.29387774420783 22.49871038056954 0  15.29387778912229 22.49874372894649 0  20.29387783662697 22.4987770447119 0  25.29387788335215 22.49881036592346 0  30.2938779243844 22.49884373088809 0  35.29387795330609 22.49887717922846 0  40.29387796198651 22.49891075258075 0  45.29387794023823 22.49894449521987 0  50.29387787540214 22.49897845474702 0  55.29387775188456 22.49901268289786 0  60.293877550658 22.49904723649859 0  65.29387724873587 22.4990821785847 0  70.29387681864124 22.49911757968953 0  75.29387622792032 22.49915351929765 0  80.29387543879139 22.4991900874316 0  85.29387440810024 22.4992273862849 0  90.29387308787013 22.49926553170983 0  95.29387142692401 22.49930465417457 0  100.2938693743378 22.4993448984584 0  105.2938668858923 22.49938642075784 0  110.2938639352331 22.49942938086921 0  115.2938605320854 22.49947392548414 0  120.2938567503875 22.49952015612348 0  125.2938527690826 22.49956807169015 0  130.2938489262846 22.49961747140591 0  135.2938457811747 22.49966780106529 0  140.2938441630681 22.49971793072229 0  145.2938451580029 22.49976588371407 0  150.2938499380513 22.49980864815745 0  165.2938643343903 22.49986739778685 0  160.2938615094144 22.4998637193397 0  170.2938645242834 22.49987015679131 0  175.2938631823156 22.49987451959521 0  180.2938612443523 22.4998817600628 0  185.2938593161125 22.49989228501797 0  190.2938577127757 22.49990600920201 0  195.2938565539401 22.49992261911881 0  200.2938558463728 22.49994172568637 0  205.2938555405509 22.49996294156667 0  210.2938555648103 22.49998591501611 0  215.2938558441044 22.50001034092904 0  220.2938563092526 22.50003596091861 0  225.2938569007226 22.50006255874351 0  230.2938575694774 22.50008995424758 0  235.2938582763831 22.50011799728954 0  240.2938589910121 22.50014656227559 0  245.2938596902837 22.50017554348415 0  250.2938603571567 22.50020485118036 0  255.2938609794714 22.5002344084424 0  260.2938615489529 22.50026414860177 0  265.2938620603862 22.500294013204 0  270.2938625109309 22.50032395041094 0  275.2938628995674 22.50035391377898 0  280.2938632266608 22.50038386135628 0  285.2938634936564 22.50041375503581 0  290.2938637029496 22.50044356007001 0  295.293863858033 22.5004732
[...]
<PointData  Vectors="v"> 
<DataArray  type="Float64"  Name="v"  NumberOfComponents="3" format="ascii">1.0988450356381638e+00 7.6634452497764576e+00 0.0000000000000000e+00  1.6562492681312533e+00 7.1774030017927108e+00 0.0000000000000000e+00  1.5258867464378920e+00 6.3415696608313965e+00 0.0000000000000000e+00  1.0958544342477672e+00 7.0186816871919868e+00 0.0000000000000000e+00  2.3504090306921386e+00 7.7576874949546122e+00 0.0000000000000000e+00  2.0828603065344558e+00 6.7174193314016479e+00 0.0000000000000000e+00  2.9719106312898838e+00 8.7790647883211150e+00 0.0000000000000000e+00  2.7757735319109402e+00 7.8483482315900437e+00 0.0000000000000000e+00  3.5158008469883861e+00 9.0919722097075315e+00 0.0000000000000000e+00  3.3952871377205533e+00 8.2784399963591540e+00 0.0000000000000000e+00  4.1973293422111899e+00 9.9658427873982589e+00 0.0000000000000000e+00  3.9363969869710935e+00 8.9465528198694582e+00 0.0000000000000000e+00  4.7366858080864453e+00 1.0320388234476711e+01 0.0000000000000000e+00  4.6142245763744025e+00 9.5149815671571840e+00 0.0000000000000000e+00  4.8156785237908188e+00 1.0056827831118303e+01 0.0000000000000000e+00  5.1490545019936453e+00 9.9427491753983119e+00 0.0000000000000000e+00  5.8997970681209670e+00 1.1153153524525571e+01 0.0000000000000000e+00  5.2227706039538004e+00 9.5320647780497811e+00 0.0000000000000000e+00  2.7949477508201617e+00 5.9903479125376942e+00 0.0000000000000000e+00  6.3006703767304639e+00 1.0653466237538934e+01 0.0000000000000000e+00  1.3914123683143332e+01 2.1871508001473263e+01 0.0000000000000000e+00  3.1888682396386212e+00 5.1987027511694572e+00 0.0000000000000000e+00  1.3594641184491692e+01 2.0098088775946685e+01 0.0000000000000000e+00  1.4300592326589632e+01 2.0584558238711296e+01 0.0000000000000000e+00  1.3672016019224143e+01 1.8779037590545695e+01 0.0000000000000000e+00  1.3972579448908711e+01 1.8671209697450021e+01 0.0000000000000000e+00  1.4203237104127938e+01 1.8112298921550966e+01 0.0000000000000000e+00  1.4040128680869213e+01 1.7325022076086647e+01 0.0000000000000000e+00  1.5143465745120922e+01 1.8079722597704340e+01 0.0000000000000000e+00  1.4560155215902405e+01 1.6680283939078492e+01 0.0000000000000000e+00  1.6393693924185477e+01 1.8471317195594349e+01 0.0000000000000000e+00  1.5487344221449844e+01 1.6607914226083931e+01 0.0000000000000000e+00  1.7860290988299028e+01 1.9080060957544571e+01 0.0000000000000000e+00  1.6723055612883712e+01 1.6893534604930405e+01 0.0000000000000000e+00  1.9452675162300196e+01 1.9967074914977015e+01 0.0000000000000000e+00  1.8173804109457190e+01 1.7593120199649992e+01 0.0000000000000000e+00  2.1080393197533336e+01 2.0706109720077791e+01 0.0000000000000000e+00  1.9748485869555633e+01 1.8279979774981836e+01 0.0000000000000000e+00  2.2666729097147439e+01 2.1330590228753856e+01 0.0000000000000000e+00  2.1357351210143225e+01 1.8967957210422433e+01 0.0000000000000000e+00  2.4148111831712562e+01 2.1678679540778411e+01 0.0000000000000000e+00  2.2923501719173814e+01 1.9474276366511695e+01 0.0000000000000000e+00  2.5469111561939165e+01 2.1713986615941437e+01 0.0000000000000000e+00  2.4383450033160759e+01 1.9751110423037684e+01 0.0000000000000000e+00  2.6593979619625795e+01 2.0985103826897998e+01 0.0000000000000000e+00  2.5681601762576367e+01 1.9316920098888353e+01 0.0000000000000000e+00  2.7509074145562519e+01 2.0266314286837179e+01 0.0000000000000000e+00  2.6783625523042179e+01 1.8914283853249881e+01 0.0000000000000000e+00  2.8208740138271803e+01 1.8119136769306326e+01 0.0000000000000000e+00  2.7673470871671221e+01 1.7089105438557333e+01 0.0000000000000000e+00  2.8714936784133645e+01 1.6449148438122993e+01 0.0000000000000000e+00  2.8349626861248190e+01 1.5712293118998126e+01 0.0000000000000000e+00  2.9046457111194211e+01 1.2769392142703369e+01 0.0000000000000000e+00  2.8828542989991092e+01 1.2290961133090166e+01 0.0000000000000000e+00  2.9247307039402937e+01 1.0109893191021065e+01 0.0000000000000000e+00  2.9137335898355381e+01 9.8331219794348126e+00 0.0000000000000000e+00  2.9342348851049881e+01 5.2241793743866873e+00 0.0000000000000000e+00  2.9308827037241521e+01 5.0983633371927164e+00 0.0000000000000000e+00  2.9381791842522610e+01 1.2665655205701296e+00 0.0000000000000000e+00  2.9383384516779845e+01 1.2344903547295150e+00 0.0000000000000000e+00  2.9389262611992010e+01 -2.2221569656857428e-09 0.0000000000000000e+00  2.9389916198299765e+01 6.8475114514606557e-04 0.0000000000000000e+00  2.9389262614623217e+01 -2.8693833914000203e-19 0.0000000000000000e+00  2.0124715910558766e+01 -7.1116487045251624e+00 0.0000000000000000e+00  2.9383847209909973e+01 6.7595442568111785e+00 0.0000000000000000e+00  2.9389904732523195e+01 -6.5390793389393637e-04 0.0000000000000000e+00  2.0749684678281753e+01 -1.3369046946718301e+01 0.0000000000000000e+00  2.0152834538933856e+01 -1.4346446110817318e+01 0.0000000000000000e+00  1.7730615602685145e+01 -2.0810332591229152e+01 0.0000000000000000e+00  2.0815345299503445e+01 -1.6312165897413973e+01 0.0000000000000000e+00  1.6953786496144712e+01 -2.2286158981660542e+01 0.0000000000000000e+00  1.7834529654794039e+01 -2.1155661839329515e+01 0.0000000000000000e+00  1.5274050020794100e+01 -2.5063756036336525e+01 0.0000000000000000e+00  1.7095265580494065e+01 -2.2577002671160084e+01 0.0000000000000000e+00  1.4062669335444857e+01 -2.5276646834289657e+01 0.0000000000000000e+00  1.5452508288179464e+01 -2.3493255870714947e+01 0.0000000000000000e+00  1.2768116353020408e+01 -2.5355994806399753e+01 0.0000000000000000e+00  1.4278404560411424e+01 -2.3446579841491552e+01 0.0000000000000000e+00  1.1652677924774416e+01 -2.4304112128880618e+01 0.0000000000000000e+00  1.3020307964019805e+01 -2.2663916151090600e+01 0.0000000000000000e+00  1.0325023708149713e+01 -2.3136588694130129e+01 0.0000000000000000e+00  1.1940952891854646e+01 -2.1177379659536431e+01 0.0000000000000000e+00  9.3695386788346156e+00 -2.1295756070801602e+01 0.0000000000000000e+00  1.0649201251738734e+01 -1.9894605196654922e+01 0.0000000000000000e+00  8.5861961975498513e+00 -1.9441252387960983e+01 0.0000000000000000e+00  9.7291588772602182e+00 -1.8298109567314274e+01 0.0000000000000000e+00  7.7343057586139823e+00 -1.7748822438333189e+01 0.0000000000000000e+00  8.9808810766669218e+00 -1.6502584102397218e+01 0.0000000000000000e+00  6.9275014058549118e+00 -1.6150118411567330e+01 0.0000000000000000e+00  8.1638535066209528e+00 -1.4971127463510070e+01 0.0000000000000000e+00  6.1696487598111664e+00 -1.4734896944149282e+01 0.0000000000000000e+00  7.3914988260518673e+00 -1.3629138995827487e+01 0.0000000000000000e+00  5.4241791372237227e+00 -1.3439969569763957e+01 0.0000000000000000e+00  6.6677272405053554e+00 -1.2352436844747325e+01 0.0000000000000000e+00  4.7459616159364657e+00 -1.2199679215922053e+01 0.0000000000000000e+00  5.9560333602186564e+00 -1.1212690870781961e+01 0.0000000000000000e+00  4.1427472406631827e+00 -1.1061732327816538e+01 0.0000000000000000e+00  5.3112036379567460e+00 -1.0186961943345862e+01 0.0000000000000000e+00  3.5770484386240313e+00 -9.9735804028460677e+00 0.0000000000000000e+00  4.7409643651085682e+00 -9.1547896339870665e+00 0.0000000000000000e+00  3.0741843702462814e+00 -8.9112600322455577e+00 0.0000000000000000e+00  4.2079596317364931e+00 -8.1863408504541759e+00 0.0000000000000000e+00  2.6431704312384929e+00 -7.9139515680995300e+00 0.0000000000000000e+00  3.7373250572670718e+00 -7.2966194427160600e+00 0.0000000000000000e+00  2.2479519297548189e+00 -6.9102597857045396e+00 0.0000000000000000e+00  3.3383129825495259e+00 -6.3461714475724937e+00 0.0000000000000000e+00  1.9069416886897341e+00 -5.9756986263549665e+00 0.0000000000000000e+00  2.9745360060910953e+00 -5.4928720071986739e+00 0.0000000000000000e+00  1.6196997959639639e+00 -5.0231227462644217e+00 0.0000000000000000e+00  2.6650181954663195e+00 -4.6202556183188888e+00 0.0000000000000000e+00  1.3669173241208636e+00 -4.2085293536660799e+00 0.0000000000000000e+00  2.4082273567764809e+00 -3.8578201258172871e+00 0.0000000000000000e+00  1.1486022011411727e+00 -3.2701429599064888e+00 0.0000000000000000e+00  2.1868129646355912e+00 -2.9695709837189241e+00 0.0000000000000000e+00  9.5752016463382106e-01 -2.7326969598111019e+00 0.0000000000000000e+00  1.9974622322211644e+00 -2.4749513469451943e+00 0.0000000000000000e+00  7.8114481502943223e-01 -1.7829471376701824e+00 0.0000000000000000e+00  1.8385027950718009e+00 -1.5433117749072676e+00 0.0000000000000000e+00  5.4326673447325635e-01 -1.7263858811400010e+00 0.0000000000000000e+00  1.6882010434286614e+00 -1.4004876979431475e+00 0.0000000000000000e+00  1.8248826801992546e-01 -1.2022651618060212e+00 0.0000000000000000e+00  1.4864991226317981e+00 -6.8090837761737166e-01 0.0000000000000000e+00  -6.6133634586105317e-01 -7.3643658528270038e-03 0.0000000000000000e+00  1.1401844268395120e+00 1.2169938937794018e+00 0.0000000000000000e+00  1.8033915355589358e+00 5.6961644334804520e+00 0.0000000000000000e+00  1.3294790793050515e+00 6.3087891731020411e+00 0.0000000000000000e+00  2.2337437415753842e+00 5.8820342315613114e+00 0.0000000000000000e+00  2.7901888140850666e+00 6.8098152298690211e+00 0.0000000000000000e+00  3.4813536534590646e+00 7.3508154018603014e+00 0.0000000000000000e+00  4.0976878809286923e+00 8.1373014595746138e+00 0.0000000000000000e+00  4.6341670945048152e+00 8.5016859219213448e+00 0.0000000000000000e+00  5.3057263435003232e+00 9.1450267816082089e+00 0.0000000000000000e+00  5.8325274745878550e+00 9.4267654123779803e+00 0.0000000000000000e+00  5.8967442712524951e+00 9.0429199119206967e+00 0.0000000000000000e+00  6.9636496584847425e+00 9.8737007298479078e+00 0.0000000000000000e+00  3.8401020404709842e+00 3.9228624603603235e+00 0.0000000000000000e+00  1.4941105739427293e+01 1.9169699929163198e+01 0.0000000000000000e+00  1.4601942485087044e+01 1.7231581089826307e+01 0.0000000000000000e+00  1.4655875478692888e+01 1.5909243335256061e+01 0.0000000000000000e+00  1.5159628281328549e+01 1.5228556795062625e+01 0.0000000000000000e+00  1.6066921953088155e+01 1.5053436000113749e+01 0.0000000000000000e+00  1.7279210801861076e+01 1.5431908226710425e+01 0.0000000000000000e+00  1.8703517160702347e+01 1.5935306981711220e+01 0.0000000000000000e+00  2.0248178886086908e+01 1.6574087342708985e+01 0.0000000000000000e+00  2.1823593185230500e+01 1.7145526240854672e+01 0.0000000000000000e+00  2.3353660762371820e+01 1.7584394456544082e+01 0.0000000000000000e+00  2.4773991147942812e+01 1.7394102762863778e+01 0.0000000000000000e+00  2.6029880298050504e+01 1.7287452391438737e+01 0.0000000000000000e+00  2.7087025764211923e+01 1.5781113931505649e+01 0.0000000000000000e+00  2.7930263513943164e+01 1.4728169863662240e+01 0.0000000000000000e+00  2.8556789202557695e+01 1.1598935068972121e+01 0.0000000000000000e+00  2.8987859594967237e+01 9.4042567528197782e+00 0.0000000000000000e+00  2.9243722793771123e+01 4.8625831524727889e+00 0.0000000000000000e+00  2.9371273405746795e+01 1.1629079690180557e+00 0.0000000000000000e+00  2.9391483904352089e+01 1.3052718199506020e-03 0.0000000000000000e+00  2.9362805830810821e+01 6.8219015360902917e+00 0.0000000000000000e+00  2.9391462859142820e+01 -1.2860159767040323e-03 0.0000000000000000e+00  2.9301262307004567e+01 -5.1248375939103619e-01 0.0000000000000000e+00  2.0104490919997595e+01 -1.7332896274572253e+01 0.0000000000000000e+00  2.0811466256568302e+01 -1.6709894737625277e+01 0.0000000000000000e+00  1.7873140362815118e+01 -2.1494475212758655e+01 0.0000000000000000e+00  1.7176866667739528e+01 -2.1052099781121353e+01 0.0000000000000000e+00  1.5573641445873053e+01 -2.1709828249354043e+01 0.0000000000000000e+00  1.4438921817556627e+01 -2.0799096542452187e+01 0.0000000000000000e+00  1.3217948451311097e+01 -1.9579886870917431e+01 0.0000000000000000e+00  1.2174423345657814e+01 -1.7978171249780715e+01 0.0000000000000000e+00  1.0917577300195457e+01 -1.6938674439032521e+01 0.0000000000000000e+00  1.0031642648134323e+01 -1.5400124789972439e+01 0.0000000000000000e+00  9.3166502920606504e+00 -1.3765534011508509e+01 0.0000000000000000e+00  8.5325620270034737e+00 -1.2490140032700676e+01 0.0000000000000000e+00  7.7925799322247222e+00 -1.1285876234621725e+01 0.0000000000000000e+00  7.1005652149847807e+00 -1.0164065602876413e+01 0.0000000000000000e+00  6.4201444502209926e+00 -9.2382317239747618e+00 0.0000000000000000e+00  5.8059749502714313e+00 -8.3175306468294057e+00 0.0000000000000000e+00  5.2657472892964048e+00 -7.4046214749101065e+00 0.0000000000000000e+00  4.7621686019331877e+00 -6.6081301964887063e+00 0.0000000000000000e+00  4.3203656188422359e+00 -5.7645946682643263e+00 0.0000000000000000e+00  3.9494827410122717e+00 -4.9640413168472026e+00 0.0000000000000000e+00  3.6133609279579133e+00 -4.1720986038719969e+00 0.0000000000000000e+00  3.3307088986457609e+00 -3.4889469826648609e+00 0.0000000000000000e+00  3.1004581464825063e+00 -2.6524583303973057e+00 0.0000000000000000e+00  2.9044850433471110e+00 -2.2073068856763558e+00 0.0000000000000000e+00  2.7409039990309974e+00 -1.3177465138419711e+00 0.0000000000000000e+00  2.6053831941509493e+00 -1.1929920322026433e+00 0.0000000000000000e+00  2.4807118361568272e+00 -3.8746412317922402e-01 0.0000000000000000e+00  2.3004803430512055e+00 1.7169904329510346e+00 0.0000000000000000e+00  2.5164876541920433e+00 4.9844826856154194e+00 0.0000000000000000e+00  2.0883127358726501e+00 5.6680115497139152e+00 0.0000000000000000e+00  2.9916152972717258e+00 5.2356388338557718e+00 0.0000000000000000e+00  3.4232379707729015e+00 5.9754613644638690e+00 0.0000000000000000e+00  3.9791550884114066e+00 6.3158299191864025e+00 0.0000000000000000e+00  4.6677819895147490e+00 7.2162841404587317e+00 0.0000000000000000e+00  5.2791472118444611e+00 7.7026506677166315e+00 0.0000000000000000e+00  5.8075598346797950e+00 8.1454264921978439e+00 0.0000000000000000e+00  6.4680416044772802e+00 8.6466251877955909e+00 0.0000000000000000e+00  6.9806460687572391e+00 8.9590491446861922e+00 0.0000000000000000e+00  7.0274899428847073e+00 8.2873524353569508e+00 0.0000000000000000e+00  8.0752346774729293e+00 8.6226397473600365e+00 0.0000000000000000e+00  4.9338269398540850e+00 2.5297836975232588e+00 0.0000000000000000e+00  1.6020435561310979e+01 1.7751403079316788e+01 0.0000000000000000e+00  1.5667237237179924e+01 1.5842467145679208e+01 0.0000000000000000e+00  1.5702879984810988e+01 1.4491256686165439e+01 0.0000000000000000e+00  1.6181918351361325e+01 1.3715377992037121e+01 0.0000000000000000e+00  1.7057754130395484e+01 1.3641468361972715e+01 0.0000000000000000e+00  1.8231683540449527e+01 1.3831788817720470e+01 0.0000000000000000e+00  1.9610279349831938e+01 1.4294703088928275e+01 0.0000000000000000e+00  2.1102357611879686e+01 1.4824887584670233e+01 0.0000000000000000e+00  2.2618553935264160e+01 1.5336907183224213e+01 0.0000000000000000e+00  2.4081925382634537e+01 1.5314969236107149e+01 0.0000000000000000e+00  2.5429482524512611e+01 1.5460775866268230e+01 0.0000000000000000e+00  2.6605556571419243e+01 1.4254721405944800e+01 0.0000000000000000e+00  2.7578269292236193e+01 1.3528884255314663e+01 0.0000000000000000e+00  2.8330329796600527e+01 1.0722336364282462e+01 0.0000000000000000e+00  2.8865875493697910e+01 8.8314300333616682e+00 0.0000000000000000e+00  2.9198554818083391e+01 4.5353131557324913e+00 0.0000000000000000e+00  2.9368628327215273e+01 1.0556492608102745e+00 0.0000000000000000e+00  2.9393932793984909e+01 1.8678401951818119e-03 0.0000000000000000e+00  2.9344487850317154e+01 6.9830336528311179e+00 0.0000000000000000e+00  2.9393914046617905e+01 -1.8402791737264026e-03 0.0000000000000000e+00  2.9151844176497395e+01 -3.9012645828979448e-01 0.0000000000000000e+00  2.9080578221196607e+01 -3.5788635883646767e+00 0.0000000000000000e+00  1.9941475715099664e+01 -1.7825575417425558e+01 0.0000000000000000e+00  2.0720949395417872e+01 -1.7137665948974426e+01 0.0000000000000000e+00  1.7851706140396065e+01 -2.0059724457719561e+01 0.0000000000000000e+00  1.7221393625031908e+01 -1.9351241141064559e+01 0.0000000000000000e+00  1.5678804067860947e+01 -1.9141978133561029e+01 0.0000000000000000e+00  1.4601454145514689e+01 -1.7790283233522750e+01 0.0000000000000000e+00  1.3433519034990258e+01 -1.6452806138280231e+01 0.0000000000000000e+00  1.2440510136487323e+01 -1.5091551649477697e+01 0.0000000000000000e+00  1.1231961858374403e+01 -1.4108487667040897e+01 0.0000000000000000e+00  1.0392802418794952e+01 -1.2729318112025467e+01 0.0000000000000000e+00  9.7236009534480523e+00 -1.1349713036244735e+01 0.0000000000000000e+00  8.9845496516841923e+00 -1.0211054028524345e+01 0.0000000000000000e+00  8.2887468993383031e+00 -9.1605228905252254e+00 0.0000000000000000e+00  7.6401167217279689e+00 -8.2513634696316682e+00 0.0000000000000000e+00  7.0021294161730960e+00 -7.4293724399844683e+00 0.0000000000000000e+00  6.4293747814994333e+00 -6.6265217733103254e+00 0.0000000000000000e+00  5.9294830941804078e+00 -5.8842758268192359e+00 0.0000000000000000e+00  5.4652017848348331e+00 -5.1324916489387302e+00 0.0000000000000000e+00  5.0614584431793448e+00 -4.4377117440337024e+00 0.0000000000000000e+00  4.7277159787272653e+00 -3.6967135691440656e+00 0.0000000000000000e+00  4.4272755164507789e+00 -3.0936075681467519e+00 0.0000000000000000e+00  4.1796977934749346e+00 -2.3337887960973620e+00 0.0000000000000000e+00  3.9824797155526874e+00 -1.9411200534221844e+00 0.0000000000000000e+00  3.8198516100473627e+00 -1.0958908883468903e+00 0.0000000000000000e+00  3.6856186675640421e+00 -1.0183642190058284e+00 0.0000000000000000e+00  3.5837055457828830e+00 -2.1835219791798838e-01 0.0000000000000000e+00  3.4799565657673952e+00 1.9571735301419815e+00 0.0000000000000000e+00  3.4363345337511770e+00 4.3409430997416134e+00 0.0000000000000000e+00  3.0462912122007042e+00 5.0849863413001213e+00 0.0000000000000000e+00  3.8665141231563873e+00 4.5209140686244309e+00 0.0000000000000000e+00  4.3449532427808455e+00 5.3259517777238576e+00 0.0000000000000000e+00  4.7794321142717227e+00 5.4809438048773034e+00 0.0000000000000000e+00  5.3366514157954628e+00 6.1841478418575404e+00 0.0000000000000000e+00  6.0238663505209935e+00 6.7886058953058370e+00 0.0000000000000000e+00  6.6304502524669910e+00 7.3586754093446798e+00 0.0000000000000000e+00  7.1500955848946965e+00 7.6648690592884137e+00 0.0000000000000000e+00  7.7973181845144808e+00 8.2021522511572353e+00 0.0000000000000000e+00  8.2923276548607632e+00 8.2319524959250536e+00 0.0000000000000000e+00  8.3185167672866900e+00 7.0666811723326184e+00 0.0000000000000000e+00  9.3455711905440442e+00 7.2548120772663136e+00 0.0000000000000000e+00  6.1891202897255493e+00 1.1280984580257292e+00 0.0000000000000000e+00  1.7268646550038657e+01 1.6377297331601820e+01 0.0000000000000000e+00  1.6909224395417858e+01 1.4446566118257021e+01 0.0000000000000000e+00  1.6932493184570980e+01 1.3011783151119930e+01 0.0000000000000000e+00  1.7390198513751351e+01 1.2350049654676011e+01 0.0000000000000000e+00  1.8233920598767146e+01 1.2100247721683568e+01 0.0000000000000000e+00  1.9365359974307957e+01 1.2263998982703937e+01 0.0000000000000000e+00  2.0690777681047997e+01 1.2631330073901161e+01 0.0000000000000000e+00  2.2118660897308189e+01 1.3114787482651309e+01 0.0000000000000000e+00  2.3559663456273224e+01 1.3179418293619991e+01 0.0000000000000000e+00  2.4937410538300796e+01 1.3507661435606039e+01 0.0000000000000000e+00  2.6187315588115926e+01 1.2563862690984093e+01 0.0000000000000000e+00  2.7257105644628844e+01 1.2153374489014075e+01 0.0000000000000000e+00  2.8111952914615706e+01 9.6770422834749521e+00 0.0000000000000000e+00  2.8743435230872159e+01 8.1249075483252895e+00 0.0000000000000000e+00  2.9147086449380431e+01 4.1141446482912745e+00 0.0000000000000000e+00  2.9361997166438066e+01 9.1127018382049629e-01 0.0000000000000000e+00  2.9397169077914231e+01 2.3696151907105665e-03 0.0000000000000000e+00  2.9330404801731699e+01 7.2322418379099345e+00 0.0000000000000000e+00  2.9397151650318925e+01 -2.3316849600847115e-03 0.0000000000000000e+00  2.9032349937728760e+01 6.0613373028026041e-03 0.0000000000000000e+00  2.8736581702623919e+01 -3.44902814390