<?xml version="1.0"?>
<VTKFile type="UnstructuredGrid"  version="0.1"  >
<UnstructuredGrid>
<Piece  NumberOfPoints="1933" NumberOfCells="3640">
<Points>
<DataArray  type="Float64"  NumberOfComponents="3"  format="ascii">0.294020251265167 -0.001059825054816337 0  5.294020263622071 -0.001027646889018928 0  5.293971979674915 7.498972375871086 0  0.2939719677671866 7.498940199629526 0  10.2940202889749 -0.0009954820775119337 0  10.2939719967951 7.499004537320101 0  15.2940203344696 -0.0009633146977614487 0  15.29397201916859 7.499036701690305 0  20.29402040252774 -0.0009311269356780175 0  20.29397204546399 7.499068887081426 0  25.29402049202409 -0.0008989009836502747 0  25.29397207288529 7.499101111176648 0  30.29402059922496 -0.0008666195340010796 0  30.29397209709579 7.499133391081531 0  35.29402071836244 -0.0008342657084414645 0  35.29397211215384 7.499165743485308 0  40.29402084189422 -0.0008018227726388023 0  40.29397211041597 7.49919818496094 0  45.29402096051999 -0.0007692737807537592 0  45.29397208237515 7.499230732312703 0  50.29402106300759 -0.0007366012056743269 0  50.29397201641304 7.499263402932317 0  55.29402113585806 -0.0007037865706122124 0  55.29397189845074 7.49929621515229 0  60.29402116281612 -0.0006708100791683279 0  60.29397171148101 7.499329188598916 0  65.29402112421367 -0.0006376502315176239 0  65.29397143495915 7.499362344554911 0  70.29402099611113 -0.0006042834081245409 0  70.29397104402076 7.499395706345791 0  75.29402074918018 -0.0005706833962142691 0  75.29397050848301 7.499429299767367 0  80.29402034723401 -0.0005368208261400562 0  80.29396979156586 7.499463153574119 0  85.29401974526426 -0.0005026624732072551 0  85.29396884825472 7.4994973000495 0  90.29401888676095 -0.0004681703641642739 0  90.29396762319377 7.49953177567599 0  95.29401769996188 -0.0004333006059629198 0  95.29396604798093 7.499566621907469 0  100.2940160924536 -0.0003980018299829606 0  100.2939640377159 7.499601886001877 0  105.2940139431619 -0.0003622131289517889 0  105.2939614866799 7.499637621759199 0  110.2940110900946 -0.0003258613915996283 0  110.2939582631538 7.499673889744078 0  115.2940073110013 -0.0002888581095321802 0  115.2939542037744 7.499710755974655 0  120.2940022919711 -0.0002510962981502592 0  120.293949108792 7.49974828674977 0  125.2939955751512 -0.0002124497922303724 0  125.2939427418314 7.499786534479797 0  130.2939864699177 -0.000172781497657089 0  130.2939348426193 7.499825503476024 0  135.2939738997568 -0.0001319783835970444 0  135.2939251713056 7.499865072435121 0  140.2939561363993 -9.005979545559562e-05 0  140.2939136233129 7.499904825643195 0  145.2939303389424 -4.748002716164887e-05 0  145.2939004920008 7.499943696401406 0  150.2938917662429 -5.940554904354582e-06 0  150.2938870221715 7.499979234857298 0  160.2938926261462 4.751208017964061e-19 0  165.2939087560676 6.301728383721542e-06 0  165.2938950620758 7.500004693280681 0  160.293887537924 7.499995415016856 0  170.2939237575804 2.059405072595994e-05 0  170.293902377675 7.500020032881829 0  175.2939368999873 3.997419013370534e-05 0  175.2939094031505 7.500039818015598 0  180.2939481488213 6.276873030425418e-05 0  180.2939159707383 7.500062773648555 0  185.293957690413 8.793171871458556e-05 0  185.2939219741495 7.500087997790117 0  190.2939657609234 0.000114778198648227 0  190.2939273732746 7.500114863277172 0  195.2939725860288 0.0001428443900885711 0  195.2939321735641 7.50014293091576 0  200.2939783626657 0.0001718074603562354 0  200.293936406802 7.500171888586799 0  205.2939832565836 0.000201437178386082 0  205.2939401177214 7.500201510721609 0  210.2939874053238 0.0002315658009983381 0  210.293943355707 7.50023163154981 0  215.2939909225705 0.0002620687879137621 0  215.2939461700312 7.500262127306727 0  220.2939939023793 0.0002928521265082141 0  220.2939486073348 7.50029290423074 0  225.2939964228224 0.0003238437896563769 0  225.2939507104545 7.500323890325251 0  230.2939985489883 0.0003549878398620227 0  230.2939525180307 7.50035502959954 0  235.2940003354077 0.0003862402687537541 0  235.2939540645459 7.500386277968623 0  240.2940018280111 0.0004175660026816774 0  240.2939553805905 7.50041760028469 0  245.2940030657178 0.0004489367118367405 0  245.2939564932372 7.50044896815667 0  250.2940040817423 0.0004803291882042157 0  250.2939574264564 7.500480358331984 0  255.2940049046861 0.0005117241390248234 0  255.2939582015397 7.500511751490965 0  260.2940055594684 0.0005431052962611889 0  260.2939588375076 7.500543131355813 0  265.2940060681412 0.0005744587803594508 0  265.2939593514953 7.50057448405224 0  270.2940064506151 0.0006057726856882817 0  270.2939597591089 7.500605797689433 0  275.2940067253277 0.0006370368805414643 0  275.293960074742 7.500637062147234 0  280.2940069098566 0.0006682430406391095 0  280.2939603118512 7.500668269081122 0  285.2940070214738 0.0006993849651864531 0  285.2939604831686 7.500699412177844 0  290.2940070775907 0.0007304592615425959 0  290.2939606008407 7.500730487717289 0  295.2940070959829 0.0007614665273955844 0  295.2939606764834 7.500761495517033 0  300.2940070945488 0.0007924131911789627 0  300.2939607211572 7.500792440347282 0  305.2940070900977 0.0008233141113730212 0  305.2939607453619 7.500823333899546 0  310.2940070951582 0.0008541955341326555 0  310.2939607593273 7.500854197426289 0  5.293923686255669 14.99897241905963 0  0.2939236764318813 14.99894026044423 0  10.29392369366301 14.99900456381568 0  15.29392369651292 14.99903671472134 0  20.2939236917395 14.99906888953933 0  25.29392367553051 14.99910110498329 0  30.29392364319009 14.99913337718247 0  35.29392358893149 14.99916572199045 0  40.29392350566161 14.99919815527513 0  45.29392338475787 14.99923069321136 0  50.29392321582346 14.99926335257307 0  55.2939229864057 14.99929615102069 0  60.29392268166342 14.99932910738276 0  65.2939222839736 14.99936224193226 0  70.29392177246928 14.99939557665767 0  75.29392112250834 14.99942913552496 0  80.2939203050793 14.99946294471722 0  85.29391928617397 14.99949703282043 0  90.29391802618944 14.99953143088818 0  95.29391647949129 14.99956617225115 0  100.2939145943897 14.9996012918099 0  105.2939123139882 14.99963682431477 0  110.2939095787132 14.99967280070453 0  115.2939063318955 14.99970924079798 0  120.2939025306054 14.99974613926967 0  125.293898165045 14.9997834395497 0  130.2938932908475 14.99982098671989 0  135.2938880784629 14.99985844575847 0  140.2938828791266 14.99989516800861 0  145.2938782896308 14.99992999709925 0  150.293875151085 14.99996106368616 0  165.2938783350683 15.00000132504337 0  160.2938759039893 14.99998707495567 0  170.2938807636668 15.00001900877845 0  175.293883367933 15.00003981680802 0  180.2938861215651 15.00006317758434 0  185.2938889305565 15.00008852828518 0  190.2938916998335 15.00011540001447 0  195.2938943558233 15.00014342623451 0  200.293896849572 15.00017232748919 0  205.2938991529801 15.00020189230949 0  210.2939012535344 15.00023196049979 0  215.2939031495271 15.00026241004215 0  220.2939048463016 15.00029314728066 0  225.2939063535138 15.00032409968937 0  230.2939076832238 15.00035521056432 0  235.2939088486178 15.00038643511614 0  240.2939098631773 15.00041773757566 0  245.2939107401641 15.00044908903447 0  250.2939114923215 15.00048046582512 0  255.2939121317195 15.00051184830409 0  260.2939126696918 15.00054321994416 0  265.2939131168331 15.00057456667339 0  270.2939134830283 15.00060587642182 0  275.2939137774991 15.00063713885458 0  280.2939140088557 15.00066834528494 0  285.2939141851558 15.00069948876995 0  290.2939143139833 15.00073056439589 0  295.2939144025902 15.00076156975282 0  300.2939144581847 15.00079250557263 0  305.2939144885278 15.00082337645566 0  310.2939145031289 15.00085419154924 0  5.293875442585145 22.49897248076376 0  0.2938754345682724 22.49894036558888 0  10.29387544413186 22.49900459136536 0  15.29387543529999 22.49903671493204 0  20.29387541236466 22.4990688671546 0  25.29387537144412 22.49910106280159 0  30.2938753082642 22.49913331625173 0  35.29387521794267 22.49916564181585 0  40.29387509479315 22.49919805397328 0  45.29387493214927 22.4992305675763 0  50.29387472220839 22.49926319803898 0  55.29387445589021 22.4992959615109 0  60.29387412271265 22.49932887502862 0  65.29387371069232 22.49936195663428 0  70.29387320628773 22.49939522544137 0  75.29387259441953 22.499428701618 0  80.29387185862292 22.49946240623575 0  85.29387098142259 22.49949636089978 0  90.29386994506891 22.49953058701895 0  95.29386873284719 22.49956510448423 0  100.2938673312708 22.49959992937614 0  105.2938657335994 22.49963507009052 0  110.2938639452752 22.49967052091633 0  115.2938619919938 22.49970625158518 0  120.2938599311159 22.49974219063935 0  125.2938578667219 22.49977819977121 0  130.2938559673291 22.49981403610776 0  135.2938544822916 22.4998493012816 0  140.2938537471506 22.49988338389474 0  145.2938541593702 22.49991542435353 0  150.2938560983254 22.49994438522305 0  165.2938559591397 22.49999707424845 0  160.29385646157 22.49997857381046 0  170.293855535901 22.50001734575267 0  175.2938553580302 22.50003958618789 0  180.2938554847135 22.50006367068318 0  185.2938558976211 22.50008934190954 0  190.2938565404391 22.5001163168315 0  195.293857346494 22.50014433533031 0  200.2938582534404 22.50017317664057 0  205.2938592092904 22.50020266069383 0  210.2938601736957 22.50023264353056 0  215.2938611170088 22.50026301111284 0  220.2938620185285 22.50029367335721 0  225.2938628646301 22.50032455901581 0  230.293863647081 22.50035561151584 0  235.2938643616433 22.50038678566728 0  240.2938650069669 22.50041804509308 0  245.2938655837393 22.50044936023569 0  250.2938660940441 22.50048070681638 0  255.293866540885 22.50051206464849 0  260.2938669278334 22.50054341673003 0  265.2938672587729 22.50057474855912 0  270.2938675377111 22.50060604763213 0  275.2938677686529 22.50063730309414 0  280.2938679555205 22.50066850551743 0  285.2938681021317 22.50069964678349 0  290.2938682122598 22.50073072003332 0  295.2938682898147 22.5007617196281
[...]
<PointData  Vectors="v"> 
<DataArray  type="Float64"  Name="v"  NumberOfComponents="3" format="ascii">1.0893158601864599e+00 7.6739775734075621e+00 0.0000000000000000e+00  1.6472510369682141e+00 7.1849545009165299e+00 0.0000000000000000e+00  1.5163883217528198e+00 6.3483247228395170e+00 0.0000000000000000e+00  1.0858887692961143e+00 7.0285128242034762e+00 0.0000000000000000e+00  2.3417032600271757e+00 7.7646285446609831e+00 0.0000000000000000e+00  2.0738928772223844e+00 6.7239222053972920e+00 0.0000000000000000e+00  2.9636655803261878e+00 8.7872656866409518e+00 0.0000000000000000e+00  2.7670983513878031e+00 7.8558588030516114e+00 0.0000000000000000e+00  3.5082250794749905e+00 9.1002053720290697e+00 0.0000000000000000e+00  3.3870720371612046e+00 8.2856698372840167e+00 0.0000000000000000e+00  4.1901294996895837e+00 9.9745654554259673e+00 0.0000000000000000e+00  3.9288505943205512e+00 8.9547125587228464e+00 0.0000000000000000e+00  4.7299906535380574e+00 1.0329118705520610e+01 0.0000000000000000e+00  4.6070532243612901e+00 9.5229558291218233e+00 0.0000000000000000e+00  4.8098277117479986e+00 1.0066440016433592e+01 0.0000000000000000e+00  5.1423869094717007e+00 9.9510954381564520e+00 0.0000000000000000e+00  5.8943842642385533e+00 1.1162678045066505e+01 0.0000000000000000e+00  5.2169462730693903e+00 9.5409336635427273e+00 0.0000000000000000e+00  2.7902376533382949e+00 6.0002947966077178e+00 0.0000000000000000e+00  6.2952828980965316e+00 1.0662357368404685e+01 0.0000000000000000e+00  1.3909240071829906e+01 2.1880449376972194e+01 0.0000000000000000e+00  3.1841820362018720e+00 5.2079136933670309e+00 0.0000000000000000e+00  1.3590433592143631e+01 2.0107152237814130e+01 0.0000000000000000e+00  1.4295731570354128e+01 2.0592607692765583e+01 0.0000000000000000e+00  1.3668440314242856e+01 1.8788105479018370e+01 0.0000000000000000e+00  1.3968393217983621e+01 1.8679329986992752e+01 0.0000000000000000e+00  1.4200242709602438e+01 1.8121344541573990e+01 0.0000000000000000e+00  1.4036572829656111e+01 1.7333196370291439e+01 0.0000000000000000e+00  1.5140997876057220e+01 1.8088536874715032e+01 0.0000000000000000e+00  1.4557179194275527e+01 1.6688309559308333e+01 0.0000000000000000e+00  1.6391693583043399e+01 1.8479868800846667e+01 0.0000000000000000e+00  1.5484893176964029e+01 1.6615766057450159e+01 0.0000000000000000e+00  1.7858698836000386e+01 1.9088345111838549e+01 0.0000000000000000e+00  1.6721070549317403e+01 1.6901208362406301e+01 0.0000000000000000e+00  1.9451433436840812e+01 1.9974888232077319e+01 0.0000000000000000e+00  1.8172225905036139e+01 1.7600410300169848e+01 0.0000000000000000e+00  2.1079445886704374e+01 2.0713445407637497e+01 0.0000000000000000e+00  1.9747256546470741e+01 1.8286876287223553e+01 0.0000000000000000e+00  2.2666024299391818e+01 2.1337460826946920e+01 0.0000000000000000e+00  2.1356414987339527e+01 1.8974466648446597e+01 0.0000000000000000e+00  2.4147602881024156e+01 2.1684854335808470e+01 0.0000000000000000e+00  2.2922806718712668e+01 1.9480159769977220e+01 0.0000000000000000e+00  2.5468756781456619e+01 2.1719494850177274e+01 0.0000000000000000e+00  2.4382949683680380e+01 1.9756389296587706e+01 0.0000000000000000e+00  2.6593742488015824e+01 2.0989934161730858e+01 0.0000000000000000e+00  2.5681253786768131e+01 1.9321573830476659e+01 0.0000000000000000e+00  2.7508926017965944e+01 2.0270275609458523e+01 0.0000000000000000e+00  2.6783394915096871e+01 1.8918111381708805e+01 0.0000000000000000e+00  2.8208653972068795e+01 1.8122134015034217e+01 0.0000000000000000e+00  2.7673325696077789e+01 1.7092003128513824e+01 0.0000000000000000e+00  2.8714896665036573e+01 1.6451346498006796e+01 0.0000000000000000e+00  2.8349544797882523e+01 1.5714416449153513e+01 0.0000000000000000e+00  2.9046441855565838e+01 1.2770204220893124e+01 0.0000000000000000e+00  2.8828500102018545e+01 1.2291717442367625e+01 0.0000000000000000e+00  2.9247313139525488e+01 1.0109728394655839e+01 0.0000000000000000e+00  2.9137321256813777e+01 9.8329108779518464e+00 0.0000000000000000e+00  2.9342355176332816e+01 5.2227082726205856e+00 0.0000000000000000e+00  2.9308823283984978e+01 5.0968621387943198e+00 0.0000000000000000e+00  2.9381791889535791e+01 1.2627271499545760e+00 0.0000000000000000e+00  2.9383383952150378e+01 1.2306429063613999e+00 0.0000000000000000e+00  2.9389262614123250e+01 -4.2256210985128004e-10 0.0000000000000000e+00  2.9389916208304811e+01 6.8476088538455481e-04 0.0000000000000000e+00  2.9389262614623593e+01 -5.1164949877535367e-19 0.0000000000000000e+00  2.0125769088220881e+01 -7.1045141549500253e+00 0.0000000000000000e+00  2.9383844871411192e+01 6.7651644047710500e+00 0.0000000000000000e+00  2.9389904740169285e+01 -6.5391430527317882e-04 0.0000000000000000e+00  2.0749299166312248e+01 -1.3374700667251455e+01 0.0000000000000000e+00  2.0153974769321586e+01 -1.4349909800298718e+01 0.0000000000000000e+00  1.7730416048906921e+01 -2.0816357422684014e+01 0.0000000000000000e+00  2.0815036112733193e+01 -1.6318408583030049e+01 0.0000000000000000e+00  1.6952646876486948e+01 -2.2296775871317394e+01 0.0000000000000000e+00  1.7834401567205813e+01 -2.1164863558090079e+01 0.0000000000000000e+00  1.5272518533433027e+01 -2.5074911217485180e+01 0.0000000000000000e+00  1.7094206063957948e+01 -2.2587555042502572e+01 0.0000000000000000e+00  1.4060554694155257e+01 -2.5289222893179335e+01 0.0000000000000000e+00  1.5451058144881131e+01 -2.3504959053886317e+01 0.0000000000000000e+00  1.2765529891879059e+01 -2.5369267468083557e+01 0.0000000000000000e+00  1.4276379001044933e+01 -2.3459147534535830e+01 0.0000000000000000e+00  1.1649595078181926e+01 -2.4317579008288416e+01 0.0000000000000000e+00  1.3017816993136567e+01 -2.2676646161989474e+01 0.0000000000000000e+00  1.0321514182404620e+01 -2.3149929571996537e+01 0.0000000000000000e+00  1.1937973475642544e+01 -2.1190087835349473e+01 0.0000000000000000e+00  9.3656530130888171e+00 -2.1308848212528822e+01 0.0000000000000000e+00  1.0645803753338068e+01 -1.9907142928081399e+01 0.0000000000000000e+00  8.5821055502396995e+00 -1.9453622887501062e+01 0.0000000000000000e+00  9.7253946766680262e+00 -1.8310182481058636e+01 0.0000000000000000e+00  7.7300099333016963e+00 -1.7760381039716936e+01 0.0000000000000000e+00  8.9769211366732584e+00 -1.6513844109924079e+01 0.0000000000000000e+00  6.9230350782490628e+00 -1.6160766163757650e+01 0.0000000000000000e+00  8.1596976756143320e+00 -1.4981528358321812e+01 0.0000000000000000e+00  6.1650561265119812e+00 -1.4744622561477845e+01 0.0000000000000000e+00  7.3871818096401212e+00 -1.3638683732265982e+01 0.0000000000000000e+00  5.4194908916458946e+00 -1.3448641386804516e+01 0.0000000000000000e+00  6.6632930639535148e+00 -1.2360973574221875e+01 0.0000000000000000e+00  4.7412101943131217e+00 -1.2207312624858947e+01 0.0000000000000000e+00  5.9515126411862065e+00 -1.1220237764889202e+01 0.0000000000000000e+00  4.1379885736803939e+00 -1.1068395783769013e+01 0.0000000000000000e+00  5.3066287670414507e+00 -1.0193622664204032e+01 0.0000000000000000e+00  3.5723148917641505e+00 -9.9792189606349275e+00 0.0000000000000000e+00  4.7363911143058592e+00 -9.1604739137522042e+00 0.0000000000000000e+00  3.0695208108872616e+00 -8.9159764863191704e+00 0.0000000000000000e+00  4.2034202902098547e+00 -8.1911702512378497e+00 0.0000000000000000e+00  2.6386275938982022e+00 -7.9178324488188476e+00 0.0000000000000000e+00  3.7328643934619943e+00 -7.3006893150025789e+00 0.0000000000000000e+00  2.2435685120437308e+00 -6.9133740171847640e+00 0.0000000000000000e+00  3.3339816238238003e+00 -6.3495326121074633e+00 0.0000000000000000e+00  1.9027558893932397e+00 -5.9780960486616754e+00 0.0000000000000000e+00  2.9703725251223463e+00 -5.4955736373793602e+00 0.0000000000000000e+00  1.6157634510791929e+00 -5.0250509932579455e+00 0.0000000000000000e+00  2.6610607796679799e+00 -4.6225656592186537e+00 0.0000000000000000e+00  1.3632623833532105e+00 -4.2098009591141965e+00 0.0000000000000000e+00  2.4045275951124374e+00 -3.8595215298835139e+00 0.0000000000000000e+00  1.1452710091815232e+00 -3.2712553415438452e+00 0.0000000000000000e+00  2.1834029854262704e+00 -2.9711763136205804e+00 0.0000000000000000e+00  9.5457870059776606e-01 -2.7330274483818870e+00 0.0000000000000000e+00  1.9943838719590861e+00 -2.4758741304901117e+00 0.0000000000000000e+00  7.7862556651502168e-01 -1.7835352823290720e+00 0.0000000000000000e+00  1.8358226719948054e+00 -1.5445400402508649e+00 0.0000000000000000e+00  5.4135042534324473e-01 -1.7255266743096622e+00 0.0000000000000000e+00  1.6859503384987471e+00 -1.4005409290015713e+00 0.0000000000000000e+00  1.8156916508426604e-01 -1.2009981782827159e+00 0.0000000000000000e+00  1.4848608947458508e+00 -6.8114238983023356e-01 0.0000000000000000e+00  -6.6055804147674990e-01 -6.9342893084624775e-03 0.0000000000000000e+00  1.1395469179475906e+00 1.2148667568143969e+00 0.0000000000000000e+00  1.7935125498235927e+00 5.7022185124603464e+00 0.0000000000000000e+00  1.3192208619571466e+00 6.3180509037605539e+00 0.0000000000000000e+00  2.2243318208584499e+00 5.8877411186782052e+00 0.0000000000000000e+00  2.7813072279042474e+00 6.8168885005837314e+00 0.0000000000000000e+00  3.4727629973228336e+00 7.3573561297777115e+00 0.0000000000000000e+00  4.0895558460649681e+00 8.1444593781306978e+00 0.0000000000000000e+00  4.6267018109652698e+00 8.5090990723017068e+00 0.0000000000000000e+00  5.2986339306215067e+00 9.1526189341071795e+00 0.0000000000000000e+00  5.8259362995662363e+00 9.4343705664497168e+00 0.0000000000000000e+00  5.8909936413284321e+00 9.0511580125264963e+00 0.0000000000000000e+00  6.9583328637708401e+00 9.8818579141477141e+00 0.0000000000000000e+00  3.8354830234943447e+00 3.9311863167557948e+00 0.0000000000000000e+00  1.4936309726916058e+01 1.9176808742642837e+01 0.0000000000000000e+00  1.4597817651429599e+01 1.7238810573565029e+01 0.0000000000000000e+00  1.4652377548637464e+01 1.5916400493725313e+01 0.0000000000000000e+00  1.5156706660326043e+01 1.5235623136455628e+01 0.0000000000000000e+00  1.6064521685765829e+01 1.5060413311672525e+01 0.0000000000000000e+00  1.7277273024274987e+01 1.5438591209911953e+01 0.0000000000000000e+00  1.8701982618773002e+01 1.5941683708639889e+01 0.0000000000000000e+00  2.0246989751056915e+01 1.6580161034221341e+01 0.0000000000000000e+00  2.1822693645940774e+01 1.7151051613796902e+01 0.0000000000000000e+00  2.3352999141858426e+01 1.7589385118558546e+01 0.0000000000000000e+00  2.4773520287448246e+01 1.7398530171818447e+01 0.0000000000000000e+00  2.6029559153423975e+01 1.7291106133036756e+01 0.0000000000000000e+00  2.7086816808682510e+01 1.5783881342009247e+01 0.0000000000000000e+00  2.7930138290312186e+01 1.4730197526934843e+01 0.0000000000000000e+00  2.8556719848239631e+01 1.1599624086395663e+01 0.0000000000000000e+00  2.8987828722352823e+01 9.4039986612518742e+00 0.0000000000000000e+00  2.9243711872463432e+01 4.8610550870278066e+00 0.0000000000000000e+00  2.9371271833116712e+01 1.1590529977894708e+00 0.0000000000000000e+00  2.9391483943783232e+01 1.3052896468158637e-03 0.0000000000000000e+00  2.9362802613213898e+01 6.8275105809479255e+00 0.0000000000000000e+00  2.9391462893290207e+01 -1.2860276798248422e-03 0.0000000000000000e+00  2.9301280516503923e+01 -5.1751763420351526e-01 0.0000000000000000e+00  2.0105643510829889e+01 -1.7336968338462409e+01 0.0000000000000000e+00  2.0811174389173743e+01 -1.6719340552530863e+01 0.0000000000000000e+00  1.7873037843813030e+01 -2.1503628630366531e+01 0.0000000000000000e+00  1.7175838682792829e+01 -2.1063214278965038e+01 0.0000000000000000e+00  1.5572232025760339e+01 -2.1721535782376911e+01 0.0000000000000000e+00  1.4436945570829842e+01 -2.0811133490915076e+01 0.0000000000000000e+00  1.3215516273021374e+01 -1.9591869665663530e+01 0.0000000000000000e+00  1.2171512911535288e+01 -1.7990088117551537e+01 0.0000000000000000e+00  1.0914259337119217e+01 -1.6950204684467394e+01 0.0000000000000000e+00  1.0027968309825390e+01 -1.5411098878913098e+01 0.0000000000000000e+00  9.3127905225859031e+00 -1.3775647979580265e+01 0.0000000000000000e+00  8.5285165255086355e+00 -1.2499449449516543e+01 0.0000000000000000e+00  7.7883830468849968e+00 -1.1294243434375721e+01 0.0000000000000000e+00  7.0962607235500164e+00 -1.0171488553985174e+01 0.0000000000000000e+00  6.4157627256137086e+00 -9.2448168333895886e+00 0.0000000000000000e+00  5.8015480280961649e+00 -8.3232228481239119e+00 0.0000000000000000e+00  5.2613306716398149e+00 -7.4095070076225982e+00 0.0000000000000000e+00  4.7577943125350570e+00 -6.6123231722053299e+00 0.0000000000000000e+00  4.3160781047244559e+00 -5.7681547472197039e+00 0.0000000000000000e+00  3.9453323941886991e+00 -4.9669995727927319e+00 0.0000000000000000e+00  3.6093860714709787e+00 -4.1747223331577459e+00 0.0000000000000000e+00  3.3269474809525237e+00 -3.4910394381613079e+00 0.0000000000000000e+00  3.0969615428127337e+00 -2.6545025743998507e+00 0.0000000000000000e+00  2.9012852058760323e+00 -2.2087315137649979e+00 0.0000000000000000e+00  2.7380425904667920e+00 -1.3195757873799192e+00 0.0000000000000000e+00  2.6029265518071445e+00 -1.1936940499041748e+00 0.0000000000000000e+00  2.4786913120057150e+00 -3.8861934894856770e-01 0.0000000000000000e+00  2.2990776670253319e+00 1.7133564716420087e+00 0.0000000000000000e+00  2.5064111842894494e+00 4.9899678708353257e+00 0.0000000000000000e+00  2.0777752599158257e+00 5.6765808284915815e+00 0.0000000000000000e+00  2.9819176314643112e+00 5.2406458386363504e+00 0.0000000000000000e+00  3.4140060804061010e+00 5.9817407188786200e+00 0.0000000000000000e+00  3.9704512102340375e+00 6.3219362805098989e+00 0.0000000000000000e+00  4.6593661932534847e+00 7.2227567504068455e+00 0.0000000000000000e+00  5.2711862784540768e+00 7.7090666216669241e+00 0.0000000000000000e+00  5.8002612751638605e+00 8.1524628733208004e+00 0.0000000000000000e+00  6.4611108651992142e+00 8.6534822077743883e+00 0.0000000000000000e+00  6.9742110211462389e+00 8.9660300615532265e+00 0.0000000000000000e+00  7.0218892170110099e+00 8.2948636974776111e+00 0.0000000000000000e+00  8.0700611276904723e+00 8.6299167119689013e+00 0.0000000000000000e+00  4.9293441526540152e+00 2.5371757557121164e+00 0.0000000000000000e+00  1.6015769958825718e+01 1.7757628563018397e+01 0.0000000000000000e+00  1.5663235773762995e+01 1.5848687400063463e+01 0.0000000000000000e+00  1.5699498109504557e+01 1.4497462792485635e+01 0.0000000000000000e+00  1.6179105215955897e+01 1.3721578206248836e+01 0.0000000000000000e+00  1.7055454841410196e+01 1.3647463473108596e+01 0.0000000000000000e+00  1.8229838996487285e+01 1.3837567036277635e+01 0.0000000000000000e+00  1.9608830356817545e+01 1.4300265479410832e+01 0.0000000000000000e+00  2.1101246333353124e+01 1.4829985582013983e+01 0.0000000000000000e+00  2.2617724696182929e+01 1.5341548028011406e+01 0.0000000000000000e+00  2.4081326008923302e+01 1.5319116408241637e+01 0.0000000000000000e+00  2.5429066916868234e+01 1.5464211180388107e+01 0.0000000000000000e+00  2.6605281809103783e+01 1.4257323498935454e+01 0.0000000000000000e+00  2.7578100391858023e+01 1.3530790146842616e+01 0.0000000000000000e+00  2.8330234775964232e+01 1.0722940917807716e+01 0.0000000000000000e+00  2.8865830626284136e+01 8.8311163119821288e+00 0.0000000000000000e+00  2.9198538630463290e+01 4.5337539865037471e+00 0.0000000000000000e+00  2.9368626327322737e+01 1.0517847537080416e+00 0.0000000000000000e+00  2.9393932879812571e+01 1.8678649662868792e-03 0.0000000000000000e+00  2.9344485255892568e+01 6.9886511412359109e+00 0.0000000000000000e+00  2.9393914125640652e+01 -1.8402938858078526e-03 0.0000000000000000e+00  2.9151835423331967e+01 -3.9518861148598838e-01 0.0000000000000000e+00  2.9080596573690134e+01 -3.5845569557312289e+00 0.0000000000000000e+00  1.9942634674351165e+01 -1.7832873064111681e+01 0.0000000000000000e+00  2.0720681040553348e+01 -1.7147093411078597e+01 0.0000000000000000e+00  1.7851639783889304e+01 -2.0069462882373504e+01 0.0000000000000000e+00  1.7220418507891974e+01 -1.9362383762506095e+01 0.0000000000000000e+00  1.5677462962655079e+01 -1.9153177364402449e+01 0.0000000000000000e+00  1.4599562774345712e+01 -1.7801595171520930e+01 0.0000000000000000e+00  1.3431188631789702e+01 -1.6464019624667362e+01 0.0000000000000000e+00  1.2437718749015113e+01 -1.5102483142554197e+01 0.0000000000000000e+00  1.1228779660384660e+01 -1.4118940738196622e+01 0.0000000000000000e+00  1.0389280391516715e+01 -1.2739167366664191e+01 0.0000000000000000e+00  9.7199096764052850e+00 -1.1358756322604865e+01 0.0000000000000000e+00  8.9806881608629201e+00 -1.0219206118947517e+01 0.0000000000000000e+00  8.2847489568038757e+00 -9.1677958738169583e+00 0.0000000000000000e+00  7.6360255100868217e+00 -8.2578435144686928e+00 0.0000000000000000e+00  6.9979745753305282e+00 -7.4350072018517208e+00 0.0000000000000000e+00  6.4251877085488394e+00 -6.6314326677307793e+00 0.0000000000000000e+00  5.9253186607023416e+00 -5.8885416984385701e+00 0.0000000000000000e+00  5.4610913439665438e+00 -5.1361908837872745e+00 0.0000000000000000e+00  5.0574458676736072e+00 -4.4408843935081022e+00 0.0000000000000000e+00  4.7238511258490803e+00 -3.6996086937573893e+00 0.0000000000000000e+00  4.4235961532214008e+00 -3.0960281266646419e+00 0.0000000000000000e+00  4.1762414646083341e+00 -2.3362376755075234e+00 0.0000000000000000e+00  3.9792973086695178e+00 -1.9429972801040858e+00 0.0000000000000000e+00  3.8169748305969899e+00 -1.0982342781236167e+00 0.0000000000000000e+00  3.6830884589094861e+00 -1.0196808690846981e+00 0.0000000000000000e+00  3.5815889356594006e+00 -2.2016647657432956e-01 0.0000000000000000e+00  3.4782812872891098e+00 1.9526040610805266e+00 0.0000000000000000e+00  3.4260691854682785e+00 4.3457367629830967e+00 0.0000000000000000e+00  3.0356298611101034e+00 5.0929604275207749e+00 0.0000000000000000e+00  3.8567091613129527e+00 4.5253539222303756e+00 0.0000000000000000e+00  4.3355252534143984e+00 5.3315344476241293e+00 0.0000000000000000e+00  4.7704667454236400e+00 5.4862608097221148e+00 0.0000000000000000e+00  5.3282100003846287e+00 6.1901920949968945e+00 0.0000000000000000e+00  6.0157076292955916e+00 6.7943438909500475e+00 0.0000000000000000e+00  6.6227399966749170e+00 7.3647232525630146e+00 0.0000000000000000e+00  7.1430402189285296e+00 7.6711801280924590e+00 0.0000000000000000e+00  7.7906222765260473e+00 8.2083958328431521e+00 0.0000000000000000e+00  8.2861181341004944e+00 8.2382182956856731e+00 0.0000000000000000e+00  8.3131314557063369e+00 7.0733246730376891e+00 0.0000000000000000e+00  9.3406026227163608e+00 7.2611697669416602e+00 0.0000000000000000e+00  6.1848316060087321e+00 1.1346201480138927e+00 0.0000000000000000e+00  1.7264165522512787e+01 1.6382526675286741e+01 0.0000000000000000e+00  1.6905396526528605e+01 1.4451848856553333e+01 0.0000000000000000e+00  1.6929273538285720e+01 1.3017137088699940e+01 0.0000000000000000e+00  1.7387536162193729e+01 1.2355281876175022e+01 0.0000000000000000e+00  1.8231760239538211e+01 1.2105352228128158e+01 0.0000000000000000e+00  1.9363642569259717e+01 1.2268977077395487e+01 0.0000000000000000e+00  2.0689443983892861e+01 1.2635930800607104e+01 0.0000000000000000e+00  2.2117653093879465e+01 1.3119014606606944e+01 0.0000000000000000e+00  2.3558925601445722e+01 1.3183229214187342e+01 0.0000000000000000e+00  2.4936891311676508e+01 1.3510829755671773e+01 0.0000000000000000e+00  2.6186967610919758e+01 1.2566259827347649e+01 0.0000000000000000e+00  2.7256887897540043e+01 1.2155128462520405e+01 0.0000000000000000e+00  2.8111828397899163e+01 9.6775399191700942e+00 0.0000000000000000e+00  2.8743374655715222e+01 8.1245243926184223e+00 0.0000000000000000e+00  2.9147063977282166e+01 4.1125458241319786e+00 0.0000000000000000e+00  2.9361994231553957e+01 9.0739263488676747e-01 0.0000000000000000e+00  2.9397169222799622e+01 2.3696456379444174e-03 0.0000000000000000e+00  2.9330398646306797e+01 7.2378794409286993e+00 0.0000000000000000e+00  2.9397151787398890e+01 -2.3317038668773807e-03 0.0000000000000000e+00  2.9032321049933195e+01 1.0170103599364154e-03 0.0000000000000000e+00  2.8736544299291850e+01 -3.45476573659