<?xml version="1.0"?>
<VTKFile type="UnstructuredGrid"  version="0.1"  >
<UnstructuredGrid>
<Piece  NumberOfPoints="1933" NumberOfCells="3640">
<Points>
<DataArray  type="Float64"  NumberOfComponents="3"  format="ascii">0.2935740972783193 0.002223999404318357 0  5.293574103046648 0.002138676296708361 0  5.293702157438154 7.502138732440352 0  0.2937021194894112 7.502223997377112 0  10.29357409303222 0.002053282012550468 0  10.29370223853054 7.502053363730102 0  15.29357410511663 0.001967738220859755 0  15.2937023911357 7.501967831188845 0  20.29357419141968 0.00188200659022249 0  20.29370264567524 7.501882104538192 0  25.29357440728391 0.001796074927058323 0  25.29370303509906 7.501796175492982 0  30.29357480735932 0.001709948435800168 0  30.29370359433542 7.501710051246525 0  35.29357544492495 0.001623644199615175 0  35.29370435990124 7.501623749934532 0  40.29357637267996 0.00153718786203907 0  40.29370536989099 7.501537297798751 0  45.29357764418617 0.001450611863214431 0  45.29370666430144 7.501450727673087 0  50.29357931559935 0.001363954816669891 0  50.29370828559897 7.501364078495942 0  55.29358144754782 0.001277261777710383 0  55.29371027944524 7.501277395657487 0  60.2935841071272 0.001190585277910799 0  60.2937126955169 7.501190732086046 0  65.29358737003683 0.001103987098591012 0  65.29371558836692 7.501104150062657 0  70.29359132291019 0.001017540843754673 0  70.29371901827979 7.501017723833487 0  75.29359606591375 0.0009313354631984751 0  75.29372305206186 7.500931543175142 0  80.29360171569432 0.000845479984243568 0  80.29372776367907 7.500845718171803 0  85.29360840876754 0.0007601098549356016 0  85.29373323460666 7.500760385599256 0  90.29361630542327 0.0006753955106413047 0  90.29373955366889 7.500675717503158 0  95.29362559420073 0.0005915540942020152 0  95.29374681601446 7.500591932837758 0  100.2936364968735 0.0005088657608834702 0  100.2937551206685 7.50050931344296 0  105.2936492736487 0.0004276968082250354 0  105.2937645658009 7.50042822624762 0  110.2936642277125 0.0003485332031833284 0  110.2937752404378 7.500349154475914 0  115.2936817070115 0.0002720303098783761 0  115.2937872108668 7.500272741892057 0  120.2937020984498 0.0001990884069223338 0  120.2938004996546 7.500199855773284 0  125.2937258038702 0.0001309700610876355 0  125.2938150557373 7.500131676159697 0  130.2937531747468 6.948646231497551e-05 0  130.2938307174759 7.500069820173234 0  135.2937843557479 1.729775720996049e-05 0  135.2938471823169 7.500016508779058 0  140.293818928437 -2.160493123701477e-05 0  140.2938640312871 7.499974776966956 0  145.293855109018 -4.11840721108963e-05 0  145.2938809553855 7.499948731659215 0  150.2938878886113 -3.272843738223408e-05 0  150.2938986289031 7.499944037834021 0  160.2938926261463 1.073348422321979e-18 0  165.2937653261224 -0.0001540342082409707 0  165.2938696493757 7.499825729643757 0  160.2939103006721 7.499951092940472 0  170.2936872232113 -0.000296617034185437 0  170.2938283749948 7.49969306681822 0  175.2936370906753 -0.0004306382191002389 0  175.29379298279 7.499563511819535 0  180.2936037856729 -0.0005573278545809022 0  180.2937643763018 7.499439165215406 0  185.293581056989 -0.0006778407047897762 0  185.2937418458148 7.499319976504833 0  190.2935652400756 -0.0007932542297115211 0  190.2937243226518 7.499205342940749 0  195.2935541033276 -0.000904488334426365 0  195.2937107864984 7.499094583027069 0  200.2935462357292 -0.001012289434716093 0  200.2937003791444 7.498987079091827 0  205.2935407109906 -0.001117250375194149 0  205.2936924144348 7.498882310250287 0  210.2935368986128 -0.001219840174949548 0  210.2936863552374 7.498779848590905 0  215.2935343549006 -0.001320432044352988 0  215.2936817839577 7.498679344850211 0  220.293532758338 -0.001419326201978182 0  220.293678375771 7.498580513055448 0  225.2935318700903 -0.00151676734938984 0  225.2936758769102 7.498483117179521 0  230.293531509075 -0.001612957714554164 0  230.2936740879002 7.498386960412667 0  235.2935315357027 -0.001708066719551849 0  235.293672850886 7.498291876809741 0  240.2935318409242 -0.001802238175784039 0  240.2936720401304 7.498197724854045 0  245.293532338636 -0.001895595700432607 0  245.2936715548848 7.498104382487842 0  250.2935329602669 -0.001988246862423036 0  250.2936713140236 7.498011743236304 0  255.293533650848 -0.002080286422860905 0  255.293671251988 7.497919713136021 0  260.2935343661086 -0.002171798930436895 0  260.2936713157006 7.497828208251184 0  265.2935350703389 -0.002262860857421832 0  265.2936714622235 7.497737152617982 0  270.29353573483 -0.002353542406881757 0  270.2936716569903 7.497646476503007 0  275.293536336821 -0.002443909077105132 0  275.293671872482 7.49755611490035 0  280.2935368589007 -0.002534023024126437 0  280.2936720872733 7.497466006231109 0  285.293537288907 -0.002623944202034956 0  285.2936722853659 7.497376091258234 0  290.2935376203741 -0.002713731155080808 0  290.2936724557471 7.497286312302025 0  295.293537853665 -0.002803441127481415 0  295.293672592107 7.497196612955491 0  300.2935379978849 -0.002893128716324568 0  300.29367269264 7.497106938675281 0  305.2935380735362 -0.002982841304392445 0  305.2936727599624 7.497017238859892 0  310.2935381153055 -0.00307260713066887 0  310.293672801575 7.49692747119496 0  5.293829923438538 15.00213888603048 0  0.2938298754158064 15.00222400024531 0  10.29383002355907 15.00205358491739 0  15.29383020437318 15.00196807871273 0  20.29383048825468 15.00188236016147 0  25.2938308957378 15.00179643315796 0  30.29383144752608 15.00171031121943 0  35.29383216529435 15.00162401573895 0  40.29383307196689 15.00153757466389 0  45.29383419179996 15.00145102179816 0  50.29383555040219 15.00136439675322 0  55.29383717472578 15.00127774553065 0  60.29383909300964 15.00119112173261 0  65.29384133462844 15.00110458843564 0  70.29384392977629 15.00101822081487 0  75.29384690889475 15.00093210967002 0  80.29385030172111 15.00084636608393 0  85.29385413580141 15.00076112754349 0  90.29385843426776 15.00067656598135 0  95.29386321264487 15.00059289835557 0  100.2938684744326 15.00051040057275 0  105.2938742052849 15.00042942574821 0  110.2938803658399 15.00035042789772 0  115.2938868839058 15.00027399194152 0  120.2938936481129 15.00020086983452 0  125.2939005079899 15.00013201948196 0  130.2939072907072 15.00006863507904 0  135.2939138535484 15.00001213820533 0  140.2939202032363 14.99996405244002 0  145.2939267199324 14.99992556368429 0  150.2939344784637 14.99989620086537 0  165.2939402992394 14.99977109772292 0  160.2939485364271 14.99987223811229 0  170.2939259922595 14.9996584999709 0  175.2939090980078 14.99954184819484 0  180.2938922721284 14.99942540519643 0  185.293876887097 14.99931104335806 0  190.2938634792654 14.99919939409773 0  195.2938521318267 14.99909051529001 0  200.2938427103388 14.99898422510691 0  205.2938349927898 14.99888025975575 0  210.2938287365209 14.9987783442523 0  215.2938237099713 14.99867822151772 0  220.2938197057495 14.99857966210337 0  225.2938165442658 14.99848246533974 0  230.2938140729158 14.99838645702993 0  235.2938121634191 14.9982914860379 0  240.2938107086032 14.99819742078972 0  245.2938096192484 14.99810414607979 0  250.2938088212492 14.99801156029169 0  255.2938082531696 14.99791957302225 0  260.2938078641908 14.99782810305568 0  265.2938076124113 14.99773707662441 0  270.2938074634508 14.99764642590082 0  275.2938073893005 14.9975560876769 0  280.2938073673632 14.99746600220563 0  285.2938073796457 14.99737611219651 0  290.2938074120307 14.99728636197033 0  295.2938074536387 14.99719669676547 0  300.2938074962865 14.99710706208926 0  305.2938075342138 14.99701740264201 0  310.2938075644228 14.99692765921059 0  5.293957274527334 22.50213924908551 0  0.2939572243623973 22.50222417967857 0  10.29395736609464 22.50205403808427 0  15.29395752399413 22.50196857047937 0  20.29395776483834 22.50188286584672 0  25.29395810089569 22.50179694440925 0  30.2939585424947 22.50171082927039 0  35.29395909929195 22.5016245473193 0  40.29395978080817 22.50153812963385 0  45.29396059651835 22.50145161184884 0  50.29396155567031 22.5013650347394 0  55.29396266691329 22.50127844515652 0  60.29396393776422 22.50119189740512 0  65.29396537389923 22.50110545514859 0  70.29396697823069 22.50101919393732 0  75.29396874971987 22.50093320448899 0  80.29397068186036 22.50084759688454 0  85.29397276077891 22.50076250588306 0  90.29397496292414 22.50067809759301 0  95.29397725238101 22.50059457774447 0  100.2939795779882 22.50051220174833 0  105.2939818706967 22.50043128652669 0  110.2939840420651 22.50035222359048 0  115.2939859855397 22.50027549173987 0  120.2939875832938 22.50020166552464 0  125.2939887229077 22.50013141127358 0  130.2939893296461 22.50006545447887 0  135.2939894200918 22.50000448815695 0  140.2939891773729 22.49994896878063 0  145.2939890272215 22.49989871655482 0  150.2939896368514 22.49985223763833 0  165.2940092789979 22.49971120006641 0  160.2940016768529 22.49979874939636 0  170.2940109833181 22.49961307573572 0  175.2940082377425 22.49950876657567 0  180.294002729736 22.49940168447813 0  185.2939958731095 22.49929405620406 0  190.2939886486873 22.49918714753172 0  195.2939816576207 22.49908158925937 0  200.2939752266917 22.49897763464848 0  205.2939695032865 22.49887532790819 0  210.2939645254886 22.49877460531201 0  215.2939602691955 22.49867535283123 0  220.2939566780426 22.49857743766579 0  225.2939536815979 22.49848072473624 0  230.2939512059647 22.49838508475881 0  235.2939491796437 22.49829039772826 0  240.2939475365199 22.49819655396629 0  245.2939462171548 22.49810345393035 0  250.2939451691097 22.49801100743056 0  255.2939443467477 22.49791913259902 0  260.2939437107607 22.49782775478843 0  265.2939432275865 22.49773680548558 0  270.2939428687793 22.49764622127928 0  275.2939426103852 22.49755594289656 0  280.2939424323213 22.497465914308 0  285.2939423177679 22.49737608188816 0  290.2939422525636 22.49728639358938 0  295.29394222462 22.49719679802029 0  300.2939422233496 22.497107243
[...]
<PointData  Vectors="v"> 
<DataArray  type="Float64"  Name="v"  NumberOfComponents="3" format="ascii">3.6578196817394479e+00 -1.6115128434212986e+00 0.0000000000000000e+00  3.5124187339313075e+00 -1.8373181225733448e+00 0.0000000000000000e+00  2.8951226018033491e+00 -1.6192158763969302e+00 0.0000000000000000e+00  3.0022540857539108e+00 -1.4515465868468065e+00 0.0000000000000000e+00  3.2683331943452960e+00 -2.3497627266852787e+00 0.0000000000000000e+00  2.7496540280651653e+00 -1.9840608518974947e+00 0.0000000000000000e+00  2.9632178971904604e+00 -3.0818945962777518e+00 0.0000000000000000e+00  2.5058673993576348e+00 -2.6247383104679711e+00 0.0000000000000000e+00  2.6052484801766109e+00 -3.7923140410738161e+00 0.0000000000000000e+00  2.2012806741103876e+00 -3.2564136187539416e+00 0.0000000000000000e+00  2.1995985405756460e+00 -4.6332514687305499e+00 0.0000000000000000e+00  1.8441659376594715e+00 -4.0263414026788027e+00 0.0000000000000000e+00  1.8041016382667752e+00 -5.3886990698528114e+00 0.0000000000000000e+00  1.4401936492787766e+00 -4.7973404524932803e+00 0.0000000000000000e+00  1.6318692431765165e+00 -5.8108783552150083e+00 0.0000000000000000e+00  1.0469001223408398e+00 -5.5553051369572088e+00 0.0000000000000000e+00  1.1325805131837257e+00 -6.6738104852234654e+00 0.0000000000000000e+00  8.7755794651111829e-01 -5.9283827742232589e+00 0.0000000000000000e+00  3.0274180754801270e+00 -3.9453145740501849e+00 0.0000000000000000e+00  3.8232454285574924e-01 -6.7915014354773717e+00 0.0000000000000000e+00  -1.3458166859311356e+00 -1.0493197975523664e+01 0.0000000000000000e+00  2.2821210406187999e+00 -3.9387422696198686e+00 0.0000000000000000e+00  2.8614533816718100e-02 -8.1893456620222658e+00 0.0000000000000000e+00  -2.0862815394349350e+00 -1.0256437170993998e+01 0.0000000000000000e+00  3.1587741130117392e-01 -7.5203435856310099e+00 0.0000000000000000e+00  -7.0532644020993662e-01 -7.9590603574182088e+00 0.0000000000000000e+00  -2.0029809946483221e-02 -7.8275915483975744e+00 0.0000000000000000e+00  -4.0903994829504386e-01 -7.3335779428597201e+00 0.0000000000000000e+00  -8.0935791580883421e-01 -8.8124157107937950e+00 0.0000000000000000e+00  -7.3386542223281281e-01 -7.6407320439131432e+00 0.0000000000000000e+00  -1.8670028928524711e+00 -1.0140731742413616e+01 0.0000000000000000e+00  -1.5088507004951550e+00 -8.5679962374508118e+00 0.0000000000000000e+00  -3.1369888900027219e+00 -1.1669906601597113e+01 0.0000000000000000e+00  -2.5499931781348733e+00 -9.7816799569280963e+00 0.0000000000000000e+00  -4.5747144458962445e+00 -1.3360247496301911e+01 0.0000000000000000e+00  -3.8011169206299793e+00 -1.1222866457616929e+01 0.0000000000000000e+00  -6.1353538858015542e+00 -1.5027263364461605e+01 0.0000000000000000e+00  -5.2159794651952085e+00 -1.2707486460319185e+01 0.0000000000000000e+00  -7.7832310637827335e+00 -1.6664763171709616e+01 0.0000000000000000e+00  -6.7513931139663104e+00 -1.4218126262315728e+01 0.0000000000000000e+00  -9.4780071646684192e+00 -1.8188749915069323e+01 0.0000000000000000e+00  -8.3702425148876713e+00 -1.5674245779725311e+01 0.0000000000000000e+00  -1.1152799331167115e+01 -1.9498078591251716e+01 0.0000000000000000e+00  -1.0032181849348378e+01 -1.7017359931632019e+01 0.0000000000000000e+00  -1.2745355958707609e+01 -2.0409409177570542e+01 0.0000000000000000e+00  -1.1669078401315149e+01 -1.8054815602106615e+01 0.0000000000000000e+00  -1.4203207630600097e+01 -2.1022670578477879e+01 0.0000000000000000e+00  -1.3222047800399153e+01 -1.8876480202557303e+01 0.0000000000000000e+00  -1.5453232158906131e+01 -2.0820961298108518e+01 0.0000000000000000e+00  -1.4630609185853057e+01 -1.8985505103459957e+01 0.0000000000000000e+00  -1.6477113765767360e+01 -2.0144593861663299e+01 0.0000000000000000e+00  -1.5834003345688828e+01 -1.8660737406245524e+01 0.0000000000000000e+00  -1.7227525075755146e+01 -1.8258631574957942e+01 0.0000000000000000e+00  -1.6795074280013036e+01 -1.7176828451834027e+01 0.0000000000000000e+00  -1.7742336059528050e+01 -1.5434315852620770e+01 0.0000000000000000e+00  -1.7493164309949975e+01 -1.4728379710076229e+01 0.0000000000000000e+00  -1.8011414673573434e+01 -1.1388172798551361e+01 0.0000000000000000e+00  -1.7928590075257553e+01 -1.1029956832094454e+01 0.0000000000000000e+00  -1.8136942407269558e+01 -4.7402135345761689e+00 0.0000000000000000e+00  -1.8141698965770345e+01 -4.6362533438813678e+00 0.0000000000000000e+00  -1.8163563201378185e+01 2.7303516608496033e-11 0.0000000000000000e+00  -1.8163229807006115e+01 3.1823009523562995e-04 0.0000000000000000e+00  -1.8163563200128269e+01 -2.0896706869092145e-19 0.0000000000000000e+00  -1.3885288115763936e+01 1.1507509706303152e+01 0.0000000000000000e+00  -1.8132848161421876e+01 5.1255452598228688e+00 0.0000000000000000e+00  -1.8163230958513864e+01 -3.3661192178490476e-04 0.0000000000000000e+00  -1.2623137759928623e+01 2.0107932413271712e+01 0.0000000000000000e+00  -1.3904175220110764e+01 1.8284065459468504e+01 0.0000000000000000e+00  -1.0751201464888611e+01 2.3970577476257223e+01 0.0000000000000000e+00  -1.2700782874935292e+01 2.1199263087253442e+01 0.0000000000000000e+00  -9.6666258337169690e+00 2.4798779672127871e+01 0.0000000000000000e+00  -1.0883516849462030e+01 2.3219986076698493e+01 0.0000000000000000e+00  -8.4436871097607433e+00 2.4353061637788283e+01 0.0000000000000000e+00  -9.8480140164738028e+00 2.2558410440380726e+01 0.0000000000000000e+00  -7.4337525097998816e+00 2.2834687247286190e+01 0.0000000000000000e+00  -8.6707875415096112e+00 2.1360078197657284e+01 0.0000000000000000e+00  -6.4853185367639528e+00 2.1051945890504239e+01 0.0000000000000000e+00  -7.7054083802482491e+00 1.9664797768407730e+01 0.0000000000000000e+00  -5.6332091303388934e+00 1.9041919756562301e+01 0.0000000000000000e+00  -6.7976133843235447e+00 1.7799784123660302e+01 0.0000000000000000e+00  -4.7448295186179195e+00 1.7228465754568386e+01 0.0000000000000000e+00  -5.9842407279697065e+00 1.5928859689573878e+01 0.0000000000000000e+00  -4.0353029957253348e+00 1.5491310181050750e+01 0.0000000000000000e+00  -5.1331418728822014e+00 1.4458842033830711e+01 0.0000000000000000e+00  -3.4040014746477216e+00 1.3976107539830918e+01 0.0000000000000000e+00  -4.4587637636807527e+00 1.3059851436499414e+01 0.0000000000000000e+00  -2.7514960567772588e+00 1.2760969061812601e+01 0.0000000000000000e+00  -3.8611064356044444e+00 1.1811663534820815e+01 0.0000000000000000e+00  -2.1568119503392360e+00 1.1701171506057783e+01 0.0000000000000000e+00  -3.2412389535866617e+00 1.0837303614918907e+01 0.0000000000000000e+00  -1.6197106235498007e+00 1.0778509739418579e+01 0.0000000000000000e+00  -2.6776932289440483e+00 1.0000370094195846e+01 0.0000000000000000e+00  -1.1382634263118907e+00 9.9339332102583207e+00 0.0000000000000000e+00  -2.1706249259672248e+00 9.2382547073748746e+00 0.0000000000000000e+00  -7.2189666809093145e-01 9.1299970784177269e+00 0.0000000000000000e+00  -1.7183998525447370e+00 8.5311234258357356e+00 0.0000000000000000e+00  -3.6561982369498935e-01 8.3716571139655169e+00 0.0000000000000000e+00  -1.3302577251948471e+00 7.8623721766539996e+00 0.0000000000000000e+00  -5.3955247479123156e-02 7.6299294753091571e+00 0.0000000000000000e+00  -1.0014053342579607e+00 7.1869477213801272e+00 0.0000000000000000e+00  2.0983131288140919e-01 6.9044274631978704e+00 0.0000000000000000e+00  -7.1664883793743073e-01 6.5326657211274153e+00 0.0000000000000000e+00  4.3065990763757872e-01 6.1888397384796425e+00 0.0000000000000000e+00  -4.7905560206319142e-01 5.8812370107292091e+00 0.0000000000000000e+00  6.1536272326623864e-01 5.4841321730486863e+00 0.0000000000000000e+00  -2.8403273577059346e-01 5.2301952877874180e+00 0.0000000000000000e+00  7.6453810531134492e-01 4.7627295215713570e+00 0.0000000000000000e+00  -1.2458695545119219e-01 4.5619471604143493e+00 0.0000000000000000e+00  8.7141392673259976e-01 4.0837736304575198e+00 0.0000000000000000e+00  -6.0435210825442653e-04 3.9458687813928477e+00 0.0000000000000000e+00  9.4598063064910642e-01 3.3294102751789523e+00 0.0000000000000000e+00  8.1954766605758109e-02 3.2403318207075618e+00 0.0000000000000000e+00  9.7430150557147011e-01 2.6986042417958211e+00 0.0000000000000000e+00  1.3143763549657153e-01 2.6776424610644676e+00 0.0000000000000000e+00  9.6064114339335360e-01 1.8805209230164861e+00 0.0000000000000000e+00  1.3659613021944605e-01 1.9241812772342077e+00 0.0000000000000000e+00  8.9609854571744574e-01 1.3989393715486171e+00 0.0000000000000000e+00  9.7166277984833099e-02 1.5157699971429144e+00 0.0000000000000000e+00  7.6619532121558209e-01 4.3106772082828027e-01 0.0000000000000000e+00  1.1688309565522631e-02 6.5084086974725841e-01 0.0000000000000000e+00  5.2162817104057768e-01 -5.0101730701129735e-02 0.0000000000000000e+00  -1.4738179474730556e-01 3.3272976112346830e-01 0.0000000000000000e+00  -5.9013181318094556e-02 -2.8477490566662556e-01 0.0000000000000000e+00  -4.0360180516805400e-01 6.1965154230434294e-01 0.0000000000000000e+00  2.0091752798188507e+00 -1.4574952917417066e+00 0.0000000000000000e+00  2.1170151796929964e+00 -1.2920421340092987e+00 0.0000000000000000e+00  1.9003592355001613e+00 -1.7645194525881425e+00 0.0000000000000000e+00  1.7526488636020447e+00 -2.2578729852731576e+00 0.0000000000000000e+00  1.5066792515452336e+00 -2.7984384768172803e+00 0.0000000000000000e+00  1.2001984199245934e+00 -3.4895082571352845e+00 0.0000000000000000e+00  8.4145750975095668e-01 -4.1909313590913149e+00 0.0000000000000000e+00  4.3672810095105624e-01 -4.9656659401759917e+00 0.0000000000000000e+00  4.4030708890613501e-02 -5.6748838660084715e+00 0.0000000000000000e+00  -1.2359365919367593e-01 -6.0508616332613121e+00 0.0000000000000000e+00  -6.1457581087779800e-01 -6.7923037981104439e+00 0.0000000000000000e+00  1.2904811400183185e+00 -3.7041911182802201e+00 0.0000000000000000e+00  -3.0786749241999209e+00 -1.0029683832015971e+01 0.0000000000000000e+00  -1.6973316033940502e+00 -7.7821319882406446e+00 0.0000000000000000e+00  -1.3938537830708499e+00 -7.1585887442574556e+00 0.0000000000000000e+00  -1.7079016458809584e+00 -7.4152187888846299e+00 0.0000000000000000e+00  -2.4664676351492840e+00 -8.2318240475568594e+00 0.0000000000000000e+00  -3.4869090220879477e+00 -9.3595115468786574e+00 0.0000000000000000e+00  -4.7137027453297522e+00 -1.0602663060661815e+01 0.0000000000000000e+00  -6.0987254323388438e+00 -1.1935617784741209e+01 0.0000000000000000e+00  -7.5987492410054198e+00 -1.3267911081632491e+01 0.0000000000000000e+00  -9.1776673743652815e+00 -1.4553000728047040e+01 0.0000000000000000e+00  -1.0791397235060563e+01 -1.5630396380697974e+01 0.0000000000000000e+00  -1.2373416042863100e+01 -1.6583942946117073e+01 0.0000000000000000e+00  -1.3862597173218361e+01 -1.6912539198886769e+01 0.0000000000000000e+00  -1.5199326559864405e+01 -1.6907838708396749e+01 0.0000000000000000e+00  -1.6316717235282162e+01 -1.5780483889457175e+01 0.0000000000000000e+00  -1.7189002617100119e+01 -1.3756921404050827e+01 0.0000000000000000e+00  -1.7771327319206879e+01 -1.0420165396131626e+01 0.0000000000000000e+00  -1.8104142197414621e+01 -4.4295756087128471e+00 0.0000000000000000e+00  -1.8162421571574139e+01 6.0656999816009250e-04 0.0000000000000000e+00  -1.8092017820460310e+01 4.9295831505376198e+00 0.0000000000000000e+00  -1.8162423645215419e+01 -6.9196401994119495e-04 0.0000000000000000e+00  -1.7900928035593328e+01 1.1959985182907815e+01 0.0000000000000000e+00  -1.3742824205580828e+01 1.9451722532164251e+01 0.0000000000000000e+00  -1.2625794712042753e+01 2.0536620543032740e+01 0.0000000000000000e+00  -1.0876552321970999e+01 2.1045246851923309e+01 0.0000000000000000e+00  -9.9045928327165029e+00 1.9623948096405908e+01 0.0000000000000000e+00  -8.7790642462239141e+00 1.8249821581440091e+01 0.0000000000000000e+00  -7.8643415569672337e+00 1.6464235138482152e+01 0.0000000000000000e+00  -7.0001810096834589e+00 1.4733306541286968e+01 0.0000000000000000e+00  -6.2272263139199611e+00 1.3205749270128413e+01 0.0000000000000000e+00  -5.4139609274465181e+00 1.2069861759733637e+01 0.0000000000000000e+00  -4.7749291003415246e+00 1.0934926895072381e+01 0.0000000000000000e+00  -4.2101932184804349e+00 9.9271485428332777e+00 0.0000000000000000e+00  -3.6220352529645199e+00 9.1731894222799877e+00 0.0000000000000000e+00  -3.0882695933617677e+00 8.4946035165370155e+00 0.0000000000000000e+00  -2.6092502078297342e+00 7.8693317431675069e+00 0.0000000000000000e+00  -2.1839163301096853e+00 7.2957214661614351e+00 0.0000000000000000e+00  -1.8213159645060260e+00 6.7083850163013441e+00 0.0000000000000000e+00  -1.5167855339505396e+00 6.1199108309196326e+00 0.0000000000000000e+00  -1.2555498363287390e+00 5.5386596155031267e+00 0.0000000000000000e+00  -1.0406468835031542e+00 4.9508602554390055e+00 0.0000000000000000e+00  -8.6753014857188093e-01 4.3359446896874028e+00 0.0000000000000000e+00  -7.2960875137918291e-01 3.7724324110369176e+00 0.0000000000000000e+00  -6.2651726896224080e-01 3.1292042224689265e+00 0.0000000000000000e+00  -5.6467202897208135e-01 2.6152014142202962e+00 0.0000000000000000e+00  -5.3519080129125030e-01 1.9294196144785787e+00 0.0000000000000000e+00  -5.5046446652399639e-01 1.5851388645262243e+00 0.0000000000000000e+00  -6.0859526251942930e-01 7.9349545543974409e-01 0.0000000000000000e+00  -7.1469026153253923e-01 5.7866824332340971e-01 0.0000000000000000e+00  -8.9108691016339159e-01 1.0197041594137726e+00 0.0000000000000000e+00  7.0038861837533306e-01 -1.2934614467101782e+00 0.0000000000000000e+00  7.9246225531125924e-01 -1.1573482663771955e+00 0.0000000000000000e+00  5.8883121206414191e-01 -1.5974732818315069e+00 0.0000000000000000e+00  4.7376069014760103e-01 -2.0323427829841103e+00 0.0000000000000000e+00  3.1976672868402051e-01 -2.4250405904361192e+00 0.0000000000000000e+00  6.6755084513025434e-02 -3.0253685756005311e+00 0.0000000000000000e+00  -2.4683862993725664e-01 -3.6491354874886266e+00 0.0000000000000000e+00  -6.1158507141506657e-01 -4.3554395651937678e+00 0.0000000000000000e+00  -1.0212447313232897e+00 -5.0843350329951775e+00 0.0000000000000000e+00  -1.4166321540073417e+00 -5.8005246808287634e+00 0.0000000000000000e+00  -1.5828323406408502e+00 -6.0597802782952037e+00 0.0000000000000000e+00  -2.0684982961477663e+00 -6.5658835706666618e+00 0.0000000000000000e+00  -1.6302449181824891e-01 -3.4707303067431683e+00 0.0000000000000000e+00  -4.5450143499586808e+00 -9.8463055029936228e+00 0.0000000000000000e+00  -3.1744327423089671e+00 -7.6169463237902706e+00 0.0000000000000000e+00  -2.8689259698270555e+00 -6.9534313719086258e+00 0.0000000000000000e+00  -3.1712298777088539e+00 -7.1093307222620910e+00 0.0000000000000000e+00  -3.9100325071873345e+00 -7.8501347617723134e+00 0.0000000000000000e+00  -4.9035862768885679e+00 -8.7893908187934020e+00 0.0000000000000000e+00  -6.0951025795346832e+00 -9.8903024767504206e+00 0.0000000000000000e+00  -7.4373349396066901e+00 -1.1056945047099381e+01 0.0000000000000000e+00  -8.8860704958041303e+00 -1.2232083441827660e+01 0.0000000000000000e+00  -1.0401402846744256e+01 -1.3263599447764078e+01 0.0000000000000000e+00  -1.1941009878514784e+01 -1.4278883323455709e+01 0.0000000000000000e+00  -1.3431946614583335e+01 -1.4752804928739673e+01 0.0000000000000000e+00  -1.4816501187044175e+01 -1.4998435000781409e+01 0.0000000000000000e+00  -1.6023323602097953e+01 -1.4200370014342997e+01 0.0000000000000000e+00  -1.6999352213081579e+01 -1.2587985451616573e+01 0.0000000000000000e+00  -1.7688194864928267e+01 -9.6529281166117986e+00 0.0000000000000000e+00  -1.8095456294000225e+01 -4.1454037958589796e+00 0.0000000000000000e+00  -1.8161163084468168e+01 8.6605488448249798e-04 0.0000000000000000e+00  -1.8071376948843856e+01 4.5844748582081154e+00 0.0000000000000000e+00  -1.8161165194869969e+01 -1.0058222981716694e-03 0.0000000000000000e+00  -1.7669552850870797e+01 1.1610078367214737e+01 0.0000000000000000e+00  -1.7468310409306689e+01 1.3304090578167347e+01 0.0000000000000000e+00  -1.3433907271014263e+01 1.8969680757769250e+01 0.0000000000000000e+00  -1.2455524086438402e+01 1.8501341641871228e+01 0.0000000000000000e+00  -1.0814474267340373e+01 1.8243094376146910e+01 0.0000000000000000e+00  -9.9358311917988740e+00 1.6620612126577143e+01 0.0000000000000000e+00  -8.8884412494854441e+00 1.5148730464851782e+01 0.0000000000000000e+00  -8.0443996610963975e+00 1.3485852534781532e+01 0.0000000000000000e+00  -7.2412765638688850e+00 1.2091103359719199e+01 0.0000000000000000e+00  -6.5247510178378638e+00 1.0890716041704584e+01 0.0000000000000000e+00  -5.7629025453302054e+00 1.0015002919546399e+01 0.0000000000000000e+00  -5.1717602184287745e+00 9.1159015540450792e+00 0.0000000000000000e+00  -4.6523220265741783e+00 8.3250609712975407e+00 0.0000000000000000e+00  -4.1069203823366633e+00 7.7261789643329628e+00 0.0000000000000000e+00  -3.6131260849540450e+00 7.1810153171289954e+00 0.0000000000000000e+00  -3.1718100176178412e+00 6.6862225347062276e+00 0.0000000000000000e+00  -2.7818969755324021e+00 6.1915955592468226e+00 0.0000000000000000e+00  -2.4526467769587343e+00 5.6887208359032622e+00 0.0000000000000000e+00  -2.1797637124403462e+00 5.1713539160381004e+00 0.0000000000000000e+00  -1.9487435718166579e+00 4.6520432589296874e+00 0.0000000000000000e+00  -1.7626816795947116e+00 4.0991341006708586e+00 0.0000000000000000e+00  -1.6175971798766662e+00 3.5874782154382823e+00 0.0000000000000000e+00  -1.5066311164455017e+00 2.9965179360319891e+00 0.0000000000000000e+00  -1.4302309553952282e+00 2.5430100623996061e+00 0.0000000000000000e+00  -1.3937859752461179e+00 1.9069306599507945e+00 0.0000000000000000e+00  -1.3903746548715135e+00 1.6266028321256569e+00 0.0000000000000000e+00  -1.4288348924845502e+00 9.0363081001973578e-01 0.0000000000000000e+00  -1.5139049343458630e+00 7.5221568557840268e-01 0.0000000000000000e+00  -1.6368583501274088e+00 1.3086595871638436e+00 0.0000000000000000e+00  -5.0446229994990999e-01 -1.1521245293584703e+00 0.0000000000000000e+00  -4.3268548326164613e-01 -1.0543742384589672e+00 0.0000000000000000e+00  -6.0169527846883664e-01 -1.4243335490242193e+00 0.0000000000000000e+00  -7.2274070573014992e-01 -1.8520172336958738e+00 0.0000000000000000e+00  -8.4920625166337393e-01 -2.1852916698213822e+00 0.0000000000000000e+00  -1.0163570102762012e+00 -2.6364597791831592e+00 0.0000000000000000e+00  -1.2832281542889457e+00 -3.1687697578510732e+00 0.0000000000000000e+00  -1.6110749707114203e+00 -3.7989934485778698e+00 0.0000000000000000e+00  -1.9892793352108515e+00 -4.4618589342206407e+00 0.0000000000000000e+00  -2.4098739085112681e+00 -5.2017246747560382e+00 0.0000000000000000e+00  -2.8118561345012507e+00 -5.8093958474261420e+00 0.0000000000000000e+00  -2.9795831615737649e+00 -5.8383311367300932e+00 0.0000000000000000e+00  -3.4653105153340458e+00 -6.3230728069466169e+00 0.0000000000000000e+00  -1.5744276769666088e+00 -3.2510496618625226e+00 0.0000000000000000e+00  -5.9927340807095826e+00 -9.6486343972515787e+00 0.0000000000000000e+00  -4.6528049039875956e+00 -7.4021986194674216e+00 0.0000000000000000e+00  -4.3595539261667717e+00 -6.6552834913736820e+00 0.0000000000000000e+00  -4.6619493824476583e+00 -6.7502175642125133e+00 0.0000000000000000e+00  -5.3887602078842729e+00 -7.3125707066453192e+00 0.0000000000000000e+00  -6.3623824738003947e+00 -8.1241130623233246e+00 0.0000000000000000e+00  -7.5249402457669730e+00 -9.0707186608872643e+00 0.0000000000000000e+00  -8.8281216294257252e+00 -1.0094194112903223e+01 0.0000000000000000e+00  -1.0226194586482217e+01 -1.1034610354545881e+01 0.0000000000000000e+00  -1.1678072944137687e+01 -1.2028260332079492e+01 0.0000000000000000e+00  -1.3133307553274772e+01 -1.2583549195326324e+01 0.0000000000000000e+00  -1.4523092445603268e+01 -1.3016610495042137e+01 0.0000000000000000e+00  -1.5773099780603143e+01 -1.2488328940913780e+01 0.0000000000000000e+00  -1.6827265500242223e+01 -1.1275743427329829e+01 0.0000000000000000e+00  -1.7594207607032793e+01 -8.7417982296482464e+00 0.0000000000000000e+00  -1.8073710707825729e+01 -3.7897496607689773e+00 0.0000000000000000e+00  -1.8159505268052147e+01 1.0955963430887201e-03 0.0000000000