<?xml version="1.0"?>
<VTKFile type="UnstructuredGrid"  version="0.1"  >
<UnstructuredGrid>
<Piece  NumberOfPoints="1933" NumberOfCells="3640">
<Points>
<DataArray  type="Float64"  NumberOfComponents="3"  format="ascii">-0.475263473850202 -0.002276936828849119 0  4.524736558089115 -0.002210549414425696 0  4.524636944123587 7.49778951317159 0  -0.4753630899263872 7.497723124633964 0  9.524736619370943 -0.002144200729730581 0  9.524636994822686 7.497855856371031 0  14.52473673067427 -0.002077860636769077 0  14.52463706505114 7.497922190458779 0  19.52473690286994 -0.002011490681149963 0  19.52463715466913 7.497988555369938 0  24.52473713879943 -0.001945049978605187 0  24.5246372603785 7.498054992080064 0  29.52473743518217 -0.001878497226926838 0  29.52463737552058 7.498121541608854 0  34.52473778397211 -0.001811791041616398 0  34.52463748991592 7.498188244999683 0  39.52473817310977 -0.001744889550874078 0  39.52463758966346 7.498255143808076 0  44.52473858676155 -0.001677749658705261 0  44.52463765681772 7.498322280845155 0  49.5247390051406 -0.001610326147018757 0  49.5246376688855 7.498389701057203 0  54.52473940396744 -0.00154257067346187 0  54.52463759809597 7.498457452500503 0  59.52473975358746 -0.001474430662753295 0  59.52463741039691 7.498525587415874 0  64.52474001772042 -0.001405848053875648 0  64.52463706411551 7.498594163436316 0  69.52474015176787 -0.001336757837647177 0  69.52463650820012 7.498663244983503 0  74.52474010055236 -0.001267086289490436 0  74.52463567992442 7.498732904930591 0  79.524739795277 -0.001196748763400447 0  79.52463450188915 7.498803226633378 0  84.52473914937633 -0.001125646857988446 0  84.52463287809543 7.498874306460282 0  89.52473805272857 -0.001053664685715854 0  89.52463068878568 7.498946256980456 0  94.52473636337575 -0.0009806638624064346 0  94.52462778366001 7.499019210986281 0  99.5247338953296 -0.0009064766777712519 0  99.52462397300113 7.499093326497771 0  104.5247304000587 -0.0008308967127754481 0  104.524619016238 7.49916879274036 0  109.5247255374937 -0.0007536659818063964 0  109.524612607712 7.499245836614423 0  114.5247188292293 -0.0006744576666612062 0  114.5246043602587 7.499324727967394 0  119.5247095808558 -0.000592854186189277 0  119.524593789489 7.499405779124439 0  124.5246967498881 -0.0005083231330924082 0  124.524580307155 7.499489327705938 0  129.5246787166774 -0.0004202023834615253 0  129.5245632443892 7.499575677800978 0  134.5246528810611 -0.0003277311767880207 0  134.5245419524045 7.499664945404022 0  139.524614944911 -0.0002302376527593827 0  139.524516084149 7.499756696831692 0  144.5245576264186 -0.0001278175719907149 0  144.5244862743054 7.499849173204501 0  149.5244683262593 -2.359620099276567e-05 0  149.5244556686404 7.499937823973069 0  159.5244717418524 9.352840214107424e-19 0  164.5244933898329 -8.060677781657724e-06 0  164.5244765327859 7.499985288529285 0  159.5244637308549 7.49998443779366 0  169.5245196815426 4.884504250474576e-06 0  169.5244890840374 7.500001885957745 0  174.52454565382 3.20233499866099e-05 0  174.5245018180459 7.500030675963438 0  179.5245694425573 6.907795616140937e-05 0  179.5245143992154 7.500068512708847 0  184.5245905021357 0.0001132036087018438 0  184.524526443885 7.500113014778911 0  189.5246088392314 0.0001624566267445514 0  189.5245376851615 7.500162447859753 0  194.5246246737736 0.0002154827831970363 0  194.5245479798057 7.500215557433718 0  199.524638289559 0.0002713212545888911 0  199.5245572775301 7.500271431477463 0  204.524649970783 0.0003292780590793159 0  204.5245655887334 7.500329400259502 0  209.5246599774638 0.0003888432119539471 0  209.5245729596075 7.500388965958838 0  214.524668538139 0.0004496357782746278 0  214.5245794550873 7.500449753776808 0  219.5246758498991 0.0005113668737542026 0  219.5245851479547 7.500511477932078 0  224.524682081237 0.000573814324272608 0  224.5245901122383 7.500573917816395 0  229.5246873757199 0.0006368049942959571 0  229.5245944194469 7.500636901078234 0  234.524691855649 0.0007002022380884175 0  234.5245981366064 7.500700291458993 0  239.5246956253922 0.0007638968340390357 0  239.5246013254149 7.500763979926131 0  244.5246987743237 0.0008278003343935672 0  244.5246040420729 7.500827878127383 0  249.5247013793798 0.000891840127489816 0  249.5246063375149 7.500891913509244 0  254.524703507297 0.0009559557464864583 0  254.5246082578728 7.50095602565691 0  259.5247052165886 0.001020096116970914 0  259.5246098450558 7.501020163559183 0  264.5247065593337 0.001084217546995118 0  264.524611137391 7.501084283606071 0  269.5247075828192 0.001148282347605108 0  269.5246121702752 7.501148348205615 0  274.5247083310966 0.001212258044487456 0  274.5246129767958 7.501212324972423 0  279.5247088464523 0.001276117213954026 0  279.5246135882948 7.501276186501391 0  284.5247091707921 0.001339838060114663 0  284.5246140348204 7.501339910802589 0  289.5247093468145 0.001403405955120707 0  289.5246143454314 7.5014034825397 0  294.5247094187195 0.001466816294986173 0  294.5246145483022 7.50146689527962 0  299.5247094318494 0.001530079152685779 0  299.5246146706601 7.501530155010199 0  304.5247094300242 0.001593226173109548 0  304.5246147387727 7.501593285199942 0  309.5247094480021 0.001656319180766645 0  309.5246147787455 7.501656333778732 0  4.524537279218044 14.99778963389639 0  -0.4754627508547266 14.99772327257926 0  9.524537308588314 14.99785594408595 0  14.52453733489782 14.99792224900505 0  19.52453735300789 14.99798859005815 0  24.52453735587613 14.99805500710631 0  29.5245373344397 14.99812153946515 0  34.52453727720999 14.99818822651536 0  39.52453716979242 14.99825510831831 0  44.52453699436567 14.99832222630905 0  49.52453672909945 14.998389624066 0  54.52453634747439 14.99845734815079 0  59.52453581746752 14.99852544902257 0  64.5245351005708 14.99859398204178 0  69.52453415061122 14.99866300858546 0  74.52453291235517 14.99873259729752 0  79.52453131989074 14.99880282548955 0  84.52452929483051 14.99887378068057 0  89.52452674445031 14.99894556220306 0  94.52452356004235 14.99901828266814 0  99.52451961604694 14.99909206881095 0  104.5245147710545 14.9991670607014 0  109.5245088726637 14.99924340727401 0  114.5245017696834 14.99932125420143 0  119.5244933374826 14.99940071662208 0  124.524483525559 14.99948182308064 0  129.5244724400686 14.99956440689466 0  134.5244604756229 14.99964790614619 0  139.5244485023552 14.99973101621041 0  144.5244380755308 14.99981113346079 0  149.5244315157344 14.99988357428328 0  164.5244470084663 14.99996731492239 0  159.5244413945051 14.99994804710341 0  169.5244513551687 14.99999347251198 0  174.5244556761465 15.00002707510547 0  179.5244603456871 15.00006728797304 0  184.5244653418478 15.00011293078233 0  189.5244705084794 15.00016288195804 0  194.524475673769 15.00021619860192 0  199.524480694759 15.00027212716074 0  204.5244854680542 15.00033007839697 0  209.5244899268741 15.00038959518686 0  214.5244940337981 15.00045032308188 0  219.5244977731722 15.00051198624751 0  224.5245011446142 15.0005743687208 0  229.5245041579481 15.00063730011958 0  234.5245068294705 15.00070064483373 0  239.5245091792931 15.00076429385846 0  244.5245112295141 15.00082815860956 0  249.5245130030026 15.00089216622613 0  254.5245145226207 15.00095625599971 0  259.5245158107512 15.00102037667395 0  264.5245168890323 15.00108448443713 0  269.5245177782299 15.00114854149274 0  274.5245184981885 15.00121251514193 0  279.5245190678299 15.00127637735023 0  284.5245195051978 15.0013401047999 0  289.5245198275582 15.00140367944083 0  294.5245200516771 15.00146708953465 0  299.5245201944686 15.00153033111477 0  304.5245202744451 15.00159340962283 0  309.5245203147137 15.00165634120681 0  4.524437692187386 22.49778981909711 0  -0.4755623337421882 22.49772354340741 0  9.524437706532522 22.49785605705158 0  14.52443770223742 22.49792230138617 0  19.52443767189145 22.49798859118956 0  24.52443760731305 22.49805496327243 0  29.52443749922056 22.4981214537103 0  34.52443733683487 22.49818809875132 0  39.52443710745167 22.49825493547429 0  44.52443679601453 22.49832200237442 0  49.52443638470073 22.49838933994486 0  54.52443585251767 22.49845699127298 0  59.52443517491369 22.4985250026512 0  64.52443432341805 22.49859342419088 0  69.52443326534653 22.49866231041298 0  74.52443196364622 22.49873172076734 0  79.52443037700422 22.49880171998839 0  84.52442846043058 22.49887237812019 0  89.52442616665235 22.49894376991363 0  94.52442344884278 22.49901597307692 0  99.5244202654863 22.49908906449034 0  104.5244165885461 22.49916311289011 0  109.5244124165655 22.49923816556062 0  114.5244077947923 22.49931422510462 0  119.5244028446239 22.49939121027966 0  124.5243978040109 22.49946889234425 0  129.524393077665 22.49954679630842 0  134.5243892887099 22.49962405809545 0  139.5243873083951 22.49969924238908 0  144.5243882147158 22.49977017243673 0  149.5243930994169 22.49983394985746 0  164.5244023511125 22.49994597711174 0  159.5244014836122 22.49991296057066 0  169.5244021952271 22.49998153784816 0  174.5244017753096 22.50002101336833 0  179.5244015840808 22.50006469769139 0  184.5244018357299 22.50011230514789 0  189.5244025615373 22.50016331538369 0  194.5244036983444 22.50021716164975 0  199.5244051466349 22.50027331735253 0  204.5244068027324 22.50033132740472 0  209.5244085740762 22.5003908129164 0  214.5244103847858 22.50045146456879 0  219.5244121761968 22.50051303225863 0  224.5244139051193 22.50057531446384 0  229.5244155412949 22.50063814871177 0  234.5244170647982 22.50070140355328 0  239.5244184637049 22.50076497202122 0  244.524419732136 22.5008287663935 0  249.52442086868 22.50089271404466 0  254.5244218751544 22.50095675418485 0  259.52442275564 22.50102083531837 0  264.5244235157451 22.50108491328809 0  269.524424162041 22.50114894980408 0  274.5244247016462 22.5012129113786 0  279.5244251419408 22.50127676860243 0  284.5244254904289 22.50134049569581 0  289.5244257548005 22.50140407024039 0  294.5244259433057 22.50146747293254 0  299.5244260656026 22.5015
[...]
<PointData  Vectors="v"> 
<DataArray  type="Float64"  Name="v"  NumberOfComponents="3" format="ascii">-4.3394861217944429e+00 -3.1242498555095191e+00 0.0000000000000000e+00  -4.5384178896403595e+00 -2.5928994081213532e+00 0.0000000000000000e+00  -3.8407578352776204e+00 -2.2946626435506530e+00 0.0000000000000000e+00  -3.6820538861862739e+00 -2.8856255377593452e+00 0.0000000000000000e+00  -4.7228756955914237e+00 -2.4371888155244132e+00 0.0000000000000000e+00  -4.0393637329636025e+00 -2.1606877082566731e+00 0.0000000000000000e+00  -4.8014387716290363e+00 -2.3367712150893496e+00 0.0000000000000000e+00  -4.2233558326969023e+00 -2.2193813666849365e+00 0.0000000000000000e+00  -4.7793032210519497e+00 -1.8184989895758732e+00 0.0000000000000000e+00  -4.3012133591629453e+00 -1.8520873113505423e+00 0.0000000000000000e+00  -4.7943784237745666e+00 -1.5173640511334756e+00 0.0000000000000000e+00  -4.2782175209269004e+00 -1.4950680816982871e+00 0.0000000000000000e+00  -4.7318982825032911e+00 -9.8027162089375963e-01 0.0000000000000000e+00  -4.2926800489181263e+00 -1.0743649533113808e+00 0.0000000000000000e+00  -4.6086717078642074e+00 -3.9579649251138804e-01 0.0000000000000000e+00  -4.2296064062325849e+00 -5.8058276119188001e-01 0.0000000000000000e+00  -4.7790520410524842e+00 -2.0979986594696012e-01 0.0000000000000000e+00  -4.1060072687472990e+00 4.6097657003329434e-02 0.0000000000000000e+00  -4.7545956673299550e+00 2.5265176475547496e-01 0.0000000000000000e+00  -4.2765999635539851e+00 2.1647806961229038e-01 0.0000000000000000e+00  -7.2545057562339457e+00 -3.0158897143487509e+00 0.0000000000000000e+00  -4.2528012174121033e+00 7.3522630247338183e-01 0.0000000000000000e+00  -8.4314350270023972e+00 -4.2234910445117100e+00 0.0000000000000000e+00  -6.7529319909438792e+00 -2.4570091278224111e+00 0.0000000000000000e+00  -8.7664560408754522e+00 -4.0769848950981435e+00 0.0000000000000000e+00  -7.9311123779325206e+00 -3.5716686964201663e+00 0.0000000000000000e+00  -8.7588034326727637e+00 -3.3574987512346071e+00 0.0000000000000000e+00  -8.2690854125511084e+00 -3.3650311443789467e+00 0.0000000000000000e+00  -8.5505180429867629e+00 -2.3522279346793042e+00 0.0000000000000000e+00  -8.2655966311578712e+00 -2.6591179346195744e+00 0.0000000000000000e+00  -8.2655155934758771e+00 -1.2657905850378852e+00 0.0000000000000000e+00  -8.0635946437115660e+00 -1.6869933531913124e+00 0.0000000000000000e+00  -7.9019034175439584e+00 -1.1285658368062200e-01 0.0000000000000000e+00  -7.7861210130573708e+00 -6.4985089045003019e-01 0.0000000000000000e+00  -7.4483012918336025e+00 1.0293626506465310e+00 0.0000000000000000e+00  -7.4315762030121455e+00 3.5905246502746174e-01 0.0000000000000000e+00  -6.8936266061052711e+00 2.2396484268369217e+00 0.0000000000000000e+00  -6.9898926280262934e+00 1.4191925746272662e+00 0.0000000000000000e+00  -6.2261421120727549e+00 3.4910473621991942e+00 0.0000000000000000e+00  -6.4487902808007815e+00 2.5044929482791143e+00 0.0000000000000000e+00  -5.4468937037223952e+00 4.8001416726815291e+00 0.0000000000000000e+00  -5.7978555934407856e+00 3.6479324175254755e+00 0.0000000000000000e+00  -4.5885048674993252e+00 6.0876914325180351e+00 0.0000000000000000e+00  -5.0381944551492426e+00 4.8200013776264958e+00 0.0000000000000000e+00  -3.6911263834109005e+00 7.4498946619082442e+00 0.0000000000000000e+00  -4.2035737711398831e+00 6.1262057091273876e+00 0.0000000000000000e+00  -2.7988035985451614e+00 8.5076628258891009e+00 0.0000000000000000e+00  -3.3316656918679626e+00 7.1969907548131342e+00 0.0000000000000000e+00  -1.9811457780805599e+00 9.6343354902114022e+00 0.0000000000000000e+00  -2.4730134152962169e+00 8.4353996047183895e+00 0.0000000000000000e+00  -1.2700620110446728e+00 9.9902792659972448e+00 0.0000000000000000e+00  -1.6874597306933654e+00 8.9617633376026475e+00 0.0000000000000000e+00  -7.2446659397286473e-01 1.0381238042124069e+01 0.0000000000000000e+00  -1.0223026085608957e+00 9.5950704834768885e+00 0.0000000000000000e+00  -3.3371765131237302e-01 9.2013721368697343e+00 0.0000000000000000e+00  -5.1498186783304123e-01 8.6664533183599275e+00 0.0000000000000000e+00  -1.2329101193572996e-01 8.1769651380100843e+00 0.0000000000000000e+00  -1.8544956104156216e-01 7.8964738947711064e+00 0.0000000000000000e+00  -2.2038254961677710e-02 3.9829221856359815e+00 0.0000000000000000e+00  -1.8313343772451824e-02 3.8987217972819743e+00 0.0000000000000000e+00  -1.0695515660294133e-05 -7.3883325544856775e-05 0.0000000000000000e+00  -7.4072039365943529e-04 -8.3733833993198227e-04 0.0000000000000000e+00  2.2348808473062245e-12 4.4669530115166270e-19 0.0000000000000000e+00  1.4485263062934890e+00 -7.1424106323049363e+00 0.0000000000000000e+00  -2.7287735046100554e-02 -9.3346754115777042e+00 0.0000000000000000e+00  -7.0761745742782946e-04 6.6112649952712165e-04 0.0000000000000000e+00  -1.9929552728034086e-01 -1.1843297806139780e+01 0.0000000000000000e+00  1.4502455173614903e+00 -9.4160186971182149e+00 0.0000000000000000e+00  -2.0623188088408764e-01 -1.1108557942212764e+01 0.0000000000000000e+00  -1.6210810839406184e-01 -1.1115773931363234e+01 0.0000000000000000e+00  -8.0988531338922298e-01 -1.1015919660791237e+01 0.0000000000000000e+00  -1.3804434023383108e-01 -1.0136986503833858e+01 0.0000000000000000e+00  -9.9477650259390205e-01 -8.8531416386462052e+00 0.0000000000000000e+00  -7.1586400481612777e-01 -8.5952236457762865e+00 0.0000000000000000e+00  -1.2557785047604333e+00 -7.2013759537452069e+00 0.0000000000000000e+00  -8.7791745904863017e-01 -6.8293658689706414e+00 0.0000000000000000e+00  -1.4040279065231889e+00 -5.3689766433722053e+00 0.0000000000000000e+00  -1.1174055096861168e+00 -5.1620940869268592e+00 0.0000000000000000e+00  -1.5665149311837845e+00 -4.0089830207627060e+00 0.0000000000000000e+00  -1.2475526722285699e+00 -3.7809482050325935e+00 0.0000000000000000e+00  -1.6341654129070178e+00 -2.9175093407925203e+00 0.0000000000000000e+00  -1.3936031110185598e+00 -2.8290826810490768e+00 0.0000000000000000e+00  -1.7530714525026085e+00 -2.3184583285331848e+00 0.0000000000000000e+00  -1.4461557264496423e+00 -2.1521350821537628e+00 0.0000000000000000e+00  -1.9004622554749253e+00 -1.9504468182967472e+00 0.0000000000000000e+00  -1.5518101572735190e+00 -1.7403932366445762e+00 0.0000000000000000e+00  -2.0266151045474761e+00 -1.7821626759860045e+00 0.0000000000000000e+00  -1.6872225412405206e+00 -1.6028799381061873e+00 0.0000000000000000e+00  -2.1227919749189810e+00 -1.7112193834671958e+00 0.0000000000000000e+00  -1.8022783724890896e+00 -1.5758373208375929e+00 0.0000000000000000e+00  -2.1916034908569610e+00 -1.6638363854588396e+00 0.0000000000000000e+00  -1.8886021661731407e+00 -1.5689715570035339e+00 0.0000000000000000e+00  -2.2124112282315473e+00 -1.6202330111473418e+00 0.0000000000000000e+00  -1.9484400529811252e+00 -1.5965666061912260e+00 0.0000000000000000e+00  -2.2096780575073667e+00 -1.5833910244043468e+00 0.0000000000000000e+00  -1.9608966836650070e+00 -1.5944255757033234e+00 0.0000000000000000e+00  -2.1932108442929570e+00 -1.5287856916859637e+00 0.0000000000000000e+00  -1.9505697993025082e+00 -1.5600509225607333e+00 0.0000000000000000e+00  -2.1553255026597156e+00 -1.4600764156953510e+00 0.0000000000000000e+00  -1.9270556225764215e+00 -1.5230345339940889e+00 0.0000000000000000e+00  -2.1084019126891302e+00 -1.3915693702629062e+00 0.0000000000000000e+00  -1.8824658217831254e+00 -1.4677228684108565e+00 0.0000000000000000e+00  -2.0629404049817297e+00 -1.2927365897945546e+00 0.0000000000000000e+00  -1.8292652987669309e+00 -1.3665349516571277e+00 0.0000000000000000e+00  -2.0034880284142620e+00 -1.2087919723448046e+00 0.0000000000000000e+00  -1.7777747276625828e+00 -1.3033315045285092e+00 0.0000000000000000e+00  -1.9420322685007112e+00 -1.0653802661111362e+00 0.0000000000000000e+00  -1.7124955094697321e+00 -1.1628196811341933e+00 0.0000000000000000e+00  -1.8715077964447753e+00 -9.7553989657018292e-01 0.0000000000000000e+00  -1.6453079391346521e+00 -1.0864383468177594e+00 0.0000000000000000e+00  -1.7900109105603379e+00 -7.2502603131651322e-01 0.0000000000000000e+00  -1.5692856659415637e+00 -8.5245699251467544e-01 0.0000000000000000e+00  -1.6835475800238722e+00 -6.7460507261453539e-01 0.0000000000000000e+00  -1.4820883582187920e+00 -8.3919836350868660e-01 0.0000000000000000e+00  -1.5519999846550745e+00 -1.8900999264373786e-01 0.0000000000000000e+00  -1.3703628355812876e+00 -3.9165982397159493e-01 0.0000000000000000e+00  -1.3786103112061816e+00 -2.9497843529431977e-01 0.0000000000000000e+00  -1.2328936062610774e+00 -5.5967465280429551e-01 0.0000000000000000e+00  -1.1019051885953783e+00 6.3781422559959255e-01 0.0000000000000000e+00  -1.0546844849948187e+00 2.1694125409855811e-01 0.0000000000000000e+00  -6.3482352777647111e-01 7.9391510320818881e-01 0.0000000000000000e+00  -7.7116296353475622e-01 8.9557836071405050e-02 0.0000000000000000e+00  4.6809299240357427e-01 2.8945035871390168e-01 0.0000000000000000e+00  -3.0136245528803884e-01 -1.3728158208078145e+00 0.0000000000000000e+00  -3.1262255733875621e+00 -2.0573902924807506e+00 0.0000000000000000e+00  -2.9411336140383546e+00 -2.6063170233171555e+00 0.0000000000000000e+00  -3.2834505646418539e+00 -1.8641613005566562e+00 0.0000000000000000e+00  -3.4794937353368818e+00 -1.9451101799717034e+00 0.0000000000000000e+00  -3.6602167161690420e+00 -1.7374212370388162e+00 0.0000000000000000e+00  -3.7342184462990526e+00 -1.5322287660371801e+00 0.0000000000000000e+00  -3.7067313742767580e+00 -1.0552664705867705e+00 0.0000000000000000e+00  -3.7165632882933717e+00 -6.7769944197367404e-01 0.0000000000000000e+00  -3.6491219902413117e+00 -1.4203387597071657e-01 0.0000000000000000e+00  -3.5213700459821191e+00 4.7065456909356856e-01 0.0000000000000000e+00  -3.6894152935634090e+00 6.9909082522272836e-01 0.0000000000000000e+00  -3.6636104940893444e+00 1.2894595443942460e+00 0.0000000000000000e+00  -6.1563620182488910e+00 -1.8090785755701899e+00 0.0000000000000000e+00  -7.3280398951445704e+00 -2.8587626961531423e+00 0.0000000000000000e+00  -7.6647894388148679e+00 -2.6648074346880550e+00 0.0000000000000000e+00  -7.6620198754299800e+00 -1.9873799777083083e+00 0.0000000000000000e+00  -7.4641392760657794e+00 -1.0625683720590779e+00 0.0000000000000000e+00  -7.1928907282952741e+00 -1.6870630797446312e-01 0.0000000000000000e+00  -6.8463299282501602e+00 7.6335238857574650e-01 0.0000000000000000e+00  -6.4159307854042753e+00 1.7013777058849877e+00 0.0000000000000000e+00  -5.8895414998466586e+00 2.6807494647815058e+00 0.0000000000000000e+00  -5.2562349805065454e+00 3.6946554809621612e+00 0.0000000000000000e+00  -4.5202913330993741e+00 4.8900670160691853e+00 0.0000000000000000e+00  -3.7144296645892370e+00 5.9098100060488932e+00 0.0000000000000000e+00  -2.8785590779333212e+00 7.1707398462264864e+00 0.0000000000000000e+00  -2.0629361345605846e+00 7.8170155410854871e+00 0.0000000000000000e+00  -1.3326909706763324e+00 8.6263531739386199e+00 0.0000000000000000e+00  -7.2674764887076426e-01 7.9599840349714626e+00 0.0000000000000000e+00  -3.0245903012968273e-01 7.4323358297547433e+00 0.0000000000000000e+00  -4.8362998303391518e-02 3.7362073481993794e+00 0.0000000000000000e+00  -2.4887729152404071e-03 -1.5921671475762106e-03 0.0000000000000000e+00  -5.5058332197927849e-02 -9.1773018709646319e+00 0.0000000000000000e+00  -2.4475994345406760e-03 1.2963787733139334e-03 0.0000000000000000e+00  -2.0800810916035900e-01 -1.1643111078536380e+01 0.0000000000000000e+00  1.3188878409831601e+00 -8.7380479470376375e+00 0.0000000000000000e+00  -2.3461505178813802e-01 -1.0199773154723939e+01 0.0000000000000000e+00  -1.6880367098602986e-01 -7.7522746408076761e+00 0.0000000000000000e+00  -7.0966878151565693e-01 -6.6017877957146176e+00 0.0000000000000000e+00  -8.4445917444153562e-01 -4.8208909380774339e+00 0.0000000000000000e+00  -1.0576370282078464e+00 -3.5981020604187410e+00 0.0000000000000000e+00  -1.1670930141688638e+00 -2.6212374029002801e+00 0.0000000000000000e+00  -1.2948643097608503e+00 -2.0837854738429784e+00 0.0000000000000000e+00  -1.3311490174966807e+00 -1.5907673737382524e+00 0.0000000000000000e+00  -1.4225320714348675e+00 -1.4072031477801408e+00 0.0000000000000000e+00  -1.5455895357384259e+00 -1.4105868250564990e+00 0.0000000000000000e+00  -1.6492881712867058e+00 -1.4455623879325041e+00 0.0000000000000000e+00  -1.7258357743465713e+00 -1.5119672698598114e+00 0.0000000000000000e+00  -1.7772483359520925e+00 -1.5806024128608076e+00 0.0000000000000000e+00  -1.7821380462399639e+00 -1.5796663477749484e+00 0.0000000000000000e+00  -1.7652164606886533e+00 -1.5618415765192804e+00 0.0000000000000000e+00  -1.7359262997581926e+00 -1.5379995311796724e+00 0.0000000000000000e+00  -1.6859996594408444e+00 -1.4493610761466840e+00 0.0000000000000000e+00  -1.6279263390397272e+00 -1.3833028944592527e+00 0.0000000000000000e+00  -1.5719128254274648e+00 -1.2635066963841450e+00 0.0000000000000000e+00  -1.5021987473664433e+00 -1.1898004002996059e+00 0.0000000000000000e+00  -1.4307232271670201e+00 -9.6912701708398852e-01 0.0000000000000000e+00  -1.3503866993047280e+00 -9.7250682020533041e-01 0.0000000000000000e+00  -1.2589106014117657e+00 -5.6210693276606472e-01 0.0000000000000000e+00  -1.1426745270303700e+00 -7.6814862656837757e-01 0.0000000000000000e+00  -1.0009917995919926e+00 -5.3719758255966789e-02 0.0000000000000000e+00  -8.1799855636626340e-01 -3.3742732721361235e-01 0.0000000000000000e+00  -5.3041502611362257e-01 -2.0811971177792694e+00 0.0000000000000000e+00  -2.2580597724442959e+00 -1.7814950032404500e+00 0.0000000000000000e+00  -2.0854144514980191e+00 -2.3448191635257922e+00 0.0000000000000000e+00  -2.4401930666656857e+00 -1.6315921949734637e+00 0.0000000000000000e+00  -2.5919543217377217e+00 -1.6551994347590571e+00 0.0000000000000000e+00  -2.7813818991026631e+00 -1.4718645443498699e+00 0.0000000000000000e+00  -2.9534973943589669e+00 -1.4278000342892081e+00 0.0000000000000000e+00  -3.0173118809856647e+00 -1.1036928757431244e+00 0.0000000000000000e+00  -2.9788342280201312e+00 -6.7087136261920177e-01 0.0000000000000000e+00  -2.9768877520191479e+00 -2.5091528721648376e-01 0.0000000000000000e+00  -2.8979826017993497e+00 2.7245281313169328e-01 0.0000000000000000e+00  -2.7609139422896161e+00 9.4644020165464771e-01 0.0000000000000000e+00  -2.9224263734992064e+00 1.2461505019867412e+00 0.0000000000000000e+00  -2.8859990421094488e+00 1.9172369120841481e+00 0.0000000000000000e+00  -5.3570202729229406e+00 -1.1157964593595633e+00 0.0000000000000000e+00  -6.5092623410293804e+00 -2.1652034764608796e+00 0.0000000000000000e+00  -6.8367361132145392e+00 -1.9935534580598140e+00 0.0000000000000000e+00  -6.8304343239260898e+00 -1.3581814558450298e+00 0.0000000000000000e+00  -6.6328750854128833e+00 -5.7162073913811062e-01 0.0000000000000000e+00  -6.3648031232484685e+00 2.5003483005011473e-01 0.0000000000000000e+00  -6.0252673155129930e+00 1.0647107582343496e+00 0.0000000000000000e+00  -5.6051574982491852e+00 1.9039333645154861e+00 0.0000000000000000e+00  -5.0934554557653211e+00 2.7626829137785154e+00 0.0000000000000000e+00  -4.4825079526706855e+00 3.8081699459915535e+00 0.0000000000000000e+00  -3.7757119861822783e+00 4.7336278349623653e+00 0.0000000000000000e+00  -3.0115904087349530e+00 5.9542995593195558e+00 0.0000000000000000e+00  -2.2281667176624631e+00 6.6487446592538371e+00 0.0000000000000000e+00  -1.4860797599664612e+00 7.5879403856956245e+00 0.0000000000000000e+00  -8.4096707455982223e-01 7.1450072058365119e+00 0.0000000000000000e+00  -3.5763722797527858e-01 6.8672923304925035e+00 0.0000000000000000e+00  -5.5373001193812658e-02 3.5182516422658199e+00 0.0000000000000000e+00  -5.2170154777278974e-03 -2.2756791139821328e-03 0.0000000000000000e+00  -6.4343757047927955e-02 -8.9318639462941984e+00 0.0000000000000000e+00  -5.1801154507636771e-03 1.8527851667075688e-03 0.0000000000000000e+00  -3.4697084367431835e-01 -1.1368834432360272e+01 0.0000000000000000e+00  -5.0413644428396409e-01 -1.1092160136158121e+01 0.0000000000000000e+00  1.1108003685302437e+00 -7.9439685096173385e+00 0.0000000000000000e+00  -3.4888412543004488e-01 -7.8995411131714111e+00 0.0000000000000000e+00  -2.1759332634246800e-01 -5.8354309410544039e+00 0.0000000000000000e+00  -7.0591341397965712e-01 -4.6492008909193085e+00 0.0000000000000000e+00  -8.0004664378683188e-01 -3.3071516490886661e+00 0.0000000000000000e+00  -9.7800118508315115e-01 -2.4799970233748070e+00 0.0000000000000000e+00  -1.0591952845949200e+00 -1.9122668712838762e+00 0.0000000000000000e+00  -1.1617523561634873e+00 -1.5535251100974463e+00 0.0000000000000000e+00  -1.1764660044061008e+00 -1.2857384219610175e+00 0.0000000000000000e+00  -1.2488641923696444e+00 -1.2394559489773362e+00 0.0000000000000000e+00  -1.3549198831008005e+00 -1.3020604761824301e+00 0.0000000000000000e+00  -1.4436937919844450e+00 -1.4076478139551516e+00 0.0000000000000000e+00  -1.5075717580849841e+00 -1.5123876000842298e+00 0.0000000000000000e+00  -1.5480910980462013e+00 -1.5799649169705403e+00 0.0000000000000000e+00  -1.5437837445026599e+00 -1.5938795271244290e+00 0.0000000000000000e+00  -1.5191059627217225e+00 -1.5876135976341499e+00 0.0000000000000000e+00  -1.4830954339210636e+00 -1.5293210946611990e+00 0.0000000000000000e+00  -1.4272392035675276e+00 -1.4750374470315921e+00 0.0000000000000000e+00  -1.3638455766201489e+00 -1.3518544500519223e+00 0.0000000000000000e+00  -1.3027517359819674e+00 -1.2985009686922266e+00 0.0000000000000000e+00  -1.2281339210791982e+00 -1.0805925282332174e+00 0.0000000000000000e+00  -1.1516412513176824e+00 -1.0970819215528784e+00 0.0000000000000000e+00  -1.0663190551869610e+00 -7.0388990435846688e-01 0.0000000000000000e+00  -9.6937655732381067e-01 -9.4651850374227808e-01 0.0000000000000000e+00  -8.4809348271430307e-01 -2.7147531008536396e-01 0.0000000000000000e+00  -7.0023486879568642e-01 -6.1525467345892393e-01 0.0000000000000000e+00  -5.1330874363770118e-01 -2.5182780965089022e+00 0.0000000000000000e+00  -1.6215413249882198e+00 -1.5249344083602250e+00 0.0000000000000000e+00  -1.4522211961121025e+00 -2.0873764119088354e+00 0.0000000000000000e+00  -1.7902739502850662e+00 -1.3629233622090258e+00 0.0000000000000000e+00  -1.9649711926472282e+00 -1.4339863658717749e+00 0.0000000000000000e+00  -2.1070967776677754e+00 -1.1958448527243590e+00 0.0000000000000000e+00  -2.2841751905481118e+00 -1.1795163051168556e+00 0.0000000000000000e+00  -2.4415549716868328e+00 -1.0198005235663365e+00 0.0000000000000000e+00  -2.4881614521257469e+00 -7.4154084758643901e-01 0.0000000000000000e+00  -2.4308052609517454e+00 -2.6736574540493419e-01 0.0000000000000000e+00  -2.4097292576183666e+00 1.4095481605159910e-01 0.0000000000000000e+00  -2.3133510641792774e+00 7.3059507978989191e-01 0.0000000000000000e+00  -2.1619830204085675e+00 1.4796896255330305e+00 0.0000000000000000e+00  -2.3106453827683437e+00 1.8489696570620484e+00 0.0000000000000000e+00  -2.2503295471577514e+00 2.5639535389289962e+00 0.0000000000000000e+00  -4.6806554253383901e+00 -4.6400027461607291e-01 0.0000000000000000e+00  -5.7983971365124463e+00 -1.5171889744876605e+00 0.0000000000000000e+00  -6.1059654547543651e+00 -1.3774433842873790e+00 0.0000000000000000e+00  -6.0863873993203308e+00 -8.7347839756514167e-01 0.0000000000000000e+00  -5.8809689929958635e+00 -1.5671950888472608e-01 0.0000000000000000e+00  -5.6065664294813313e+00 5.5348049112382247e-01 0.0000000000000000e+00  -5.2631205891486932e+00 1.2733183315525927e+00 0.0000000000000000e+00  -4.8423848138503134e+00 1.9980627563472486e+00 0.0000000000000000e+00  -4.3348669185625290e+00 2.8989527247704103e+00 0.0000000000000000e+00  -3.7344559038237417e+00 3.6900286105734224e+00 0.0000000000000000e+00  -3.0516669688509568e+00 4.8299876715583459e+00 0.0000000000000000e+00  -2.3230131557342086e+00 5.5169696716076784e+00 0.0000000000000000e+00  -1.6012717969780952e+00 6.5218634049265720e+00 0.0000000000000000e+00  -9.3732006284692904e-01 6.2693556911249519e+00 0.0000000000000000e+00  -4.1975737022968862e-01 6.2163925895732755e+00 0.0000000000000000e+00  -7.2963592826941759e-02 3.2517620287742095e+0