<?xml version="1.0"?>
<VTKFile type="UnstructuredGrid"  version="0.1"  >
<UnstructuredGrid>
<Piece  NumberOfPoints="1933" NumberOfCells="3640">
<Points>
<DataArray  type="Float64"  NumberOfComponents="3"  format="ascii">0.2935670088584889 0.002468921551793451 0  5.293566999943417 0.002382491618979931 0  5.293696706833403 7.502382506844784 0  0.2936966934983893 7.50246889555224 0  10.29356696893825 0.002296024992325525 0  10.29369674491768 7.502296060536836 0  15.29356693535429 0.002209454532010273 0  15.29369682699622 7.502209500315454 0  20.29356693248811 0.002122738704912815 0  20.29369697487785 7.502122789863515 0  25.29356699886089 0.002035853829002115 0  25.29369721331528 7.502035908262312 0  30.29356717469323 0.001948788546418698 0  30.29369756967533 7.50194884568114 0  35.29356750090141 0.001861539977823057 0  35.29369807371044 7.501861600118467 0  40.29356801936918 0.001774111174182807 0  40.29369875761645 7.501774175167706 0  45.29356877387488 0.001686509553828721 0  45.29369965637743 7.501686578630565 0  50.29356981137887 0.001598746090118499 0  50.2937008083519 7.501598821808462 0  55.29357118354755 0.001510835090281023 0  55.29370225605788 7.501510919347936 0  60.29357294848553 0.001422794471603524 0  60.29370404712949 7.501422889566632 0  65.29357517270333 0.001334646497299506 0  65.29370623543149 7.501334755235486 0  70.29357793338518 0.001246418985184874 0  70.29370888233134 7.501246544840503 0  75.29358132105951 0.001158147053624041 0  75.29371205813406 7.50115829439885 0  80.29358544280979 0.001069875528662872 0  80.29371584368459 7.501070049965735 0  85.2935904262181 0.0009816622143890453 0  85.29372033213299 7.500981871052099 0  90.2935964243037 0.0008935823414115956 0  90.29372563082764 7.500893835293727 0  95.29360362182646 0.0008057346829400155 0  95.29373186324923 7.500806044898024 0  100.2936122434727 0.0007182501119610335 0  100.2937391707825 7.500718635689331 0  105.2936225646617 0.000631303854264462 0  105.2937477139213 7.500631790054208 0  110.293634926008 0.0005451335377103995 0  110.2937576721246 7.500545755884857 0  115.2936497528523 0.000460066675218327 0  115.2937692408916 7.500460874955579 0  120.2936675816539 0.0003765641066406389 0  120.2937826235104 7.500377626416975 0  125.2936890951216 0.0002952915303725241 0  125.2937980131837 7.500296694862112 0  130.2937151668445 0.0002172424966665922 0  130.2938155588024 7.500219078635258 0  135.2937469113099 0.0001439594426896884 0  135.2938353053608 7.500146264031422 0  140.2937857194855 7.794793425868702e-05 0  140.2938571020936 7.500080506801063 0  145.2938332130235 2.34768854172135e-05 0  145.2938804942671 7.500025290710157 0  150.2938909045272 -1.189348396666872e-05 0  150.2939047203072 7.499986120416938 0  160.2938926261462 3.60644257892212e-19 0  165.2937938491108 -0.0001058143246311046 0  165.2938740044233 7.499882331824686 0  160.293907631177 7.499970289330685 0  170.2937280720822 -0.0002116270145539726 0  170.2938398526592 7.499782269008506 0  175.2936821959189 -0.0003170883038766684 0  175.2938097565181 7.499679328347602 0  180.2936490973379 -0.000421391990673889 0  180.2937845162584 7.499576364225551 0  185.2936245857767 -0.000524199594094899 0  185.2937637894537 7.499474336647551 0  190.2936060713455 -0.0006254747476647361 0  190.2937469293763 7.499373537364082 0  195.2935918871601 -0.0007253103908023229 0  195.2937332727569 7.499274001770191 0  200.2935809187731 -0.0008238393516455578 0  200.2937222328877 7.499175667867991 0  205.2935723936483 -0.0009211966143284678 0  205.293713319803 7.49907844137785 0  210.2935657581672 -0.001017506038205212 0  210.2937061341934 7.498982222361949 0  215.2935606038079 -0.001112877289987274 0  215.2937003535858 7.498886915478506 0  220.2935566215327 -0.001207406540030459 0  220.2936957179265 7.498792433308353 0  225.293553572713 -0.001301178243016972 0  225.2936920169675 7.498698696863132 0  230.2935512699849 -0.001394266992931513 0  230.2936890799737 7.498605635046868 0  235.2935495642282 -0.00148673913667143 0  235.2936867675764 7.498513183808183 0  240.2935483354289 -0.001578654098407359 0  240.2936849654011 7.498421285267852 0  245.2935474860817 -0.001670065457158525 0  245.2936835790939 7.498329886912656 0  250.2935469362961 -0.001761021841431857 0  250.2936825304273 7.498238940867718 0  255.2935466200869 -0.001851567702624648 0  255.2936817542391 7.49814840322932 0  260.2935464825053 -0.001941744021229319 0  260.2936811960086 7.498058233430389 0  265.2935464773943 -0.002031588993142511 0  265.2936808099374 7.497968393607887 0  270.2935465656173 -0.002121138739235542 0  270.293680557432 7.497878847940972 0  275.2935467136909 -0.002210428079042613 0  275.293680405913 7.497789561929647 0  280.2935468927762 -0.002299491406100979 0  280.2936803279131 7.497700501587056 0  285.293547078063 -0.002388363691332642 0  285.2936803004162 7.497611632529003 0  290.2935472486321 -0.002477081605630373 0  290.2936803044217 7.497522918970422 0  295.2935473879795 -0.002565684653587736 0  295.2936803246894 7.497434322694753 0  300.2935474855069 -0.002654215943833717 0  300.2936803496117 7.497345802169385 0  305.2935475394127 -0.002742721498947844 0  305.2936803711473 7.497257312142443 0  310.2935475615125 -0.002831244934069431 0  310.2936803848399 7.49716880413582 0  5.293826226091231 15.00238257042096 0  0.2938262040747567 15.00246884119958 0  10.29382628568928 15.00229618461186 0  15.29382640423267 15.00220965386335 0  20.29382659964328 15.00212295779755 0  25.29382688920884 15.00203608462892 0  30.29382729106064 15.0019490296853 0  35.29382782489547 15.00186179391129 0  40.29382851235209 15.00177438267151 0  45.2938293772637 15.00168680496732 0  50.29383044589184 15.00159907308399 0  55.29383174717792 15.00151120265597 0  60.29383331301465 15.00142321314353 0  65.29383517851745 15.0013351287366 0  70.29383738225849 15.00124697973539 0  75.29383996640811 15.00115880450142 0  80.29384297669907 15.00107065213024 0  85.29384646209117 15.00098258607656 0  90.29385047395165 15.00089468907476 0  95.29385506447991 15.00080706985997 0  100.2938602839834 15.00071987243012 0  105.2938661764494 15.00063328892904 0  110.2938727726761 15.00054757770151 0  115.2938800800768 15.00046308867627 0  120.2938880683331 15.0003802988634 0  125.2938966507391 15.00029986096413 0  130.2939056632444 15.00022266647597 0  135.2939148485341 15.00014991711915 0  140.2939238636835 15.00008317294841 0  145.2939323486597 15.00002426556304 0  150.2939401063177 14.99997470638816 0  165.2939355534492 14.99985128003728 0  160.2939436600721 14.9999303570882 0  170.2939237598708 14.99976135955035 0  175.2939101456188 14.99966552832154 0  180.2938964305063 14.99956715651453 0  185.2938835964523 14.99946806152462 0  190.2938720880784 14.99936915315081 0  195.2938620350479 14.99927085953916 0  200.293853400852 14.9991733603418 0  205.2938460706329 14.99907670909415 0  210.29383989982 14.99898089674384 0  215.2938347396106 14.99888588447977 0  220.2938304493646 14.99879162061161 0  225.2938269018645 14.99869804917009 0  230.2938239848338 14.99860511420956 0  235.2938216005993 14.99851276187723 0  240.2938196649143 14.99842094131918 0  245.2938181054787 14.99832960497566 0  250.2938168604325 14.99823870855009 0  255.2938158769437 14.99814821079547 0  260.2938151099495 14.99805807318833 0  265.2938145210589 14.99796825952091 0  270.2938140776163 14.99787873542163 0  275.2938137519026 14.99778946780304 0  280.293813520455 14.99770042423284 0  285.2938133634727 14.99761157222482 0  290.293813264256 14.99752287845052 0  295.2938132086448 14.99743430786973 0  300.2938131843834 14.99734582273355 0  305.2938131803719 14.99725738121148 0  310.2938131857767 14.99716893468637 0  5.293955419595686 22.50238276024579 0  0.2939553944966369 22.50246886797467 0  10.29395547869588 22.50229646543909 0  15.29395559231418 22.50220998435583 0  20.29395577513385 22.50212331669246 0  25.29395603900181 22.50203646349179 0  30.2939563947732 22.50194942815094 0  35.2939568533692 22.50186221671333 0  40.29395742632367 22.50177483789177 0  45.29395812601162 22.50168730309005 0  50.29395896568044 22.5015996265758 0  55.2939599593437 22.50151182589325 0  60.29396112155597 22.50142392257899 0  65.29396246705504 22.50133594324268 0  70.29396401022984 22.50124792108874 0  75.29396576434995 22.50115989798599 0  80.29396774046386 22.50107192723249 0  85.29396994584523 22.5009840772213 0  90.29397238183444 22.50089643628553 0  95.29397504089572 22.50080911909432 0  100.2939779026958 22.50072227507578 0  105.2939809290468 22.50063609944053 0  110.2939840576873 22.50055084740957 0  115.2939871952083 22.50046685206649 0  120.2939902101216 22.50038454553004 0  125.2939929283449 22.50030448116321 0  130.2939951354631 22.50022734983448 0  135.293996592896 22.50015397295333 0  140.2939970771271 22.50008523409987 0  145.2939964468289 22.50002187349062 0  150.2939947164174 22.49996402335809 0  165.2940023882649 22.49981798631656 0  160.2939975260206 22.4998933327861 0  170.2940035879449 22.49973428014396 0  175.2940018012754 22.4996446894926 0  180.2939979937382 22.49955147443724 0  185.2939930652223 22.49945631486392 0  190.2939876906248 22.4993603137365 0  195.2939823177097 22.49926414585701 0  200.2939772163552 22.49916820313357 0  205.2939725319285 22.49907270049068 0  210.293968328311 22.49897774533356 0  215.2939646187945 22.49888338099356 0  220.2939613869425 22.49878961327995 0  225.2939586001333 22.49869642652371 0  230.2939562180752 22.49860379321809 0  235.2939541980081 22.49851167978961 0  240.2939524977638 22.49842005003327 0  245.2939510774784 22.49832886712995 0  250.2939499004626 22.4982380947947 0  255.2939489335669 22.49814769788239 0  260.293948147239 22.49805764264713 0  265.2939475154088 22.49796789677142 0  270.2939470152708 22.4978784292367 0  275.293946627008 22.49778921007777 0  280.2939463334666 22.4977002100492 0  285.293946119781 22.49761140022131 0  290.2939459729245 22.49752275151281 0  295.2939458811514 22.49743423414385 0  300.2939458332727 22.497345816
[...]
<PointData  Vectors="v"> 
<DataArray  type="Float64"  Name="v"  NumberOfComponents="3" format="ascii">3.6574130592553051e+00 -1.6105980152748745e+00 0.0000000000000000e+00  3.5120214912386145e+00 -1.8379592523658761e+00 0.0000000000000000e+00  2.8947165311978078e+00 -1.6198710408465677e+00 0.0000000000000000e+00  3.0017931920024870e+00 -1.4507139396748183e+00 0.0000000000000000e+00  3.2678467716631037e+00 -2.3509353923072691e+00 0.0000000000000000e+00  2.7492573125598709e+00 -1.9850998052933992e+00 0.0000000000000000e+00  2.9626614246357414e+00 -3.0828461462088348e+00 0.0000000000000000e+00  2.5053814665201264e+00 -2.6255849031771272e+00 0.0000000000000000e+00  2.6046628273814512e+00 -3.7935620970350694e+00 0.0000000000000000e+00  2.2007246777210101e+00 -3.2576180249585249e+00 0.0000000000000000e+00  2.1989112700146296e+00 -4.6345464582730589e+00 0.0000000000000000e+00  1.8435807189633517e+00 -4.0274841199831197e+00 0.0000000000000000e+00  1.8033786069950979e+00 -5.3901602589215472e+00 0.0000000000000000e+00  1.4395067827809562e+00 -4.7987481181917637e+00 0.0000000000000000e+00  1.6312318592029531e+00 -5.8121643345493093e+00 0.0000000000000000e+00  1.0461774472932330e+00 -5.5567195541931715e+00 0.0000000000000000e+00  1.1319283835698339e+00 -6.6751848281157660e+00 0.0000000000000000e+00  8.7692087144776332e-01 -5.9297351467788459e+00 0.0000000000000000e+00  3.0266806017779255e+00 -3.9468050464696836e+00 0.0000000000000000e+00  3.8167265792491845e-01 -6.7928625613096818e+00 0.0000000000000000e+00  -1.3462395481126845e+00 -1.0494239179498466e+01 0.0000000000000000e+00  2.2813838184246062e+00 -3.9402579897471299e+00 0.0000000000000000e+00  2.8249897105327902e-02 -8.1904352053608669e+00 0.0000000000000000e+00  -2.0867042941452087e+00 -1.0257612747633051e+01 0.0000000000000000e+00  3.1556796492249473e-01 -7.5214881118718928e+00 0.0000000000000000e+00  -7.0569097114846302e-01 -7.9602870681209561e+00 0.0000000000000000e+00  -2.0288277056272317e-02 -7.8287568008892023e+00 0.0000000000000000e+00  -4.0934934994184385e-01 -7.3348195530757598e+00 0.0000000000000000e+00  -8.0957027195879971e-01 -8.8136466514689467e+00 0.0000000000000000e+00  -7.3412393735796144e-01 -7.6420324796682584e+00 0.0000000000000000e+00  -1.8671744114988829e+00 -1.0141989975303082e+01 0.0000000000000000e+00  -1.5090632270677189e+00 -8.5693163869261912e+00 0.0000000000000000e+00  -3.1371248086970449e+00 -1.1671157633111633e+01 0.0000000000000000e+00  -2.5501650111908867e+00 -9.7829853670417819e+00 0.0000000000000000e+00  -4.5748198029815663e+00 -1.3361534019675315e+01 0.0000000000000000e+00  -3.8012533719259620e+00 -1.1224200192376504e+01 0.0000000000000000e+00  -6.1354333246704709e+00 -1.5028573264535703e+01 0.0000000000000000e+00  -5.2160855692770278e+00 -1.2708836905285489e+01 0.0000000000000000e+00  -7.7832888112672416e+00 -1.6666062586169652e+01 0.0000000000000000e+00  -6.7514736279490863e+00 -1.4219460253901028e+01 0.0000000000000000e+00  -9.4780469484272896e+00 -1.8190151620219641e+01 0.0000000000000000e+00  -8.3703017443296144e+00 -1.5675676811719018e+01 0.0000000000000000e+00  -1.1152824541507901e+01 -1.9499544970090668e+01 0.0000000000000000e+00  -1.0032223637230564e+01 -1.7018850751775556e+01 0.0000000000000000e+00  -1.2745369596543192e+01 -2.0411025088164919e+01 0.0000000000000000e+00  -1.1669106137458771e+01 -1.8056451201295776e+01 0.0000000000000000e+00  -1.4203212907706485e+01 -2.1024445035447918e+01 0.0000000000000000e+00  -1.3222064853108323e+01 -1.8878269326572166e+01 0.0000000000000000e+00  -1.5453231630580055e+01 -2.0823147714817758e+01 0.0000000000000000e+00  -1.4630618108189037e+01 -1.8987700182892929e+01 0.0000000000000000e+00  -1.6477111248907551e+01 -2.0146947830230776e+01 0.0000000000000000e+00  -1.5834007410460476e+01 -1.8663092490281777e+01 0.0000000000000000e+00  -1.7227522758979354e+01 -1.8261775383647329e+01 0.0000000000000000e+00  -1.6795075434261051e+01 -1.7179964184669139e+01 0.0000000000000000e+00  -1.7742337314834948e+01 -1.5437785333606424e+01 0.0000000000000000e+00  -1.7493164937115964e+01 -1.4731830152405353e+01 0.0000000000000000e+00  -1.8011421908236304e+01 -1.1392401602101707e+01 0.0000000000000000e+00  -1.7928591940460215e+01 -1.1034155818684525e+01 0.0000000000000000e+00  -1.8136944256566480e+01 -4.7463783262409791e+00 0.0000000000000000e+00  -1.8141698832138296e+01 -4.6423978677076612e+00 0.0000000000000000e+00  -1.8163563200589170e+01 9.9221397293701824e-12 0.0000000000000000e+00  -1.8163229803805777e+01 3.1823305093958910e-04 0.0000000000000000e+00  -1.8163563200134934e+01 -9.2343922468448015e-20 0.0000000000000000e+00  -1.3885366958121548e+01 1.1516193581926375e+01 0.0000000000000000e+00  -1.8132849879091594e+01 5.1342803137070279e+00 0.0000000000000000e+00  -1.8163230956275406e+01 -3.3661431533272721e-04 0.0000000000000000e+00  -1.2623376947799489e+01 2.0107822916904979e+01 0.0000000000000000e+00  -1.3904270818793456e+01 1.8284140095667897e+01 0.0000000000000000e+00  -1.0751238178980136e+01 2.3970412538141844e+01 0.0000000000000000e+00  -1.2701016603412812e+01 2.1198762969513020e+01 0.0000000000000000e+00  -9.6668728606231422e+00 2.4796228375995884e+01 0.0000000000000000e+00  -1.0883539732903964e+01 2.3217740463896266e+01 0.0000000000000000e+00  -8.4439442955490112e+00 2.4350265529202918e+01 0.0000000000000000e+00  -9.8482410891987300e+00 2.2555625782340513e+01 0.0000000000000000e+00  -7.4340918644479270e+00 2.2831366677901219e+01 0.0000000000000000e+00  -8.6710213979753750e+00 2.1356882121340405e+01 0.0000000000000000e+00  -6.4857201111136540e+00 2.1048376013811563e+01 0.0000000000000000e+00  -7.7057231069334380e+00 1.9661323092585132e+01 0.0000000000000000e+00  -5.6336963674044824e+00 1.9038319718020180e+01 0.0000000000000000e+00  -6.7979894742663554e+00 1.7796314898412852e+01 0.0000000000000000e+00  -4.7453998727017703e+00 1.7224946594458615e+01 0.0000000000000000e+00  -5.9847022286170128e+00 1.5925466552041588e+01 0.0000000000000000e+00  -4.0359241708555471e+00 1.5487890997937996e+01 0.0000000000000000e+00  -5.1336865832874885e+00 1.4455500392817420e+01 0.0000000000000000e+00  -3.4045822857803021e+00 1.3972969968333087e+01 0.0000000000000000e+00  -4.4593594722979280e+00 1.3056654199743990e+01 0.0000000000000000e+00  -2.7520574732981324e+00 1.2758076048360373e+01 0.0000000000000000e+00  -3.8616619151269189e+00 1.1808741727584971e+01 0.0000000000000000e+00  -2.1573596042792098e+00 1.1698504877875401e+01 0.0000000000000000e+00  -3.2417751518082221e+00 1.0834616488819348e+01 0.0000000000000000e+00  -1.6202479207345311e+00 1.0776023877406020e+01 0.0000000000000000e+00  -2.6782157871391759e+00 9.9978687580300747e+00 0.0000000000000000e+00  -1.1387932137216845e+00 9.9316466147527382e+00 0.0000000000000000e+00  -2.1711372298816713e+00 9.2359568955125493e+00 0.0000000000000000e+00  -7.2242341980248959e-01 9.1278835311835369e+00 0.0000000000000000e+00  -1.7189047592318079e+00 8.5290054037329011e+00 0.0000000000000000e+00  -3.6613796003782201e-01 8.3696853005516267e+00 0.0000000000000000e+00  -1.3307597254295298e+00 7.8603875401435737e+00 0.0000000000000000e+00  -5.4463271679887758e-02 7.6281217232336216e+00 0.0000000000000000e+00  -1.0018988396146009e+00 7.1851249240794051e+00 0.0000000000000000e+00  2.0933729465717849e-01 6.9027684325426026e+00 0.0000000000000000e+00  -7.1713236681529158e-01 6.5309858248816406e+00 0.0000000000000000e+00  4.3018854378880539e-01 6.1873090184189312e+00 0.0000000000000000e+00  -4.7952526446134985e-01 5.8796724709717196e+00 0.0000000000000000e+00  6.1491747805718444e-01 5.4827508808524907e+00 0.0000000000000000e+00  -2.8447988779243544e-01 5.2287749890495441e+00 0.0000000000000000e+00  7.6412708926979245e-01 4.7614805051220905e+00 0.0000000000000000e+00  -1.2500813084532009e-01 4.5606469904383662e+00 0.0000000000000000e+00  8.7104211961649425e-01 4.0826537588021248e+00 0.0000000000000000e+00  -9.9146432006164023e-04 3.9446902798538286e+00 0.0000000000000000e+00  9.4565853959990998e-01 3.3284176129270904e+00 0.0000000000000000e+00  8.1606729943342962e-02 3.2392648035930023e+00 0.0000000000000000e+00  9.7402790321661936e-01 2.6977513599928233e+00 0.0000000000000000e+00  1.3113912041578857e-01 2.6767170213501532e+00 0.0000000000000000e+00  9.6043525614274106e-01 1.8797669817658271e+00 0.0000000000000000e+00  1.3634599141405498e-01 1.9233260183179803e+00 0.0000000000000000e+00  8.9595229675559374e-01 1.3983586757605624e+00 0.0000000000000000e+00  9.6983600219599717e-02 1.5150999635608149e+00 0.0000000000000000e+00  7.6612799702254131e-01 4.3054321515061106e-01 0.0000000000000000e+00  1.1565230339057948e-02 6.5019830638660836e-01 0.0000000000000000e+00  5.2170201446270026e-01 -5.0314398414584162e-02 0.0000000000000000e+00  -1.4742628400664981e-01 3.3230546031124947e-01 0.0000000000000000e+00  -5.9098314312739028e-02 -2.8478357201340715e-01 0.0000000000000000e+00  -4.0350538537808345e-01 6.1988154208610191e-01 0.0000000000000000e+00  2.0087182817079867e+00 -1.4582325671753347e+00 0.0000000000000000e+00  2.1165151007182108e+00 -1.2912740165986414e+00 0.0000000000000000e+00  1.8999570114179214e+00 -1.7655723652141033e+00 0.0000000000000000e+00  1.7522559137644333e+00 -2.2585857776451208e+00 0.0000000000000000e+00  1.5061970163181713e+00 -2.7995378227476762e+00 0.0000000000000000e+00  1.1996460052014257e+00 -3.4906072169421325e+00 0.0000000000000000e+00  8.4087575909262369e-01 -4.1921866350439059e+00 0.0000000000000000e+00  4.3604455702338107e-01 -4.9670267067496887e+00 0.0000000000000000e+00  4.3311202081699945e-02 -5.6763645095077768e+00 0.0000000000000000e+00  -1.2422774483791031e-01 -6.0522006531759240e+00 0.0000000000000000e+00  -6.1522487576424267e-01 -6.7936896408499097e+00 0.0000000000000000e+00  1.2897466990982549e+00 -3.7058417080142201e+00 0.0000000000000000e+00  -3.0790953471227791e+00 -1.0030996024531364e+01 0.0000000000000000e+00  -1.6976939179570045e+00 -7.7834554113069343e+00 0.0000000000000000e+00  -1.3941611532530649e+00 -7.1599652789661059e+00 0.0000000000000000e+00  -1.7081583572462535e+00 -7.4166082457716405e+00 0.0000000000000000e+00  -2.4666786265270182e+00 -8.2331912161599057e+00 0.0000000000000000e+00  -3.4870796645777804e+00 -9.3608995196336640e+00 0.0000000000000000e+00  -4.7138383399175048e+00 -1.0604060534107806e+01 0.0000000000000000e+00  -6.0988311201023828e+00 -1.1936992077018139e+01 0.0000000000000000e+00  -7.5988298367085614e+00 -1.3269376336379795e+01 0.0000000000000000e+00  -9.1777272696028884e+00 -1.4554520331621729e+01 0.0000000000000000e+00  -1.0791440249389874e+01 -1.5632055625842881e+01 0.0000000000000000e+00  -1.2373445851296621e+01 -1.6585750677581576e+01 0.0000000000000000e+00  -1.3862616566618577e+01 -1.6914747684265425e+01 0.0000000000000000e+00  -1.5199338607992470e+01 -1.6910201206276795e+01 0.0000000000000000e+00  -1.6316723881113063e+01 -1.5783620846132299e+01 0.0000000000000000e+00  -1.7189006013385871e+01 -1.3760366770087504e+01 0.0000000000000000e+00  -1.7771329093995902e+01 -1.0424354640317569e+01 0.0000000000000000e+00  -1.8104142193569412e+01 -4.4357147168763191e+00 0.0000000000000000e+00  -1.8162421558215353e+01 6.0657534407914846e-04 0.0000000000000000e+00  -1.8092019621618668e+01 4.9383117785139579e+00 0.0000000000000000e+00  -1.8162423634058701e+01 -6.9196944370361244e-04 0.0000000000000000e+00  -1.7900934642722518e+01 1.1960136009456281e+01 0.0000000000000000e+00  -1.3742911449696530e+01 1.9451415010938451e+01 0.0000000000000000e+00  -1.2626015740496207e+01 2.0534045013528946e+01 0.0000000000000000e+00  -1.0876558295659960e+01 2.1042767064306105e+01 0.0000000000000000e+00  -9.9048010076769124e+00 1.9620762091672798e+01 0.0000000000000000e+00  -8.7792783711574174e+00 1.8246469995022547e+01 0.0000000000000000e+00  -7.8646360965288054e+00 1.6460860026034553e+01 0.0000000000000000e+00  -7.0005368814333275e+00 1.4730043520408087e+01 0.0000000000000000e+00  -6.2276679084202726e+00 1.3202533443585777e+01 0.0000000000000000e+00  -5.4144860121211247e+00 1.2066742026131758e+01 0.0000000000000000e+00  -4.7755054362251679e+00 1.0931945515442822e+01 0.0000000000000000e+00  -4.2107295673235381e+00 9.9244328362958996e+00 0.0000000000000000e+00  -3.6225525404333125e+00 9.1706678379704112e+00 0.0000000000000000e+00  -3.0887734225012125e+00 8.4922904944889002e+00 0.0000000000000000e+00  -2.6097439596187892e+00 7.8672027864660077e+00 0.0000000000000000e+00  -2.1844028706876881e+00 7.2937326344477711e+00 0.0000000000000000e+00  -1.8217997646599995e+00 6.7065496714224206e+00 0.0000000000000000e+00  -1.5172610135041327e+00 6.1182161680005098e+00 0.0000000000000000e+00  -1.2560155129393047e+00 5.5370744829415335e+00 0.0000000000000000e+00  -1.0410988647209078e+00 4.9494064039823682e+00 0.0000000000000000e+00  -8.6795978204371138e-01 4.3346057795717776e+00 0.0000000000000000e+00  -7.3001259289502241e-01 3.7712030138072108e+00 0.0000000000000000e+00  -6.2688719024309891e-01 3.1280788307596521e+00 0.0000000000000000e+00  -5.6500307783288184e-01 2.6142018638262448e+00 0.0000000000000000e+00  -5.3547244070959998e-01 1.9284920423221363e+00 0.0000000000000000e+00  -5.5069798200666442e-01 1.5843677343625913e+00 0.0000000000000000e+00  -6.0876134792880732e-01 7.9276378609751741e-01 0.0000000000000000e+00  -7.1479705426384188e-01 5.7812609585764152e-01 0.0000000000000000e+00  -8.9111542019637136e-01 1.0197226687970193e+00 0.0000000000000000e+00  6.9990115418747478e-01 -1.2942631067568464e+00 0.0000000000000000e+00  7.9190923076279507e-01 -1.1566782996954244e+00 0.0000000000000000e+00  5.8838674811426994e-01 -1.5986081331458883e+00 0.0000000000000000e+00  4.7337086131493333e-01 -2.0330693102428419e+00 0.0000000000000000e+00  3.1938602848941988e-01 -2.4260058606625567e+00 0.0000000000000000e+00  6.6284875065094784e-02 -3.0263621531814398e+00 0.0000000000000000e+00  -2.4737926511964314e-01 -3.6503466356542722e+00 0.0000000000000000e+00  -6.1215534727044529e-01 -4.3566475320058871e+00 0.0000000000000000e+00  -1.0219171345213278e+00 -5.0857615682852648e+00 0.0000000000000000e+00  -1.4173409052334454e+00 -5.8019914460417343e+00 0.0000000000000000e+00  -1.5834560505595581e+00 -6.0611434692445130e+00 0.0000000000000000e+00  -2.0691373679173917e+00 -6.5674034370253374e+00 0.0000000000000000e+00  -1.6374926430880085e-01 -3.4725173320861336e+00 0.0000000000000000e+00  -4.5454258941488934e+00 -9.8477135475774489e+00 0.0000000000000000e+00  -3.1747865214771536e+00 -7.6184038620189369e+00 0.0000000000000000e+00  -2.8692252406574634e+00 -6.9548961185364551e+00 0.0000000000000000e+00  -3.1714789837757822e+00 -7.1107663533606189e+00 0.0000000000000000e+00  -3.9102364796993614e+00 -7.8515835725632694e+00 0.0000000000000000e+00  -4.9037504762495638e+00 -8.7908414933805936e+00 0.0000000000000000e+00  -6.0952323966164608e+00 -9.8917226027170191e+00 0.0000000000000000e+00  -7.4374355507371632e+00 -1.1058449185612034e+01 0.0000000000000000e+00  -8.8861467688351343e+00 -1.2233635562704530e+01 0.0000000000000000e+00  -1.0401459127066687e+01 -1.3265285436575828e+01 0.0000000000000000e+00  -1.1941050191759203e+01 -1.4280712239858492e+01 0.0000000000000000e+00  -1.3431974183704670e+01 -1.4755029392645476e+01 0.0000000000000000e+00  -1.4816519173919438e+01 -1.5000808104006998e+01 0.0000000000000000e+00  -1.6023334241292059e+01 -1.4203512601254120e+01 0.0000000000000000e+00  -1.6999357700555258e+01 -1.2591431795818361e+01 0.0000000000000000e+00  -1.7688197089409460e+01 -9.6571151896793843e+00 0.0000000000000000e+00  -1.8095456431936192e+01 -4.1515415030835809e+00 0.0000000000000000e+00  -1.8161163054989998e+01 8.6606225436116886e-04 0.0000000000000000e+00  -1.8071377078955909e+01 4.5932042777943050e+00 0.0000000000000000e+00  -1.8161165168227235e+01 -1.0058301466946144e-03 0.0000000000000000e+00  -1.7669557299302500e+01 1.1610230042253201e+01 0.0000000000000000e+00  -1.7468316935689391e+01 1.3303871503256746e+01 0.0000000000000000e+00  -1.3433990668455451e+01 1.8967300433480190e+01 0.0000000000000000e+00  -1.2455739201686306e+01 1.8498533150916789e+01 0.0000000000000000e+00  -1.0814472853186048e+01 1.8240212135045386e+01 0.0000000000000000e+00  -9.9360315560984969e+00 1.6617269661937762e+01 0.0000000000000000e+00  -8.8886472565966130e+00 1.5145477444629993e+01 0.0000000000000000e+00  -8.0446861619709669e+00 1.3482682929760960e+01 0.0000000000000000e+00  -7.2416247340689646e+00 1.2088017276573884e+01 0.0000000000000000e+00  -6.5251852655905038e+00 1.0887722054302204e+01 0.0000000000000000e+00  -5.7634205590933449e+00 1.0012099078488298e+01 0.0000000000000000e+00  -5.1723297690927525e+00 9.1131264052132988e+00 0.0000000000000000e+00  -4.6528518699970043e+00 8.3225110273548175e+00 0.0000000000000000e+00  -4.1074313904864246e+00 7.7238459509709987e+00 0.0000000000000000e+00  -3.6136238513926093e+00 7.1788714247200467e+00 0.0000000000000000e+00  -3.1722979282513850e+00 6.6842230548223052e+00 0.0000000000000000e+00  -2.7823778738162059e+00 6.1897563114973240e+00 0.0000000000000000e+00  -2.4531251418522664e+00 5.6870139188622764e+00 0.0000000000000000e+00  -2.1802339635678134e+00 5.1697543114592959e+00 0.0000000000000000e+00  -1.9492042255962674e+00 4.6505691081816076e+00 0.0000000000000000e+00  -1.7631288360078472e+00 4.0977619289409848e+00 0.0000000000000000e+00  -1.6180222120272534e+00 3.5862103613937064e+00 0.0000000000000000e+00  -1.5070305368493018e+00 2.9953419295391908e+00 0.0000000000000000e+00  -1.4305967025875141e+00 2.5419523993599662e+00 0.0000000000000000e+00  -1.3941129991928443e+00 1.9059292398845147e+00 0.0000000000000000e+00  -1.3906525701402654e+00 1.6257596095923865e+00 0.0000000000000000e+00  -1.4290647456031931e+00 9.0279828673836560e-01 0.0000000000000000e+00  -1.5140677163361795e+00 7.5158458664950645e-01 0.0000000000000000e+00  -1.6369621655523923e+00 1.3085604522587309e+00 0.0000000000000000e+00  -5.0499399685959567e-01 -1.1530242921409675e+00 0.0000000000000000e+00  -4.3326289673364948e-01 -1.0537726868988055e+00 0.0000000000000000e+00  -6.0216151863126710e-01 -1.4255326840939655e+00 0.0000000000000000e+00  -7.2316412857511203e-01 -1.8528254970630578e+00 0.0000000000000000e+00  -8.4957524901620596e-01 -2.1862703783231363e+00 0.0000000000000000e+00  -1.0167171953827194e+00 -2.6373188890165093e+00 0.0000000000000000e+00  -1.2836782152891639e+00 -3.1698750397647304e+00 0.0000000000000000e+00  -1.6115959130212152e+00 -3.8001567195928820e+00 0.0000000000000000e+00  -1.9898304315439046e+00 -4.4631320245466890e+00 0.0000000000000000e+00  -2.4105277225837134e+00 -5.2031366091971343e+00 0.0000000000000000e+00  -2.8125469139382773e+00 -5.8108859697862520e+00 0.0000000000000000e+00  -2.9801895238515717e+00 -5.8398274848550864e+00 0.0000000000000000e+00  -3.4659329867291429e+00 -6.3247281501313202e+00 0.0000000000000000e+00  -1.5751364628398699e+00 -3.2529317136234090e+00 0.0000000000000000e+00  -5.9931307272158012e+00 -9.6501755952353285e+00 0.0000000000000000e+00  -4.6531444306661420e+00 -7.4037433365184873e+00 0.0000000000000000e+00  -4.3598396987196493e+00 -6.6567932899390598e+00 0.0000000000000000e+00  -4.6621858522975135e+00 -6.7517336020910781e+00 0.0000000000000000e+00  -5.3889524218518927e+00 -7.3140808631586367e+00 0.0000000000000000e+00  -6.3625358690186173e+00 -8.1255848640499870e+00 0.0000000000000000e+00  -7.5250602370251576e+00 -9.0722669054155638e+00 0.0000000000000000e+00  -8.8282134266479382e+00 -1.0095783138761528e+01 0.0000000000000000e+00  -1.0226263004872672e+01 -1.1036326596920697e+01 0.0000000000000000e+00  -1.1678122462229705e+01 -1.2030113346446383e+01 0.0000000000000000e+00  -1.3133341884224855e+01 -1.2585792095084473e+01 0.0000000000000000e+00  -1.4523115059722073e+01 -1.3018996613593972e+01 0.0000000000000000e+00  -1.5773113374033288e+01 -1.2491479847476509e+01 0.0000000000000000e+00  -1.6827272535297549e+01 -1.1279193906328672e+01 0.0000000000000000e+00  -1.7594210300011259e+01 -8.7459864583087956e+00 0.0000000000000000e+00  -1.8073710957167517e+01 -3.7958875302968025e+00 0.0000000000000000e+00  -1.8159505218142350e+01 1.0956053256188179e-03 0.0000000000