<?xml version="1.0"?>
<VTKFile type="UnstructuredGrid"  version="0.1"  >
<UnstructuredGrid>
<Piece  NumberOfPoints="1933" NumberOfCells="3640">
<Points>
<DataArray  type="Float64"  NumberOfComponents="3"  format="ascii">0.4754512166249427 0.0005210771357222212 0  5.475451219889743 0.0005000378514855163 0  5.47548279801171 7.500500058299701 0  0.4754827847470907 7.500521079665796 0  10.47545122026716 0.0004789741646921879 0  10.47548282560423 7.500479002091712 0  15.47545123076016 0.0004578640697251531 0  15.47548287641647 7.500457895029011 0  20.47545126807468 0.0004366984248756454 0  20.47548295975145 7.500436730532956 0  25.47545134933442 0.0004154763158904973 0  25.47548308544558 7.500415508892313 0  30.4754514909813 0.0003942022339183634 0  30.47548326367269 7.500394235188089 0  35.47545170863316 0.0003728843442901825 0  35.47548350480115 7.500372917883505 0  40.47545201735235 0.0003515334736157615 0  40.4754838193642 7.500351567963883 0  45.47545243207936 0.0003301625902297275 0  45.47548421812558 7.500330198493815 0  50.47545296812482 0.0003087866386843408 0  50.47548471220763 7.500308824491691 0  55.47545364167915 0.0002874226460881921 0  55.47548531325311 7.5002874630581 0  60.47545447032981 0.0002660900586847555 0  60.47548603359841 7.500266133725607 0  65.47545547359114 0.0002448112982059439 0  65.47548688643877 7.50024485902425 0  70.47545667345632 0.00022361255439122 0  70.47548788596698 7.500223665281217 0  75.47545809498534 0.0002025248570886892 0  75.47548904746314 7.50020258369865 0  80.47545976693851 0.0001815855031516384 0  80.47549038730115 7.500181651783043 0  85.47546172246274 0.0001608399556049478 0  85.47549192282499 7.500160915238524 0  90.47546399982186 0.000140344393331872 0  90.47549367201583 7.500140430489553 0  95.47546664313838 0.0001201691813775712 0  95.47549565283563 7.500120268074325 0  100.4754697030521 0.0001004036752176965 0  100.4754978820714 7.500100517258999 0  105.4754732370829 8.116300049847733e-05 0  105.4755003734244 7.500081292377299 0  110.4754773092361 6.259781872732428e-05 0  110.4755031344936 7.500062741611276 0  115.4754819878751 4.490869207755089e-05 0  115.4755061622262 7.500045059197035 0  120.4754873398416 2.836765016022341e-05 0  120.4755094364538 7.500028502317301 0  125.4754934166497 1.335118578353026e-05 0  125.4755129116072 7.500013414060693 0  130.4755002241721 3.915422799809329e-07 0  130.4755165083644 7.500000253296273 0  135.4755076581306 -9.742744810452303e-06 0  135.4755201117335 7.499989629926892 0  140.4755153687148 -1.592075125055693e-05 0  140.4755235945937 7.499982337261368 0  145.4755224766917 -1.64609774290592e-05 0  145.4755269180381 7.499979359451963 0  150.4755269673909 -8.917018639226345e-06 0  150.4755304461689 7.499981824943282 0  160.4755282581476 4.702283719172206e-19 0  165.4754924211773 -4.440468823224256e-05 0  165.4755209796429 7.499949310230739 0  160.4755321397383 7.49998393337729 0  170.4754709220995 -8.429521570465891e-05 0  170.4755094843056 7.499912620062227 0  175.4754574085109 -0.0001211582802535792 0  175.4754996806289 7.499877129210627 0  180.4754486312259 -0.0001555755130214873 0  180.4754918341661 7.499843410450018 0  185.4754427953302 -0.0001879843617021358 0  185.4754857278683 7.499811389775604 0  190.4754388595404 -0.0002187545350639548 0  190.4754810445342 7.499780846037507 0  195.4754361949279 -0.0002481891327208944 0  195.4754774854447 7.499751548250188 0  200.475434406671 -0.0002765296640045929 0  200.4754748016127 7.499723293079236 0  205.4754332372881 -0.0003039663608718398 0  205.47547279532 7.499695911380245 0  210.4754325126056 -0.0003306492139246648 0  210.4754713126466 7.499669265118863 0  215.4754321107785 -0.0003566974897818644 0  215.4754702345027 7.499643241957279 0  220.475431944019 -0.000382207205502713 0  220.4754694686643 7.49961774998443 0  225.4754319474845 -0.0004072567524900519 0  225.4754689433896 7.499592713301755 0  230.4754320722983 -0.0004319110561602834 0  230.4754686025287 7.499568068537578 0  235.4754322810171 -0.0004562246451356912 0  235.4754684018506 7.49954376215909 0  240.4754325445923 -0.0004802439310371429 0  240.4754683063014 7.499519748411908 0  245.4754328402742 -0.0005040089235847639 0  245.4754682879576 7.499495987733846 0  250.4754331501246 -0.0005275545428639279 0  250.4754683244926 7.49947244552041 0  255.4754334599476 -0.0005509116435435573 0  255.4754683980237 7.499449091149219 0  260.4754337585076 -0.000574107831910148 0  260.47546849424 7.499425897195161 0  265.4754340369655 -0.0005971681322116508 0  265.4754686017466 7.499402838787226 0  270.4754342884795 -0.0006201155405823568 0  270.4754687115728 7.499379893073229 0  275.4754345079546 -0.0006429714895224558 0  275.4754688168095 7.499357038772112 0  280.4754346919258 -0.0006657562299057463 0  280.4754689123515 7.499334255807056 0  285.4754348385866 -0.0006884891157055561 0  285.4754689947166 7.499311525029884 0  290.4754349479746 -0.0007111887400793658 0  290.4754690619258 7.499288828071728 0  295.4754350223377 -0.0007338728024413779 0  295.4754691134195 7.499266147392142 0  300.4754350666859 -0.0007565574467756869 0  300.4754691499874 7.499243466654195 0  305.4754350894469 -0.0007792555143303378 0  305.4754691737372 7.499220771624803 0  310.4754351029138 -0.0008019724821917576 0  310.4754691882653 7.499198051854667 0  5.475514284359733 15.00050011248909 0  0.4755142682659872 15.00052108939812 0  10.47551431641434 15.00047907479864 0  15.47551437307404 15.0004579737646 0  20.4755144608778 15.0004368099618 0  25.47551458565238 15.00041558734197 0  30.47551475311511 15.00039431281378 0  35.47551496908954 15.00037299572703 0  40.47551523955681 15.00035164748471 0  45.47551557064568 15.00033028134691 0  50.47551596860139 15.00030891243301 0  55.4755164397419 15.00028755791384 0  60.47551699039418 15.00026623739008 0  65.47551762679636 15.00024497346427 0  70.47551835494389 15.00022379252906 0  75.47551918035398 15.00020272581205 0  80.47552010771406 15.00018181073881 0  85.47552114037441 15.00016109270118 0  90.475522279637 15.00014062734907 0  95.47552352379188 15.00012048355951 0  100.4755248668651 15.00010074727137 0  105.4755262970874 15.00008152639514 0  110.4755277952085 15.00006295697513 0  115.4755293330346 15.00004521061443 0  120.4755308730685 15.00002850268361 0  125.4755323710634 15.00001309962702 0  130.4755337848836 14.99999932091763 0  135.4755350954066 14.99998752509484 0  140.4755363476463 14.99997805576804 0  145.4755377190381 14.99997109177099 0  150.4755396012606 14.99996626016484 0  165.4755392900201 14.99993331913765 0  160.4755417180014 14.99996108681295 0  170.4755351996593 14.99990255758923 0  175.4755303949141 14.99987086942773 0  180.4755256400034 14.99983946179684 0  185.4755213259553 14.99980884204986 0  190.4755175996069 14.99977915899037 0  195.4755144772544 14.99975040083336 0  200.4755119138763 14.99972249226217 0  205.4755098408067 14.99969533909551 0  210.4755081847922 14.99966884763138 0  215.4755068768283 14.99964293212861 0  220.4755058556482 14.99961751691871 0  225.4755050685523 14.99959253622842 0  230.4755044710146 14.99956793314311 0  235.4755040258025 14.99954365834945 0  240.4755037019712 14.9995196689225 0  245.475503473899 14.99949592725033 0  250.4755033204323 14.99947240011401 0  255.4755032241559 14.99944905791109 0  260.4755031707845 14.9994258740012 0  265.4755031486611 14.99940282415202 0  270.4755031483468 14.99937988606841 0  275.4755031622836 14.99935703899172 0  280.4755031845131 14.99933426336359 0  285.4755032104393 14.99931154055405 0  290.4755032366169 14.99928885265797 0  295.4755032605735 14.99926618235881 0  300.4755032806796 14.99924351282413 0  305.4755032961355 14.99922082747839 0  310.4755033072254 14.99919810914079 0  5.475545648508284 22.50050023523821 0  0.475545632009418 22.50052116137107 0  10.47554567704803 22.50047922032915 0  15.47554572489374 22.50045812684119 0  20.47554579672567 22.50043696343333 0  25.47554589582869 22.50041573887427 0  30.47554602480986 22.50039446280535 0  35.47554618596472 22.50037314605571 0  40.47554638141931 22.50035180078563 0  45.47554661313703 22.50033044061128 0  50.47554688284579 22.50030908079043 0  55.47554719191066 22.50028773850993 0  60.47554754116185 22.50026643329994 0  65.47554793067633 22.50024518759729 0  70.47554835950423 22.50022402748105 0  75.47554882533106 22.50020298361257 0  80.47554932406388 22.50018209241736 0  85.47554984933876 22.50016139755463 0  90.47555039195879 22.50014095172126 0  95.47555093930102 22.50012081882705 0  100.4755514747818 22.50010107654281 0  105.4755519775598 22.50008181913413 0  110.4755524228032 22.50006316030575 0  115.4755527830685 22.50004523540435 0  120.4755530316494 22.5000282016148 0  125.4755531491036 22.50001223348806 0  130.4755531343871 22.49999750889582 0  135.4755530215815 22.4999841768798 0  140.4755529008469 22.49997229374734 0  145.4755529352362 22.49996170931469 0  150.4755533486626 22.49995189480481 0  165.4755567392442 22.49991580445155 0  160.4755549046872 22.49993947332855 0  170.4755569649452 22.49988932747226 0  175.4755559821899 22.49986128055274 0  180.4755542621329 22.49983262092736 0  185.475552202105 22.49980396702363 0  190.4755500758063 22.49977566066721 0  195.4755480480587 22.49974786222058 0  200.4755462054919 22.49972062582664 0  205.4755445841725 22.49969394822481 0  210.4755431898421 22.49966779767141 0  215.4755420113923 22.49964213015407 0  220.4755410293275 22.49961689807042 0  225.4755402208444 22.49959205462216 0  230.4755395627365 22.49956755584747 0  235.4755390329604 22.49954336138941 0  240.4755386113945 22.49951943461268 0  245.4755382801331 22.49949574240203 0  250.4755380235169 22.49947225482142 0  255.4755378280281 22.49944894472565 0  260.4755376821157 22.49942578737134 0  265.4755375759984 22.49940276004831 0  270.4755375014587 22.49937984174036 0  275.4755374516445 22.49935701281845 0  280.4755374208754 22.4993342547645 0  285.4755374044591 22.49931154992079 0  290.4755373985178 22.49928888124801 0  295.47553739983
[...]
<PointData  Vectors="v"> 
<DataArray  type="Float64"  Name="v"  NumberOfComponents="3" format="ascii">3.3575551241444117e+00 6.6705947157236052e+00 0.0000000000000000e+00  3.8251775024705843e+00 6.0416664594744125e+00 0.0000000000000000e+00  3.3132838879491864e+00 5.3404981055351666e+00 0.0000000000000000e+00  2.9493064572436878e+00 6.1244484915528874e+00 0.0000000000000000e+00  4.3683615273012144e+00 6.3041740698981910e+00 0.0000000000000000e+00  3.7804426284952020e+00 5.4901183893893606e+00 0.0000000000000000e+00  4.8012295665160591e+00 6.8736729133239969e+00 0.0000000000000000e+00  4.3225709905116938e+00 6.2256093653354068e+00 0.0000000000000000e+00  5.1239215784901830e+00 6.7469467463230419e+00 0.0000000000000000e+00  4.7537716777017565e+00 6.2645734177875267e+00 0.0000000000000000e+00  5.5546233939047260e+00 7.1011049735324239e+00 0.0000000000000000e+00  5.0742153390947067e+00 6.4571118030456081e+00 0.0000000000000000e+00  5.8495504970156604e+00 6.9884384661720613e+00 0.0000000000000000e+00  5.5022498497710410e+00 6.5485243694336281e+00 0.0000000000000000e+00  5.8223745956671289e+00 6.4644422980754417e+00 0.0000000000000000e+00  5.7940129998641341e+00 6.5078956291377166e+00 0.0000000000000000e+00  6.5979507940840891e+00 7.0272608059746782e+00 0.0000000000000000e+00  5.7633451298568774e+00 5.8668509416074128e+00 0.0000000000000000e+00  4.6638253062864079e+00 3.5503832445078536e+00 0.0000000000000000e+00  6.5352093913898237e+00 6.4548097342845621e+00 0.0000000000000000e+00  1.3081382740521683e+01 1.5385937804854906e+01 0.0000000000000000e+00  4.5971917840248899e+00 2.7626799535461024e+00 0.0000000000000000e+00  1.3611314035155571e+01 1.5036066493940748e+01 0.0000000000000000e+00  1.3010278641536804e+01 1.4244952811820674e+01 0.0000000000000000e+00  1.3866319509257027e+01 1.4130302854951768e+01 0.0000000000000000e+00  1.3535710740264658e+01 1.3751149749548327e+01 0.0000000000000000e+00  1.4190072785597261e+01 1.3273618358445580e+01 0.0000000000000000e+00  1.3786468174293269e+01 1.2791450677221855e+01 0.0000000000000000e+00  1.4642620615053371e+01 1.2632245950584794e+01 0.0000000000000000e+00  1.4105876531344405e+01 1.1956745017854427e+01 0.0000000000000000e+00  1.5239330099845287e+01 1.2202824488701392e+01 0.0000000000000000e+00  1.4554248608179130e+01 1.1311254576088619e+01 0.0000000000000000e+00  1.5921160594970203e+01 1.1866474939268386e+01 0.0000000000000000e+00  1.5146638876735887e+01 1.0846798622588057e+01 0.0000000000000000e+00  1.6625095699118095e+01 1.1708685481734058e+01 0.0000000000000000e+00  1.5824279053190143e+01 1.0655598018815208e+01 0.0000000000000000e+00  1.7288380138514889e+01 1.1417347561310565e+01 0.0000000000000000e+00  1.6524638597707099e+01 1.0424841426771504e+01 0.0000000000000000e+00  1.7856349735271792e+01 1.1029768723438764e+01 0.0000000000000000e+00  1.7184659590452103e+01 1.0179188352750295e+01 0.0000000000000000e+00  1.8290365621407904e+01 1.0435716526935748e+01 0.0000000000000000e+00  1.7750382023921869e+01 9.7853282610590480e+00 0.0000000000000000e+00  1.8576333656507661e+01 9.6616381468133454e+00 0.0000000000000000e+00  1.8183256140963518e+01 9.2319107057295309e+00 0.0000000000000000e+00  1.8716975377002555e+01 8.3691831413402209e+00 0.0000000000000000e+00  1.8469790528658034e+01 8.1562072716576584e+00 0.0000000000000000e+00  1.8731090358445112e+01 7.2710401061943006e+00 0.0000000000000000e+00  1.8612057522236839e+01 7.2454175998888823e+00 0.0000000000000000e+00  1.8658197074138460e+01 5.2476699120360140e+00 0.0000000000000000e+00  1.8631370634802344e+01 5.3519992554035758e+00 0.0000000000000000e+00  1.8531603715792404e+01 3.9953867489797008e+00 0.0000000000000000e+00  1.8563793623586715e+01 4.1755799576523858e+00 0.0000000000000000e+00  1.8399321303600292e+01 1.4795885149995429e+00 0.0000000000000000e+00  1.8448713090353241e+01 1.6697121536100592e+00 0.0000000000000000e+00  1.8281994209460198e+01 5.6492219218838680e-01 0.0000000000000000e+00  1.8326047249780800e+01 7.2438774575578124e-01 0.0000000000000000e+00  1.8210706090484180e+01 -1.8217167959117428e+00 0.0000000000000000e+00  1.8228395933776564e+01 -1.7261980705996602e+00 0.0000000000000000e+00  1.8172537446919154e+01 -1.6750547916439125e+00 0.0000000000000000e+00  1.8171210068631417e+01 -1.6429086911380000e+00 0.0000000000000000e+00  1.8163563199254675e+01 1.9121147469123611e-11 0.0000000000000000e+00  1.8164429352429401e+01 8.6011913905505882e-04 0.0000000000000000e+00  1.8163563200133691e+01 -4.5320051584933626e-19 0.0000000000000000e+00  1.1542923171561563e+01 1.7632086899756646e-02 0.0000000000000000e+00  1.8177144719439678e+01 9.9448034306374566e+00 0.0000000000000000e+00  1.8164421979352177e+01 -8.7385876246769286e-04 0.0000000000000000e+00  1.2947446785095739e+01 -9.4341562988646310e-01 0.0000000000000000e+00  1.1559303288299564e+01 -3.0474491307363767e+00 0.0000000000000000e+00  1.1085731458185247e+01 -5.9971355832146935e+00 0.0000000000000000e+00  1.2965122069210961e+01 -3.2124937456575862e+00 0.0000000000000000e+00  1.0978679482632295e+01 -6.9663659414432244e+00 0.0000000000000000e+00  1.1107890698798338e+01 -6.8108634133541006e+00 0.0000000000000000e+00  1.0054731866972309e+01 -1.0019763104069494e+01 0.0000000000000000e+00  1.1008093752494361e+01 -8.6421499718397570e+00 0.0000000000000000e+00  9.4673151154405932e+00 -1.1172214992119809e+01 0.0000000000000000e+00  1.0092889911456950e+01 -1.0299857812501358e+01 0.0000000000000000e+00  8.7587869175668231e+00 -1.2353847291049583e+01 0.0000000000000000e+00  9.5152168008347342e+00 -1.1301513759276981e+01 0.0000000000000000e+00  8.1697873608894618e+00 -1.2544279427037168e+01 0.0000000000000000e+00  8.8180350399778629e+00 -1.1671446793787830e+01 0.0000000000000000e+00  7.3909967171052147e+00 -1.2497328034660095e+01 0.0000000000000000e+00  8.2411799017683123e+00 -1.1341019495488283e+01 0.0000000000000000e+00  6.8739114823892891e+00 -1.1729883909511086e+01 0.0000000000000000e+00  7.4752482044407413e+00 -1.0966635470693111e+01 0.0000000000000000e+00  6.4808206591589395e+00 -1.0811183285496480e+01 0.0000000000000000e+00  6.9718780332076085e+00 -1.0234419515113194e+01 0.0000000000000000e+00  6.0322298270313732e+00 -9.8691846311782570e+00 0.0000000000000000e+00  6.5930564258691495e+00 -9.2096749922367351e+00 0.0000000000000000e+00  5.5929819733602280e+00 -8.9249250356761465e+00 0.0000000000000000e+00  6.1591545823864555e+00 -8.2798519197812208e+00 0.0000000000000000e+00  5.1670919731160474e+00 -8.0794826657538028e+00 0.0000000000000000e+00  5.7351089102733637e+00 -7.4546554075092519e+00 0.0000000000000000e+00  4.7191859117771697e+00 -7.3060205775590310e+00 0.0000000000000000e+00  5.3247373701578429e+00 -6.6484531661523061e+00 0.0000000000000000e+00  4.2983038834261533e+00 -6.5621303051080080e+00 0.0000000000000000e+00  4.8925458181446109e+00 -5.9452701855761010e+00 0.0000000000000000e+00  3.9153033046632921e+00 -5.8924713769239130e+00 0.0000000000000000e+00  4.4876064512543854e+00 -5.3324856442359954e+00 0.0000000000000000e+00  3.5422517334962431e+00 -5.2622893992420199e+00 0.0000000000000000e+00  4.1206318967109432e+00 -4.7173143688764902e+00 0.0000000000000000e+00  3.2024562907131053e+00 -4.6479517492107369e+00 0.0000000000000000e+00  3.7636443014556047e+00 -4.1528495298923147e+00 0.0000000000000000e+00  2.9079826581638746e+00 -4.0925473661824405e+00 0.0000000000000000e+00  3.4398897657042928e+00 -3.6654119720462126e+00 0.0000000000000000e+00  2.6269875266495526e+00 -3.5240011808340692e+00 0.0000000000000000e+00  3.1614700730677967e+00 -3.1169572760978839e+00 0.0000000000000000e+00  2.3782625801063313e+00 -3.0349407279223359e+00 0.0000000000000000e+00  2.8963071796384594e+00 -2.6763360906222484e+00 0.0000000000000000e+00  2.1571770092541942e+00 -2.5016674339769813e+00 0.0000000000000000e+00  2.6635049468900194e+00 -2.1841824104120655e+00 0.0000000000000000e+00  1.9506065232578942e+00 -2.1529593536773155e+00 0.0000000000000000e+00  2.4578427503444158e+00 -1.8574916823909278e+00 0.0000000000000000e+00  1.7499209284643482e+00 -1.6041315233173716e+00 0.0000000000000000e+00  2.2671379715515041e+00 -1.3167017096347255e+00 0.0000000000000000e+00  1.5505669813558394e+00 -1.5719944918860764e+00 0.0000000000000000e+00  2.0811016388227190e+00 -1.2875200767001527e+00 0.0000000000000000e+00  1.3344564834119439e+00 -9.1955804388337370e-01 0.0000000000000000e+00  1.8979440325252053e+00 -6.0794873489666001e-01 0.0000000000000000e+00  1.0164992148042646e+00 -1.4609105651056535e+00 0.0000000000000000e+00  1.6949686067756726e+00 -9.9949494305084852e-01 0.0000000000000000e+00  5.0494276213311662e-01 -1.2335111782200492e+00 0.0000000000000000e+00  1.3951609344644176e+00 -4.7611548908654666e-01 0.0000000000000000e+00  -6.9790564949172218e-01 -1.8335404844374659e-01 0.0000000000000000e+00  8.9086853658293186e-01 1.6002192750132862e+00 0.0000000000000000e+00  3.0431574828873496e+00 4.7947893256021601e+00 0.0000000000000000e+00  2.6357714834180341e+00 5.5129346037509510e+00 0.0000000000000000e+00  3.4064225211224359e+00 4.7902825285971939e+00 0.0000000000000000e+00  3.8716734231800856e+00 5.4140026667491297e+00 0.0000000000000000e+00  4.4106982090162941e+00 5.6201026217906982e+00 0.0000000000000000e+00  4.8375526290151862e+00 5.9795903114353557e+00 0.0000000000000000e+00  5.1523573926882777e+00 5.9102104231198576e+00 0.0000000000000000e+00  5.5736564410432621e+00 6.0745976204447931e+00 0.0000000000000000e+00  5.8577575374129749e+00 5.9177958568826208e+00 0.0000000000000000e+00  5.8186524173610428e+00 5.3019775499153745e+00 0.0000000000000000e+00  6.5821458988755159e+00 5.6744233975488765e+00 0.0000000000000000e+00  4.6356266789015539e+00 1.6314310595485024e+00 0.0000000000000000e+00  1.3037528560308139e+01 1.2969868231958939e+01 0.0000000000000000e+00  1.3552051586533212e+01 1.2420598905202102e+01 0.0000000000000000e+00  1.3793638005327535e+01 1.1483470805318039e+01 0.0000000000000000e+00  1.4103433305321060e+01 1.0644143591164417e+01 0.0000000000000000e+00  1.4542056120820870e+01 9.9643857359481167e+00 0.0000000000000000e+00  1.5123818336531892e+01 9.6458566935762580e+00 0.0000000000000000e+00  1.5790050124443711e+01 9.3809063877887695e+00 0.0000000000000000e+00  1.6478830511277650e+01 9.1959010189540926e+00 0.0000000000000000e+00  1.7127270545315724e+01 8.9437138459925407e+00 0.0000000000000000e+00  1.7681587605794178e+01 8.5882099744415914e+00 0.0000000000000000e+00  1.8104632752391986e+01 7.7317361260004045e+00 0.0000000000000000e+00  1.8382823619982137e+01 7.0354334839061350e+00 0.0000000000000000e+00  1.8519621399394634e+01 5.3251574752280826e+00 0.0000000000000000e+00  1.8536727320723575e+01 4.2747928023895216e+00 0.0000000000000000e+00  1.8472650685725274e+01 1.8406595279038200e+00 0.0000000000000000e+00  1.8364602041455502e+01 8.9589456480500818e-01 0.0000000000000000e+00  1.8260531147897833e+01 -1.5851265049034342e+00 0.0000000000000000e+00  1.8182348481791358e+01 -1.5867725471873406e+00 0.0000000000000000e+00  1.8166525183270391e+01 1.6410235307640891e-03 0.0000000000000000e+00  1.8181389275753208e+01 9.8860247003062565e+00 0.0000000000000000e+00  1.8166511510606419e+01 -1.7683960252907031e-03 0.0000000000000000e+00  1.8237903013473520e+01 6.8781994620741793e+00 0.0000000000000000e+00  1.1610711947104939e+01 -5.3126839561774561e+00 0.0000000000000000e+00  1.3007646410550858e+01 -4.0242690914608543e+00 0.0000000000000000e+00  1.1150873362398642e+01 -8.4940579891471177e+00 0.0000000000000000e+00  1.1054810615051320e+01 -8.9316764755197706e+00 0.0000000000000000e+00  1.0147189114406761e+01 -1.0438943120300980e+01 0.0000000000000000e+00  9.5775977609530081e+00 -1.0631820671583377e+01 0.0000000000000000e+00  8.8905721554919985e+00 -1.0482102165893030e+01 0.0000000000000000e+00  8.3245638139034934e+00 -9.8243562397667681e+00 0.0000000000000000e+00  7.5701497463810687e+00 -9.4866345540782255e+00 0.0000000000000000e+00  7.0790390522853892e+00 -8.6491710118279226e+00 0.0000000000000000e+00  6.7131530861052839e+00 -7.6367911771177042e+00 0.0000000000000000e+00  6.2925893936206903e+00 -6.8269005012072501e+00 0.0000000000000000e+00  5.8825093508553508e+00 -6.0415082393427841e+00 0.0000000000000000e+00  5.4865578349452342e+00 -5.3056669111202606e+00 0.0000000000000000e+00  5.0690176996653671e+00 -4.7339685788587724e+00 0.0000000000000000e+00  4.6789523793719061e+00 -4.1758523650917665e+00 0.0000000000000000e+00  4.3269569967824983e+00 -3.6262642721835974e+00 0.0000000000000000e+00  3.9848579472195196e+00 -3.1887023015438039e+00 0.0000000000000000e+00  3.6759119085159080e+00 -2.7081062830015425e+00 0.0000000000000000e+00  3.4120825146599802e+00 -2.2872847682992044e+00 0.0000000000000000e+00  3.1612716750640808e+00 -1.8433458982898407e+00 0.0000000000000000e+00  2.9424241573510859e+00 -1.5574505709092001e+00 0.0000000000000000e+00  2.7504998821057480e+00 -1.0383668829414017e+00 0.0000000000000000e+00  2.5728743019329050e+00 -1.0168242037797608e+00 0.0000000000000000e+00  2.3999794628540823e+00 -3.3976482249344270e-01 0.0000000000000000e+00  2.2287026638011329e+00 -7.0406406788845421e-01 0.0000000000000000e+00  2.0386143706433528e+00 -3.0981448570635721e-02 0.0000000000000000e+00  1.7495715107017118e+00 2.3468998204086957e+00 0.0000000000000000e+00  2.9473274304205059e+00 4.1842763620449608e+00 0.0000000000000000e+00  2.5758816167038097e+00 4.9551109201593340e+00 0.0000000000000000e+00  3.3536399336788310e+00 4.2468657972425294e+00 0.0000000000000000e+00  3.7143161157489351e+00 4.7188900851714601e+00 0.0000000000000000e+00  4.1751494814488215e+00 4.8160713864120073e+00 0.0000000000000000e+00  4.7072878117979924e+00 5.3455271813325611e+00 0.0000000000000000e+00  5.1247739359559086e+00 5.4459625982330593e+00 0.0000000000000000e+00  5.4278011316078887e+00 5.4523284767988009e+00 0.0000000000000000e+00  5.8349738729010605e+00 5.5026324079945805e+00 0.0000000000000000e+00  6.1032160327220852e+00 5.3723872368877128e+00 0.0000000000000000e+00  6.0476140153025195e+00 4.5407635474357102e+00 0.0000000000000000e+00  6.7952249237994833e+00 4.5629200487915700e+00 0.0000000000000000e+00  4.8311019267947835e+00 3.8225662763445745e-01 0.0000000000000000e+00  1.3210680052062067e+01 1.1664624218493529e+01 0.0000000000000000e+00  1.3704519230558166e+01 1.1133214232427639e+01 0.0000000000000000e+00  1.3929069464942351e+01 1.0192018193672633e+01 0.0000000000000000e+00  1.4221406998806978e+01 9.3198459193472090e+00 0.0000000000000000e+00  1.4640786852214282e+01 8.7880728326840547e+00 0.0000000000000000e+00  1.5200804101592098e+01 8.3978933250463452e+00 0.0000000000000000e+00  1.5843126825459938e+01 8.1804629839401244e+00 0.0000000000000000e+00  1.6505767898637512e+01 7.9894282847054283e+00 0.0000000000000000e+00  1.7126686820335063e+01 7.7750535940439836e+00 0.0000000000000000e+00  1.7653600393560382e+01 7.1153075292025925e+00 0.0000000000000000e+00  1.8049685843168664e+01 6.6333218196050829e+00 0.0000000000000000e+00  1.8304340648282000e+01 5.1335259287956765e+00 0.0000000000000000e+00  1.8421374236784601e+01 4.2555613301046034e+00 0.0000000000000000e+00  1.8427570008489358e+01 1.9406095478142735e+00 0.0000000000000000e+00  1.8359884599489462e+01 1.0454959759737001e+00 0.0000000000000000e+00  1.8266798513802517e+01 -1.4382298630651182e+00 0.0000000000000000e+00  1.8185123702644457e+01 -1.5184150902832152e+00 0.0000000000000000e+00  1.8169797108746003e+01 2.3477086644754066e-03 0.0000000000000000e+00  1.8175875726460422e+01 9.8338350412017306e+00 0.0000000000000000e+00  1.8169784527913130e+01 -2.5586472028769334e-03 0.0000000000000000e+00  1.8231517393350078e+01 6.7842508559763024e+00 0.0000000000000000e+00  1.8284636375280279e+01 4.6420401937907512e+00 0.0000000000000000e+00  1.1638671140066091e+01 -6.1077880901976878e+00 0.0000000000000000e+00  1.3022431615875105e+01 -5.7102360026587720e+00 0.0000000000000000e+00  1.1167887422035930e+01 -8.7919645692507249e+00 0.0000000000000000e+00  1.1080115957837272e+01 -9.0872521608395900e+00 0.0000000000000000e+00  1.0184842555067274e+01 -9.7874082708490544e+00 0.0000000000000000e+00  9.6289385077615499e+00 -9.4632486873999220e+00 0.0000000000000000e+00  8.9572247382910000e+00 -8.9875659069054556e+00 0.0000000000000000e+00  8.4068524985856570e+00 -8.3679678259832624e+00 0.0000000000000000e+00  7.6689559517423396e+00 -7.9258845523393360e+00 0.0000000000000000e+00  7.1950202496605824e+00 -7.1020596403352778e+00 0.0000000000000000e+00  6.8469265648554352e+00 -6.2106757680757063e+00 0.0000000000000000e+00  6.4449735617063837e+00 -5.4416211728742203e+00 0.0000000000000000e+00  6.0543679896251374e+00 -4.7275457156315248e+00 0.0000000000000000e+00  5.6784975088737326e+00 -4.1238084082334732e+00 0.0000000000000000e+00  5.2814994511798332e+00 -3.6070963576015154e+00 0.0000000000000000e+00  4.9122372112360555e+00 -3.1146887973343085e+00 0.0000000000000000e+00  4.5810181928710696e+00 -2.6918982659154702e+00 0.0000000000000000e+00  4.2595429150119317e+00 -2.2607429537156198e+00 0.0000000000000000e+00  3.9708319545899737e+00 -1.9074051428552690e+00 0.0000000000000000e+00  3.7268181605990431e+00 -1.4823768389798189e+00 0.0000000000000000e+00  3.4950300535098413e+00 -1.2442527594974038e+00 0.0000000000000000e+00  3.2947608013258409e+00 -7.6447156860342957e-01 0.0000000000000000e+00  3.1201709040914261e+00 -7.6472982736277539e-01 0.0000000000000000e+00  2.9597782546072686e+00 -9.2475401378949204e-02 0.0000000000000000e+00  2.8019016540622270e+00 -4.6162934825631813e-01 0.0000000000000000e+00  2.6475826345370637e+00 2.4515228965908778e-01 0.0000000000000000e+00  2.4680000839438985e+00 2.7653513049005127e+00 0.0000000000000000e+00  3.1224449033169566e+00 3.6277963355509164e+00 0.0000000000000000e+00  2.7766346981103713e+00 4.4355061194026169e+00 0.0000000000000000e+00  3.4927155888386885e+00 3.6389375605678520e+00 0.0000000000000000e+00  3.8964817086642016e+00 4.1805662748493670e+00 0.0000000000000000e+00  4.2529653993317540e+00 4.1292142469412543e+00 0.0000000000000000e+00  4.7069731137545121e+00 4.5539313397742838e+00 0.0000000000000000e+00  5.2291302919344691e+00 4.8289000973956968e+00 0.0000000000000000e+00  5.6330266068615407e+00 5.0094190103207081e+00 0.0000000000000000e+00  5.9189669675312979e+00 4.9057779600687850e+00 0.0000000000000000e+00  6.3061222006149711e+00 4.9855664421138366e+00 0.0000000000000000e+00  6.5526889676296438e+00 4.6396739281352879e+00 0.0000000000000000e+00  6.4754803413672946e+00 3.4565782591932583e+00 0.0000000000000000e+00  7.2023600550261753e+00 3.3447758780631989e+00 0.0000000000000000e+00  5.2141763970451471e+00 -8.8394864294395292e-01 0.0000000000000000e+00  1.3564230607261271e+01 1.0412321715125973e+01 0.0000000000000000e+00  1.4032903533637695e+01 9.8697721519521142e+00 0.0000000000000000e+00  1.4237504105748473e+01 8.8966396137151822e+00 0.0000000000000000e+00  1.4508452315698044e+01 8.1762161998769045e+00 0.0000000000000000e+00  1.4903126110015297e+01 7.5788824539937174e+00 0.0000000000000000e+00  1.5432970109274104e+01 7.2411596846259911e+00 0.0000000000000000e+00  1.6040009961976452e+01 7.0232914065132404e+00 0.0000000000000000e+00  1.6662589342078959e+01 6.8741152929162403e+00 0.0000000000000000e+00  1.7239620322910508e+01 6.3572649787760005e+00 0.0000000000000000e+00  1.7720129371556631e+01 6.0711046449941568e+00 0.0000000000000000e+00  1.8070695493746996e+01 4.7832938053170038e+00 0.0000000000000000e+00  1.8281587523415293e+01 4.1048520798703620e+00 0.0000000000000000e+00  1.8363891575077080e+01 1.9533905664889200e+00 0.0000000000000000e+00  1.8343860775764259e+01 1.1499665926973568e+00 0.0000000000000000e+00  1.8273482624837879e+01 -1.2963018633731969e+00 0.0000000000000000e+00  1.8191996463059169e+01 -1.4429995282155763e+00 0.0000000000000000e+00  1.8174118508614356e+01 2.9769913135008637e-03 0.0000000000000000e+00  1.8176364005473555e+01 9.8135208126439100e+00 0.0000000000000000e+00  1.8174106502838068e+01 -3.2574000912434634e-03 0.0000000000000000e+00  1.8190000581414985e+01 6.7019908672885249e+00 0.0000000000000000e+00  1.8236007815283486e+01 4.5666654