<?xml version="1.0"?>
<VTKFile type="UnstructuredGrid"  version="0.1"  >
<UnstructuredGrid>
<Piece  NumberOfPoints="1933" NumberOfCells="3640">
<Points>
<DataArray  type="Float64"  NumberOfComponents="3"  format="ascii">-0.0002676051325381512 0.001871786162103641 0  4.999732400733514 0.001799599137083397 0  4.999840740270287 7.501799649077397 0  -0.0001592932699530647 7.5018717861457 0  9.999732393812852 0.001727350020359019 0  9.999840811271604 7.501727421767126 0  14.99973240715387 0.001654972363604195 0  14.99984094415772 7.501655053607137 0  19.99973248576834 0.00158243426885784 0  19.99984116503335 7.501582519649605 0  24.99973267722041 0.001509726337117874 0  24.99984150208806 7.501509813852618 0  29.99973302831342 0.001436854111966045 0  29.99984198511835 7.501436943459657 0  34.9997335845411 0.001363833329893938 0  34.99984264518881 7.501363925101885 0  39.99973439078509 0.00129068707807767 0  39.99984351461759 7.501290782371838 0  44.99973549255839 0.001217444294193412 0  44.99984462724747 7.501217544537902 0  49.9997369374869 0.001144139248211802 0  49.9998460189213 7.501144246142069 0  54.99973877690791 0.001070811790681466 0  54.99984772808818 7.501070927315357 0  59.99974106756098 0.0009975082593386268 0  59.99984979648494 7.500997634728225 0  64.99974387339198 0.0009242830210844406 0  64.99985226984616 7.500924423166947 0  69.9997472675141 0.0008512007020723997 0  69.99985519860107 7.500851357796334 0  74.99975133438791 0.0007783392365617514 0  74.99985863850395 7.500778517242889 0  79.9997561722853 0.0007057939582635217 0  79.99986265112116 7.500705997721959 0  84.99976189611061 0.0006336830826824448 0  84.99986730405354 7.500633918549646 0  89.9997686406351 0.0005621551096183948 0  89.99987267069955 7.500562429545562 0  94.9997765641745 0.0004913989498878391 0  94.99987882924778 7.500491721071954 0  99.99978585263386 0.0004216580127691268 0  99.99988586041232 7.500422037806971 0  104.999796723622 0.0003532501877740974 0  104.9998938431653 7.500353697870159 0  109.9998094298178 0.0002865968002831689 0  109.9999028473709 7.500287119671524 0  114.9998242596482 0.000222265534253549 0  114.9999129218365 7.500222859912354 0  119.9998415309058 0.0001610355509870191 0  119.9999240760493 7.500161667531806 0  124.9998615677692 0.0001039985441690139 0  124.9999362544417 7.500104559866187 0  129.9998846406634 5.271880690963806e-05 0  129.9999493051985 7.500052928084918 0  134.9999108248343 9.490432916679324e-06 0  134.9999629562028 7.500008677150312 0  139.9999396819322 -2.225150307902723e-05 0  139.999976841399 7.499974398681213 0  144.9999695495069 -3.732345082509768e-05 0  144.9999907075506 7.499953574435245 0  149.9999959087323 -2.826385413855974e-05 0  150.0000051897672 7.499950948282035 0  159.9999999999999 1.389194818089014e-18 0  164.9998908835416 -0.0001328224190204278 0  164.9999803889781 7.499849592953497 0  160.0000150013177 7.499957346348478 0  169.9998242147274 -0.0002553368429863896 0  169.9999451881796 7.499735724491913 0  174.9997816116884 -0.0003702196337787601 0  174.9999150387495 7.499624721992131 0  179.9997534483581 -0.0004786154636893785 0  179.9998907187295 7.499518357173653 0  184.9997343350457 -0.0005815680923085638 0  184.9998716120509 7.499416550539998 0  189.9997211180446 -0.0006800375831451227 0  189.9998567949054 7.499318755268824 0  194.9997118804664 -0.0007748384736733925 0  194.9998453870866 7.499224363860816 0  199.9997054127279 -0.0008666296550405691 0  199.9998366494466 7.499132829044081 0  204.9997009224743 -0.0009559335918882767 0  204.9998299919229 7.49904369067029 0  209.9996978715815 -0.001043163220266528 0  209.9998249532985 7.498956571371036 0  214.99969588223 -0.00112864690714542 0  214.9998211755417 7.498871163484448 0  219.9996946812738 -0.001212648658480056 0  219.9998183805891 7.498787215314492 0  224.9996940662791 -0.00129538355405568 0  224.9998163515492 7.498704519273152 0  229.9996938841171 -0.001377029253788782 0  229.9998149182101 7.498622902377875 0  234.9996940170221 -0.001457734521864157 0  234.9998139461006 7.498542218864911 0  239.999694373212 -0.001537625570065688 0  239.9998133282967 7.498462344502245 0  244.9996948803976 -0.001616810832918484 0  244.9998129792836 7.498383172200755 0  249.9996954811644 -0.001695384622255833 0  249.9998128303407 7.498304608592866 0  254.9996961296266 -0.001773429982022966 0  254.9998128260604 7.498226571323684 0  259.9996967889635 -0.00185102097183608 0  259.9998129217023 7.498148986863794 0  264.9996974296139 -0.001928224541630194 0  264.9998130811904 7.498071788703924 0  269.9996980279635 -0.00200510211096403 0  269.9998132756057 7.497994915831975 0  274.9996985654732 -0.002081710926763118 0  274.9998134820568 7.497918311427582 0  279.9996990281945 -0.002158105232926615 0  279.9998136828722 7.497841921744214 0  284.9996994067122 -0.002234337230650788 0  284.9998138650332 7.49776569519253 0  289.999699696556 -0.002310457714865506 0  289.9998140198009 7.497689581702528 0  294.9996998991874 -0.002386516089911529 0  294.9998141424711 7.497613532541532 0  299.9997000236309 -0.002462559085454071 0  299.9998142321997 7.497537500917984 0  304.9997000886835 -0.002538626644436242 0  304.9998142919274 7.497461443904314 0  309.9997001251078 -0.002614741434147424 0  309.9998143287967 7.497385326359135 0  4.999948830969587 15.00179978415729 0  -5.121111548861412e-05 15.0018717925638 0  9.999948917758678 15.00172761400336 0  14.99994907373866 15.00165526767556 0  19.99994931798242 15.00158274002659 0  24.99994966793284 15.0015100354413 0  29.99995014112398 15.00143716654877 0  34.99995075585959 15.00136415273479 0  39.99995153144018 15.0012910190193 0  44.99995248822157 15.00121779547037 0  49.99995364761917 15.00114451717615 0  54.99995503208515 15.00107122475937 0  59.99995666504201 15.00099796543119 0  64.99995857073201 15.00092479461451 0  69.99996077392082 15.00085177821175 0  74.99996329937815 15.00077899564698 0  79.99996617102769 15.00070654388014 0  84.9999694106353 15.00063454267591 0  89.99997303586481 15.00056314151829 0  94.99997705750491 15.00049252869626 0  99.99998147566113 15.00042294324181 0  104.9999862747773 15.00035469055359 0  109.9999914175712 15.00028816260686 0  114.9999968385494 15.00022386343193 0  120.0000024390149 15.00016243956358 0  125.0000080879792 15.00010471234517 0  130.0000136379791 15.0000517019022 0  135.0000189723686 15.00000461575734 0  140.000024110785 14.99996473480851 0  145.0000294043658 14.99993302610878 0  150.0000358109903 14.99990899967875 0  165.0000407495178 14.99980230051916 0  160.0000476501915 14.99988902646453 0  170.0000286064385 14.99970584192011 0  175.0000142249295 14.99960602080256 0  179.9999998980827 14.99950649615938 0  184.9999868087442 14.99940886198183 0  189.9999754172711 14.99931364349967 0  194.9999657932898 14.99922087451516 0  199.9999578193365 14.9991303853457 0  204.999951303087 14.9990419383566 0  209.9999460349621 14.99895528842833 0  214.9999418153604 14.99887020755925 0  219.9999384658025 14.99878649286412 0  224.9999358319624 14.99870396726745 0  229.999933782888 14.99862247728859 0  234.9999322086546 14.99854188992795 0  239.9999310175566 14.99846208951878 0  244.9999301333638 14.99838297487223 0  249.99992949286 14.99830445680313 0  254.9999290437276 14.99822645602123 0  259.9999287427744 14.99814890133876 0  264.9999285544667 14.99807172813721 0  269.9999284497271 14.99799487704388 0  274.9999284049435 14.99791829278086 0  279.999928401145 14.99784192316373 0  284.9999284233056 14.99776571824436 0  289.999928459722 14.99768962960278 0  294.99992850147 14.99761360978172 0  299.9999285419547 14.99753761177034 0  304.9999285767125 14.99746158812441 0  309.9999286037811 14.99738548833037 0  5.000056567549208 22.50180010069436 0  5.652372984099596e-05 22.50187195370712 0  10.00005664662004 22.5017280059959 0  15.0000567821665 22.50165569119213 0  20.00005698826293 22.50158317411003 0  25.0000572752337 22.50151047307524 0  30.00005765170888 22.50143760886568 0  35.00005812570291 22.50136460550856 0  40.00005870506437 22.50129149063963 0  45.00005939754327 22.50121829583025 0  50.00006021062539 22.50114505709835 0  55.00006115120426 22.50107181572107 0  60.00006222511402 22.50099861942679 0  65.00006343651272 22.50092552403772 0  70.00006478708313 22.50085259564629 0  75.00006627500869 22.50077991343372 0  80.00006789367181 22.50070757326929 0  85.00006963003263 22.50063569226154 0  90.00007146266793 22.5005644144592 0  95.00007335951292 22.50049391790186 0  100.0000752754718 22.50042442316406 0  105.0000771502931 22.50035620335138 0  110.0000789075061 22.50028959505557 0  115.0000804558687 22.50022500880472 0  120.0000816957425 22.50016293558892 0  125.0000825340921 22.50010394228657 0  130.0000829130107 22.50004864190506 0  135.0000828565454 22.49999761245227 0  140.0000825355756 22.4999512188195 0  145.0000823320478 22.49990926751678 0  150.0000828343672 22.49987042755235 0  165.000099526583 22.4997504473187 0  160.0000929258705 22.49982529699361 0  170.0001010417379 22.49966657194457 0  175.0000987238563 22.49957745886355 0  180.0000940297338 22.49948604346225 0  185.000088178619 22.49939423520994 0  190.0000820150721 22.49930311360821 0  195.0000760556224 22.4992132110987 0  200.0000705801277 22.49912473590335 0  205.0000657139731 22.4990377175357 0  210.0000614886308 22.49895209391597 0  215.0000578823007 22.49886776087484 0  220.0000548456758 22.4987845991263 0  225.0000523175789 22.49870248828884 0  230.0000502340485 22.49862131367784 0  235.0000485333456 22.49854096916785 0  240.0000471584892 22.49846135798314 0  245.0000460583382 22.49838239244159 0  250.0000451878446 22.4983039932071 0  255.0000445078637 22.49822608834357 0  260.0000439847325 22.49814861232048 0  265.0000435897555 22.49807150504175 0  270.0000432986545 22.49799471093057 0  275.0000430910226 22.49791817808093 0  280.0000429497875 22.49784185747581 0  285.0000428606861 22.49776570225852 0  290.0000428117476 22.4976896670195 0  295.0000427928007 22.49761370700111 0  300.0000427
[...]
<PointData  Vectors="v"> 
<DataArray  type="Float64"  Name="v"  NumberOfComponents="3" format="ascii">1.5808374462847568e+00 -5.7322655491594494e+00 0.0000000000000000e+00  1.1465429722915024e+00 -5.5695250397236693e+00 0.0000000000000000e+00  8.4549262218219290e-01 -4.9182389770600059e+00 0.0000000000000000e+00  1.1774882032336336e+00 -5.2348790639304088e+00 0.0000000000000000e+00  5.6682776562066506e-01 -6.2441897496370133e+00 0.0000000000000000e+00  4.1140512024678028e-01 -5.3755038560468353e+00 0.0000000000000000e+00  -5.7125169275516361e-03 -7.3281141857585865e+00 0.0000000000000000e+00  -1.6736624530635519e-01 -6.4706078332345536e+00 0.0000000000000000e+00  -5.6297779006873461e-01 -7.9601098867548412e+00 0.0000000000000000e+00  -7.3833945507654541e-01 -7.1262997230666629e+00 0.0000000000000000e+00  -1.2347322677848962e+00 -9.0198518918511503e+00 0.0000000000000000e+00  -1.2933655569394638e+00 -8.0150762529106316e+00 0.0000000000000000e+00  -1.8123838353844208e+00 -9.7055985559747278e+00 0.0000000000000000e+00  -1.9617899773057335e+00 -8.8425441458280059e+00 0.0000000000000000e+00  -1.9676713430001591e+00 -9.8038245761191227e+00 0.0000000000000000e+00  -2.5352840301811908e+00 -9.5753197816098137e+00 0.0000000000000000e+00  -2.9461789422039937e+00 -1.1014534934511900e+01 0.0000000000000000e+00  -2.6855214703490646e+00 -9.5521337015217220e+00 0.0000000000000000e+00  1.4432845870325886e-01 -6.1370184441926456e+00 0.0000000000000000e+00  -3.6576803427629430e+00 -1.0778578948568375e+01 0.0000000000000000e+00  -9.4318424123119762e+00 -2.0000282157559258e+01 0.0000000000000000e+00  -5.5980492548666916e-01 -5.6437687921936410e+00 0.0000000000000000e+00  -8.3847189251175891e+00 -1.7480048870578557e+01 0.0000000000000000e+00  -1.0128375676763929e+01 -1.9058495137140870e+01 0.0000000000000000e+00  -8.2548578394872738e+00 -1.6251132508670715e+01 0.0000000000000000e+00  -9.0719458585509560e+00 -1.6455796526791797e+01 0.0000000000000000e+00  -8.7906893370641974e+00 -1.6028849841989192e+01 0.0000000000000000e+00  -8.9304354358320115e+00 -1.5237076912586714e+01 0.0000000000000000e+00  -9.8595743937690461e+00 -1.6617271725555160e+01 0.0000000000000000e+00  -9.4525005345522644e+00 -1.5028305421874531e+01 0.0000000000000000e+00  -1.1285902099960209e+01 -1.7680221078209620e+01 0.0000000000000000e+00  -1.0504462064552305e+01 -1.5556632052940998e+01 0.0000000000000000e+00  -1.2977200148687619e+01 -1.9001577405613673e+01 0.0000000000000000e+00  -1.1911617203326479e+01 -1.6483296604777962e+01 0.0000000000000000e+00  -1.4849918532818013e+01 -2.0594499651635719e+01 0.0000000000000000e+00  -1.3581465340145442e+01 -1.7806392654544187e+01 0.0000000000000000e+00  -1.6820438634338490e+01 -2.2081567871563305e+01 0.0000000000000000e+00  -1.5429109305622681e+01 -1.9148486679907212e+01 0.0000000000000000e+00  -1.8819298320725771e+01 -2.3479655394394769e+01 0.0000000000000000e+00  -1.7372387008794444e+01 -2.0507411764174435e+01 0.0000000000000000e+00  -2.0782274849668426e+01 -2.4636635712631840e+01 0.0000000000000000e+00  -1.9340829517525211e+01 -2.1720235040367658e+01 0.0000000000000000e+00  -2.2633773790580769e+01 -2.5467707218711212e+01 0.0000000000000000e+00  -2.1270263707942732e+01 -2.2721453405028424e+01 0.0000000000000000e+00  -2.4313219001502862e+01 -2.5580368648354440e+01 0.0000000000000000e+00  -2.3084211878181193e+01 -2.3094186698223762e+01 0.0000000000000000e+00  -2.5779770551486703e+01 -2.5515109859612167e+01 0.0000000000000000e+00  -2.4725079435371001e+01 -2.3353108411589101e+01 0.0000000000000000e+00  -2.6984711890242416e+01 -2.4062960466932577e+01 0.0000000000000000e+00  -2.6145540641969827e+01 -2.2291996659201832e+01 0.0000000000000000e+00  -2.7930338809947163e+01 -2.2612787894963581e+01 0.0000000000000000e+00  -2.7307147873148388e+01 -2.1240296153408750e+01 0.0000000000000000e+00  -2.8598965240743958e+01 -1.9171995049609016e+01 0.0000000000000000e+00  -2.8197060737257473e+01 -1.8207686777474244e+01 0.0000000000000000e+00  -2.9041258248538263e+01 -1.5782485538226400e+01 0.0000000000000000e+00  -2.8819324744316450e+01 -1.5175083673636726e+01 0.0000000000000000e+00  -2.9266257858585167e+01 -1.0261378133978726e+01 0.0000000000000000e+00  -2.9194374135283002e+01 -9.9621774556204716e+00 0.0000000000000000e+00  -2.9368186573774008e+01 -3.7037206969694538e+00 0.0000000000000000e+00  -2.9372131167194027e+01 -3.6196186152765666e+00 0.0000000000000000e+00  -2.9389262613943426e+01 -1.4615279189568977e-11 0.0000000000000000e+00  -2.9389474445079987e+01 -2.1072576700987913e-04 0.0000000000000000e+00  -2.9389262614624727e+01 1.8902310555208809e-19 0.0000000000000000e+00  -2.1018908299859046e+01 1.1496304736647302e+01 0.0000000000000000e+00  -2.9366976251620894e+01 -1.0214590478179186e+00 0.0000000000000000e+00  -2.9389472734226278e+01 2.1399668988630779e-04 0.0000000000000000e+00  -2.0624896449538795e+01 2.0691445289722132e+01 0.0000000000000000e+00  -2.1047757640427761e+01 2.0168124055692601e+01 0.0000000000000000e+00  -1.7602355414207491e+01 2.7677042553365368e+01 0.0000000000000000e+00  -2.0713330802343027e+01 2.3184858595963394e+01 0.0000000000000000e+00  -1.6451649391591545e+01 2.9104354821111151e+01 0.0000000000000000e+00  -1.7748247998764402e+01 2.7429530373717014e+01 0.0000000000000000e+00  -1.4657703340001319e+01 3.0545665574257203e+01 0.0000000000000000e+00  -1.6651088123168268e+01 2.7899720426959554e+01 0.0000000000000000e+00  -1.3284760074464277e+01 2.9739481832008494e+01 0.0000000000000000e+00  -1.4908280014201260e+01 2.7725808588300342e+01 0.0000000000000000e+00  -1.1898474847782161e+01 2.8686926448876886e+01 0.0000000000000000e+00  -1.3585915610667415e+01 2.6649496938293414e+01 0.0000000000000000e+00  -1.0682383185256514e+01 2.6794552204043541e+01 0.0000000000000000e+00  -1.2247293778126831e+01 2.5013041253071961e+01 0.0000000000000000e+00  -9.3127282136117682e+00 2.4952006982446562e+01 0.0000000000000000e+00  -1.1077451326461306e+01 2.2937833057172696e+01 0.0000000000000000e+00  -8.2836821666674041e+00 2.2740493192221280e+01 0.0000000000000000e+00  -9.7530274373979271e+00 2.1236380887917377e+01 0.0000000000000000e+00  -7.4094964102899468e+00 2.0657467887908481e+01 0.0000000000000000e+00  -8.7676036886543756e+00 1.9384821480510645e+01 0.0000000000000000e+00  -6.4797993623118275e+00 1.8860131816417635e+01 0.0000000000000000e+00  -7.9358810412707186e+00 1.7503289102583786e+01 0.0000000000000000e+00  -5.6136926376319725e+00 1.7216755278625776e+01 0.0000000000000000e+00  -7.0478985783147934e+00 1.5954265610485807e+01 0.0000000000000000e+00  -4.8134109170181283e+00 1.5771601016700863e+01 0.0000000000000000e+00  -6.2223225150517969e+00 1.4607335342542692e+01 0.0000000000000000e+00  -4.0551752410734156e+00 1.4449035167808370e+01 0.0000000000000000e+00  -5.4616630845075997e+00 1.3346996717929750e+01 0.0000000000000000e+00  -3.3787159411896437e+00 1.3185392720276253e+01 0.0000000000000000e+00  -4.7423596123396443e+00 1.2205309579868299e+01 0.0000000000000000e+00  -2.7857488975641891e+00 1.2013222858917961e+01 0.0000000000000000e+00  -4.1039751346996942e+00 1.1157865815344879e+01 0.0000000000000000e+00  -2.2435415667366740e+00 1.0882073529772212e+01 0.0000000000000000e+00  -3.5483356545548141e+00 1.0102295809363321e+01 0.0000000000000000e+00  -1.7697605497924556e+00 9.7769364091772850e+00 0.0000000000000000e+00  -3.0429627988378893e+00 9.0991942771773004e+00 0.0000000000000000e+00  -1.3669398609080292e+00 8.7181307288179450e+00 0.0000000000000000e+00  -2.6052863877170158e+00 8.1465422545480468e+00 0.0000000000000000e+00  -1.0085733110418822e+00 7.6620810669583088e+00 0.0000000000000000e+00  -2.2381926203204290e+00 7.1565727353671962e+00 0.0000000000000000e+00  -7.0567366931465569e-01 6.6384555619814956e+00 0.0000000000000000e+00  -1.9148655846409381e+00 6.2160333899583593e+00 0.0000000000000000e+00  -4.6214853582943688e-01 5.6299333559776841e+00 0.0000000000000000e+00  -1.6469988124175898e+00 5.2957903587829769e+00 0.0000000000000000e+00  -2.5990093331841885e-01 4.6600840587980521e+00 0.0000000000000000e+00  -1.4373192624283133e+00 4.3883749903022329e+00 0.0000000000000000e+00  -1.0753140364570977e-01 3.6900739525385946e+00 0.0000000000000000e+00  -1.2699628322098198e+00 3.4914383357993346e+00 0.0000000000000000e+00  2.0442956368731621e-03 2.8521640498999989e+00 0.0000000000000000e+00  -1.1498018717776073e+00 2.7199720147639113e+00 0.0000000000000000e+00  7.1094175074719448e-02 1.9673053204606890e+00 0.0000000000000000e+00  -1.0760132357930630e+00 1.8915013991336045e+00 0.0000000000000000e+00  1.3776181062441306e-01 1.3341180223292450e+00 0.0000000000000000e+00  -1.0360023621675944e+00 1.2686460064381506e+00 0.0000000000000000e+00  2.0942961097284216e-01 7.1238110943671840e-01 0.0000000000000000e+00  -1.0097315441809467e+00 6.2701053655654482e-01 0.0000000000000000e+00  3.7240036119097802e-01 -1.7139398900274985e-01 0.0000000000000000e+00  -9.5423033060157614e-01 -3.6959313107669728e-01 0.0000000000000000e+00  1.2639676095886446e-01 -4.4193655040481969e+00 0.0000000000000000e+00  4.8594492753878732e-01 -4.6975298438169544e+00 0.0000000000000000e+00  -2.0685512611905904e-01 -4.7235990638231637e+00 0.0000000000000000e+00  -6.4201298261222028e-01 -5.6022688121379778e+00 0.0000000000000000e+00  -1.2210414581100764e+00 -6.2701916693090975e+00 0.0000000000000000e+00  -1.7912279964571087e+00 -7.1833286233806461e+00 0.0000000000000000e+00  -2.3443916765855302e+00 -7.8417760348289596e+00 0.0000000000000000e+00  -3.0094121658615705e+00 -8.7180703471772905e+00 0.0000000000000000e+00  -3.5775734603274185e+00 -9.3303299477965762e+00 0.0000000000000000e+00  -3.7208796874555072e+00 -9.3256453175788145e+00 0.0000000000000000e+00  -4.6836111173617327e+00 -1.0297223464243482e+01 0.0000000000000000e+00  -1.5752157048310502e+00 -4.7102019069953824e+00 0.0000000000000000e+00  -1.1137626556892855e+01 -1.8043848116150169e+01 0.0000000000000000e+00  -1.0074066797302418e+01 -1.5456705554314471e+01 0.0000000000000000e+00  -9.9196985783008440e+00 -1.4253896188411792e+01 0.0000000000000000e+00  -1.0425045746145685e+01 -1.3991754114798912e+01 0.0000000000000000e+00  -1.1454562790253185e+01 -1.4388243417842380e+01 0.0000000000000000e+00  -1.2834451130405277e+01 -1.5319120587482798e+01 0.0000000000000000e+00  -1.4472917583834942e+01 -1.6398590734718830e+01 0.0000000000000000e+00  -1.6283566306980685e+01 -1.7617293573500255e+01 0.0000000000000000e+00  -1.8184296749226529e+01 -1.8793832307793163e+01 0.0000000000000000e+00  -2.0105759619415071e+01 -1.9859328578215031e+01 0.0000000000000000e+00  -2.1980905222347218e+01 -2.0407479963165766e+01 0.0000000000000000e+00  -2.3734824206242013e+01 -2.0930831142252018e+01 0.0000000000000000e+00  -2.5308511862223934e+01 -2.0202468771893653e+01 0.0000000000000000e+00  -2.6655786910664233e+01 -1.9548729699047954e+01 0.0000000000000000e+00  -2.7733537456546436e+01 -1.6917001506494593e+01 0.0000000000000000e+00  -2.8539024894669758e+01 -1.4309620684680388e+01 0.0000000000000000e+00  -2.9056999798594077e+01 -9.4395683019347292e+00 0.0000000000000000e+00  -2.9341483206962788e+01 -3.4476304398381821e+00 0.0000000000000000e+00  -2.9389987349297026e+01 -4.0238163546310444e-04 0.0000000000000000e+00  -2.9328823560148741e+01 -1.1811501033642819e+00 0.0000000000000000e+00  -2.9389984135062907e+01 4.3344728474513036e-04 0.0000000000000000e+00  -2.9172593104828813e+01 7.7092160844258197e+00 0.0000000000000000e+00  -2.0918158804316672e+01 2.2735486665639481e+01 0.0000000000000000e+00  -2.0664625397471106e+01 2.3024080003418760e+01 0.0000000000000000e+00  -1.7767837236666743e+01 2.6295099912546572e+01 0.0000000000000000e+00  -1.6736547664259778e+01 2.5144209002167027e+01 0.0000000000000000e+00  -1.5050123903399751e+01 2.4701501967783614e+01 0.0000000000000000e+00  -1.3783420963339054e+01 2.3035062925543350e+01 0.0000000000000000e+00  -1.2494716018617176e+01 2.1211504188964597e+01 0.0000000000000000e+00  -1.1371997506565428e+01 1.9277390226752825e+01 0.0000000000000000e+00  -1.0092522354319970e+01 1.7932744181195886e+01 0.0000000000000000e+00  -9.1500212017657567e+00 1.6280210908681028e+01 0.0000000000000000e+00  -8.3592126324000784e+00 1.4646738732693100e+01 0.0000000000000000e+00  -7.5111796048183956e+00 1.3392235353287743e+01 0.0000000000000000e+00  -6.7240128495830884e+00 1.2228270503775667e+01 0.0000000000000000e+00  -6.0003120987696974e+00 1.1148259403242909e+01 0.0000000000000000e+00  -5.3169517455180602e+00 1.0221341169316576e+01 0.0000000000000000e+00  -4.7132999591182534e+00 9.2891081766823778e+00 0.0000000000000000e+00  -4.1912382025760788e+00 8.3610077645211476e+00 0.0000000000000000e+00  -3.7185850798848805e+00 7.5093504855575457e+00 0.0000000000000000e+00  -3.3127502912118061e+00 6.6245511177647307e+00 0.0000000000000000e+00  -2.9765774801949343e+00 5.7495782408696332e+00 0.0000000000000000e+00  -2.6836441312806341e+00 4.9116941969351355e+00 0.0000000000000000e+00  -2.4452896415378982e+00 4.0917888498403414e+00 0.0000000000000000e+00  -2.2648162512043686e+00 3.2569539983501468e+00 0.0000000000000000e+00  -2.1255373043831476e+00 2.5578772531951062e+00 0.0000000000000000e+00  -2.0339381239836274e+00 1.7950845107984232e+00 0.0000000000000000e+00  -1.9861789058576444e+00 1.2286633687092716e+00 0.0000000000000000e+00  -1.9747627284491756e+00 5.9776481133268400e-01 0.0000000000000000e+00  -1.9724958071819427e+00 -4.3112167530551920e-01 0.0000000000000000e+00  -1.1232234612180914e+00 -3.8781004422251462e+00 0.0000000000000000e+00  -8.0166627774074817e-01 -4.2181855804183090e+00 0.0000000000000000e+00  -1.4858377764956934e+00 -4.2208112986419408e+00 0.0000000000000000e+00  -1.8237520259295992e+00 -4.9472887620423096e+00 0.0000000000000000e+00  -2.2624559084495832e+00 -5.3999961480745160e+00 0.0000000000000000e+00  -2.8442761877262330e+00 -6.3274822546748730e+00 0.0000000000000000e+00  -3.4157827397828324e+00 -7.0132630460353074e+00 0.0000000000000000e+00  -3.9676753938320886e+00 -7.7233948213116923e+00 0.0000000000000000e+00  -4.6288951586822726e+00 -8.4833722271019454e+00 0.0000000000000000e+00  -5.1899470681446367e+00 -9.1190269906697434e+00 0.0000000000000000e+00  -5.3216315751026588e+00 -8.8642484473247336e+00 0.0000000000000000e+00  -6.2692267943784881e+00 -9.3839852718569379e+00 0.0000000000000000e+00  -3.1495349801644248e+00 -3.7048497081006619e+00 0.0000000000000000e+00  -1.2710984309301287e+01 -1.7053940877541397e+01 0.0000000000000000e+00  -1.1645405882823191e+01 -1.4496049996855605e+01 0.0000000000000000e+00  -1.1478482395415204e+01 -1.3250764637057269e+01 0.0000000000000000e+00  -1.1961297993848390e+01 -1.2867592619768478e+01 0.0000000000000000e+00  -1.2959163236832900e+01 -1.3279761316978021e+01 0.0000000000000000e+00  -1.4298725483846857e+01 -1.3977913659822736e+01 0.0000000000000000e+00  -1.5887140245904979e+01 -1.4944511330844126e+01 0.0000000000000000e+00  -1.7638844989362763e+01 -1.5993174409327263e+01 0.0000000000000000e+00  -1.9471279970771793e+01 -1.7035925467720798e+01 0.0000000000000000e+00  -2.1312217596652982e+01 -1.7659767780153647e+01 0.0000000000000000e+00  -2.3096584347640437e+01 -1.8377298465190385e+01 0.0000000000000000e+00  -2.4744865082399592e+01 -1.7924334992404205e+01 0.0000000000000000e+00  -2.6201721705012258e+01 -1.7627465217301783e+01 0.0000000000000000e+00  -2.7412331696931901e+01 -1.5398677066098939e+01 0.0000000000000000e+00  -2.8346504737779654e+01 -1.3233151793079211e+01 0.0000000000000000e+00  -2.8977781294180236e+01 -8.7631202154542063e+00 0.0000000000000000e+00  -2.9334549842892329e+01 -3.2057032845158573e+00 0.0000000000000000e+00  -2.9390789107119829e+01 -5.7641936878558399e-04 0.0000000000000000e+00  -2.9304827659596604e+01 -1.4940229262377829e+00 0.0000000000000000e+00  -2.9390786162648869e+01 6.2799373613930411e-04 0.0000000000000000e+00  -2.8937343901741794e+01 7.4173331878734690e+00 0.0000000000000000e+00  -2.8768881478727408e+01 1.0435075297450334e+01 0.0000000000000000e+00  -2.0626550660116941e+01 2.2745001626634942e+01 0.0000000000000000e+00  -2.0503514208148435e+01 2.2030818848847620e+01 0.0000000000000000e+00  -1.7716310728782890e+01 2.3677073451572188e+01 0.0000000000000000e+00  -1.6783461671291107e+01 2.2237010390393362e+01 0.0000000000000000e+00  -1.5182816243072535e+01 2.1197758762741646e+01 0.0000000000000000e+00  -1.3995257728370049e+01 1.9334456529309591e+01 0.0000000000000000e+00  -1.2777054409832902e+01 1.7645641883998191e+01 0.0000000000000000e+00  -1.1720424679275828e+01 1.6062291975780365e+01 0.0000000000000000e+00  -1.0502573225039392e+01 1.4913338741987324e+01 0.0000000000000000e+00  -9.6185732786034670e+00 1.3505077214902805e+01 0.0000000000000000e+00  -8.8840542615465949e+00 1.2163319532813528e+01 0.0000000000000000e+00  -8.0902767662783148e+00 1.1089148961362310e+01 0.0000000000000000e+00  -7.3551141992907327e+00 1.0102681230267562e+01 0.0000000000000000e+00  -6.6815237028538421e+00 9.2347799624029463e+00 0.0000000000000000e+00  -6.0462775196570417e+00 8.4208377059850843e+00 0.0000000000000000e+00  -5.4888304711507736e+00 7.6136635073551568e+00 0.0000000000000000e+00  -5.0112533871058584e+00 6.8350189223904918e+00 0.0000000000000000e+00  -4.5815607462612924e+00 6.0492569398216638e+00 0.0000000000000000e+00  -4.2170701219327045e+00 5.2779866908931039e+00 0.0000000000000000e+00  -3.9211751744243704e+00 4.5036436384921901e+00 0.0000000000000000e+00  -3.6669502489793788e+00 3.7655250994191336e+00 0.0000000000000000e+00  -3.4667706352148939e+00 3.0154639559413710e+00 0.0000000000000000e+00  -3.3224030072058981e+00 2.3795634471786169e+00 0.0000000000000000e+00  -3.2198521200583836e+00 1.6836825136110689e+00 0.0000000000000000e+00  -3.1607068856054146e+00 1.1889279844194176e+00 0.0000000000000000e+00  -3.1503803894540607e+00 6.0060272604592890e-01 0.0000000000000000e+00  -3.1623396891335021e+00 -4.0085845495851941e-01 0.0000000000000000e+00  -2.4363491519287028e+00 -3.3929403517968009e+00 0.0000000000000000e+00  -2.1509248518591950e+00 -3.7941659866367083e+00 0.0000000000000000e+00  -2.7623515428167749e+00 -3.6720342914721207e+00 0.0000000000000000e+00  -3.1328881720863047e+00 -4.4343652042208159e+00 0.0000000000000000e+00  -3.4795992857945497e+00 -4.7358950749864501e+00 0.0000000000000000e+00  -3.9272477417341496e+00 -5.4494563849343116e+00 0.0000000000000000e+00  -4.5167564772041420e+00 -6.1516923216824555e+00 0.0000000000000000e+00  -5.0941202251319950e+00 -6.8934138271242134e+00 0.0000000000000000e+00  -5.6489108944494539e+00 -7.4921482639674029e+00 0.0000000000000000e+00  -6.3086968374906087e+00 -8.2813287750307243e+00 0.0000000000000000e+00  -6.8629463838147942e+00 -8.6751908309790871e+00 0.0000000000000000e+00  -6.9828009535660520e+00 -7.9728579114259341e+00 0.0000000000000000e+00  -7.9176462134209507e+00 -8.3884550432672853e+00 0.0000000000000000e+00  -4.7976782800662745e+00 -2.7027552881007040e+00 0.0000000000000000e+00  -1.4377200702923588e+01 -1.6082474003076509e+01 0.0000000000000000e+00  -1.3326725338534349e+01 -1.3500631382195957e+01 0.0000000000000000e+00  -1.3159732034641859e+01 -1.2152208122476200e+01 0.0000000000000000e+00  -1.3629426233390191e+01 -1.1801877704184935e+01 0.0000000000000000e+00  -1.4600033147288972e+01 -1.1995065916514172e+01 0.0000000000000000e+00  -1.5901019955507719e+01 -1.2597922983340805e+01 0.0000000000000000e+00  -1.7438673256912455e+01 -1.3409942803626006e+01 0.0000000000000000e+00  -1.9126570980259967e+01 -1.4341306889379423e+01 0.0000000000000000e+00  -2.0881217553145923e+01 -1.4962347935757505e+01 0.0000000000000000e+00  -2.2630029017791596e+01 -1.5779257890231994e+01 0.0000000000000000e+00  -2.4301882190766285e+01 -1.5538664267927714e+01 0.0000000000000000e+00  -2.5821975945503571e+01 -1.5552527447769917e+01 0.0000000000000000e+00  -2.7122806871622345e+01 -1.3694556781909801e+01 0.0000000000000000e+00  -2.8164567857431386e+01 -1.1985489665931995e+01 0.0000000000000000e+00  -2.8887974305953666e+01 -7.9397122235142614e+00 0.0000000000000000e+00  -2.9317098844211035e+01 -2.8966571457571892e+00 0.0000000000000000e+00  -2.9391849847