<?xml version="1.0"?>
<VTKFile type="UnstructuredGrid"  version="0.1"  >
<UnstructuredGrid>
<Piece  NumberOfPoints="1933" NumberOfCells="3640">
<Points>
<DataArray  type="Float64"  NumberOfComponents="3"  format="ascii">0.2940425189032858 -0.00182939984586158 0  5.294042577323147 -0.001793748991349419 0  5.293989108668943 7.498206402241575 0  0.2939890194890271 7.49817070005159 0  10.2940426685626 -0.001758219865007545 0  10.29398926087615 7.498241944524456 0  15.29404285750365 -0.001722831719113499 0  15.29398950482839 7.498277332842259 0  20.29404320572726 -0.001687556678846718 0  20.29398986626321 7.49831260427123 0  25.29404376497616 -0.001652340831322439 0  25.29399036814781 7.498347816198118 0  30.29404457686664 -0.001617114816933534 0  30.29399102990969 7.498383039231148 0  35.29404567448581 -0.001581799018905345 0  35.29399186686763 7.498418353346795 0  40.29404708428308 -0.001546305698430574 0  40.29399288991647 7.498453846297457 0  45.29404882770702 -0.001510539270400192 0  45.29399410530406 7.498489613558966 0  50.29405092242612 -0.001474395339317784 0  50.293995514323 7.498525759381036 0  55.29405338310866 -0.001437758792327143 0  55.29399711277497 7.498562398717846 0  60.29405622175801 -0.001400501046047237 0  60.2939988900732 7.498599659970799 0  65.29405944758717 -0.001362476401691999 0  65.29400082783694 7.498637688595869 0  70.29406306635643 -0.001323517341089944 0  70.29400289779991 7.498676651734582 0  75.29406707903107 -0.001283428467750591 0  75.29400505878523 7.49871674413936 0  80.29407147948511 -0.001241978637303809 0  80.29400725239468 7.49875819579673 0  85.29407625079131 -0.001198890601741277 0  85.29400939692434 7.498801281820632 0  90.2940813592965 -0.001153827173135679 0  90.29401137880227 7.49884633540846 0  95.29408674512446 -0.001106372439411202 0  95.29401304058507 7.498893764931045 0  100.2940923067173 -0.001056005858139318 0  100.2940141642445 7.49894407655131 0  105.2940978752044 -0.001002066008741142 0  105.2940144481888 7.498997904059217 0  110.2941031709767 -0.0009436992817889577 0  110.2940134764805 7.499056047636319 0  115.2941077285642 -0.0008797867729962955 0  115.29401067966 7.499119522417848 0  120.2941107640478 -0.0008088403947364747 0  120.2940052899894 7.49918961454198 0  125.2941109368776 -0.0007288580961866322 0  125.2939963033873 7.499267933562984 0  130.2941059155232 -0.000637133042394213 0  130.2939824836175 7.499356428566794 0  135.2940915754997 -0.0005300393869941762 0  135.2939624985362 7.499457287291393 0  140.2940605019222 -0.0004029275720411054 0  140.2939354006658 7.499572543189472 0  145.2939991513838 -0.0002506933413739237 0  145.293901941522 7.499703088242867 0  150.2938822880084 -7.142035338188965e-05 0  150.2938678789461 7.499846976652199 0  160.2938926261447 1.107274617740056e-18 0  165.2938191095323 -0.0001452496933700677 0  165.2938813742112 7.499826798442406 0  160.2938959284798 7.499935084358961 0  170.2937953701966 -0.0002465252881683239 0  170.2938663039477 7.499739676537059 0  175.293795133573 -0.000316910186562138 0  175.2938566843556 7.499675811376695 0  180.2938057322264 -0.0003644772428827017 0  180.2938526721077 7.499631559149509 0  185.2938208760688 -0.0003949652874787967 0  185.2938530065499 7.499602842231504 0  190.2938374236902 -0.0004125597756134216 0  190.2938563214512 7.499586222329787 0  195.2938538258668 -0.0004203234647102206 0  195.2938615001312 7.499579007249928 0  200.2938693474132 -0.0004205075716419813 0  200.2938677210876 7.499579138516655 0  205.2938836708148 -0.0004147812973743267 0  205.2938744124624 7.499585049828354 0  210.2938966919576 -0.0004043971611570257 0  210.2938811904808 7.499595544653239 0  215.2939084139593 -0.000390307976911253 0  215.2938878054604 7.499609701193052 0  220.2939188916394 -0.0003732490484588208 0  220.2938941004718 7.499626801662422 0  225.2939282024096 -0.0003537960347599446 0  225.2938999815748 7.499646280514153 0  230.2939364310911 -0.0003324060086493789 0  230.2939053970792 7.49966768665558 0  235.2939436621602 -0.0003094469297558368 0  235.2939103233659 7.499690655762095 0  240.2939499760024 -0.0002852190898224044 0  240.2939147553098 7.499714889822996 0  245.2939554473663 -0.0002599709398891672 0  245.2939186998846 7.499740141876381 0  250.2939601450403 -0.000233910930666801 0  250.2939221719508 7.499766204496198 0  255.2939641322438 -0.0002072164725369142 0  255.2939251915511 7.49979290103017 0  260.2939674674557 -0.0001800407635248128 0  260.293927782241 7.499820078896799 0  265.293970205559 -0.0001525179816677879 0  265.2939299701459 7.499847604474689 0  270.2939723992376 -0.0001247671493075291 0  270.2939317835272 7.499875359289016 0  275.2939741006264 -9.689481826773681e-05 0  275.2939332526833 7.499903237342311 0  280.2939753632213 -6.899656751616101e-05 0  280.2939344100595 7.499931143570707 0  285.2939762440412 -4.115711746740754e-05 0  285.2939352904422 7.499958993550512 0  290.293976805924 -1.344860671183734e-05 0  290.2939359310841 7.499986714748368 0  295.2939771196569 1.407380815297388e-05 0  295.2939363716683 7.500014249810245 0  300.2939772650606 4.138044764567762e-05 0  300.2939366540606 7.500041562613615 0  305.2939773290457 6.848189379152821e-05 0  305.2939368222551 7.500068648034549 0  310.2939773960166 9.545271612836754e-05 0  310.2939369240627 7.500095546694723 0  5.293935313861699 14.99820672819743 0  0.2939352223910912 14.99817094056352 0  10.29393544854531 14.9982422760999 0  15.29393564703021 14.99827764109797 0  20.29393592024213 14.99831288219555 0  25.29393627457206 14.99834806538414 0  30.29393671340796 14.99838326395822 0  35.29393723717941 14.99841855803661 0  40.29393784283354 14.9984540344603 0  45.29393852307681 14.99848978735364 0  50.29393926546066 14.99852591937169 0  55.29394005128024 14.99856254361292 0  60.29394085421114 14.99859978620752 0  65.29394163858763 14.99863778964194 0  70.29394235721178 14.99867671693828 0  75.29394294857902 14.9987167568666 0  80.29394333340576 14.99875813042533 0  85.29394341038218 14.99880109887149 0  90.29394305116442 14.99884597359487 0  95.29394209485056 14.99889312805515 0  100.2939403426371 14.99894301172431 0  105.2939375542851 14.99899616526707 0  110.2939334497073 14.99905323459647 0  115.2939277220327 14.9991149780919 0  120.2939200735806 14.99918225456681 0  125.2939102941269 14.99925596670723 0  130.2938984116981 14.99933691099705 0  135.2938849569116 14.9994254434968 0  140.2938713799306 14.99952080103704 0  145.2938606039743 14.99961979804492 0  150.2938574679678 14.99971433455786 0  165.2938932541716 14.99974932208044 0  160.2938912337582 14.99980441850938 0  170.2938877837069 14.99969572953082 0  175.2938800798126 14.99965109624871 0  180.2938730571675 14.99961765615518 0  185.2938678491471 14.99959501935184 0  190.2938646489571 14.99958184213605 0  195.2938632369861 14.99957659434001 0  200.293863256508 14.99957786048224 0  205.2938643426718 14.99958443181153 0  210.2938661747005 14.99959531236721 0  215.2938684908019 14.99960969415864 0  220.2938710865348 14.99962692486663 0  225.2938738069623 14.99964647719503 0  230.2938765374033 14.99966792279313 0  235.2938791948515 14.99969091112294 0  240.293881720738 14.99971515272181 0  245.2938840751482 14.99974040607802 0  250.2938862323417 14.99976646737364 0  255.2938881773449 14.99979316247213 0  260.2938899034041 14.99982034066824 0  265.2938914100791 14.99984786984284 0  270.2938927018374 14.99987563277658 0  275.2938937869866 14.9999035244681 0  280.2938946768609 14.99993145038271 0  285.2938953851988 14.99995932561948 0  290.2938959276996 14.99998707501771 0  295.2938963219269 15.00001463418405 0  300.2938965878898 15.00004195122516 0  305.2938967501289 15.00006898840745 0  310.293896842781 15.00009572157415 0  5.293881288568679 22.49820733420221 0  0.2938812018615659 22.49817152534398 0  10.29388139207541 22.49824284515724 0  15.29388152234171 22.49827814804208 0  20.29388168170543 22.49831332102454 0  25.29388186760877 22.49834843915228 0  30.2938820741218 22.49838357873692 0  35.29388229238714 22.4984188196032 0  40.29388251039033 22.49845424651942 0  45.29388271235018 22.49848995049121 0  50.29388287789278 22.49852603024065 0  55.29388298107736 22.49856259402296 0  60.29388298930248 22.49859976185952 0  65.29388286210335 22.49863766824581 0  70.29388254986813 22.49867646538114 0  75.29388199254528 22.49871632695781 0  80.29388111849408 22.49875745250684 0  85.29387984377354 22.4988000722124 0  90.29387807239647 22.49884445192124 0  95.29387569844914 22.49889089771826 0  100.293872611547 22.49893975877838 0  105.2938687079452 22.49899142602827 0  110.2938639107919 22.49904632211187 0  115.2938582044536 22.49910487475029 0  120.2938516892095 22.49916746016026 0  125.2938446629236 22.49923429511763 0  130.293837733102 22.49930524562976 0  135.2938319510509 22.49937950988539 0  140.2938289303781 22.49945513422927 0  145.2938308508171 22.49952836766328 0  150.2938401435011 22.49959306224218 0  165.2938776252147 22.49966145899245 0  160.2938695160531 22.49968131545467 0  170.293878788619 22.49963641109771 0  175.2938755977715 22.49961238795708 0  180.2938703808557 22.49959288466859 0  185.2938647346548 22.49957936267856 0  190.2938595643068 22.49957205070496 0  195.2938552852085 22.49957055038623 0  200.2938520138621 22.49957420525668 0  205.2938497046411 22.49958229874901 0  210.2938482361326 22.49959414908595 0  215.2938474611797 22.49960914768575 0  220.2938472336032 22.49962676884556 0  225.2938474209583 22.49964656603313 0  230.2938479094023 22.49966816280802 0  235.2938486043807 22.49969124233803 0  240.2938494292856 22.49971553732988 0  245.2938503232896 22.49974082109376 0  250.2938512389801 22.49976689993404 0  255.2938521401157 22.49979360681923 0  260.2938529996094 22.49982079619821 0  265.2938537977985 22.49984833980912 0  270.2938545209683 22.49987612334118 0  275.29385516012 22.49990404382764 0  280.2938557099714 22.49993200766088 0  285.2938561681988 22.49995992910528 0  290.293856535015 22.49998772912037 0  295.2938568132487 22.
[...]
<PointData  Vectors="v"> 
<DataArray  type="Float64"  Name="v"  NumberOfComponents="3" format="ascii">1.0980278429532750e+00 7.6633098139496187e+00 0.0000000000000000e+00  1.6555134671105207e+00 7.1799366458042071e+00 0.0000000000000000e+00  1.5250847013939575e+00 6.3439814028810586e+00 0.0000000000000000e+00  1.0950805329442805e+00 7.0185888453110197e+00 0.0000000000000000e+00  2.3498860467607465e+00 7.7612592880423730e+00 0.0000000000000000e+00  2.0821393259862515e+00 6.7206713841765726e+00 0.0000000000000000e+00  2.9715836539940059e+00 8.7824715858107183e+00 0.0000000000000000e+00  2.7752651826344632e+00 7.8514603011975792e+00 0.0000000000000000e+00  3.5156499151788263e+00 9.0958934831479930e+00 0.0000000000000000e+00  3.3949750621560049e+00 8.2820969487972427e+00 0.0000000000000000e+00  4.1974185116347194e+00 9.9699853278499528e+00 0.0000000000000000e+00  3.9362608546059246e+00 8.9503345911632692e+00 0.0000000000000000e+00  4.7369044684443153e+00 1.0324788793471820e+01 0.0000000000000000e+00  4.6143287108187527e+00 9.5191876481016298e+00 0.0000000000000000e+00  4.8158681493812487e+00 1.0061074835729157e+01 0.0000000000000000e+00  5.1492881423947541e+00 9.9470400036382607e+00 0.0000000000000000e+00  5.9000957115770154e+00 1.1157565216935181e+01 0.0000000000000000e+00  5.2229753138671713e+00 9.5363121451126425e+00 0.0000000000000000e+00  2.7954091293778158e+00 5.9948957093472428e+00 0.0000000000000000e+00  6.3009841256973287e+00 1.0657774103333880e+01 0.0000000000000000e+00  1.3914084791565424e+01 2.1875269151521454e+01 0.0000000000000000e+00  3.1893450447830136e+00 5.2032011633157742e+00 0.0000000000000000e+00  1.3594599876757680e+01 2.0101984609543603e+01 0.0000000000000000e+00  1.4300568483685769e+01 2.0588459369226104e+01 0.0000000000000000e+00  1.3671973788210536e+01 1.8783070069225388e+01 0.0000000000000000e+00  1.3972553373589838e+01 1.8675244974755728e+01 0.0000000000000000e+00  1.4203195139146242e+01 1.8116405417049940e+01 0.0000000000000000e+00  1.4040101772042751e+01 1.7329129053215340e+01 0.0000000000000000e+00  1.5143424963319646e+01 1.8083942626231206e+01 0.0000000000000000e+00  1.4560128557880446e+01 1.6684502395389988e+01 0.0000000000000000e+00  1.6393655104740859e+01 1.8475572077424196e+01 0.0000000000000000e+00  1.5487318682101474e+01 1.6612165761292200e+01 0.0000000000000000e+00  1.7860254819467400e+01 1.9084282217224942e+01 0.0000000000000000e+00  1.6723031916629399e+01 1.6897751001271544e+01 0.0000000000000000e+00  1.9452642013090024e+01 1.9971303452148714e+01 0.0000000000000000e+00  1.8173782593838474e+01 1.7597342531003218e+01 0.0000000000000000e+00  2.1080363620043748e+01 2.0710315835263149e+01 0.0000000000000000e+00  1.9748467107399730e+01 1.8284178778857417e+01 0.0000000000000000e+00  2.2666703220577947e+01 2.1334726295154574e+01 0.0000000000000000e+00  2.1357335402560057e+01 1.8972085815975600e+01 0.0000000000000000e+00  2.4148089580148827e+01 2.1682897332470432e+01 0.0000000000000000e+00  2.2923488958964420e+01 1.9478487179543080e+01 0.0000000000000000e+00  2.5469092348354586e+01 2.1718247839220570e+01 0.0000000000000000e+00  2.4383440030818054e+01 1.9755366306843683e+01 0.0000000000000000e+00  2.6593963344250589e+01 2.0989532982956792e+01 0.0000000000000000e+00  2.5681594843544126e+01 1.9321347275237809e+01 0.0000000000000000e+00  2.7509057813996506e+01 2.0270951055250961e+01 0.0000000000000000e+00  2.6783619343522080e+01 1.8918923521095870e+01 0.0000000000000000e+00  2.8208725665908577e+01 1.8124359923090928e+01 0.0000000000000000e+00  2.7673467394537301e+01 1.7094338397182920e+01 0.0000000000000000e+00  2.8714917232330507e+01 1.6454663164714532e+01 0.0000000000000000e+00  2.8349620833086160e+01 1.5717826916391168e+01 0.0000000000000000e+00  2.9046440581184605e+01 1.2776156294046165e+01 0.0000000000000000e+00  2.8828539819880813e+01 1.2297752058329545e+01 0.0000000000000000e+00  2.9247281156596085e+01 1.0117149162372421e+01 0.0000000000000000e+00  2.9137327968413150e+01 9.8404172699327859e+00 0.0000000000000000e+00  2.9342333734835975e+01 5.2331830232065393e+00 0.0000000000000000e+00  2.9308823184316360e+01 5.1073997809009315e+00 0.0000000000000000e+00  2.9381790947093613e+01 1.2780669727822365e+00 0.0000000000000000e+00  2.9383384587052745e+01 1.2460027558489721e+00 0.0000000000000000e+00  2.9389262608642198e+01 -5.0802078939321826e-09 0.0000000000000000e+00  2.9389916190357170e+01 6.8474407086708969e-04 0.0000000000000000e+00  2.9389262614657543e+01 -3.6184012477548860e-19 0.0000000000000000e+00  2.0125295856261118e+01 -7.1251098487645796e+00 0.0000000000000000e+00  2.9383852202869619e+01 6.7450970021381282e+00 0.0000000000000000e+00  2.9389904728254162e+01 -6.5390347935885811e-04 0.0000000000000000e+00  2.0750291416185114e+01 -1.3369690311509570e+01 0.0000000000000000e+00  2.0153293838946333e+01 -1.4347195772684511e+01 0.0000000000000000e+00  1.7730944810334275e+01 -2.0808778711178057e+01 0.0000000000000000e+00  2.0815864278075242e+01 -1.6310306759693290e+01 0.0000000000000000e+00  1.6954304137889714e+01 -2.2281377632440890e+01 0.0000000000000000e+00  1.7834795120365509e+01 -2.1151185757932840e+01 0.0000000000000000e+00  1.5274621875098900e+01 -2.5058054990082450e+01 0.0000000000000000e+00  1.7095721955873866e+01 -2.2571421131870263e+01 0.0000000000000000e+00  1.4063333118612956e+01 -2.5270250486339009e+01 0.0000000000000000e+00  1.5453033050592193e+01 -2.3487008971213637e+01 0.0000000000000000e+00  1.2768879368116128e+01 -2.5349194015218696e+01 0.0000000000000000e+00  1.4279025136634809e+01 -2.3439937797441125e+01 0.0000000000000000e+00  1.1653576088934386e+01 -2.4297315901614557e+01 0.0000000000000000e+00  1.3021033656147088e+01 -2.2657324741268006e+01 0.0000000000000000e+00  1.0326059009242343e+01 -2.3129976982442251e+01 0.0000000000000000e+00  1.1941817093665394e+01 -2.1170976225300038e+01 0.0000000000000000e+00  9.3706366151069513e+00 -2.1289416516686394e+01 0.0000000000000000e+00  1.0650204804290288e+01 -1.9888358140317056e+01 0.0000000000000000e+00  8.5872215427989076e+00 -1.9435435041803608e+01 0.0000000000000000e+00  9.7302258022848047e+00 -1.8292181626237532e+01 0.0000000000000000e+00  7.7352695559490492e+00 -1.7743490139737681e+01 0.0000000000000000e+00  8.9818763032200657e+00 -1.6497158783514578e+01 0.0000000000000000e+00  6.9284219001463079e+00 -1.6145211625819009e+01 0.0000000000000000e+00  8.1647878466459378e+00 -1.4966155319393488e+01 0.0000000000000000e+00  6.1705373876613763e+00 -1.4730339319054556e+01 0.0000000000000000e+00  7.3923902967572852e+00 -1.3624533533331466e+01 0.0000000000000000e+00  5.4250412857699519e+00 -1.3435764341243512e+01 0.0000000000000000e+00  6.6685873629715342e+00 -1.2348192097024327e+01 0.0000000000000000e+00  4.7468052265031560e+00 -1.2195781498875931e+01 0.0000000000000000e+00  5.9568674469918426e+00 -1.1208765524843979e+01 0.0000000000000000e+00  4.1435703917132942e+00 -1.1058090381980479e+01 0.0000000000000000e+00  5.3120195132328849e+00 -1.0183289504650537e+01 0.0000000000000000e+00  3.5778466298541205e+00 -9.9702155242263757e+00 0.0000000000000000e+00  4.7417601457958547e+00 -9.1513875127751270e+00 0.0000000000000000e+00  3.0749522792878703e+00 -8.9081507684238712e+00 0.0000000000000000e+00  4.2087307643658090e+00 -8.1831863009864616e+00 0.0000000000000000e+00  2.6438986203244279e+00 -7.9110696931347348e+00 0.0000000000000000e+00  3.7380661455387938e+00 -7.2936780989499663e+00 0.0000000000000000e+00  2.2486323070638714e+00 -6.9076326120755063e+00 0.0000000000000000e+00  3.3390146289446001e+00 -6.3434726193992708e+00 0.0000000000000000e+00  1.9075631707443235e+00 -5.9733066499925895e+00 0.0000000000000000e+00  2.9751900323441678e+00 -5.4903917526757402e+00 0.0000000000000000e+00  1.6202554451458988e+00 -5.0209656615573888e+00 0.0000000000000000e+00  2.6656135406464738e+00 -4.6179997888286906e+00 0.0000000000000000e+00  1.3673922011583792e+00 -4.2066048433694840e+00 0.0000000000000000e+00  2.4087569953431602e+00 -3.8557745358555495e+00 0.0000000000000000e+00  1.1489951900391639e+00 -3.2684745433413553e+00 0.0000000000000000e+00  2.1872620689469024e+00 -2.9677797008095390e+00 0.0000000000000000e+00  9.5780844430790912e-01 -2.7312296980333977e+00 0.0000000000000000e+00  1.9978294210871805e+00 -2.4733272632239958e+00 0.0000000000000000e+00  7.8133853609241344e-01 -1.7817869145569518e+00 0.0000000000000000e+00  1.8387656385358080e+00 -1.5420096524290592e+00 0.0000000000000000e+00  5.4332336645138279e-01 -1.7253705030635356e+00 0.0000000000000000e+00  1.6883690914184155e+00 -1.3992673314153516e+00 0.0000000000000000e+00  1.8237116393119090e-01 -1.2017841066116097e+00 0.0000000000000000e+00  1.4865305869452679e+00 -6.8016704925116767e-01 0.0000000000000000e+00  -6.6120702020117139e-01 -7.4014268193146725e-03 0.0000000000000000e+00  1.1400428825152260e+00 1.2165869601649557e+00 0.0000000000000000e+00  1.8026212087702849e+00 5.6986189044624691e+00 0.0000000000000000e+00  1.3287492401109884e+00 6.3087575198857495e+00 0.0000000000000000e+00  2.2329449106407724e+00 5.8851644651089563e+00 0.0000000000000000e+00  2.7894708265608843e+00 6.8126075839683189e+00 0.0000000000000000e+00  3.4808485738384189e+00 7.3541776706161057e+00 0.0000000000000000e+00  4.0973789411829360e+00 8.1408189167779081e+00 0.0000000000000000e+00  4.6340342634129694e+00 8.5055312271403452e+00 0.0000000000000000e+00  5.3058337751264855e+00 9.1491231249868239e+00 0.0000000000000000e+00  5.8327645168316877e+00 9.4310567149452353e+00 0.0000000000000000e+00  5.8969524234758195e+00 9.0470632947875362e+00 0.0000000000000000e+00  6.9639670132242832e+00 9.8779603546733039e+00 0.0000000000000000e+00  3.8405830947988990e+00 3.9274974463561687e+00 0.0000000000000000e+00  1.4941085082674674e+01 1.9173741024928784e+01 0.0000000000000000e+00  1.4601919764813633e+01 1.7235691291806820e+01 0.0000000000000000e+00  1.4655852002479426e+01 1.5913462549856744e+01 0.0000000000000000e+00  1.5159605089402516e+01 1.5232806900079661e+01 0.0000000000000000e+00  1.6066899855420605e+01 1.5057649112581799e+01 0.0000000000000000e+00  1.7279190154578821e+01 1.5436125665724861e+01 0.0000000000000000e+00  1.8703498511145174e+01 1.5939499817630649e+01 0.0000000000000000e+00  2.0248162449240169e+01 1.6578208963558911e+01 0.0000000000000000e+00  2.1823579133272975e+01 1.7149729902665321e+01 0.0000000000000000e+00  2.3353648992002370e+01 1.7588643884028713e+01 0.0000000000000000e+00  2.4773982209253326e+01 1.7398525342221014e+01 0.0000000000000000e+00  2.6029872608944139e+01 1.7292090872761118e+01 0.0000000000000000e+00  2.7087021064931818e+01 1.5786349646961650e+01 0.0000000000000000e+00  2.7930258351731954e+01 1.4733712825313262e+01 0.0000000000000000e+00  2.8556786950274287e+01 1.1605738223364012e+01 0.0000000000000000e+00  2.8987855807602742e+01 9.4115705905752201e+00 0.0000000000000000e+00  2.9243721258246588e+01 4.8716325528140088e+00 0.0000000000000000e+00  2.9371273400955662e+01 1.1744236315196401e+00 0.0000000000000000e+00  2.9391483868873074e+01 1.3052595746769597e-03 0.0000000000000000e+00  2.9362809959491123e+01 6.8074695710052762e+00 0.0000000000000000e+00  2.9391462832020569e+01 -1.2860052622119965e-03 0.0000000000000000e+00  2.9301239540898880e+01 -5.1415230164511549e-01 0.0000000000000000e+00  2.0104951608641159e+01 -1.7331131203046475e+01 0.0000000000000000e+00  2.0811996055486183e+01 -1.6705092286314045e+01 0.0000000000000000e+00  1.7873420746458766e+01 -2.1489193623572692e+01 0.0000000000000000e+00  1.7177346307861889e+01 -2.1045970096613090e+01 0.0000000000000000e+00  1.5574192415438626e+01 -2.1703335876357961e+01 0.0000000000000000e+00  1.4439572749154353e+01 -2.0792665277845835e+01 0.0000000000000000e+00  1.3218707066833497e+01 -1.9573690075866534e+01 0.0000000000000000e+00  1.2175321782659227e+01 -1.7972133612954334e+01 0.0000000000000000e+00  1.0918615587700641e+01 -1.6932840023820585e+01 0.0000000000000000e+00  1.0032744891011088e+01 -1.5394589697880374e+01 0.0000000000000000e+00  9.3176810848430645e+00 -1.3760469345272545e+01 0.0000000000000000e+00  8.5335320343187444e+00 -1.2485469538758522e+01 0.0000000000000000e+00  7.7935072996607451e+00 -1.1281583870383491e+01 0.0000000000000000e+00  7.1014613977888983e+00 -1.0160100874239189e+01 0.0000000000000000e+00  6.4210146735709381e+00 -9.2345317527278450e+00 0.0000000000000000e+00  5.8068271124332433e+00 -8.3140980971944902e+00 0.0000000000000000e+00  5.2665794610183010e+00 -7.4014297224456636e+00 0.0000000000000000e+00  4.7629761696792965e+00 -6.6051435996624122e+00 0.0000000000000000e+00  4.3211432577092763e+00 -5.7618363884928741e+00 0.0000000000000000e+00  3.9502209679576441e+00 -4.9614894239504395e+00 0.0000000000000000e+00  3.6140516103435028e+00 -4.1697545096683095e+00 0.0000000000000000e+00  3.3313408954707064e+00 -3.4868026713015174e+00 0.0000000000000000e+00  3.1010245739913835e+00 -2.6505459824481092e+00 0.0000000000000000e+00  2.9049707973487746e+00 -2.2055599901616962e+00 0.0000000000000000e+00  2.7413081417099510e+00 -1.3162875954831237e+00 0.0000000000000000e+00  2.6056826726470734e+00 -1.1916298555226077e+00 0.0000000000000000e+00  2.4809169708560455e+00 -3.8651787042133734e-01 0.0000000000000000e+00  2.3005496952677911e+00 1.7168438085325781e+00 0.0000000000000000e+00  2.5157581846587900e+00 4.9869985617082682e+00 0.0000000000000000e+00  2.0876410593788002e+00 5.6680673387779690e+00 0.0000000000000000e+00  2.9908449457972965e+00 5.2388119729997449e+00 0.0000000000000000e+00  3.4224388590257759e+00 5.9781320182051711e+00 0.0000000000000000e+00  3.9784370927913937e+00 6.3188725811247020e+00 0.0000000000000000e+00  4.6672767431300404e+00 7.2195069879401075e+00 0.0000000000000000e+00  5.2788382684268029e+00 7.7062317428930092e+00 0.0000000000000000e+00  5.8074269858206407e+00 8.1491621027402505e+00 0.0000000000000000e+00  6.4681491194815655e+00 8.6507220710998993e+00 0.0000000000000000e+00  6.9808832160673147e+00 8.9632366004757511e+00 0.0000000000000000e+00  7.0276984495417629e+00 8.2914475625469830e+00 0.0000000000000000e+00  8.0755527035620371e+00 8.6270368513779374e+00 0.0000000000000000e+00  4.9343092526731560e+00 2.5345565870360591e+00 0.0000000000000000e+00  1.6020414717338021e+01 1.7755519504170213e+01 0.0000000000000000e+00  1.5667214524322329e+01 1.5846689944237534e+01 0.0000000000000000e+00  1.5702856697267306e+01 1.4495507876359449e+01 0.0000000000000000e+00  1.6181895487205455e+01 1.3719590018423295e+01 0.0000000000000000e+00  1.7057732147905135e+01 1.3645682917887155e+01 0.0000000000000000e+00  1.8231662999470966e+01 1.3835977320186089e+01 0.0000000000000000e+00  1.9610260476252986e+01 1.4298819321210129e+01 0.0000000000000000e+00  2.1102340603189170e+01 1.4829085321321971e+01 0.0000000000000000e+00  2.2618538812658709e+01 1.5341150827493420e+01 0.0000000000000000e+00  2.4081912745393776e+01 1.5319386814390276e+01 0.0000000000000000e+00  2.5429471458531506e+01 1.5465411506520939e+01 0.0000000000000000e+00  2.6605548525046384e+01 1.4259956317362843e+01 0.0000000000000000e+00  2.7578262275917680e+01 1.3534430532902791e+01 0.0000000000000000e+00  2.8330325830473196e+01 1.0729144021389102e+01 0.0000000000000000e+00  2.8865872164402322e+01 8.8387519363272702e+00 0.0000000000000000e+00  2.9198553412195906e+01 4.5443674750900005e+00 0.0000000000000000e+00  2.9368628089557578e+01 1.0671660235559648e+00 0.0000000000000000e+00  2.9393932714974195e+01 1.8678239334543258e-03 0.0000000000000000e+00  2.9344486562101306e+01 6.9685995862519032e+00 0.0000000000000000e+00  2.9393913978362423e+01 -1.8402641329119931e-03 0.0000000000000000e+00  2.9151839946756539e+01 -3.9176894019855063e-01 0.0000000000000000e+00  2.9080552419531781e+01 -3.5779701242054927e+00 0.0000000000000000e+00  1.9941948516665914e+01 -1.7820867275470757e+01 0.0000000000000000e+00  2.0721490196597571e+01 -1.7132046125451513e+01 0.0000000000000000e+00  1.7852004362450767e+01 -2.0053895481195635e+01 0.0000000000000000e+00  1.7221892215900350e+01 -1.9344865076086005e+01 0.0000000000000000e+00  1.5679377146370422e+01 -1.9135698093058554e+01 0.0000000000000000e+00  1.4602128881041519e+01 -1.7784248273050888e+01 0.0000000000000000e+00  1.3434302396594372e+01 -1.6446976850508779e+01 0.0000000000000000e+00  1.2441433382538058e+01 -1.5085927607077346e+01 0.0000000000000000e+00  1.1233025402312569e+01 -1.4103047119056429e+01 0.0000000000000000e+00  1.0393929995677484e+01 -1.2724144515476038e+01 0.0000000000000000e+00  9.7246569384487387e+00 -1.1344950552934732e+01 0.0000000000000000e+00  8.9855448799380948e+00 -1.0206697029623262e+01 0.0000000000000000e+00  8.2896994700001532e+00 -9.1565108436243410e+00 0.0000000000000000e+00  7.6410380077797564e+00 -8.2476243242012206e+00 0.0000000000000000e+00  7.0030247437388100e+00 -7.4259125261458365e+00 0.0000000000000000e+00  6.4302520181233414e+00 -6.6232997345616935e+00 0.0000000000000000e+00  5.9303402553337783e+00 -5.8812521469297794e+00 0.0000000000000000e+00  5.4660343490458159e+00 -5.1296882277603340e+00 0.0000000000000000e+00  5.0622610084779840e+00 -4.4351005129964554e+00 0.0000000000000000e+00  4.7284791219513203e+00 -3.6942979539584542e+00 0.0000000000000000e+00  4.4279910314470374e+00 -3.0913751297790384e+00 0.0000000000000000e+00  4.1803547087952060e+00 -2.3317778744581101e+00 0.0000000000000000e+00  3.9830708604073108e+00 -1.9392522917829993e+00 0.0000000000000000e+00  3.8203623751904474e+00 -1.0943093529666021e+00 0.0000000000000000e+00  3.6860474577130078e+00 -1.0168455370916658e+00 0.0000000000000000e+00  3.5840301587984551e+00 -2.1726437498116613e-01 0.0000000000000000e+00  3.4801876422249043e+00 1.9572315384499352e+00 0.0000000000000000e+00  3.4356642283138901e+00 4.3435464841117479e+00 0.0000000000000000e+00  3.0456534536868700e+00 5.0850918205629965e+00 0.0000000000000000e+00  3.8657856065576786e+00 4.5241486619387716e+00 0.0000000000000000e+00  4.3441835689358683e+00 5.3286653724835480e+00 0.0000000000000000e+00  4.7786339360114862e+00 5.4838647949730506e+00 0.0000000000000000e+00  5.3359341687364097e+00 6.1870510812429531e+00 0.0000000000000000e+00  6.0233619947640191e+00 6.7918923663490327e+00 0.0000000000000000e+00  6.6301421568581809e+00 7.3621467910775618e+00 0.0000000000000000e+00  7.1499636610373711e+00 7.6686051996827302e+00 0.0000000000000000e+00  7.7974266089150328e+00 8.2061452827408043e+00 0.0000000000000000e+00  8.2925658984910502e+00 8.2360917391020472e+00 0.0000000000000000e+00  8.3187267491855792e+00 7.0709137669059459e+00 0.0000000000000000e+00  9.3458907717061397e+00 7.2593473197673033e+00 0.0000000000000000e+00  6.1896047121512270e+00 1.1329463155688013e+00 0.0000000000000000e+00  1.7268626264743975e+01 1.6381526370477459e+01 0.0000000000000000e+00  1.6909202481982657e+01 1.4450820927590810e+01 0.0000000000000000e+00  1.6932470918966505e+01 1.3015996373676595e+01 0.0000000000000000e+00  1.7390176585357214e+01 1.2354263396253453e+01 0.0000000000000000e+00  1.8233899641853863e+01 1.2104433831777623e+01 0.0000000000000000e+00  1.9365340271376649e+01 1.2268111680623917e+01 0.0000000000000000e+00  2.0690759444315066e+01 1.2635523570990463e+01 0.0000000000000000e+00  2.2118644207947415e+01 1.3119026731696781e+01 0.0000000000000000e+00  2.3559648862115335e+01 1.3183831692643862e+01 0.0000000000000000e+00  2.4937397589879478e+01 1.3512294149196997e+01 0.0000000000000000e+00  2.6187305418088627e+01 1.2569095592736158e+01 0.0000000000000000e+00  2.7257097297690937e+01 1.2158921281980504e+01 0.0000000000000000e+00  2.8111947566437561e+01 9.6838508560018823e+00 0.0000000000000000e+00  2.8743431691025304e+01 8.1322324367123251e+00 0.0000000000000000e+00  2.9147084845687868e+01 4.1232004773087176e+00 0.0000000000000000e+00  2.9361996760916334e+01 9.2278715345821039e-01 0.0000000000000000e+00  2.9397168945133739e+01 2.3695962177270359e-03 0.0000000000000000e+00  2.9330403932679136e+01 7.2178085017398841e+00 0.0000000000000000e+00  2.9397151529939446e+01 -2.3316699500355652e-03 0.0000000000000000e+00  2.9032346813706649e+01 4.4165422569081162e-03 0.0000000000000000e+00  2.8736577465333685e+01 -3.44810482927