<?xml version="1.0"?>
<VTKFile type="UnstructuredGrid"  version="0.1"  >
<UnstructuredGrid>
<Piece  NumberOfPoints="1933" NumberOfCells="3640">
<Points>
<DataArray  type="Float64"  NumberOfComponents="3"  format="ascii">-0.4754214202469743 -0.001349126648605053 0  4.52457862769918 -0.001325153560233983 0  4.524542676847822 7.498674971927816 0  -0.4754573973468483 7.49865095487225 0  9.524578701807235 -0.001301282274499739 0  9.524542803988354 7.498698854869167 0  14.5245788563338 -0.001277531354677077 0  14.52454300851779 7.4987226063357 0  19.52457914336333 -0.00125387949425156 0  19.52454331252441 7.498746255429014 0  24.52457960707594 -0.001230283216617285 0  24.52454373593129 7.49876984860108 0  29.52458028336991 -0.001206685832559421 0  29.52454429585106 7.498793443632557 0  34.52458120114024 -0.001183021877882076 0  34.52454500611069 7.498817106320437 0  39.5245823838527 -0.001159218981725594 0  39.52454587699824 7.498840909069959 0  44.52458385093524 -0.001135198163484603 0  44.52454691509806 7.498864930789014 0  49.52458561884324 -0.001110873078839034 0  49.52454812306794 7.498889257717765 0  54.52458770177306 -0.001086148466448796 0  54.52454949923881 7.498913985004496 0  59.52459011202195 -0.00106091787920364 0  59.5245510369267 7.49893921896841 0  64.52459285998242 -0.001035060664496144 0  64.52455272333654 7.498965080091129 0  69.52459595371411 -0.001008438055532972 0  69.52455453791343 7.498991706868772 0  74.52459939798189 -0.0009808881278268349 0  74.52455644993795 7.499019260750355 0  79.5246031925454 -0.0009522192409333564 0  79.52455841508029 7.499047932500546 0  84.52460732933436 -0.0009222014011220016 0  84.52456037051185 7.499077950467681 0  89.52461178787222 -0.0008905547132609627 0  89.52456222799829 7.499109591425096 0  94.52461652785884 -0.0008569336927458674 0  94.52456386418052 7.499143194893189 0  99.52462147699073 -0.0008209056130778106 0  99.52456510699454 7.499179182131457 0  104.5246265106179 -0.0007819201799612805 0  104.5245657169334 7.499218081258656 0  109.5246314170669 -0.0007392665422585273 0  109.5245653618504 7.499260560027835 0  114.5246358373407 -0.0006920119092652275 0  114.5245635847335 7.499307467171755 0  119.5246391582203 -0.0006389140165663533 0  119.5245597666085 7.499359880767336 0  124.524640319502 -0.0005782983998467001 0  124.5245530943651 7.499419155075911 0  129.5246374612979 -0.0005078947164939093 0  129.5245425622305 7.499486940028932 0  134.5246272708618 -0.0004246472787003559 0  134.5245270798981 7.499565108639219 0  139.524603759635 -0.0003246004072526613 0  139.5245058606952 7.499655450421532 0  144.5245559398501 -0.0002032969633361269 0  144.5244794910463 7.499758881715631 0  149.524463263279 -5.857349928812891e-05 0  149.5244526335707 7.499874055995497 0  159.5244717418527 8.511093741609604e-19 0  164.5244056416784 -0.0001257061760900923 0  164.5244617577479 7.499850641076672 0  159.5244753831842 7.499944919492448 0  169.5243824019039 -0.0002153792588121661 0  169.5244476190298 7.499772927716801 0  174.524379659339 -0.0002797002645934096 0  174.524438161406 7.499714107733921 0  179.524386579721 -0.0003252250070464288 0  179.5244335716325 7.499671384165781 0  184.5243977414041 -0.0003566327816397925 0  184.524432799618 7.49964147756248 0  189.5244104054945 -0.0003773523606579848 0  189.5244346879668 7.499621587208707 0  194.5244231972639 -0.000389902116229241 0  194.5244382819558 7.499609506391543 0  199.5244354447275 -0.0003961383885200887 0  199.524442873202 7.499603541176777 0  204.5244468402432 -0.0003974407197560028 0  204.5244479638167 7.499602398933745 0  209.5244572651367 -0.0003948462857955193 0  209.524453215658 7.499605089901165 0  214.5244666978872 -0.0003891454746962175 0  214.5244584052465 7.499610850033362 0  219.524475165647 -0.0003809492662849565 0  219.5244633889865 7.499619083276118 0  224.5244827184863 -0.0003707367747165344 0  224.5244680779761 7.499629319159925 0  229.5244894157072 -0.0003588890381710146 0  229.5244724203575 7.49964118177811 0  234.5244953186464 -0.0003457133047887409 0  234.5244763891813 7.499654367013996 0  239.5245004870206 -0.0003314607227997823 0  239.5244799741543 7.499668625692205 0  244.5245049772425 -0.0003163394093758482 0  244.524483176087 7.49968375098807 0  249.5245088418521 -0.0003005242376151635 0  249.5244860031994 7.499699568919914 0  254.5245121296149 -0.0002841642513665239 0  254.5244884687177 7.499715931103403 0  259.5245148860304 -0.0002673883238731879 0  259.5244905893598 7.499732709200008 0  264.5245171541463 -0.0002503094693039377 0  264.5244923844506 7.499749790675846 0  269.5245189756062 -0.0002330280609123974 0  269.524493875478 7.499767075627902 0  274.5245203919369 -0.0002156340790004964 0  274.5244950859437 7.49978447455173 0  279.524521446067 -0.00019820838193361 0  279.5244960414064 7.499801907035254 0  284.5245221840777 -0.0001808228381240079 0  284.5244967696003 7.499819301482491 0  289.5245226570856 -0.000163538941596627 0  289.5244973005128 7.499836596111119 0  294.5245229230221 -0.0001464042106223988 0  294.5244976663361 7.499853741637541 0  299.5245230475841 -0.0001294451780105726 0  299.5244979012484 7.499870706257166 0  304.5245231027413 -0.0001126551072063214 0  304.5244980413605 7.499887483722954 0  309.524523158981 -9.597409858812505e-05 0  309.5244981261072 7.499904105587438 0  4.524506449632805 14.99867524336591 0  -0.4754936268023457 14.99865115115156 0  9.52450656320447 14.99869913335512 0  14.52450673174325 14.99872286676894 0  19.5245069649763 14.99874649142899 0  24.52450726886865 14.99877006125138 0  29.52450764694714 14.99879363644297 0  34.52450810036849 14.99881728304215 0  39.52450862750528 14.99884107278161 0  44.5245092233349 14.99886508351383 0  49.52450987869932 14.99888940021848 0  54.52451057941354 14.9989141165741 0  59.52451130515913 14.9989393371018 0  64.52451202808477 14.99896517993201 0  69.52451271101924 14.99899178029379 0  74.52451330520141 14.99901929487805 0  79.52451374742814 14.99904790727584 0  84.52451395655054 14.99907783473499 0  89.52451382931885 14.99910933649621 0  94.52451323576159 14.99914272391682 0  99.52451201464322 14.99917837237849 0  104.5245099703045 14.99921673441462 0  109.5245068735478 14.99925835221516 0  114.5245024717186 14.99930386496052 0  119.524496517288 14.99935400098756 0  124.5244888307869 14.99940953426349 0  129.5244794229422 14.99947116511813 0  134.5244687099802 14.99953925057332 0  139.5244578550223 14.99961325082956 0  144.5244492241431 14.99969065625414 0  149.5244467563343 14.99976491543864 0  164.5244756806365 14.99978522075254 0  159.5244742304371 14.99983545379104 0  169.524470742806 14.99973559822025 0  174.5244638329633 14.99969298207352 0  179.5244574484202 14.9996594094594 0  184.5244525823123 14.99963467249186 0  189.5244494235448 14.99961772455231 0  194.5244478025373 14.99960733563193 0  199.5244474265203 14.99960235396727 0  204.5244479908492 14.99960178935613 0  209.5244492249194 14.99960482224215 0  214.5244509060477 14.99961078550096 0  219.5244528589508 14.99961913905274 0  224.5244549496701 14.9996294452808 0  229.5244570781019 14.99964134791162 0  234.524459170953 14.99965455480013 0  239.5244611757431 14.99966882424185 0  244.5244630559758 14.99968395420805 0  249.524464787377 14.99969977391275 0  254.5244663550178 14.99971613721088 0  259.5244677511515 14.99973291743796 0  264.5244689735874 14.99975000340044 0  269.52447002448 14.99976729631661 0  274.5244709094117 14.99978470758228 0  279.5244716366808 14.999802157301 0  284.524472216762 14.99981957357011 0  289.5244726619076 14.99983689254018 0  294.5244729860418 14.99985405923328 0  299.5244732052118 14.99987102893947 0  304.5244733392797 14.99988776853557 0  309.5244734160796 14.99990425588592 0  4.52447001934162 22.49867575070914 0  -0.4755300532936688 22.4986516344695 0  9.52447010719896 22.49869961387024 0  14.52447021931341 22.49872329805731 0  19.52447035820084 22.49874686770576 0  24.52447052222755 22.49877038472188 0  29.52447070694119 22.49879391213452 0  34.52447090548062 22.49881751595797 0  39.52447110840912 22.49884126636888 0  44.52447130322141 22.49886523876961 0  49.52447147366367 22.49888951501052 0  54.52447159892606 22.49891418489939 0  59.52447165272986 22.49893934806648 0  64.52447160231817 22.49896511623577 0  69.52447140737 22.49899161594561 0  74.5244710188917 22.49901899175489 0  79.5244703782071 22.49904740994124 0  84.5244694162776 22.49907706263094 0  89.52446805377654 22.49910817215239 0  94.52446620264277 22.49914099512043 0  99.52446377030509 22.4991758252235 0  104.5244606684653 22.49921299272932 0  109.5244568292912 22.49925285705652 0  114.5244522330712 22.4992957859646 0  119.524446952537 22.4993421104289 0  124.5244412193933 22.4993920375389 0  129.5244355160861 22.49944549478667 0  134.5244306864205 22.49950187009504 0  139.5244280346119 22.49955961168725 0  144.5244293319523 22.49961568836982 0  149.524436563144 22.49966507451608 0  164.5244675600762 22.49971115736704 0  159.5244604016358 22.49973229349666 0  169.5244687819223 22.49968530084738 0  174.5244662332386 22.49965996029369 0  179.524461881584 22.49963813221875 0  184.5244570923097 22.49962111368416 0  189.5244526505758 22.49960915697931 0  194.5244489261652 22.49960197434917 0  199.5244460327244 22.49959904914963 0  204.5244439431008 22.49959980466589 0  209.5244425627859 22.49960368622233 0  214.5244417728781 22.4996101953833 0  219.5244414533103 22.49961889955005 0  224.5244414941752 22.49962942991483 0  229.5244418002627 22.49964147460525 0  234.5244422919625 22.49965477043074 0  239.5244429043647 22.49966909482037 0  244.5244435855979 22.4996842586019 0  249.5244442949504 22.49970009981447 0  254.5244450010574 22.49971647853885 0  259.5244456802539 22.49973327264792 0  264.5244463151522 22.49975037436053 0  269.5244468934185 22.49976768748764 0  274.5244474067499 22.49978512527488 0  279.5244478500337 22.49980260875317 0  284.5244482207105 22.49982006549679 0  289.5244485184031 22.49983742863407 0  294.524448744964 22.4998546358
[...]
<PointData  Vectors="v"> 
<DataArray  type="Float64"  Name="v"  NumberOfComponents="3" format="ascii">-3.3624855744178213e+00 -6.6673783560380731e+00 0.0000000000000000e+00  -3.8298006640975562e+00 -6.0342467454269979e+00 0.0000000000000000e+00  -3.3182018816078580e+00 -5.3335339703329234e+00 0.0000000000000000e+00  -2.9542960709121702e+00 -6.1213300807000364e+00 0.0000000000000000e+00  -4.3724682951151719e+00 -6.2950485347133327e+00 0.0000000000000000e+00  -3.7850629322994434e+00 -5.4817795404386107e+00 0.0000000000000000e+00  -4.8048069464129943e+00 -6.8646163532279854e+00 0.0000000000000000e+00  -4.3266807526566193e+00 -6.2173633997107816e+00 0.0000000000000000e+00  -5.1269986681447408e+00 -6.7367469057013549e+00 0.0000000000000000e+00  -4.7573454844538841e+00 -6.2551263006979907e+00 0.0000000000000000e+00  -5.5571391731803486e+00 -7.0904710120429479e+00 0.0000000000000000e+00  -5.0772927527596696e+00 -6.4473324404179033e+00 0.0000000000000000e+00  -5.8516197098199561e+00 -6.9771255892431396e+00 0.0000000000000000e+00  -5.5047626718655955e+00 -6.5378837228286573e+00 0.0000000000000000e+00  -5.8243332329025659e+00 -6.4533526102326135e+00 0.0000000000000000e+00  -5.7960800734808178e+00 -6.4969625082607685e+00 0.0000000000000000e+00  -6.5994635099329466e+00 -7.0156385306698175e+00 0.0000000000000000e+00  -5.7653000329384456e+00 -5.8559188021197155e+00 0.0000000000000000e+00  -4.6647745180799864e+00 -3.5383981875144324e+00 0.0000000000000000e+00  -6.5367186080782851e+00 -6.4435813345617294e+00 0.0000000000000000e+00  -1.3083659204408411e+01 -1.5375916527352837e+01 0.0000000000000000e+00  -4.5981346043614142e+00 -2.7509979484203080e+00 0.0000000000000000e+00  -1.3613411209098050e+01 -1.5025749365155512e+01 0.0000000000000000e+00  -1.3012544120165774e+01 -1.4234906321917585e+01 0.0000000000000000e+00  -1.3868152898662172e+01 -1.4119599107455016e+01 0.0000000000000000e+00  -1.3537794865515123e+01 -1.3740829574111158e+01 0.0000000000000000e+00  -1.4191649542586196e+01 -1.3262669437032276e+01 0.0000000000000000e+00  -1.3788287637241231e+01 -1.2780876622813134e+01 0.0000000000000000e+00  -1.4643965421875157e+01 -1.2621020672013417e+01 0.0000000000000000e+00  -1.4107439316295313e+01 -1.1945863417343096e+01 0.0000000000000000e+00  -1.5240480811891668e+01 -1.2191529960554094e+01 0.0000000000000000e+00  -1.4555579128691006e+01 -1.1300253103843168e+01 0.0000000000000000e+00  -1.5922149294114895e+01 -1.1855282842703536e+01 0.0000000000000000e+00  -1.5147774442343797e+01 -1.0835854437522944e+01 0.0000000000000000e+00  -1.6625951583625657e+01 -1.1697581042115877e+01 0.0000000000000000e+00  -1.5825253679718562e+01 -1.0644701371004624e+01 0.0000000000000000e+00  -1.7289125678723913e+01 -1.1406401645875404e+01 0.0000000000000000e+00  -1.6525478941583398e+01 -1.0414067084502705e+01 0.0000000000000000e+00  -1.7857003347680607e+01 -1.1019121321359890e+01 0.0000000000000000e+00  -1.7185389274074705e+01 -1.0168682149235686e+01 0.0000000000000000e+00  -1.8290939252703115e+01 -1.0425076505685194e+01 0.0000000000000000e+00  -1.7751018721767757e+01 -9.7748067181665181e+00 0.0000000000000000e+00  -1.8576837804319673e+01 -9.6511398114495215e+00 0.0000000000000000e+00  -1.8183812373420380e+01 -9.2215109427148558e+00 0.0000000000000000e+00  -1.8717413805869345e+01 -8.3584983169347176e+00 0.0000000000000000e+00  -1.8470273326196260e+01 -8.1456068498834142e+00 0.0000000000000000e+00  -1.8731470539330765e+01 -7.2602674300447818e+00 0.0000000000000000e+00  -1.8612477095766696e+01 -7.2347203581518169e+00 0.0000000000000000e+00  -1.8658515495167947e+01 -5.2358643020914704e+00 0.0000000000000000e+00  -1.8631724653820207e+01 -5.3402649838734311e+00 0.0000000000000000e+00  -1.8531868640589760e+01 -3.9834268191664122e+00 0.0000000000000000e+00  -1.8564091343843248e+01 -4.1636889065753317e+00 0.0000000000000000e+00  -1.8399526125629784e+01 -1.4653998900258307e+00 0.0000000000000000e+00  -1.8448949492340891e+01 -1.6555972973369317e+00 0.0000000000000000e+00  -1.8282144495351844e+01 -5.5010911353544978e-01 0.0000000000000000e+00  -1.8326229891803479e+01 -7.0965301370532452e-01 0.0000000000000000e+00  -1.8210802712090864e+01 1.8386459337220880e+00 0.0000000000000000e+00  -1.8228520126489844e+01 1.7430482935825304e+00 0.0000000000000000e+00  -1.8172579924783108e+01 1.6981947594353273e+00 0.0000000000000000e+00  -1.8171281349724332e+01 1.6659670903517418e+00 0.0000000000000000e+00  -1.8163571103662139e+01 -5.4631410766665357e-05 0.0000000000000000e+00  -1.8164444433881371e+01 -9.6814186802558267e-04 0.0000000000000000e+00  -1.8163563200197473e+01 5.3559464745364125e-19 0.0000000000000000e+00  -1.1541816124011225e+01 -4.3177056121377677e-02 0.0000000000000000e+00  -1.8177126008938099e+01 -9.9720044582858804e+00 0.0000000000000000e+00  -1.8164414098917682e+01 8.2215380424672277e-04 0.0000000000000000e+00  -1.2946204091816002e+01 9.4412502668999654e-01 0.0000000000000000e+00  -1.1557908902483952e+01 3.0479662588275507e+00 0.0000000000000000e+00  -1.1085161960330273e+01 5.9979206211223923e+00 0.0000000000000000e+00  -1.2963613169225463e+01 3.2144650895804427e+00 0.0000000000000000e+00  -1.0977610578832181e+01 6.9738874974656344e+00 0.0000000000000000e+00  -1.1107080142169094e+01 6.8176657602375599e+00 0.0000000000000000e+00  -1.0053694692877805e+01 1.0028092066620626e+01 0.0000000000000000e+00  -1.1006766245167858e+01 8.6506298457480089e+00 0.0000000000000000e+00  -9.4661176724682861e+00 1.1181867120157197e+01 0.0000000000000000e+00  -1.0091620708448231e+01 1.0309311532902329e+01 0.0000000000000000e+00  -8.7575060400300337e+00 1.2363987201610769e+01 0.0000000000000000e+00  -9.5137898761626420e+00 1.1311572282896590e+01 0.0000000000000000e+00  -8.1683207138437322e+00 1.2554421219990406e+01 0.0000000000000000e+00  -8.8165388708859780e+00 1.1681325063995860e+01 0.0000000000000000e+00  -7.3893804220587453e+00 1.2507060789454028e+01 0.0000000000000000e+00  -8.2395064632366406e+00 1.1350540050856353e+01 0.0000000000000000e+00  -6.8722570646794470e+00 1.1739172774573666e+01 0.0000000000000000e+00  -7.4734302093044027e+00 1.0975857683141029e+01 0.0000000000000000e+00  -6.4793894896975370e+00 1.0819556436346321e+01 0.0000000000000000e+00  -6.9700207055106134e+00 1.0243112949865058e+01 0.0000000000000000e+00  -6.0309759102097171e+00 9.8767867837253469e+00 0.0000000000000000e+00  -6.5914231670911478e+00 9.2175292909594440e+00 0.0000000000000000e+00  -5.5918765635807794e+00 8.9318618305361142e+00 0.0000000000000000e+00  -6.1576975277585779e+00 8.2869980050653176e+00 0.0000000000000000e+00  -5.1660919688238955e+00 8.0859157035938161e+00 0.0000000000000000e+00  -5.7337976547062643e+00 7.4612354602382958e+00 0.0000000000000000e+00  -4.7182860299312948e+00 7.3119563964196832e+00 0.0000000000000000e+00  -5.3235299563424325e+00 6.6545303079733857e+00 0.0000000000000000e+00  -4.2974777551733432e+00 6.5676672943225842e+00 0.0000000000000000e+00  -4.8914364859521955e+00 5.9509094692171232e+00 0.0000000000000000e+00  -3.9145392334027065e+00 5.8976968366746174e+00 0.0000000000000000e+00  -4.4865679226260244e+00 5.3377971393165335e+00 0.0000000000000000e+00  -3.5415560052814299e+00 5.2671753367818548e+00 0.0000000000000000e+00  -4.1196535297191996e+00 4.7222966952904475e+00 0.0000000000000000e+00  -3.2018279740659925e+00 4.6525328939439010e+00 0.0000000000000000e+00  -3.7627321955533910e+00 4.1575257551936113e+00 0.0000000000000000e+00  -2.9074238991961652e+00 4.0968630273238276e+00 0.0000000000000000e+00  -3.4390421175938517e+00 3.6698267251468151e+00 0.0000000000000000e+00  -2.6265077094450331e+00 3.5279970789644457e+00 0.0000000000000000e+00  -3.1606906482391675e+00 3.1210661058146272e+00 0.0000000000000000e+00  -2.3778739210350306e+00 3.0386435594017911e+00 0.0000000000000000e+00  -2.8956037003805233e+00 2.6801715484568183e+00 0.0000000000000000e+00  -2.1568739018086531e+00 2.5050508111688883e+00 0.0000000000000000e+00  -2.6628913726054466e+00 2.1876889520530249e+00 0.0000000000000000e+00  -1.9504167092218871e+00 2.1560378583485296e+00 0.0000000000000000e+00  -2.4573106532733280e+00 1.8607386633328087e+00 0.0000000000000000e+00  -1.7498267752157837e+00 1.6068144739433450e+00 0.0000000000000000e+00  -2.2667204035968256e+00 1.3195228274535618e+00 0.0000000000000000e+00  -1.5506045634596679e+00 1.5744368896596963e+00 0.0000000000000000e+00  -2.0807714655295295e+00 1.2901652411080000e+00 0.0000000000000000e+00  -1.3345918371726806e+00 9.2143519825627074e-01 0.0000000000000000e+00  -1.8977528561608574e+00 6.0996581038208519e-01 0.0000000000000000e+00  -1.0167465696417319e+00 1.4627919267004565e+00 0.0000000000000000e+00  -1.6948599843779228e+00 1.0015628891725934e+00 0.0000000000000000e+00  -5.0543019893038665e-01 1.2344116540187808e+00 0.0000000000000000e+00  -1.3951769491378483e+00 4.7738252027961409e-01 0.0000000000000000e+00  6.9828950891342845e-01 1.8349012528993333e-01 0.0000000000000000e+00  -8.9114881482113906e-01 -1.6013919045838290e+00 0.0000000000000000e+00  -3.0480885895240006e+00 -4.7879214378102128e+00 0.0000000000000000e+00  -2.6407537260737692e+00 -5.5098835068968786e+00 0.0000000000000000e+00  -3.4112916433539078e+00 -4.7823975473747238e+00 0.0000000000000000e+00  -3.8762507429920929e+00 -5.4065415999892279e+00 0.0000000000000000e+00  -4.4147585568600327e+00 -5.6114643539395122e+00 0.0000000000000000e+00  -4.8410810687788315e+00 -5.9705620438405225e+00 0.0000000000000000e+00  -5.1553862923945770e+00 -5.9004227082108995e+00 0.0000000000000000e+00  -5.5761217312591489e+00 -6.0643351115610837e+00 0.0000000000000000e+00  -5.8597757685658527e+00 -5.9070190428096092e+00 0.0000000000000000e+00  -5.8205588643068351e+00 -5.2914375564540279e+00 0.0000000000000000e+00  -6.5836042627360385e+00 -5.6634978190351291e+00 0.0000000000000000e+00  -4.6365147694744140e+00 -1.6197178623761808e+00 0.0000000000000000e+00  -1.3039736400388438e+01 -1.2959818106298222e+01 0.0000000000000000e+00  -1.3554076993340951e+01 -1.2410407688463460e+01 0.0000000000000000e+00  -1.3795399196808088e+01 -1.1472963748764137e+01 0.0000000000000000e+00  -1.4104937775874660e+01 -1.0633485152311428e+01 0.0000000000000000e+00  -1.4543327960947385e+01 -9.9537340672887602e+00 0.0000000000000000e+00  -1.5124896690869539e+01 -9.6352078194529955e+00 0.0000000000000000e+00  -1.5790966146275665e+01 -9.3703395652209487e+00 0.0000000000000000e+00  -1.6479612038314002e+01 -9.1855664118893543e+00 0.0000000000000000e+00  -1.7127940464407018e+01 -8.9333344820981431e+00 0.0000000000000000e+00  -1.7682163682724749e+01 -8.5779297028966841e+00 0.0000000000000000e+00  -1.8105124309697672e+01 -7.7212364093435655e+00 0.0000000000000000e+00  -1.8383243903165226e+01 -7.0248232334327962e+00 0.0000000000000000e+00  -1.8519970647793723e+01 -5.3135023086639093e+00 0.0000000000000000e+00  -1.8537016085798800e+01 -4.2629753211265795e+00 0.0000000000000000e+00  -1.8472874199713047e+01 -1.8266162814525753e+00 0.0000000000000000e+00  -1.8364771808986280e+01 -8.8123365699484724e-01 0.0000000000000000e+00  -1.8260639407853198e+01 1.6019035742333783e+00 0.0000000000000000e+00  -1.8182407215427190e+01 1.6097512099231825e+00 0.0000000000000000e+00  -1.8166536130089842e+01 -1.8422368214433698e-03 0.0000000000000000e+00  -1.8181349087310629e+01 -9.9133591748646097e+00 0.0000000000000000e+00  -1.8166495004095033e+01 1.6137880295536452e-03 0.0000000000000000e+00  -1.8237753214398744e+01 -6.8793576594152430e+00 0.0000000000000000e+00  -1.1609189802812420e+01 5.3144589059889809e+00 0.0000000000000000e+00  -1.3006030308295580e+01 4.0322357893990750e+00 0.0000000000000000e+00  -1.1149942484548891e+01 8.5018077976596178e+00 0.0000000000000000e+00  -1.1053384461191623e+01 8.9412735560567160e+00 0.0000000000000000e+00  -1.0145824017368524e+01 1.0448799276207383e+01 0.0000000000000000e+00  -9.5760877841843737e+00 1.0641616149340457e+01 0.0000000000000000e+00  -8.8890011755156131e+00 1.0491359478512988e+01 0.0000000000000000e+00  -8.3228205470438983e+00 9.8333662731502862e+00 0.0000000000000000e+00  -7.5682612940290710e+00 9.4952615040509443e+00 0.0000000000000000e+00  -7.0771125226486102e+00 8.6573457402250877e+00 0.0000000000000000e+00  -6.7114499727846333e+00 7.6441891256352381e+00 0.0000000000000000e+00  -6.2910602081893421e+00 6.8336892078298659e+00 0.0000000000000000e+00  -5.8811247987853434e+00 6.0477315734407995e+00 0.0000000000000000e+00  -5.4852754761440998e+00 5.3114465017546477e+00 0.0000000000000000e+00  -5.0678308805337187e+00 4.7393811840345421e+00 0.0000000000000000e+00  -4.6778348574237318e+00 4.1809194574603028e+00 0.0000000000000000e+00  -4.3258979370223249e+00 3.6310355284879643e+00 0.0000000000000000e+00  -3.9838625709446238e+00 3.1932106864672867e+00 0.0000000000000000e+00  -3.6749800273256583e+00 2.7123127053802678e+00 0.0000000000000000e+00  -3.4112162105105543e+00 2.2912315996037322e+00 0.0000000000000000e+00  -3.1604804268416804e+00 1.8469834487735561e+00 0.0000000000000000e+00  -2.9417190575180170e+00 1.5608190585936075e+00 0.0000000000000000e+00  -2.7498778669107176e+00 1.0413547556548599e+00 0.0000000000000000e+00  -2.5723588046954515e+00 1.0196057933931737e+00 0.0000000000000000e+00  -2.3995590367563873e+00 3.4198284316560418e-01 0.0000000000000000e+00  -2.2284061588688311e+00 7.0627010745856444e-01 0.0000000000000000e+00  -2.0384136103575328e+00 3.2433073103533494e-02 0.0000000000000000e+00  -1.7495193718599942e+00 -2.3477073976615870e+00 0.0000000000000000e+00  -2.9522371942733927e+00 -4.1774731086258337e+00 0.0000000000000000e+00  -2.5808230226539237e+00 -4.9520938798042273e+00 0.0000000000000000e+00  -3.3585081749144856e+00 -4.2390742567647237e+00 0.0000000000000000e+00  -3.7191283596093472e+00 -4.7118799105675162e+00 0.0000000000000000e+00  -4.1796637816068039e+00 -4.8082150731748365e+00 0.0000000000000000e+00  -4.7112894389807769e+00 -5.3373047470952271e+00 0.0000000000000000e+00  -5.1282408949061216e+00 -5.4369229760809645e+00 0.0000000000000000e+00  -5.4307699971983139e+00 -5.4429159575414330e+00 0.0000000000000000e+00  -5.8373782692029490e+00 -5.4925233272666203e+00 0.0000000000000000e+00  -6.1051742893937950e+00 -5.3619997235240477e+00 0.0000000000000000e+00  -6.0494588104793898e+00 -4.5305229807569320e+00 0.0000000000000000e+00  -6.7966186917460263e+00 -4.5519616242005414e+00 0.0000000000000000e+00  -4.8319249113652960e+00 -3.7053360464050106e-01 0.0000000000000000e+00  -1.3212820291145881e+01 -1.1654701882670173e+01 0.0000000000000000e+00  -1.3706477201191168e+01 -1.1123087766635582e+01 0.0000000000000000e+00  -1.3930764271848549e+01 -1.0181732076629796e+01 0.0000000000000000e+00  -1.4222845962376164e+01 -9.3095353204685960e+00 0.0000000000000000e+00  -1.4641995835443220e+01 -8.7777146697079242e+00 0.0000000000000000e+00  -1.5201819330815530e+01 -8.3875728958062101e+00 0.0000000000000000e+00  -1.5843980489373223e+01 -8.1703351854422355e+00 0.0000000000000000e+00  -1.6506486751837198e+01 -7.9792202542893618e+00 0.0000000000000000e+00  -1.7127293764963422e+01 -7.7649158556177742e+00 0.0000000000000000e+00  -1.7654109801662702e+01 -7.1049286928861823e+00 0.0000000000000000e+00  -1.8050113031546065e+01 -6.6228137332920944e+00 0.0000000000000000e+00  -1.8304688442584208e+01 -5.1219597305453730e+00 0.0000000000000000e+00  -1.8421656460280904e+01 -4.2438246302238110e+00 0.0000000000000000e+00  -1.8427781181787623e+01 -1.9266399453459784e+00 0.0000000000000000e+00  -1.8360039990956196e+01 -1.0309066770079507e+00 0.0000000000000000e+00  -1.8266889475572736e+01 1.4549372029701984e+00 0.0000000000000000e+00  -1.8185167317420124e+01 1.5413204404440846e+00 0.0000000000000000e+00  -1.8169801020071304e+01 -2.6338180501418009e-03 0.0000000000000000e+00  -1.8175846904782581e+01 -9.8612968827261227e+00 0.0000000000000000e+00  -1.8169764252344379e+01 2.3072245266731670e-03 0.0000000000000000e+00  -1.8231392888266122e+01 -6.7855262161075816e+00 0.0000000000000000e+00  -1.8284415802082552e+01 -4.6419595167483623e+00 0.0000000000000000e+00  -1.1637094299180959e+01 6.1155599819721580e+00 0.0000000000000000e+00  -1.3020749530319813e+01 5.7191385314859779e+00 0.0000000000000000e+00  -1.1166908965838788e+01 8.8008297340519697e+00 0.0000000000000000e+00  -1.1078644224134784e+01 9.0972478663561720e+00 0.0000000000000000e+00  -1.0183443355751189e+01 9.7970003654059603e+00 0.0000000000000000e+00  -9.6274015922366356e+00 9.4724227529537348e+00 0.0000000000000000e+00  -8.9556311564042854e+00 8.9963126575278842e+00 0.0000000000000000e+00  -8.4050854816393663e+00 8.3763818812582151e+00 0.0000000000000000e+00  -7.6670445566927210e+00 7.9339923062057540e+00 0.0000000000000000e+00  -7.1930696741744073e+00 7.1097773725789679e+00 0.0000000000000000e+00  -6.8451966155239088e+00 6.2177153425864207e+00 0.0000000000000000e+00  -6.4434158332803380e+00 5.4480520387596805e+00 0.0000000000000000e+00  -6.0529527321310441e+00 4.7334702697456752e+00 0.0000000000000000e+00  -5.6771814085118599e+00 4.1293599932186851e+00 0.0000000000000000e+00  -5.2802769157128315e+00 3.6122632115628552e+00 0.0000000000000000e+00  -4.9110818279493769e+00 3.1195434682180787e+00 0.0000000000000000e+00  -4.5799182680237607e+00 2.6965003217323171e+00 0.0000000000000000e+00  -4.2585053048112238e+00 2.2650416863110219e+00 0.0000000000000000e+00  -3.9698548112011798e+00 1.9114482551624183e+00 0.0000000000000000e+00  -3.7259053380309828e+00 1.4861245114716950e+00 0.0000000000000000e+00  -3.4941881882677888e+00 1.2477509971610690e+00 0.0000000000000000e+00  -3.2940063708409104e+00 7.6757979297578294e-01 0.0000000000000000e+00  -3.1194912362141700e+00 7.6767693927625558e-01 0.0000000000000000e+00  -2.9592125114235088e+00 9.4828830323816310e-02 0.0000000000000000e+00  -2.8014156180979173e+00 4.6403502856012385e-01 0.0000000000000000e+00  -2.6472334488793252e+00 -2.4356331096771658e-01 0.0000000000000000e+00  -2.4677705760416870e+00 -2.7659758057388220e+00 0.0000000000000000e+00  -3.1272813246065803e+00 -3.6210242214397708e+00 0.0000000000000000e+00  -2.7815338353615493e+00 -4.4325659022817465e+00 0.0000000000000000e+00  -3.4975299488330118e+00 -3.6312075491612021e+00 0.0000000000000000e+00  -3.9012606516528456e+00 -4.1736461402167100e+00 0.0000000000000000e+00  -4.2576824782942895e+00 -4.1218051505915536e+00 0.0000000000000000e+00  -4.7113969546323062e+00 -4.5464869231785752e+00 0.0000000000000000e+00  -5.2330393048543851e+00 -4.8206622829531458e+00 0.0000000000000000e+00  -5.6364030270289671e+00 -5.0007503465839305e+00 0.0000000000000000e+00  -5.9218452081126847e+00 -4.8965144936923366e+00 0.0000000000000000e+00  -6.3084377800546587e+00 -4.9758421851741916e+00 0.0000000000000000e+00  -6.5545576351444366e+00 -4.6295808049787288e+00 0.0000000000000000e+00  -6.4772337549614090e+00 -3.4462988875994043e+00 0.0000000000000000e+00  -7.2036636708817667e+00 -3.3338040546057761e+00 0.0000000000000000e+00  -5.2149109790361345e+00 8.9554996847426738e-01 0.0000000000000000e+00  -1.3566280752424925e+01 -1.0402460844012159e+01 0.0000000000000000e+00  -1.4034772556845274e+01 -9.8598615430760024e+00 0.0000000000000000e+00  -1.4239112609455578e+01 -8.8866959020350595e+00 0.0000000000000000e+00  -1.4509809717845314e+01 -8.1661937743982751e+00 0.0000000000000000e+00  -1.4904255747064115e+01 -7.5688483208463717e+00 0.0000000000000000e+00  -1.5433908789836114e+01 -7.2312741959445219e+00 0.0000000000000000e+00  -1.6040788696391580e+01 -7.0132869338322426e+00 0.0000000000000000e+00  -1.6663234894130017e+01 -6.8641467513074872e+00 0.0000000000000000e+00  -1.7240151623743763e+01 -6.3470270389793031e+00 0.0000000000000000e+00  -1.7720566859272871e+01 -6.0607164346241964e+00 0.0000000000000000e+00  -1.8071043397539480e+01 -4.7718293278585531e+00 0.0000000000000000e+00  -1.8281863026627118e+01 -4.0932038391606191e+00 0.0000000000000000e+00  -1.8364090286398707e+01 -1.9394997454957132e+00 0.0000000000000000e+00  -1.8344000619858466e+01 -1.1354498109661932e+00 0.0000000000000000e+00  -1.8273554591839169e+01 1.3129419194464858e+00 0.0000000000000000e+00  -1.8192022651644159e+01 1.4658375812441031e+00 0.0000000000000000e+00  -1.8174