<?xml version="1.0"?>
<VTKFile type="UnstructuredGrid"  version="0.1"  >
<UnstructuredGrid>
<Piece  NumberOfPoints="1933" NumberOfCells="3640">
<Points>
<DataArray  type="Float64"  NumberOfComponents="3"  format="ascii">0.4754507152558579 0.0005385319921685033 0  5.475450717473153 0.0005174149557725927 0  5.4754824116697 7.50051743248303 0  0.4754824001621049 7.500538532812118 0  10.47545071635293 0.0004962759800141846 0  10.47548243619111 7.500496300610434 0  15.4754507235859 0.0004750938595331476 0  15.47548248196624 7.500475121449802 0  20.4754507545332 0.0004538592245930157 0  20.4754825576827 7.500453887991777 0  25.47545082511662 0.000432570340830172 0  25.47548267259107 7.500432599623209 0  30.47545095074698 0.0004112305167387892 0  30.4754828363248 7.500411260209452 0  35.47545114615858 0.0003898464920348113 0  35.4754830587687 7.500389876775628 0  40.47545142564076 0.0003684274797929232 0  40.47548335003428 7.500368458689536 0  45.47545180343463 0.0003469846612569802 0  45.47548372052676 7.500347017227934 0  50.47545229419342 0.000325531006838698 0  50.47548418107453 7.5003255654353 0  55.47545291346673 0.0003040813474964614 0  55.47548474309522 7.500304118216385 0  60.475453678199 0.0002826526571528756 0  60.47548541877863 7.500282692631695 0  65.47545460724733 0.0002612645349331311 0  65.47548622127005 7.500261308389231 0  70.47545572192892 0.0002399399002326869 0  70.47548716483865 7.500239988547692 0  75.47545704661403 0.000218705937868761 0  75.47548826501341 7.500218760469326 0  80.47545860937834 0.0001975953589227318 0  80.47548953865822 7.500197657087156 0  85.47546044272877 0.0001766480804000522 0  85.47549100394954 7.500176718586349 0  90.47546258440767 0.0001559134807395446 0  90.4754926801898 7.500155994647668 0  95.47546507826473 0.00013545346979165 0  95.47549458736258 7.500135547469972 0  100.4754679751444 0.0001153467396232785 0  100.475496745278 7.500115455889257 0  105.4754713336487 9.56947672679992e-05 0  105.4754991720861 7.500095821056854 0  110.4754752204509 7.663047474008134e-05 0  110.4755018818416 7.50007677434411 0  115.4754797094353 5.833100474312718e-05 0  115.475504880717 7.500058488414384 0  120.4754848781164 4.103699601931286e-05 0  120.4755081614476 7.500041192723802 0  125.4754907980569 2.508230408700129e-05 0  125.4755116959065 7.500025194966548 0  130.4754975124049 1.094076300900705e-05 0  130.475515426947 7.500010909804309 0  135.4755049861279 -6.98939484447661e-07 0  135.4755192643976 7.499998894648105 0  140.4755129986187 -8.812011938897187e-06 0  140.475523100294 7.499989887119729 0  145.4755209138287 -1.184332754083414e-05 0  145.4755268853269 7.499984826811594 0  150.4755271828149 -7.428785066520662e-06 0  150.4755308810603 7.499984830626717 0  160.4755282581476 4.436477459598335e-19 0  165.4754944596803 -4.095930363391066e-05 0  165.4755212909376 7.499953354426768 0  160.4755319488525 7.499985304778621 0  170.4754738418508 -7.822218299775353e-05 0  170.4755103047742 7.499918993989301 0  175.4754606329105 -0.0001130439767018353 0  175.4755008797621 7.499885405420019 0  180.4754518708484 -0.0001458608942451495 0  180.4754932740701 7.499853215290004 0  185.4754459079795 -0.000177003740170064 0  185.4754872968853 7.499822421749742 0  190.4754417798079 -0.0002067626744786742 0  190.4754826611505 7.499792867529001 0  195.4754388977605 -0.0002353817340487689 0  195.4754790936552 7.499764372841225 0  200.4754368882119 -0.0002630586044253976 0  200.4754763648105 7.499736774038475 0  205.4754355046725 -0.0002899508157499331 0  205.4754742909166 7.499709932445334 0  210.4754345784674 -0.0003161837059922716 0  210.4754727279021 7.499683733452364 0  215.4754339902694 -0.000341857718297565 0  215.4754715634753 7.499658082857877 0  220.4754336531863 -0.0003670542955509884 0  220.4754707100415 7.499632902932491 0  225.4754335023937 -0.0003918403833922464 0  225.47547009897 7.499608128994252 0  230.475433488569 -0.0004162717907889302 0  230.4754696761659 7.499583706650774 0  235.4754335735901 -0.000440395683990026 0  235.4754693987206 7.499559589647244 0  240.4754337276275 -0.000464252447009016 0  240.4754692323931 7.499535738203337 0  245.4754339271182 -0.0004878770868319407 0  245.475469149718 7.499512117724357 0  250.475434153317 -0.0005113003134636567 0  250.4754691285769 7.499488697791572 0  255.4754343912419 -0.0005345493879440714 0  255.4754691511162 7.499465451358381 0  260.4754346288959 -0.0005576488044463819 0  260.475469202923 7.499442354097543 0  265.4754348566942 -0.0005806208530782266 0  265.4754692723984 7.499419383859651 0  270.4754350670507 -0.0006034860954026408 0  270.4754693502849 7.499396520214978 0  275.4754352541053 -0.0006262637724333261 0  275.4754694293123 7.49937374406161 0  280.4754354135774 -0.0006489721518348859 0  280.4754695039445 7.499351037293764 0  285.4754355427574 -0.0006716288028542163 0  285.4754695701982 7.499328382538679 0  290.475435640651 -0.0006942507559890045 0  290.4754696255244 7.49930576299166 0  295.4754357083017 -0.0007168544431665736 0  295.4754696687259 7.499283162411927 0  300.4754357493127 -0.0007394551872646454 0  300.4754696998924 7.499260565392358 0  305.4754357705187 -0.0007620657317027046 0  305.4754697203708 7.499237958082608 0  310.4754357825793 -0.0007846926510219764 0  310.4754697329034 7.499215329593921 0  5.475514021291103 15.00051748024453 0  0.4755140070539349 15.00053853846035 0  10.47551405045179 15.0004963663816 0  15.47551410266341 15.00047519347316 0  20.47551418414676 15.00045396115716 0  25.47551430049645 15.00043267226572 0  30.47551445724588 15.00041133240854 0  35.47551466007704 15.00038994947507 0  40.47551491487893 15.00036853325542 0  45.47551522774977 15.00034709523825 0  50.47551560498103 15.0003256485912 0  55.47551605303229 15.00030420831615 0  60.47551657849108 15.00028279157518 0  65.47551718800494 15.0002614181933 0  70.47551788816709 15.00024011135786 0  75.47551868533179 15.00021889855092 0  80.4755195853282 15.00019781277032 0  85.47552059303517 15.00017689411975 0  90.47552171177043 15.00015619187757 0  95.47552294244257 15.0001357671901 0  100.4755242824198 15.00011569657342 0  105.4755257240984 15.00009607643881 0  110.4755272532383 15.00007702885218 0  115.475528847331 15.00005870862861 0  120.4755304746684 15.00004131149525 0  125.4755320955588 15.00002508208917 0  130.4755336684962 15.00001031825133 0  135.4755351661769 14.99999736280039 0  140.4755366086482 14.99998656192632 0  145.475538120486 14.99997814054868 0  150.4755400025277 14.99997186729122 0  165.4755389504338 14.9999390478652 0  160.4755413689793 14.99996523865367 0  170.4755350397391 14.99990990721792 0  175.4755304694339 14.99987970744322 0  180.4755259368791 14.99984959188391 0  185.4755218051966 14.99982006393903 0  190.475518214666 14.99979129227987 0  195.4755151849001 14.99976329155903 0  200.475512677872 14.99973601227336 0  205.4755106325698 14.99970938290375 0  210.4755089827472 14.9996833287407 0  215.4755076653121 14.99965777963192 0  220.4755066237669 14.99963267260484 0  225.4755058091542 14.99960795222128 0  230.4755051798295 14.99958357001269 0  235.4755047007475 14.99955948361432 0  240.4755043426019 14.99953565586684 0  245.4755040809804 14.9995120539901 0  250.4755038956047 14.99948864885951 0  255.4755037696751 14.99946541438382 0  260.4755036893179 14.99944232697218 0  265.4755036431272 14.99941936507526 0  270.4755036217878 14.99939650878773 0  275.4755036177628 14.99937373950254 0  280.4755036250324 14.99935103961257 0  285.4755036388719 14.99932839225974 0  290.4755036556514 14.99930578113567 0  295.4755036726649 14.99928319033275 0  300.4755036879918 14.99926060421491 0  305.4755037004514 14.99923800716916 0  310.4755037097686 14.99921538277217 0  5.475545515085511 22.50051759062088 0  0.4755455003760957 22.50053859953223 0  10.47554554130663 22.50049649960155 0  15.47554558598909 22.50047533502868 0  20.47554565367516 22.50045410414158 0  25.47554574761945 22.50043281433916 0  30.47554587046646 22.50041147385534 0  35.47554602460192 22.50039009203046 0  40.47554621229548 22.50036867942742 0  45.47554643571744 22.50034724793174 0  50.47554669688122 22.50032581090788 0  55.47554699753479 22.50030438344945 0  60.47554733901078 22.50028298274609 0  65.4755477220331 22.50026162858792 0  70.47554814647137 22.50024034402934 0  75.47554861103272 22.50021915624238 0  80.47554911287791 22.50019809759647 0  85.47554964715316 22.50017720701012 0  90.47555020643931 22.5001565316243 0  95.47555078014037 22.50013612884372 0  100.4755513538748 22.50011606876783 0  105.4755519090059 22.50009643696686 0  110.4755524225725 22.50007733740804 0  115.4755528680714 22.50005889502609 0  120.4755532178227 22.50004125682702 0  125.4755534479827 22.50002458928536 0  130.4755535475348 22.50000906778927 0  135.4755535323403 22.49999485053727 0  140.4755534635202 22.49998202432621 0  145.4755534636302 22.49997050466652 0  150.4755537099602 22.49995987891054 0  165.4755562454799 22.49992343370186 0  160.4755546066822 22.49994622997369 0  170.4755564351116 22.49989798767076 0  175.4755555208542 22.49987099324187 0  180.4755539222863 22.49984332535394 0  185.4755520000228 22.49981556335194 0  190.4755500059057 22.49978803741665 0  195.4755480937955 22.49976091104272 0  200.4755463462538 22.49973424826883 0  205.4755447992008 22.49970805802312 0  210.4755434602195 22.4996823207821 0  215.4755423208713 22.49965700377102 0  220.4755413645128 22.49963206928657 0  225.4755405710409 22.4996074790587 0  230.4755399196499 22.49958319639466 0  235.4755393903493 22.4995591871108 0  240.4755389647284 22.49953541981962 0  245.4755386262798 22.49951186588598 0  250.4755383604697 22.49948849922413 0  255.4755381546724 22.4994652960262 0  260.4755379980342 22.49944223447039 0  265.4755378813092 22.49941929443198 0  270.4755377966828 22.49939645720863 0  275.4755377375988 22.4993737052648 0  280.4755376985865 22.49935102199568 0  285.4755376750929 22.49932839150766 0  290.4755376633214 22.49930579840206 0  295.4755376600784 22.49928322752955
[...]
<PointData  Vectors="v"> 
<DataArray  type="Float64"  Name="v"  NumberOfComponents="3" format="ascii">3.3552768592608806e+00 6.6730318320566013e+00 0.0000000000000000e+00  3.8230287736063699e+00 6.0437091968571526e+00 0.0000000000000000e+00  3.3110135888718606e+00 5.3423465521489604e+00 0.0000000000000000e+00  2.9469337257012529e+00 6.1267319252772063e+00 0.0000000000000000e+00  4.3663052150925354e+00 6.3061831045770900e+00 0.0000000000000000e+00  3.7783018458802888e+00 5.4919888574365388e+00 0.0000000000000000e+00  4.7993032759365795e+00 6.8759455638418547e+00 0.0000000000000000e+00  4.3205225605341901e+00 6.2276870729452183e+00 0.0000000000000000e+00  5.1221679442701404e+00 6.7492938560038001e+00 0.0000000000000000e+00  4.7518531555216645e+00 6.2666616446131229e+00 0.0000000000000000e+00  5.5529857708748755e+00 7.1035850677002275e+00 0.0000000000000000e+00  5.0724693388436304e+00 6.4594180216962220e+00 0.0000000000000000e+00  5.8480466400392919e+00 6.9909595222734309e+00 0.0000000000000000e+00  5.5006196840937367e+00 6.5508449254457641e+00 0.0000000000000000e+00  5.8210625216979750e+00 6.4671465718754337e+00 0.0000000000000000e+00  5.7925163999240752e+00 6.5103123866585628e+00 0.0000000000000000e+00  6.5967527047881918e+00 7.0299678175655362e+00 0.0000000000000000e+00  5.7620400883989307e+00 5.8693871879814346e+00 0.0000000000000000e+00  4.6628214047365093e+00 3.5532228149152751e+00 0.0000000000000000e+00  6.5340180851668110e+00 6.4573581278034675e+00 0.0000000000000000e+00  1.3080273633050652e+01 1.5388443231082666e+01 0.0000000000000000e+00  4.5961943899305568e+00 2.7653437758935655e+00 0.0000000000000000e+00  1.3610363212108345e+01 1.5038619661966203e+01 0.0000000000000000e+00  1.3009175776680408e+01 1.4247268778196510e+01 0.0000000000000000e+00  1.3865515509517978e+01 1.4132873624314955e+01 0.0000000000000000e+00  1.3534765858565976e+01 1.3753500496749908e+01 0.0000000000000000e+00  1.4189402753533379e+01 1.3276190056823653e+01 0.0000000000000000e+00  1.3785669800701811e+01 1.2793821650550491e+01 0.0000000000000000e+00  1.4642070917859485e+01 1.2634774374908440e+01 0.0000000000000000e+00  1.4105211805979724e+01 1.1959093185483923e+01 0.0000000000000000e+00  1.5238886371183325e+01 1.2205291228422286e+01 0.0000000000000000e+00  1.4553703877151777e+01 1.1313562615255700e+01 0.0000000000000000e+00  1.5920808678242802e+01 1.1868869730661512e+01 0.0000000000000000e+00  1.5146199769078565e+01 1.0849055966070472e+01 0.0000000000000000e+00  1.6624822052744818e+01 1.1710966225229773e+01 0.0000000000000000e+00  1.5823931423178211e+01 1.0657761646748881e+01 0.0000000000000000e+00  1.7288171871936687e+01 1.1419509545837881e+01 0.0000000000000000e+00  1.6524368876885767e+01 1.0426905613462953e+01 0.0000000000000000e+00  1.7856195044389700e+01 1.1031807273325493e+01 0.0000000000000000e+00  1.7184454899748737e+01 1.0181146814732134e+01 0.0000000000000000e+00  1.8290254030796067e+01 1.0437599844096084e+01 0.0000000000000000e+00  1.7750230559203231e+01 9.7871471747692880e+00 0.0000000000000000e+00  1.8576255848850995e+01 9.6633647068470321e+00 0.0000000000000000e+00  1.8183147419730499e+01 9.2335867976172139e+00 0.0000000000000000e+00  1.8716923306597042e+01 8.3707703763263606e+00 0.0000000000000000e+00  1.8469715195626105e+01 8.1577559998548139e+00 0.0000000000000000e+00  1.8731057456598908e+01 7.2724402682124625e+00 0.0000000000000000e+00  1.8612007621745018e+01 7.2467891206308623e+00 0.0000000000000000e+00  1.8658177653610391e+01 5.2489195961066253e+00 0.0000000000000000e+00  1.8631339406638872e+01 5.3532285256331233e+00 0.0000000000000000e+00  1.8531593565871557e+01 3.9964670797572124e+00 0.0000000000000000e+00  1.8563775658644381e+01 4.1766463638974960e+00 0.0000000000000000e+00  1.8399316645052259e+01 1.4805016229144330e+00 0.0000000000000000e+00  1.8448703753038352e+01 1.6706164664268035e+00 0.0000000000000000e+00  1.8281992975734482e+01 5.6565775004481456e-01 0.0000000000000000e+00  1.8326043406719489e+01 7.2511817614195495e-01 0.0000000000000000e+00  1.8210705659405392e+01 -1.8211281283015617e+00 0.0000000000000000e+00  1.8228394702923833e+01 -1.7256112773871835e+00 0.0000000000000000e+00  1.8172537292971594e+01 -1.6745954674995784e+00 0.0000000000000000e+00  1.8171209964601235e+01 -1.6424493456599603e+00 0.0000000000000000e+00  1.8163563199401239e+01 1.5929892746500249e-11 0.0000000000000000e+00  1.8164429354163257e+01 8.6012085071527180e-04 0.0000000000000000e+00  1.8163563200133577e+01 -4.5975805590898809e-19 0.0000000000000000e+00  1.1543180703050620e+01 1.7563394209674319e-02 0.0000000000000000e+00  1.8177144728433916e+01 9.9443478737772182e+00 0.0000000000000000e+00  1.8164421980899800e+01 -8.7386037700150755e-04 0.0000000000000000e+00  1.2947402719041015e+01 -9.4460020402660172e-01 0.0000000000000000e+00  1.1559567334850421e+01 -3.0481836987061310e+00 0.0000000000000000e+00  1.1085684024345706e+01 -5.9983924483456743e+00 0.0000000000000000e+00  1.2965086723693089e+01 -3.2137450084223986e+00 0.0000000000000000e+00  1.0978459871885262e+01 -6.9681827549567803e+00 0.0000000000000000e+00  1.1107853959348773e+01 -6.8124237961628289e+00 0.0000000000000000e+00  1.0054424671361794e+01 -1.0021645326396493e+01 0.0000000000000000e+00  1.1007887503139933e+01 -8.6439017753069329e+00 0.0000000000000000e+00  9.4668916689998905e+00 -1.1174317352481104e+01 0.0000000000000000e+00  1.0092598174467495e+01 -1.0301787541126869e+01 0.0000000000000000e+00  8.7582680320612187e+00 -1.2356064984383483e+01 0.0000000000000000e+00  9.5148112037014130e+00 -1.1303590040024249e+01 0.0000000000000000e+00  8.1691731935837719e+00 -1.2546537486536906e+01 0.0000000000000000e+00  8.8175362859162405e+00 -1.1673563950003281e+01 0.0000000000000000e+00  7.3903012913142216e+00 -1.2499583190444488e+01 0.0000000000000000e+00  8.2405881999504214e+00 -1.1343154787925950e+01 0.0000000000000000e+00  6.8731398221957472e+00 -1.1732113908057617e+01 0.0000000000000000e+00  7.4745775896692823e+00 -1.0968753279488723e+01 0.0000000000000000e+00  6.4799937331013133e+00 -1.0813316824289384e+01 0.0000000000000000e+00  6.9711335609275764e+00 -1.0236472327019593e+01 0.0000000000000000e+00  6.0313508873954929e+00 -9.8711948883452063e+00 0.0000000000000000e+00  6.5922590375321066e+00 -9.2116093713551859e+00 0.0000000000000000e+00  5.5920600461637973e+00 -8.9267860473280400e+00 0.0000000000000000e+00  6.1583075161579082e+00 -8.2816505664489082e+00 0.0000000000000000e+00  5.1661385006725400e+00 -8.0811825515769495e+00 0.0000000000000000e+00  5.7342211741521503e+00 -7.4563100609187156e+00 0.0000000000000000e+00  4.7182079943387842e+00 -7.3075316709558011e+00 0.0000000000000000e+00  5.3238203767451804e+00 -6.6499296463766795e+00 0.0000000000000000e+00  4.2973100618412934e+00 -6.5634497774848519e+00 0.0000000000000000e+00  4.8916066409938503e+00 -5.9465678330074061e+00 0.0000000000000000e+00  3.9143059303579419e+00 -5.8936075722851600e+00 0.0000000000000000e+00  4.4866536070283241e+00 -5.3336185153358482e+00 0.0000000000000000e+00  3.5412576143506502e+00 -5.2632315168058481e+00 0.0000000000000000e+00  4.1196777042704245e+00 -4.7182633515935626e+00 0.0000000000000000e+00  3.2014751110964119e+00 -4.6487186595731416e+00 0.0000000000000000e+00  3.7626955438809886e+00 -4.1536378063776915e+00 0.0000000000000000e+00  2.9070247934316211e+00 -4.0931530317659810e+00 0.0000000000000000e+00  3.4389560955182930e+00 -3.6660545497113541e+00 0.0000000000000000e+00  2.6260609104515527e+00 -3.5244630294909958e+00 0.0000000000000000e+00  3.1605618447788055e+00 -3.1174679064963295e+00 0.0000000000000000e+00  2.3773743965623964e+00 -3.0352650400765837e+00 0.0000000000000000e+00  2.8954322871092035e+00 -2.6767199549573877e+00 0.0000000000000000e+00  2.1563385318737631e+00 -2.5019092336190583e+00 0.0000000000000000e+00  2.6626705733137905e+00 -2.1845006256946742e+00 0.0000000000000000e+00  1.9498227403078032e+00 -2.1530727106409020e+00 0.0000000000000000e+00  2.4570601013081435e+00 -1.8576889639640060e+00 0.0000000000000000e+00  1.7492020774741752e+00 -1.6042332339242475e+00 0.0000000000000000e+00  2.2664120884085439e+00 -1.3169026016272716e+00 0.0000000000000000e+00  1.5499246087816572e+00 -1.5719311214984304e+00 0.0000000000000000e+00  2.0804426097525215e+00 -1.2875733269805023e+00 0.0000000000000000e+00  1.3339000580476497e+00 -9.1958491079890392e-01 0.0000000000000000e+00  1.8973635968680589e+00 -6.0810617756246987e-01 0.0000000000000000e+00  1.0160668975580847e+00 -1.4606082071330428e+00 0.0000000000000000e+00  1.6944758577868468e+00 -9.9938077184250074e-01 0.0000000000000000e+00  5.0471249733737478e-01 -1.2331762095033254e+00 0.0000000000000000e+00  1.3947946724439138e+00 -4.7608490244811930e-01 0.0000000000000000e+00  -6.9770887701838169e-01 -1.8325127272447206e-01 0.0000000000000000e+00  8.9070525652852872e-01 1.5996787548584031e+00 0.0000000000000000e+00  3.0408037480650387e+00 4.7964841510964424e+00 0.0000000000000000e+00  2.6333349190910158e+00 5.5150937170558905e+00 0.0000000000000000e+00  3.4041711451170191e+00 4.7919588135875308e+00 0.0000000000000000e+00  3.8695513975996860e+00 5.4159420019392224e+00 0.0000000000000000e+00  4.4086682749848602e+00 5.6219961767518738e+00 0.0000000000000000e+00  4.8356522707090654e+00 5.9816379758356648e+00 0.0000000000000000e+00  5.1506291438011358e+00 5.9123575012604919e+00 0.0000000000000000e+00  5.5720435500568115e+00 6.0768143385162841e+00 0.0000000000000000e+00  5.8562776670944245e+00 5.9200450792263615e+00 0.0000000000000000e+00  5.8173635109958886e+00 5.3043557336761094e+00 0.0000000000000000e+00  6.5809700794820927e+00 5.6767966144854629e+00 0.0000000000000000e+00  4.6346440723038551e+00 1.6339061054428119e+00 0.0000000000000000e+00  1.3036439828212385e+01 1.2971982398959698e+01 0.0000000000000000e+00  1.3551120125430561e+01 1.2422750516970519e+01 0.0000000000000000e+00  1.3792852299566121e+01 1.1485618898389804e+01 0.0000000000000000e+00  1.4102780482932896e+01 1.0646272074992606e+01 0.0000000000000000e+00  1.4541522499337203e+01 9.9664851054872123e+00 0.0000000000000000e+00  1.5123389535059559e+01 9.6478835713992677e+00 0.0000000000000000e+00  1.5789711995106462e+01 9.3828542006014928e+00 0.0000000000000000e+00  1.6478569479197901e+01 9.1977624353646696e+00 0.0000000000000000e+00  1.7127073720863244e+01 8.9454533732516630e+00 0.0000000000000000e+00  1.7681443210271716e+01 8.5898224084106332e+00 0.0000000000000000e+00  1.8104530261392448e+01 7.7332351342488197e+00 0.0000000000000000e+00  1.8382753743491250e+01 7.0367672070751146e+00 0.0000000000000000e+00  1.8519576071669324e+01 5.3263588842087009e+00 0.0000000000000000e+00  1.8536699973098322e+01 4.2758396067641282e+00 0.0000000000000000e+00  1.8472635624954194e+01 1.8415508147670465e+00 0.0000000000000000e+00  1.8364595063097596e+01 8.9661712606274735e-01 0.0000000000000000e+00  1.8260528641515005e+01 -1.5845436785282747e+00 0.0000000000000000e+00  1.8182348155774818e+01 -1.5863142307228597e+00 0.0000000000000000e+00  1.8166525189690365e+01 1.6410267568740336e-03 0.0000000000000000e+00  1.8181389118302967e+01 9.8855673785789264e+00 0.0000000000000000e+00  1.8166511516599584e+01 -1.7683994048037926e-03 0.0000000000000000e+00  1.8237905369802487e+01 6.8770732727341652e+00 0.0000000000000000e+00  1.1610980364616962e+01 -5.3134881402728737e+00 0.0000000000000000e+00  1.3007617897175383e+01 -4.0258275335249172e+00 0.0000000000000000e+00  1.1150846101871988e+01 -8.4955567110780539e+00 0.0000000000000000e+00  1.1054616314127674e+01 -8.9334789956765448e+00 0.0000000000000000e+00  1.0146911906060447e+01 -1.0440849918815193e+01 0.0000000000000000e+00  9.5772092402103528e+00 -1.0633799497422691e+01 0.0000000000000000e+00  8.8900930435389931e+00 -1.0484099567952141e+01 0.0000000000000000e+00  8.3239943312993656e+00 -9.8263571808092181e+00 0.0000000000000000e+00  7.5695039259710777e+00 -9.4885781338671933e+00 0.0000000000000000e+00  7.0783219095689756e+00 -8.6510275770422478e+00 0.0000000000000000e+00  6.7123855245712098e+00 -7.6385168178181324e+00 0.0000000000000000e+00  6.2917746033572488e+00 -6.8284956146766467e+00 0.0000000000000000e+00  5.8816562758859758e+00 -6.0429422579533485e+00 0.0000000000000000e+00  5.4856778254675982e+00 -5.3069326584051861e+00 0.0000000000000000e+00  5.0681177640245494e+00 -4.7350822796220262e+00 0.0000000000000000e+00  4.6780409628099342e+00 -4.1768006179801258e+00 0.0000000000000000e+00  4.3260463508624865e+00 -3.6270619477282846e+00 0.0000000000000000e+00  3.9839547871191807e+00 -3.1893687201806489e+00 0.0000000000000000e+00  3.6750258202446191e+00 -2.7086562438978690e+00 0.0000000000000000e+00  3.4112237883556169e+00 -2.2877197779939964e+00 0.0000000000000000e+00  3.1604481493848393e+00 -1.8437259791512248e+00 0.0000000000000000e+00  2.9416429519243570e+00 -1.5577265291155082e+00 0.0000000000000000e+00  2.7497721634740926e+00 -1.0386539256126794e+00 0.0000000000000000e+00  2.5722050425711327e+00 -1.0169788128206656e+00 0.0000000000000000e+00  2.3993787505794386e+00 -3.4004101591076602e-01 0.0000000000000000e+00  2.2281821111481128e+00 -7.0408259773567328e-01 0.0000000000000000e+00  2.0381831835564856e+00 -3.1141198435687724e-02 0.0000000000000000e+00  1.7492682023944177e+00 2.3460534996603810e+00 0.0000000000000000e+00  2.9449304112498109e+00 4.1858470079344947e+00 0.0000000000000000e+00  2.5733861556919302e+00 4.9571222439863067e+00 0.0000000000000000e+00  3.3513256106600395e+00 4.2483887234609572e+00 0.0000000000000000e+00  3.7121038439233831e+00 4.7206357038877593e+00 0.0000000000000000e+00  4.1730660796929806e+00 4.8178272222213447e+00 0.0000000000000000e+00  4.7052958645360281e+00 5.3473810154373584e+00 0.0000000000000000e+00  5.1229107577454815e+00 5.4478521480105471e+00 0.0000000000000000e+00  5.4261090989312057e+00 5.4543728981136557e+00 0.0000000000000000e+00  5.8333960940495606e+00 5.5046829180285552e+00 0.0000000000000000e+00  6.1017700496765954e+00 5.3744798627144981e+00 0.0000000000000000e+00  6.0463576414545086e+00 4.5429681296909807e+00 0.0000000000000000e+00  6.7940801914485602e+00 4.5651061166534106e+00 0.0000000000000000e+00  4.8301489156722610e+00 3.8453160072382869e-01 0.0000000000000000e+00  1.3209619463678990e+01 1.1666540950498993e+01 0.0000000000000000e+00  1.3703614382531340e+01 1.1135144750211460e+01 0.0000000000000000e+00  1.3928308779045878e+01 1.0193948452080440e+01 0.0000000000000000e+00  1.4220777543493400e+01 9.3217676145377020e+00 0.0000000000000000e+00  1.4640274924967333e+01 8.7899436605000236e+00 0.0000000000000000e+00  1.5200395298450704e+01 8.3997063340711229e+00 0.0000000000000000e+00  1.5842806980293709e+01 8.1822099649586857e+00 0.0000000000000000e+00  1.6505523439154146e+01 7.9910727129065595e+00 0.0000000000000000e+00  1.7126504877177688e+01 7.7765885913277106e+00 0.0000000000000000e+00  1.7653469156541338e+01 7.1167447931700227e+00 0.0000000000000000e+00  1.8049594868276966e+01 6.6346077642159322e+00 0.0000000000000000e+00  1.8304280566791050e+01 5.1346914745991299e+00 0.0000000000000000e+00  1.8421337147927087e+01 4.2565822339091088e+00 0.0000000000000000e+00  1.8427549164710896e+01 1.9414832172681185e+00 0.0000000000000000e+00  1.8359874617674567e+01 1.0462075700612288e+00 0.0000000000000000e+00  1.8266794889950351e+01 -1.4376530032103327e+00 0.0000000000000000e+00  1.8185123260334837e+01 -1.5179586041205915e+00 0.0000000000000000e+00  1.8169797122571293e+01 2.3477132495452642e-03 0.0000000000000000e+00  1.8175875314977755e+01 9.8333783199071227e+00 0.0000000000000000e+00  1.8169784541194243e+01 -2.5586521078023771e-03 0.0000000000000000e+00  1.8231516452344707e+01 6.7831194752071902e+00 0.0000000000000000e+00  1.8284640444075674e+01 4.6408379692733384e+00 0.0000000000000000e+00  1.1638944739725078e+01 -6.1089047557106033e+00 0.0000000000000000e+00  1.3022412336168902e+01 -5.7117385624055004e+00 0.0000000000000000e+00  1.1167873237756968e+01 -8.7935196005422362e+00 0.0000000000000000e+00  1.1079938835191196e+01 -9.0890373644304336e+00 0.0000000000000000e+00  1.0184586546089150e+01 -9.7892231776158685e+00 0.0000000000000000e+00  9.6285752826097095e+00 -9.4651132694426803e+00 0.0000000000000000e+00  8.9567750049738706e+00 -8.9894344096709133e+00 0.0000000000000000e+00  8.4063164687372254e+00 -8.3697999241002954e+00 0.0000000000000000e+00  7.6683475807018153e+00 -7.9276371720110692e+00 0.0000000000000000e+00  7.1943444788589179e+00 -7.1037126353992903e+00 0.0000000000000000e+00  6.8462041972672196e+00 -6.2122029183169447e+00 0.0000000000000000e+00  6.4442076631872167e+00 -5.4430005492819111e+00 0.0000000000000000e+00  6.0535673716452623e+00 -4.7287737445337399e+00 0.0000000000000000e+00  5.6776733816037410e+00 -4.1248947889623366e+00 0.0000000000000000e+00  5.2806586716064059e+00 -3.6080298563577737e+00 0.0000000000000000e+00  4.9113880776093746e+00 -3.1154899898859427e+00 0.0000000000000000e+00  4.5801728077836614e+00 -2.6925781729074214e+00 0.0000000000000000e+00  4.2587078502691504e+00 -2.2613206784571762e+00 0.0000000000000000e+00  3.9700166549063285e+00 -1.9078832728244532e+00 0.0000000000000000e+00  3.7260327964282567e+00 -1.4828116867601133e+00 0.0000000000000000e+00  3.4942823255253121e+00 -1.2445941235121349e+00 0.0000000000000000e+00  3.2940577479554634e+00 -7.6484062813935527e-01 0.0000000000000000e+00  3.1195235461681716e+00 -7.6497395829522308e-01 0.0000000000000000e+00  2.9591915516232890e+00 -9.2855979049199219e-02 0.0000000000000000e+00  2.8013854555012974e+00 -4.6176999528770651e-01 0.0000000000000000e+00  2.6471488005396289e+00 2.4485729919114663e-01 0.0000000000000000e+00  2.4676569690822912e+00 2.7643111173003558e+00 0.0000000000000000e+00  3.1200092060689899e+00 3.6292194056802556e+00 0.0000000000000000e+00  2.7741122194851715e+00 4.4373870999965908e+00 0.0000000000000000e+00  3.4903781548341839e+00 3.6403366934745391e+00 0.0000000000000000e+00  3.8942265412988482e+00 4.1821592344190801e+00 0.0000000000000000e+00  4.2508116196894967e+00 4.1307773608049061e+00 0.0000000000000000e+00  4.7049473019147516e+00 4.5556487651909796e+00 0.0000000000000000e+00  5.2271947709246103e+00 4.8305974265871603e+00 0.0000000000000000e+00  5.6312184460402612e+00 5.0112078087816174e+00 0.0000000000000000e+00  5.9173283086612081e+00 4.9076583431312857e+00 0.0000000000000000e+00  6.3045959394697251e+00 4.9874627507423179e+00 0.0000000000000000e+00  6.5512924503044161e+00 4.6415955687808035e+00 0.0000000000000000e+00  6.4742712154772288e+00 3.4585984737475690e+00 0.0000000000000000e+00  7.2012602411142108e+00 3.3467646939413171e+00 0.0000000000000000e+00  5.2132659326201001e+00 -8.8186826044096078e-01 0.0000000000000000e+00  1.3563210262739291e+01 1.0414020266159740e+01 0.0000000000000000e+00  1.4032036510930201e+01 9.8714878442550802e+00 0.0000000000000000e+00  1.4236778739450438e+01 8.8983661907607772e+00 0.0000000000000000e+00  1.4507855628921309e+01 8.1779125267130208e+00 0.0000000000000000e+00  1.4902644335715106e+01 7.5805425862630944e+00 0.0000000000000000e+00  1.5432588838181275e+01 7.2427750741804005e+00 0.0000000000000000e+00  1.6039715027294466e+01 7.0248246029732586e+00 0.0000000000000000e+00  1.6662367173700098e+01 6.8755583434234815e+00 0.0000000000000000e+00  1.7239458060601407e+01 6.3586279503750758e+00 0.0000000000000000e+00  1.7720015291637694e+01 6.0723319729658796e+00 0.0000000000000000e+00  1.8070619100469845e+01 4.7844146169745452e+00 0.0000000000000000e+00  1.8281539617722427e+01 4.1058402021260338e+00 0.0000000000000000e+00  1.8363864162878688e+01 1.9542413324919674e+00 0.0000000000000000e+00  1.8343847363494376e+01 1.1506636432374351e+00 0.0000000000000000e+00  1.8273477631179215e+01 -1.2957332520095017e+00 0.0000000000000000e+00  1.8191995802992238e+01 -1.4425457693694381e+00 0.0000000000000000e+00  1.8174118532106441e+01 2.9769970868844613e-03 0.0000000000000000e+00  1.8176362920551909e+01 9.8130671427183476e+00 0.0000000000000000e+00  1.8174106525702566e+01 -3.2574063262245951e-03 0.0000000000000000e+00  1.8189995906929621e+01 6.7008605601091240e+00 0.0000000000000000e+00  1.8236003190455797e+01 4.5654541