<?xml version="1.0"?>
<VTKFile type="UnstructuredGrid"  version="0.1"  >
<UnstructuredGrid>
<Piece  NumberOfPoints="1933" NumberOfCells="3640">
<Points>
<DataArray  type="Float64"  NumberOfComponents="3"  format="ascii">0.2940328933837081 -0.001497007983384357 0  5.294032931912684 -0.001462859211336302 0  5.29398170587942 7.498537236545056 0  0.2939816500666388 7.498503059435179 0  10.29403299470024 -0.001428785370057698 0  10.29398179975434 7.498571316410134 0  15.29403312169713 -0.001394790524449585 0  15.29398194802629 7.498605310054108 0  20.29403334893885 -0.001360851145374779 0  20.2939821647445 7.498639246357635 0  25.2940337053395 -0.001326928911774242 0  25.29398246175162 7.498673165561915 0  30.29403421293344 -0.001292976941656591 0  30.29398284821409 7.498707115171117 0  35.29403488803036 -0.001258942710327822 0  35.29398333027068 7.498741147832714 0  40.2940357424025 -0.001224769140339897 0  40.29398391081207 7.498775320562205 0  45.2940367842215 -0.001190394604701669 0  45.29398458928351 7.498809694863386 0  50.29403801867735 -0.001155752219459754 0  50.29398536140366 7.498844337478926 0  55.2940394482764 -0.001120768601126659 0  55.2939862187087 7.498879321639864 0  60.29404107282098 -0.001085362142640213 0  60.2939871478407 7.498914728776461 0  65.29404288905454 -0.001049440776674731 0  65.29398812948594 7.498950650724344 0  70.29404488991432 -0.001012899123154476 0  70.29398913684908 7.498987192522675 0  75.29404706328675 -0.0009756148421867295 0  75.29399013350255 7.499024475965432 0  80.29404939006793 -0.0009374439193103269 0  80.29399107038596 7.499062644143653 0  85.29405184120827 -0.0008982144800301605 0  85.29399188164123 7.499101867312996 0  90.29405437318863 -0.0008577185424179328 0  90.29399247883876 7.499142350544501 0  95.29405692100546 -0.0008157008384426477 0  95.29399274298902 7.49918434376843 0  100.2940593870562 -0.000771843422652972 0  100.293992513556 7.499228154985449 0  105.2940616231176 -0.0007257441858656256 0  105.2939915735354 7.499274167537197 0  110.2940634003806 -0.0006768865502655614 0  110.2939896297282 7.499322862227979 0  115.2940643584158 -0.0006245965527958762 0  115.2939862880441 7.499374844351204 0  120.2940639162815 -0.000567982487504304 0  120.2939810260243 7.49943087330271 0  125.2940611146206 -0.000505852338994491 0  125.2939731711107 7.499491886243947 0  130.2940543305165 -0.0004366089222369387 0  130.2939619085203 7.499558992488708 0  135.2940407557167 -0.0003581432674267398 0  135.2939463777952 7.499633382718171 0  140.2940154310128 -0.0002678218926081188 0  140.2939259954404 7.499716032843891 0  145.2939694346493 -0.0001629407526715364 0  145.2939013151041 7.499806989161712 0  150.2938863807805 -4.314569456566339e-05 0  150.293876145726 7.4999040884702 0  160.2938926261457 1.094147565580318e-18 0  165.2938578181715 -7.981036285324903e-05 0  165.2938872846068 7.499903612965393 0  160.2938923058029 7.499961134957364 0  170.2938508063275 -0.0001311845151525048 0  170.2938818802085 7.499860733217185 0  175.2938563459305 -0.0001628099432362584 0  175.293879447563 7.499832987163473 0  180.2938672245157 -0.0001799962094476366 0  180.2938800032632 7.49981775390717 0  185.2938799485448 -0.0001864557190284384 0  185.2938827851331 7.499812327124345 0  190.2938928350581 -0.0001848623687117241 0  190.2938869995799 7.499814482416288 0  195.293905101237 -0.000177156639191313 0  195.2938920144708 7.499822500472108 0  200.2939164143844 -0.0001647570395032113 0  200.2938973767596 7.499835076923033 0  205.293926665654 -0.0001487113981831643 0  205.2939027808348 7.499851224419526 0  210.2939358552727 -0.0001298038082082209 0  210.2939080299611 7.499870191531302 0  215.2939440340944 -0.0001086294191585862 0  215.2939130035436 7.499891401065887 0  220.2939512738757 -8.564661279580649e-05 0  220.2939176325529 7.499914404703295 0  225.2939576523077 -6.121356985787921e-05 0  225.2939218821076 7.499938850021048 0  230.2939632456862 -3.561414490068162e-05 0  230.2939257395196 7.499964456539256 0  235.2939681255529 -9.076408874746458e-06 0  235.2939292062562 7.499990998219131 0  240.2939723574115 1.821387299509028e-05 0  240.2939322926119 7.500018290559376 0  245.2939760005369 4.610330244360036e-05 0  245.2939350142373 7.500046180981314 0  250.2939791083529 7.4463420265684e-05 0  250.2939373899246 7.500074541588633 0  255.2939817291289 0.0001031850944156925 0  255.2939394402543 7.500103263668392 0  260.2939839068497 0.0001321742559381688 0  260.2939411868218 7.500132253497693 0  265.293985682221 0.0001613486740282509 0  265.2939426518692 7.500161429164258 0  270.2939870937718 0.0001906355813933697 0  270.2939438581917 7.500190718218272 0  275.2939881790854 0.0002199700622132269 0  275.2939448292184 7.500220056063878 0  280.2939889761455 0.0002492942156423837 0  280.2939455891943 7.500249385084144 0  285.2939895248077 0.000278557227310141 0  285.2939461633816 7.500278654584757 0  290.2939898682923 0.0003077166440540885 0  290.2939465781906 7.500307821746866 0  295.2939900544933 0.0003367413844222562 0  295.2939468611838 7.50033685390366 0  300.2939901364921 0.0003656173600717144 0  300.2939470409238 7.500365732590013 0  305.2939901709265 0.0003943569982961463 0  305.293947146941 7.500394459942004 0  310.2939902111647 0.0004230139998021179 0  310.2939472108169 7.500423068215572 0  5.293930290438208 14.99853744039774 0  0.2939302342235396 14.99850322234866 0  10.29393037016303 14.99857151624905 0  15.29393048417186 14.99860549082986 0  20.29393063734905 14.99863940533453 0  25.29393083168007 14.99867330447484 0  30.29393106706263 14.99870723685979 0  35.29393134124254 14.99874125485697 0  40.29393164942287 14.99877541465963 0  45.29393198373688 14.99880977673194 0  50.29393233262274 14.99884440664376 0  55.29393268007637 14.9988793762816 0  60.29393300473286 14.9989147654408 0  65.29393327871892 14.99895066383383 0  70.29393346620807 14.99898717358198 0  75.29393352161509 14.99902441229009 0  80.29393338736652 14.99906251683216 0  85.29393299121642 14.99910164799411 0  90.2939322431431 14.99914199611232 0  95.2939310320219 14.99918378777378 0  100.2939292225783 14.99922729343279 0  105.2939266537469 14.99927283529366 0  110.2939231406659 14.9993207937162 0  115.2939184845087 14.99937160816153 0  120.2939124976036 14.99942576430058 0  125.293905056275 14.99948375060796 0  130.293896200468 14.99954595275444 0  135.2938863052641 14.99961242840948 0  140.2938763462694 14.99968246390126 0  145.2938682420728 14.99975374998042 0  150.2938651052164 14.99982087729092 0  165.2938868131136 14.99985813667309 0  160.2938846153947 14.99988328956436 0  170.2938847534143 14.99983532045015 0  175.2938815004954 14.99981894359541 0  180.2938786991166 14.99981002870387 0  185.2938769526787 14.99980811126782 0  190.2938763299205 14.99981222537291 0  195.2938766743006 14.99982134334343 0  200.2938777619974 14.99983454026231 0  205.2938793735761 14.99985103802743 0  210.2938813213721 14.99987020157938 0  215.2938834558995 14.99989151914482 0  220.2938856633043 14.99991457964682 0  225.2938878597213 14.9999390521683 0  230.2938899851965 14.99996466884313 0  235.293891998259 14.99999121116176 0  240.2938938714509 15.0000184992115 0  245.2938955878185 15.000046383287 0  250.293897138238 15.00007473736289 0  255.2938985194124 15.00010345401577 0  260.293899732397 15.00013244048112 0  265.2939007815165 15.00016161561489 0  270.2939016735755 15.00019090760322 0  275.2939024172775 15.00022025232357 0  280.2939030227772 15.00024959231189 0  285.293903501361 15.00027887633084 0  290.2939038652232 15.00030805955346 0  295.2939041274735 15.00033710435156 0  300.2939043025931 15.00036598155581 0  305.2939044078763 15.00039467171231 0  310.2939044668246 15.00042316504447 0  5.293878765513858 22.49853781136661 0  0.2938787127858611 22.4985036000123 0  10.29387882499395 22.49857185147921 0  15.29387889519801 22.49860577896461 0  20.29387897584627 22.4986396450115 0  25.29387906380962 22.49867349863758 0  30.29387915387341 22.49870738941047 0  35.29387923889713 22.49874136886455 0  40.29387930959931 22.498775491416 0  45.29387935413517 22.49880981518585 0  50.29387935755968 22.49884440292229 0  55.29387930121334 22.49887932310757 0  60.29387916204677 22.49891465129241 0  65.29387891189468 22.49895047168571 0  70.29387851672162 22.4989868790182 0  75.29387793589665 22.49902398068789 0  80.2938771216059 22.49906189916437 0  85.29387601861015 22.49910077456439 0  90.29387456470742 22.4991407671831 0  95.29387269250243 22.49918205952332 0  100.2938703334534 22.49922485692608 0  105.2938674257039 22.49926938513764 0  110.2938639279378 22.49931588183507 0  115.2938598423669 22.49936457697795 0  120.2938552507344 22.49941565347843 0  125.2938503672197 22.49946917479416 0  130.2938456097567 22.49952495993512 0  135.2938416833408 22.49958238133116 0  140.2938396496688 22.49964006497517 0  145.2938409188342 22.49969550847789 0  150.2938470359606 22.49974477075807 0  165.2938682724427 22.49980637789531 0  160.2938638817454 22.49980967259197 0  170.293868750811 22.49980089791385 0  175.293866861044 22.49979685012146 0  180.2938639515488 22.49979616654559 0  185.2938609216955 22.49979956650197 0  190.2938582614679 22.49980705776755 0  195.2938561781096 22.49981830170345 0  200.2938547109025 22.49983283000382 0  205.2938538114789 22.49985015778155 0  210.2938533934343 22.49986983550525 0  215.2938533603565 22.49989146815043 0  220.2938536202503 22.49991471812546 0  225.2938540919801 22.49993930095465 0  230.2938547073071 22.49996497832358 0  235.2938554106766 22.49999155070119 0  240.2938561579778 22.50001885050871 0  245.2938569149458 22.50004673618224 0  250.2938576555408 22.50007508718388 0  255.2938583604675 22.50010379989276 0  260.2938590158772 22.50013278426785 0  265.2938596122738 22.50016196117114 0  270.293860143595 22.50019126025419 0  275.2938606064576 22.50022061832594 0  280.2938609995527 22.50024997812918 0  285.2938613232091 22.50027928744483 0  290.2938615791752 22.50030849840162 0  295.2938617707475 22.5003375667676
[...]
<PointData  Scalars="p"> 
<DataArray  type="Float64"  Name="p"  format="ascii">1.0000000000000001e-01  1.0000000000000003e-01  9.9997412519148579e-02  1.0000000000000003e-01  1.0000000000000003e-01  9.9996295494811413e-02  1.0000000000000003e-01  9.9994408451168942e-02  1.0000000000000003e-01  9.9993141596357152e-02  1.0000000000000003e-01  9.9991724109346813e-02  1.0000000000000003e-01  9.9989897396166511e-02  1.0000000000000003e-01  9.9988716094634306e-02  1.0000000000000003e-01  9.9987460637422393e-02  1.0000000000000003e-01  9.9985446093778796e-02  1.0000000000000003e-01  9.9984201642487738e-02  1.0000000000000003e-01  9.9981005983874535e-02  1.0000000000000003e-01  9.9977624126099701e-02  1.0000000000000003e-01  9.9975112838284669e-02  1.0000000000000003e-01  9.9972657083821651e-02  1.0000000000000003e-01  9.9969069835805849e-02  1.0000000000000003e-01  9.9967288462964085e-02  1.0000000000000003e-01  9.9965120470552005e-02  1.0000000000000003e-01  9.9961603631807741e-02  1.0000000000000003e-01  9.9960972646832721e-02  1.0000000000000003e-01  9.9958422655069712e-02  1.0000000000000003e-01  9.9957169888274272e-02  1.0000000000000003e-01  9.9954809614239248e-02  1.0000000000000003e-01  9.9957331147982692e-02  1.0000000000000003e-01  9.9949964943895644e-02  1.0000000000000003e-01  9.9960018023497896e-02  1.0000000000000003e-01  9.9944218453305589e-02  1.0000000000000003e-01  9.9966248266183000e-02  1.0000000000000003e-01  9.9934706446788549e-02  1.0000000000000003e-01  9.9976142338317628e-02  1.0000000000000001e-01  9.9915575644626137e-02  1.0000000000000001e-01  1.0000000000000003e-01  1.0010158817062982e-01  1.0017172908348713e-01  1.0000000000000003e-01  1.0004470322643012e-01  1.0000000000000003e-01  1.0008289034274585e-01  1.0000000000000003e-01  1.0006557237030059e-01  1.0000000000000003e-01  1.0007245455372245e-01  1.0000000000000003e-01  1.0006839897663942e-01  1.0000000000000003e-01  1.0007238151855742e-01  1.0000000000000003e-01  1.0006903404398208e-01  1.0000000000000003e-01  1.0007042148776768e-01  1.0000000000000003e-01  1.0006981385342198e-01  1.0000000000000003e-01  1.0006909682392913e-01  1.0000000000000003e-01  1.0006850298131081e-01  1.0000000000000003e-01  1.0006823585526814e-01  1.0000000000000003e-01  1.0006712219891029e-01  1.0000000000000003e-01  1.0006656734877080e-01  1.0000000000000003e-01  1.0006593261208351e-01  1.0000000000000003e-01  1.0006510698481678e-01  1.0000000000000003e-01  1.0006432778292199e-01  1.0000000000000003e-01  1.0006393203420363e-01  1.0000000000000003e-01  1.0006280733201633e-01  1.0000000000000003e-01  1.0006277707592652e-01  1.0000000000000003e-01  1.0006120056185992e-01  1.0000000000000003e-01  1.0006225977559240e-01  1.0000000000000003e-01  1.0005872346367461e-01  1.0000000000000003e-01  1.0006341589254217e-01  1.0000000000000003e-01  1.0005399842139631e-01  1.0000000000000003e-01  1.0006847531721751e-01  1.0000000000000003e-01  1.0004323516631355e-01  1.0000000000000003e-01  1.0008675086705907e-01  1.0000000000000001e-01  1.0000000000000003e-01  9.9996495989082543e-02  1.0000000000000003e-01  9.9996101510054974e-02  9.9995752936927931e-02  9.9995209102284405e-02  9.9994087627692491e-02  9.9994071927018355e-02  9.9994002683549466e-02  9.9992525099956139e-02  9.9992970695524833e-02  9.9992559546836876e-02  9.9990135464285756e-02  9.9987724082175544e-02  9.9987104328402590e-02  9.9983591532052413e-02  9.9984670151995192e-02  9.9984099945448990e-02  9.9981259123000585e-02  9.9982604658299043e-02  9.9982762058284061e-02  9.9979121945718535e-02  9.9982653466176755e-02  9.9980613119857162e-02  9.9981728574025056e-02  9.9978819893352514e-02  9.9988146100056435e-02  9.9970320391198242e-02  1.0000099088640316e-01  9.9950031809396267e-02  1.0002751206660397e-01  9.9913573227319502e-02  9.9940079518112679e-02  1.0028778570324327e-01  1.0006802286817405e-01  1.0001674498522203e-01  1.0002315338385936e-01  1.0001881233290397e-01  1.0002951896084816e-01  1.0002087303583063e-01  1.0002606673386456e-01  1.0002646245154108e-01  1.0002533212021143e-01  1.0002561943561571e-01  1.0002661666151043e-01  1.0002506734996613e-01  1.0002515442252530e-01  1.0002528106421758e-01  1.0002430852896162e-01  1.0002417810782545e-01  1.0002408988765342e-01  1.0002358110640687e-01  1.0002313951976816e-01  1.0002352322795401e-01  1.0002226980009082e-01  1.0002348266027994e-01  1.0002110137385584e-01  1.0002472595823263e-01  1.0001768929287158e-01  1.0003016043609135e-01  1.0000842832736109e-01  1.0004205977360821e-01  1.0000000000000003e-01  9.9995190322168720e-02  1.0000000000000003e-01  9.9996346057916921e-02  9.9994409292291322e-02  9.9993155300241526e-02  9.9992628887936280e-02  9.9992562885491701e-02  9.9990323837240588e-02  9.9990747839248342e-02  9.9990967537609873e-02  9.9988061991173036e-02  9.9987782662363953e-02  9.9987765563245470e-02  9.9979481247955859e-02  9.9980213951416902e-02  9.9979042988085506e-02  9.9973901823151787e-02  9.9976381743593662e-02  9.9975826556882350e-02  9.9970774208742785e-02  9.9973829389938262e-02  9.9974711321951820e-02  9.9967950934121377e-02  9.9976026108145669e-02  9.9970196163025479e-02  9.9976426852930622e-02  9.9964927748211446e-02  9.9990765199949219e-02  9.9940064102559345e-02  1.0003081159136921e-01  9.9862456220693757e-02  9.9930005801016394e-02  1.0030352202441359e-01  1.0014084498349943e-01  1.0003382520883922e-01  1.0003579260132996e-01  1.0006059115739840e-01  1.0003504051953291e-01  1.0004950620977503e-01  1.0004962708743736e-01  1.0004706397959845e-01  1.0004816538921074e-01  1.0005093483089382e-01  1.0004771360732688e-01  1.0004852637191486e-01  1.0004903824912906e-01  1.0004715890216563e-01  1.0004695764035758e-01  1.0004719157571325e-01  1.0004577510043715e-01  1.0004568692648924e-01  1.0004542225581442e-01  1.0004495489062805e-01  1.0004402281586955e-01  1.0004516189424266e-01  1.0004242211059429e-01  1.0004587278236401e-01  1.0003982140859977e-01  1.0004964760057369e-01  1.0003097234566960e-01  1.0006655606599242e-01  1.0000000000000003e-01  9.9994457406173992e-02  1.0000000000000003e-01  9.9996267227759630e-02  9.9993678628652785e-02  9.9993672261549676e-02  9.9993675674567559e-02  9.9991502576306124e-02  9.9992168890423949e-02  9.9992860755499333e-02  9.9990207183211305e-02  9.9991441344428986e-02  9.9991935599808554e-02  9.9986517266090758e-02  9.9989012451723702e-02  9.9984520113901437e-02  9.9978842586074451e-02  9.9980999764572254e-02  9.9981702255503818e-02  9.9975611419305957e-02  9.9980814700542500e-02  9.9980453401509642e-02  9.9976019196274177e-02  9.9979732550332920e-02  9.9984286026705921e-02  9.9972533937640690e-02  9.9991342189572729e-02  9.9969576339027852e-02  1.0000375415411623e-01  9.9943049449565488e-02  1.0005147494503981e-01  9.9851654902588793e-02  9.9914502141340858e-02  1.0036343345526350e-01  1.0010214674108531e-01  1.0000233152780091e-01  1.0008038779268322e-01  1.0000172829125487e-01  1.0003634370441639e-01  1.0003106838104354e-01  1.0003024639640980e-01  1.0003055862686100e-01  1.0003682341055845e-01  1.0003150196772458e-01  1.0003390458250308e-01  1.0003512925582167e-01  1.0003284696306766e-01  1.0003294949322138e-01  1.0003358891717454e-01  1.0003184139508599e-01  1.0003170516118554e-01  1.0003208754383533e-01  1.0003076682788732e-01  1.0003112501754280e-01  1.0003045737165711e-01  1.0003115475396117e-01  1.0002878634552935e-01  1.0003293087549137e-01  1.0002542865770141e-01  1.0003769098908168e-01  1.0001741716580798e-01  1.0005031243072895e-01  1.0000000000000003e-01  9.9993697987284191e-02  1.0000000000000003e-01  9.9995715865749818e-02  9.9993785824924103e-02  9.9994371296214232e-02  9.9991468866233058e-02  9.9992240976435831e-02  9.9992432335131026e-02  9.9989761595828078e-02  9.9991244662207573e-02  9.9992221173549833e-02  9.9987579303264476e-02  9.9989720562544765e-02  9.9989070544388159e-02  9.9984382288212936e-02  9.9981878806429822e-02  9.9981714295145241e-02  9.9973998835491462e-02  9.9979142103471655e-02  9.9980120526159844e-02  9.9972221030157543e-02  9.9980413115296859e-02  9.9979144776139728e-02  9.9976009610394212e-02  9.9977489110550863e-02  9.9990303920668697e-02  9.9963399856373272e-02  1.0000954115315965e-01  9.9936333760707374e-02  1.0006275165819704e-01  9.9824045031159769e-02  9.9859188038887783e-02  1.0041900163637575e-01  1.0012106796995594e-01  1.0002622410935426e-01  1.0005893627178659e-01  1.0004254960550484e-01  1.0003706766818993e-01  1.0003626636419086e-01  1.0003164546255933e-01  1.0004591139155980e-01  1.0003551934692891e-01  1.0004048921262436e-01  1.0004275108091232e-01  1.0003967680242289e-01  1.0004016135192700e-01  1.0004186296840500e-01  1.0003907110293470e-01  1.0003918959128955e-01  1.0003961875112501e-01  1.0003809505703637e-01  1.0003777443055392e-01  1.0003844756903010e-01  1.0003679185542172e-01  1.0003792439061901e-01  1.0003609629807265e-01  1.0003890560437308e-01  1.0003316424198548e-01  1.0004360310254423e-01  1.0002459317142788e-01  1.0005848683559798e-01  1.0000000000000003e-01  9.9992779764836004e-02  1.0000000000000003e-01  9.9995843571919318e-02  9.9994068638344785e-02  9.9993004409025976e-02  9.9992733891853189e-02  9.9993105815792252e-02  9.9990304137374475e-02  9.9991363833675906e-02  9.9992829914614265e-02  9.9988849792009726e-02  9.9990808035227044e-02  9.9991729708192645e-02  9.9986115430550096e-02  9.9988273688442514e-02  9.9991215172334627e-02  9.9976550627357372e-02  9.9981615414423908e-02  9.9981502682550946e-02  9.9973248713678395e-02  9.9980687579967184e-02  9.9983463390750635e-02  9.9971867422119776e-02  9.9986383716190064e-02  9.9980164312300529e-02  9.9985667275812457e-02  9.9971387109428753e-02  1.0001636037939238e-01  9.9927447460226887e-02  1.0008435216308370e-01  9.9799996143999106e-02  9.9846004582556991e-02  1.0042079236066156e-01  1.0014440590531076e-01  9.9981691230272160e-02  1.0005668526425548e-01  1.0004433284784778e-01  1.0004839840586791e-01  1.0001220037207011e-01  1.0004621899514003e-01  1.0002290048177837e-01  1.0003431506348755e-01  1.0003671936825427e-01  1.0003314179309458e-01  1.0003385948363898e-01  1.0003747276907245e-01  1.0003348680952844e-01  1.0003422191950793e-01  1.0003531320989767e-01  1.0003281830412633e-01  1.0003290857081605e-01  1.0003328025451108e-01  1.0003220713804416e-01  1.0003155110894824e-01  1.0003311610937672e-01  1.0003021856215737e-01  1.0003402417439493e-01  1.0002792813614951e-01  1.0003838121718446e-01  1.0001999464247814e-01  1.0005186653735425e-01  1.0000000000000003e-01  9.9992266181683873e-02  1.0000000000000003e-01  9.9996075284553607e-02  9.9992637408115245e-02  9.9993731835394742e-02  9.9993467582304152e-02  9.9991119023128711e-02  9.9991319701240367e-02  9.9992790073825791e-02  9.9988779454362658e-02  9.9990867131889968e-02  9.9992313821893344e-02  9.9986481969664268e-02  9.9989371311709263e-02  9.9991836942622161e-02  9.9982742709158287e-02  9.9989857199445462e-02  9.9983829599160051e-02  9.9973261760199453e-02  9.9980275952732067e-02  9.9981552861382147e-02  9.9972272567584744e-02  9.9981052417376370e-02  9.9986867854763364e-02  9.9969126864734373e-02  9.9995233911711848e-02  9.9971150141241111e-02  1.0000962402612489e-01  9.9930542339340594e-02  1.0009524268480006e-01  9.9771351142377562e-02  9.9848268750164740e-02  1.0044913589275781e-01  1.0012503626262113e-01  9.9981400330388312e-02  1.0007339480587249e-01  1.0002423208240561e-01  1.0004456670500539e-01  1.0005768415103779e-01  1.0001785468851586e-01  1.0003643139589773e-01  1.0003540827443128e-01  1.0003441874764624e-01  1.0003356457317605e-01  1.0004006868775923e-01  1.0003451302249798e-01  1.0003620187938257e-01  1.0003797932744651e-01  1.0003520471285540e-01  1.0003508830009043e-01  1.0003612849823355e-01  1.0003385656922680e-01  1.0003421717294832e-01  1.0003406039982195e-01  1.0003408654699973e-01  1.0003229792883798e-01  1.0003587909934940e-01  1.0002970904927239e-01  1.0003999341015310e-01  1.0002222188210580e-01  1.0005374175362440e-01  1.0000000000000003e-01  9.9991902499578511e-02  1.0000000000000003e-01  9.9995318955105911e-02  9.9992905137315083e-02  9.9994360167878146e-02  9.9991629682091784e-02  9.9992333988379853e-02  9.9993081376032994e-02  9.9989349254252916e-02  9.9991087196397779e-02  9.9992551047305991e-02  9.9987205237336577e-02  9.9989901341840534e-02  9.9991964010423859e-02  9.9984451859665230e-02  9.9990328445263177e-02  9.9990873349864964e-02  9.9983734733817720e-02  9.9982251289829432e-02  9.9983703036341284e-02  9.9969993524881104e-02  9.9982642491216245e-02  9.9982492876958831e-02  9.9974496049830497e-02  9.9980663946846737e-02  9.9997426254271202e-02  9.9958576747020897e-02  1.0002270845525157e-01  9.9927213247501062e-02  1.0009784465466350e-01  9.9757272822285026e-02  9.9815142927953154e-02  1.0048134406894020e-01  1.0013205875320935e-01  9.9990137331150170e-02  1.0005012929363614e-01  1.0001643045017888e-01  1.0005568156945205e-01  1.0003346989924679e-01  1.0004675104915643e-01  1.0002548345161384e-01  1.0003405158170171e-01  1.0002540302528901e-01  1.0003902621631504e-01  1.0002987299627238e-01  1.0003321538762018e-01  1.0003587320371821e-01  1.0003262325550864e-01  1.0003285149906593e-01  1.0003473465090870e-01  1.0003197320640955e-01  1.0003177525635297e-01  1.0003286446912095e-01  1.0003062319782213e-01  1.0003178371275422e-01  1.0003037823457295e-01  1.0003292822333941e-01  1.0002747754300988e-01  1.0003765407575854e-01  1.0002009935324448e-01  1.0005055100497620e-01  1.0000000000000003e-01  9.9991224965344058e-02  1.0000000000000003e-01  9.9995495040416257e-02  9.9993268248148984e-02  9.9992875149930008e-02  9.9992373977856430e-02  9.9993687519297478e-02  9.9990249671030235e-02  9.9991427901506863e-02  9.9992748414804530e-02  9.9988149204700116e-02  9.9989798261096163e-02  9.9992052740959902e-02  9.9985045091411998e-02  9.9989411391499791e-02  9.9992333621144971e-02  9.9983754103757691e-02  9.9989185805007194e-02  9.9994716733124114e-02  9.9972560360372081e-02  9.9981730388607068e-02  9.9983934419261011e-02  9.9967682159301338e-02  9.9986781521506862e-02  9.9982143879772598e-02  9.9981393597153384e-02  9.9971268575896013e-02  1.0002513248747852e-01  9.9910630417895913e-02  1.0011573231009324e-01  9.9740389812380703e-02  9.9806883387530174e-02  1.0048033430567040e-01  1.0014924675838585e-01  9.9968033973043380e-02  1.0005127109552363e-01  1.0002864400580684e-01  1.0003531604534337e-01  1.0003241841700086e-01  1.0005122585091085e-01  1.0004402604483748e-01  1.0001786019398373e-01  1.0004212999047225e-01  1.0002521520269884e-01  1.0003281167467547e-01  1.0003531238459958e-01  1.0003213510872504e-01  1.0003210383205999e-01  1.0003565055261195e-01  1.0003193621723430e-01  1.0003251026826156e-01  1.0003347039628127e-01  1.0003151184255850e-01  1.0003088608857502e-01  1.0003260819681778e-01  1.0002963654394810e-01  1.0003292709721118e-01  1.0002800327064708e-01  1.0003706654461507e-01  1.0002059575282829e-01  1.0005025527475217e-01  1.0000000000000003e-01  9.9990974992432383e-02  1.0000000000000003e-01  9.9995750577475367e-02  9.9991917774634079e-02  9.9993388340079967e-02  9.9993285814462207e-02  9.9991186093181389e-02  9.9991664004226835e-02  9.9993185003079799e-02  9.9989056054147277e-02  9.9990323190895333e-02  9.9992403692047621e-02  9.9985557935896238e-02  9.9988772674807755e-02  9.9992166910737840e-02  9.9983646057491798e-02  9.9989438817049733e-02  9.9994679975843270e-02  9.9980383842485768e-02  9.9993510080971487e-02  9.9985428422837697e-02  9.9970082429282237e-02  9.9980825895648259e-02  9.9988126721958767e-02  9.9963873360427141e-02  9.9996858854514370e-02  9.9972672810115376e-02  1.0000768063355701e-01  9.9922900640981110e-02  1.0012205324647712e-01  9.9713437053793277e-02  9.9810344159759923e-02  1.0048843168857430e-01  1.0013623087221503e-01  9.9964925515130157e-02  1.0006371786282747e-01  1.0000944762621479e-01  1.0003280063897201e-01  1.0003795650258128e-01  1.0003680329144307e-01  1.0003594752440816e-01  1.0005320382088373e-01  1.0001657504322542e-01  1.0003305420881579e-01  1.0003039266312214e-01  1.0003071158894146e-01  1.0002883773379961e-01  1.0003456622692675e-01  1.0002990055831144e-01  1.0003089776504201e-01  1.0003290272223830e-01  1.0003025908770598e-01  1.0003042242101963e-01  1.0003080590085663e-01  1.0003006815839709e-01  1.0002842633181415e-01  1.0003196693712570e-01  1.0002615461080325e-01  1.0003550859196313e-01  1.0001968684893581e-01  1.0004801392479423e-01  1.0000000000000003e-01  9.9990806039448196e-02  1.0000000000000003e-01  9.9995085849420337e-02  9.9992132947374801e-02  9.9994061926091574e-02  9.9991338002611868e-02  9.9992191485888768e-02  9.9993075286607946e-02  9.9989930119320572e-02  9.9990978985654400e-02  9.9992956398835639e-02  9.9986844168505076e-02  9.9989000322719887e-02  9.9991482941652041e-02  9.9983752467941500e-02  9.9988792399846066e-02  9.9993183788639681e-02  9.9982085558918535e-02  9.9991724150191461e-02  9.9994163760946692e-02  9.9981932257063824e-02  9.9984349571954650e-02  9.9984906283510561e-02  9.9968144344268359e-02  9.9980870320505191e-02  9.9997552112428278e-02  9.9951454076693730e-02  1.0002409043858278e-01  9.9924989656441282e-02  1.0010412639484463e-01  9.9720651067899777e-02  9.9794055634922885e-02  1.0050005701887876e-01  1.0013679677819652e-01  9.9973806879365634e-02  1.0004993097975003e-01  1.0000786446579089e-01  1.0004321142628111e-01  1.0002361065159869e-01  1.0003113733550349e-01  1.0004410836219688e-01  1.0003712684387321e-01  1.0004250724582560e-01  1.0002447799585089e-01  1.0003192081373422e-01  1.0002395851425994e-01  1.0003488052480446e-01  1.0002768064047919e-01  1.0002986694740969e-01  1.0003225834698781e-01  1.0002973982851281e-01  1.0002961578891380e-01  1.0003177787480995e-01  1.0002885905759894e-01  1.0002976422066381e-01  1.0002886649164855e-01  1.0003054510750449e-01  1.0002580327228452e-01  1.0003497993583617e-01  1.0001924171425769e-01  1.0004683389172349e-01  1.0000000000000003e-01  9.9990316633134083e-02  1.0000000000000003e-01  9.9995192059123827e-02  9.9992510331937373e-02  9.9992605131776768e-02  9.9991862568498929e-02  9.9993357417355905e-02  9.9990288626378529e-02  9.9991228785894087e-02  9.9993092596965996e-02  9.9988420996995536e-02  9.9989629164794383e-02  9.9991752233319048e-02  9.9984625529110735e-02  9.9987591905641993e-02  9.9992156605407750e-02  9.9982316112952024e-02  9.9989409870813950e-02  9.9994605761018915e-02  9.9981942684537750e-02  9.9990515404325353e-02  1.0000063079885006e-01  9.9966520570262632e-02  9.9986994664300610e-02  9.9982489009937836e-02  9.9972759260426938e-02  9.9972432889496157e-02  1.0002505935602275e-01  9.9901428774863563e-02  1.0012061678502295e-01  9.9722508133122695e-02  9.9790226853749567e-02  1.0048457498455997e-01  1.0014624401548523e-01  9.9960715698324085e-02  1.0004824914721612e-01  1.0001749608782527e-01  1.0003062621005067e-01  1.0002031714415227e-01  1.0003941879756742e-01  1.0002878283939212e-01  1.0003425345632971e-01  1.0004350181903417e-01  1.0004150960851567e-01  1.0001644396176122e-01  1.0003654164009602e-01  1.0002280472824393e-01  1.0002855164605912e-01  1.0003047492427969e-01  1.0002812833706846e-01  1.0002791826844876e-01  1.0003082780396044e-01  1.0002836485555963e-01  1.0002820328355559e-01  1.0003011133404370e-01  1.0002686220999894e-01  1.0002956235818498e-01  1.0002547213327853e-01  1.0003314356228278e-01  1.0001857055639685e-01  1.0004503118351003e-01  1.0000000000000003e-01  9.9990116445385857e-02  1.0000000000000003e-01  9.9995376504390929e-02  9.9991269490146792e-02  9.9992895520505040e-02  9.9992565217860638e-02  9.9990956230375364e-02  9.9991112235837426e-02  9.9992782536605596e-02  9.9989072574773699e-02  9.9990209680679495e-02  9.9992147143296961e-02  9.9985936362491729e-02  9.9987501298317641e-02  9.9991321788694118e-02  9.9982404543238562e-02  9.9987185059124253e-02  9.9993420127108087e-02  9.9980908118928249e-02  9.9989845699540392e-02  9.9997861916476166e-02  9.9977565850797645e-02  9.9995926431834539e-02  9.9991041810852332e-02  9