<?xml version="1.0"?>
<VTKFile type="UnstructuredGrid"  version="0.1"  >
<UnstructuredGrid>
<Piece  NumberOfPoints="1933" NumberOfCells="3640">
<Points>
<DataArray  type="Float64"  NumberOfComponents="3"  format="ascii">0.4752977655900857 0.001181819723848256 0  5.475297801946441 0.001118462957410391 0  5.475392908212279 7.501118595674371 0  0.4753928251557384 7.501181870208432 0  10.47529783980252 0.001054975557803751 0  10.475393064974 7.501055139635876 0  15.47529794872796 0.0009912721864278348 0  15.47539333742172 7.500991447215342 0  20.4752982103489 0.0009273300496213431 0  20.47539376800879 7.500927508072929 0  25.47529870441339 0.0008631647913892343 0  25.47539440023527 7.500863343390946 0  30.47529950488468 0.0007988166803293273 0  30.47539527773283 7.500798995991918 0  35.4753006801146 0.0007343426583685515 0  35.47539644360577 7.500734524016595 0  40.47530229458231 0.0006698120712627317 0  40.47539794026495 7.500669997395971 0  45.47530441113149 0.0006053048489831328 0  45.47539980963229 7.500605496386358 0  50.47530709327372 0.0005409114219998606 0  50.47540209353375 7.500541111660405 0  55.47531040741063 0.0004767339837650552 0  55.47540483412811 7.500476945657606 0  60.47531442494183 0.0004128889314105265 0  60.47540807423943 7.500413115069637 0  65.47531922427625 0.0003495104848993061 0  65.47541185746705 7.500349754479808 0  70.47532489275699 0.0002867556325751819 0  70.47541622793494 7.500287021308936 0  75.47533152849773 0.0002248107051712559 0  75.47542122949432 7.500225102360935 0  80.47533924206628 0.0001639000680567212 0  80.47542690411026 7.500164222431077 0  85.47534815786437 0.000104297676289793 0  85.47543328904857 7.500104655660189 0  90.47535841486318 4.634260635052654e-05 0  90.47544041227803 7.500046740619879 0  95.47537016603621 -9.539765680908032e-06 0  95.4754482852418 7.499990900530252 0  100.4753835751899 -6.280841441319779e-05 0  100.475456891795 7.499937670581013 0  105.4753988087133 -0.0001127652876872576 0  105.4754661716569 7.499887735073218 0  110.4754160174342 -0.0001584959678551956 0  110.4754759963364 7.499841977978932 0  115.4754352992997 -0.0001987832230134487 0  115.4754861355144 7.499801551303213 0  120.4754566247844 -0.0002319794500409877 0  120.4754962133037 7.499767965596638 0  125.4754796896562 -0.0002558171532363536 0  125.475505659239 7.499743204211359 0  130.4755036255478 -0.0002671285617876939 0  130.4755136742615 7.49972985297269 0  135.4755264306466 -0.0002614430375489693 0  135.4755192715287 7.499731210876949 0  140.4755438439195 -0.0002324688874152278 0  140.4755215491496 7.499751293564615 0  145.4755470856952 -0.0001717194366993792 0  145.4755205927391 7.499794585835724 0  150.4755181352883 -6.993223794619476e-05 0  150.475520049416 7.499865708169104 0  160.475528258148 8.562390941724474e-19 0  165.4753679162576 -0.0002234299365022329 0  165.4755006438069 7.499742712920924 0  160.4755473768656 7.499920181705864 0  170.4752806962456 -0.0004131141640711424 0  170.475453178386 7.499569791113684 0  175.4752325731294 -0.0005784186480960148 0  175.4754142223759 7.499412158501249 0  180.475206237467 -0.0007247172661236737 0  180.4753847038718 7.499269841675109 0  185.475192401105 -0.0008561301259620447 0  185.4753632791937 7.499140628115279 0  190.4751859065913 -0.0009758938871019072 0  190.4753482081517 7.499022124148704 0  195.4751838058652 -0.001086503617844665 0  195.4753379283051 7.498912257176316 0  200.4751843645867 -0.001189859963883488 0  200.4753311875535 7.498809351205724 0  205.4751865318556 -0.001287409102581628 0  205.4753270297001 7.498712083174762 0  210.475189651767 -0.001380258556186681 0  210.4753247400126 7.498619414437413 0  215.4751933032123 -0.001469265866607135 0  215.475323788586 7.498530526732687 0  220.4751972088371 -0.001555103910909729 0  220.4753237829592 7.498444770056748 0  225.4752011819714 -0.00163830823065248 0  225.4753244316714 7.498361622499849 0  230.4752050948346 -0.001719311223782964 0  230.4753255173077 7.49828065999893 0  235.4752088589413 -0.001798466972429541 0  235.4753268769206 7.498201533711554 0  240.4752124126907 -0.001876069455096278 0  240.4753283879059 7.498123953053301 0  245.4752157133155 -0.001952366083412232 0  245.4753299578278 7.498047672885375 0  250.4752187315601 -0.002027567914054718 0  250.4753315170785 7.497972483733631 0  255.4752214481408 -0.002101857471467248 0  255.4753330135816 7.4978982042318 0  260.4752238514177 -0.002175394827509682 0  260.4753344089702 7.4978246752144 0  265.4752259359557 -0.002248322379403763 0  265.4753356758546 7.497751755058633 0  270.4752277017723 -0.002320768615133873 0  270.4753367959048 7.497679316008566 0  275.4752291541889 -0.00239285102954096 0  275.475337758536 7.497607241326585 0  280.4752303042601 -0.002464678229084944 0  280.4753385600523 7.497535423224749 0  285.4752311697966 -0.002536351107420622 0  285.4753392031158 7.497463761650373 0  290.4752317769907 -0.002607962739190199 0  290.4753396963926 7.497392164156739 0  295.4752321626099 -0.002679596241428842 0  295.4753400542704 7.497320547303433 0  300.4752323763987 -0.00275131913162904 0  300.4753402965464 7.49724884031833 0  305.4752324826467 -0.002823171363970753 0  305.4753404483309 7.497176992096893 0  310.4752325579441 -0.002895141707639817 0  310.4753405413674 7.497104982937899 0  5.475487570259708 15.00111891135298 0  0.475487476328887 15.00118199707147 0  10.47548773640632 15.00105552337048 0  15.47548801280603 15.00099184454188 0  20.47548842658345 15.0009278978941 0  25.47548900079266 15.00086372073125 0  30.47548975713615 15.00079936333754 0  35.47549071676188 15.00073488706453 0  40.4754919002639 15.00067036302275 0  45.4754933273741 15.00060587171569 0  50.47549501651275 15.00054150365312 0  55.47549698421309 15.00047736091793 0  60.47549924436318 15.00041355969032 0  65.47550180716985 15.00035023379717 0  70.4755046777187 15.00028753943399 0  75.47550785398229 15.00022566130121 0  80.47551132409728 15.00016482050192 0  85.47551506271876 15.00010528467041 0  90.47551902626401 15.00004738093087 0  95.47552314694494 14.99999151240236 0  100.4755273257042 14.99993817900525 0  105.4755314247272 14.99988800313903 0  110.4755352613082 14.99984176007052 0  115.4755386070631 14.99980041092437 0  120.4755412004926 14.99976513164905 0  125.4755427878239 14.9997373215863 0  130.4755432178661 14.99971855516996 0  135.4755426309061 14.99971039990453 0  140.4755417926429 14.99971394221331 0  145.4755426026996 14.99972868254432 0  150.4755486442416 14.99974994693765 0  165.4755746609267 14.99964956666826 0  160.475581480501 14.99977537925166 0  170.475558041342 14.99951356397 0  175.4755377783311 14.99937841718214 0  180.475517945892 14.99924936138402 0  185.4755004494307 14.99912797045211 0  190.4754859014994 14.99901413545475 0  195.4754742651998 14.99890710385018 0  200.4754652239718 14.99880595582064 0  205.4754583735679 14.99870980293466 0  210.4754533133732 14.9986178586859 0  215.4754496845206 14.99852945304112 0  220.4754471814738 14.99844402458848 0  225.4754455513352 14.99836110539541 0  230.4754445881728 14.99828030499983 0  235.4754441259439 14.99820129597123 0  240.4754440316012 14.99812380172016 0  245.4754441990294 14.99804758651406 0  250.4754445439715 14.9979724474079 0  255.4754449998975 14.99789820774794 0  260.4754455147054 14.99782471194133 0  265.4754460480924 14.99775182124085 0  270.4754465694851 14.99767941035993 0  275.4754470563794 14.99760736479398 0  280.4754474930008 14.99753557878204 0  285.4754478692044 14.99746395389325 0  290.4754481795512 14.99739239825228 0  295.4754484226467 14.99732082638586 0  300.4754486009197 14.99724915947668 0  305.4754487214356 14.99717732517204 0  310.4754487988262 14.99710525429513 0  5.47558171496389 22.50111957160794 0  0.4755816214121732 22.50118246956498 0  10.47558185691305 22.50105625173604 0  15.47558207631343 22.50099257866474 0  20.47558239032517 22.50092861103834 0  25.47558280943394 22.50086440650328 0  30.47558334054327 22.50080002611129 0  35.47558398842043 22.50073553635385 0  40.47558475609232 22.50067101029608 0  45.47558564461713 22.50060652860996 0  50.47558665248204 22.5005421809126 0  55.47558777474108 22.50047806762052 0  60.47558900193398 22.50041430244907 0  65.47559031877785 22.50035101566878 0  70.47559170261012 22.50028835823932 0  75.47559312156835 22.5002265069652 0  80.47559453252742 22.50016567083175 0  85.47559587889248 22.50010609867455 0  90.47559708849508 22.50004808827102 0  95.47559807209845 22.49999199676592 0  100.4755987234503 22.49993825194159 0  105.4755989225172 22.49988736303392 0  110.4755985445908 22.4998399282411 0  115.4755974794392 22.49979663322837 0  120.4755956664924 22.49975822992958 0  125.4755931536884 22.49972547652713 0  130.4755901873954 22.49969900613662 0  135.4755873347835 22.49967907251492 0  140.4755856193445 22.49966509901365 0  145.4755865979045 22.49965495151855 0  150.4755921966133 22.49964396004145 0  165.4756323755241 22.49954583743246 0  160.475620740547 22.49963991559521 0  170.4756346574136 22.49943882003618 0  175.4756303609944 22.49932637885882 0  180.4756223425881 22.49921363518683 0  185.475612801824 22.49910349263175 0  190.4756031560089 22.49899728321229 0  195.4755942000197 22.49889540104771 0  200.4755863084274 22.49879774350993 0  205.4755795986667 22.49870397668586 0  210.4755740436528 22.49861368199553 0  215.4755695432355 22.49852643146328 0  220.4755659669027 22.49844182290719 0  225.4755631778974 22.4983594937052 0  230.4755610459182 22.49827912369619 0  235.4755594530818 22.49820043296027 0  240.4755582960699 22.49812317749929 0  245.4755574862224 22.49804714433608 0  250.4755569485989 22.4979721467521 0  255.4755566206087 22.49789801996571 0  260.4755564504987 22.49782461734874 0  265.4755563958855 22.49775180718137 0  270.4755564223811 22.49767946990793 0  275.4755565023452 22.49760749584213 0  280.4755566137723 22.49753578326431 0  285.4755567393106 22.49746423683167 0  290.4755568654618 22.4973927661644 0  295.4755569820523 22.4973212843213 0  300.4755
[...]
<PointData  Scalars="p"> 
<DataArray  type="Float64"  Name="p"  format="ascii">1.0000000000000001e-01  1.0000000000000003e-01  1.0000212144279272e-01  1.0000000000000003e-01  1.0000000000000003e-01  1.0000133932975143e-01  1.0000000000000003e-01  1.0000202691742398e-01  1.0000000000000003e-01  1.0000187659765875e-01  1.0000000000000003e-01  1.0000227958794838e-01  1.0000000000000003e-01  1.0000375325353535e-01  1.0000000000000003e-01  1.0000382323439108e-01  1.0000000000000003e-01  1.0000482791465445e-01  1.0000000000000003e-01  1.0000656358556109e-01  1.0000000000000003e-01  1.0000528808337603e-01  1.0000000000000003e-01  1.0001250799640744e-01  1.0000000000000003e-01  1.0001387403275219e-01  1.0000000000000003e-01  1.0001712489156904e-01  1.0000000000000003e-01  1.0001904625608510e-01  1.0000000000000003e-01  1.0002517822771538e-01  1.0000000000000003e-01  1.0002712246780879e-01  1.0000000000000003e-01  1.0003239562867096e-01  1.0000000000000003e-01  1.0004018024760468e-01  1.0000000000000003e-01  1.0004314891680458e-01  1.0000000000000003e-01  1.0005244797542778e-01  1.0000000000000003e-01  1.0005860024121167e-01  1.0000000000000003e-01  1.0006944210448038e-01  1.0000000000000003e-01  1.0007007288549911e-01  1.0000000000000003e-01  1.0009484184582955e-01  1.0000000000000003e-01  1.0007750922072939e-01  1.0000000000000003e-01  1.0012681600565376e-01  1.0000000000000003e-01  1.0007739226702257e-01  1.0000000000000003e-01  1.0016845836354038e-01  1.0000000000000003e-01  1.0006550929503588e-01  1.0000000000000001e-01  1.0023417346679911e-01  1.0000000000000001e-01  1.0000000000000003e-01  9.9863377915418841e-02  9.9659074212320578e-02  1.0000000000000003e-01  9.9984608170170547e-02  1.0000000000000003e-01  9.9896338588774697e-02  1.0000000000000003e-01  9.9948965540053517e-02  1.0000000000000003e-01  9.9935863174817480e-02  1.0000000000000003e-01  9.9950097642395402e-02  1.0000000000000003e-01  9.9946677294141376e-02  1.0000000000000003e-01  9.9958833912833459e-02  1.0000000000000003e-01  9.9958425335009274e-02  1.0000000000000003e-01  9.9963363998619437e-02  1.0000000000000003e-01  9.9967334808534841e-02  1.0000000000000003e-01  9.9970137889537097e-02  1.0000000000000003e-01  9.9972200852077781e-02  1.0000000000000003e-01  9.9975593852516642e-02  1.0000000000000003e-01  9.9977140126070910e-02  1.0000000000000003e-01  9.9978781030543529e-02  1.0000000000000003e-01  9.9980754929047275e-02  1.0000000000000003e-01  9.9981920526463000e-02  1.0000000000000003e-01  9.9982879058738386e-02  1.0000000000000003e-01  9.9984199336485904e-02  1.0000000000000003e-01  9.9984813258092997e-02  1.0000000000000003e-01  9.9985658581476566e-02  1.0000000000000003e-01  9.9986073362220956e-02  1.0000000000000003e-01  9.9987129308117248e-02  1.0000000000000003e-01  9.9986566521216319e-02  1.0000000000000003e-01  9.9988719411180343e-02  1.0000000000000003e-01  9.9986211532250055e-02  1.0000000000000003e-01  9.9991281475082794e-02  1.0000000000000003e-01  9.9983206905563018e-02  1.0000000000000001e-01  1.0000000000000003e-01  1.0000471642196423e-01  1.0000000000000003e-01  1.0000398339420305e-01  1.0000416009899744e-01  1.0000471478026361e-01  1.0000664577482636e-01  1.0000634488301369e-01  1.0000693624546429e-01  1.0000996461183741e-01  1.0000817774519695e-01  1.0000968148658018e-01  1.0001070705071348e-01  1.0001958526343828e-01  1.0001488244575589e-01  1.0002301427947184e-01  1.0001870387113307e-01  1.0002310947628247e-01  1.0002937451689153e-01  1.0002846253858269e-01  1.0003228526892070e-01  1.0004266596442005e-01  1.0003817683386272e-01  1.0004916358852667e-01  1.0004968806768381e-01  1.0006155115345698e-01  1.0004569063883023e-01  1.0009120213760204e-01  1.0001935650287651e-01  1.0014850254899973e-01  9.9950996069784595e-02  1.0023637011698903e-01  1.0016453789731654e-01  9.9517460434282001e-02  9.9825472354511960e-02  9.9981955943709760e-02  9.9953799258505976e-02  9.9963165799344070e-02  9.9947811790155605e-02  9.9972195063116776e-02  9.9961661732984403e-02  9.9967079892219507e-02  9.9972876291560264e-02  9.9973708207324374e-02  9.9974372406192002e-02  9.9979781723758931e-02  9.9980074290987639e-02  9.9981167011877065e-02  9.9984190944014617e-02  9.9984872844764913e-02  9.9985610703145406e-02  9.9987639849892007e-02  9.9988335765960890e-02  9.9988943879375305e-02  9.9990490597883383e-02  9.9990882350918422e-02  9.9991997931111076e-02  9.9992223586935061e-02  9.9994196114304726e-02  9.9992427850126214e-02  9.9997254321384343e-02  9.9991419572551782e-02  1.0000000000000003e-01  1.0000755540541710e-01  1.0000000000000003e-01  1.0000445900241740e-01  1.0000639139149448e-01  1.0000822523596993e-01  1.0000810910475740e-01  1.0000877546045299e-01  1.0001305085858488e-01  1.0001186776318195e-01  1.0001265553502615e-01  1.0001696445121867e-01  1.0001842510642552e-01  1.0001245349994592e-01  1.0003611115742291e-01  1.0002460289308784e-01  1.0003045340045003e-01  1.0003896021745821e-01  1.0003527404230690e-01  1.0004133059343005e-01  1.0005439560202209e-01  1.0005116187123203e-01  1.0005778607758962e-01  1.0007667744140945e-01  1.0006490582622933e-01  1.0008858380891611e-01  1.0007895229706927e-01  1.0011179121761361e-01  1.0006033488715692e-01  1.0017909068017497e-01  9.9963255402786347e-02  1.0036776709266863e-01  1.0007560736089349e-01  9.9613588133917158e-02  9.9771133777132412e-02  9.9959763179946412e-02  9.9938302743533575e-02  9.9903162543361457e-02  9.9964348233208461e-02  9.9930032672252228e-02  9.9942829850837300e-02  9.9954000777675925e-02  9.9953835836227772e-02  9.9953888385061293e-02  9.9964912142814485e-02  9.9964188737846960e-02  9.9966109819222090e-02  9.9972173253661992e-02  9.9972922773916034e-02  9.9973900155399753e-02  9.9977963210813578e-02  9.9978699745815372e-02  9.9979728438633717e-02  9.9982286909232096e-02  9.9983315762648933e-02  9.9984038130718156e-02  9.9986264727245575e-02  9.9986477129536885e-02  9.9988600805414315e-02  9.9987862159065757e-02  9.9992344873531452e-02  9.9986401860277740e-02  1.0000000000000003e-01  1.0000941419235178e-01  1.0000000000000003e-01  1.0000573255748813e-01  1.0001021513348581e-01  1.0000931405990542e-01  1.0001018809721308e-01  1.0001487695810969e-01  1.0001377819521913e-01  1.0001487941661680e-01  1.0002071389687982e-01  1.0001850017052226e-01  1.0001884374914469e-01  1.0003176728730520e-01  1.0001639386515122e-01  1.0003914448604070e-01  1.0003968063982648e-01  1.0003703184646330e-01  1.0003836581910715e-01  1.0005413683870960e-01  1.0004534934036637e-01  1.0005542051410153e-01  1.0006849588318391e-01  1.0006610849713152e-01  1.0006741865766688e-01  1.0009791326614630e-01  1.0006304267429894e-01  1.0012152228431399e-01  1.0004657009605576e-01  1.0018486275986851e-01  9.9938960846898336e-02  1.0038672659356704e-01  1.0005689138471893e-01  9.9505663255316082e-02  9.9861814452360920e-02  9.9975071826463424e-02  9.9821574226983290e-02  1.0000504831665945e-01  9.9909781071761933e-02  9.9940841407419947e-02  9.9947631141347720e-02  9.9949340677786908e-02  9.9944256746037186e-02  9.9962217311457477e-02  9.9958255483857533e-02  9.9960429803136061e-02  9.9968674347676215e-02  9.9969265288371897e-02  9.9970048440134865e-02  9.9975779718140534e-02  9.9976299271166066e-02  9.9977281913696578e-02  9.9980960714577294e-02  9.9981797316274323e-02  9.9983018184347211e-02  9.9985286433866630e-02  9.9986836901353501e-02  9.9987222118501445e-02  9.9990402377662047e-02  9.9989158150616153e-02  9.9994289989316879e-02  9.9989159732533292e-02  1.0000000000000003e-01  1.0001131221443525e-01  1.0000000000000003e-01  1.0000807029622429e-01  1.0001098354036694e-01  1.0001056113032894e-01  1.0001573677265986e-01  1.0001450277214276e-01  1.0001601718549737e-01  1.0002269586276845e-01  1.0002030333776958e-01  1.0002098569990170e-01  1.0003234188766569e-01  1.0002528568863013e-01  1.0003271309846729e-01  1.0003058899230619e-01  1.0004888435782948e-01  1.0004091766084602e-01  1.0005937774294421e-01  1.0004725514917423e-01  1.0005533352860820e-01  1.0007447186149297e-01  1.0006252065715221e-01  1.0007716366547983e-01  1.0008972433688365e-01  1.0009258981382714e-01  1.0008008674045878e-01  1.0013986833121838e-01  1.0004823421278940e-01  1.0020974327440134e-01  9.9932603021636437e-02  1.0044414067398123e-01  1.0014893476699835e-01  9.9451485083734359e-02  9.9804021908361781e-02  9.9914824672997948e-02  9.9920151413187192e-02  9.9889136900110559e-02  9.9928027151916607e-02  9.9933880118774340e-02  9.9941203002510318e-02  9.9921971101650492e-02  9.9954453543018018e-02  9.9944260954238487e-02  9.9947406998964441e-02  9.9959401578625123e-02  9.9959267140889499e-02  9.9959460335499295e-02  9.9968565223065700e-02  9.9968701824575998e-02  9.9969676386108000e-02  9.9975034280787661e-02  9.9975942987719904e-02  9.9976863184149820e-02  9.9980696465873431e-02  9.9981609443342639e-02  9.9983293063488451e-02  9.9985186584730781e-02  9.9987671522332802e-02  9.9987003446676284e-02  9.9992489569800294e-02  9.9987201974176432e-02  1.0000000000000003e-01  1.0001353558900108e-01  1.0000000000000003e-01  1.0000840566780284e-01  1.0001234536059030e-01  1.0001502758936828e-01  1.0001546599605689e-01  1.0001621918960549e-01  1.0002298618833889e-01  1.0002150277281821e-01  1.0002219234628953e-01  1.0003182957514595e-01  1.0002823841773259e-01  1.0003149677771750e-01  1.0004067199009113e-01  1.0003966023111657e-01  1.0002510949563684e-01  1.0007249259296903e-01  1.0004649458686410e-01  1.0005719845767289e-01  1.0007281450417120e-01  1.0006199323247533e-01  1.0006832372496648e-01  1.0009751686082285e-01  1.0007345774039907e-01  1.0010096579033616e-01  1.0009679909717699e-01  1.0012882026406787e-01  1.0005287964165062e-01  1.0022893160462423e-01  9.9907529622610514e-02  1.0048811237133765e-01  1.0011456686012787e-01  9.9492231577616108e-02  9.9755606044729411e-02  9.9997834752709930e-02  9.9878236295078901e-02  9.9901025536923344e-02  9.9893292103019962e-02  9.9960893724861874e-02  9.9895256717629111e-02  9.9959614497913796e-02  9.9931296765353603e-02  9.9938405276484607e-02  9.9953267406285212e-02  9.9953063929973579e-02  9.9951052934831516e-02  9.9964211430029051e-02  9.9963079280790235e-02  9.9964069267102454e-02  9.9971766280812030e-02  9.9972261494386205e-02  9.9972957075538771e-02  9.9978073798972403e-02  9.9979118053948615e-02  9.9980074675169631e-02  9.9984003360156046e-02  9.9984600540966972e-02  9.9987367215409129e-02  9.9987592808297693e-02  9.9992783934753457e-02  9.9988041589179580e-02  1.0000000000000003e-01  1.0001473451785035e-01  1.0000000000000003e-01  1.0000904086321537e-01  1.0001622306642807e-01  1.0001470732409541e-01  1.0001665365240286e-01  1.0002251683934942e-01  1.0002176611361049e-01  1.0002246342134609e-01  1.0003195598099329e-01  1.0002821761627216e-01  1.0003096233867340e-01  1.0004336506704628e-01  1.0003850816682623e-01  1.0003618726849686e-01  1.0006022838054782e-01  1.0002935546921790e-01  1.0006934441266564e-01  1.0007408305552465e-01  1.0006319337237489e-01  1.0006828286325170e-01  1.0009292769678553e-01  1.0007830690295950e-01  1.0008365122313297e-01  1.0012434823718978e-01  1.0008013169456885e-01  1.0013941167673075e-01  1.0007409394323570e-01  1.0021942241941129e-01  9.9913100750779665e-02  1.0052449330507822e-01  1.0009105333976057e-01  9.9443311753614691e-02  9.9812170868756572e-02  9.9959120965279993e-02  9.9844891722291607e-02  9.9940382090730362e-02  9.9910744327008708e-02  9.9860830827152872e-02  9.9968064150525587e-02  9.9915759839477064e-02  9.9931318214052184e-02  9.9942153236648318e-02  9.9945925374789843e-02  9.9939276746415617e-02  9.9958365672229849e-02  9.9955519724683653e-02  9.9955969377676021e-02  9.9965901577570002e-02  9.9966703750678218e-02  9.9967054179062001e-02  9.9973937277021377e-02  9.9974603751759927e-02  9.9975818804829267e-02  9.9980027644643685e-02  9.9981768331340787e-02  9.9982606823151757e-02  9.9986827019825406e-02  9.9986368180320737e-02  9.9991758831646044e-02  9.9987388169893193e-02  1.0000000000000003e-01  1.0001591834142366e-01  1.0000000000000003e-01  1.0001108481788512e-01  1.0001611070871509e-01  1.0001537300962439e-01  1.0002189136656162e-01  1.0002098981694180e-01  1.0002237107456763e-01  1.0003096336733132e-01  1.0002803552852443e-01  1.0002941297118914e-01  1.0004240753599135e-01  1.0003768227834314e-01  1.0003871731977314e-01  1.0005687651430646e-01  1.0004144195871864e-01  1.0005400699181552e-01  1.0005096707153928e-01  1.0007746904625035e-01  1.0006467800164213e-01  1.0009723300438873e-01  1.0006964659590133e-01  1.0008689884374782e-01  1.0010833652620825e-01  1.0009994544752278e-01  1.0008737178133247e-01  1.0016426719416556e-01  1.0005153026728092e-01  1.0023068319783250e-01  9.9924253482655767e-02  1.0052683912956234e-01  1.0014963163986414e-01  9.9394160055475883e-02  9.9777471498318712e-02  9.9928868992987113e-02  9.9891295039358216e-02  9.9926114704188940e-02  9.9871798862817981e-02  9.9938569437039770e-02  9.9882994621678309e-02  9.9940165071043974e-02  9.9927880911203373e-02  9.9946950007516619e-02  9.9924729784968511e-02  9.9955216627298282e-02  9.9948133711380324e-02  9.9948919093827152e-02  9.9961424152557085e-02  9.9961502308550151e-02  9.9960822939690733e-02  9.9970559157555719e-02  9.9970970339660001e-02  9.9971609744272272e-02  9.9977585004613581e-02  9.9978531288721931e-02  9.9980123526102860e-02  9.9983454610005726e-02  9.9986189285278027e-02  9.9985846801535813e-02  9.9992069523469201e-02  9.9987592609424303e-02  1.0000000000000003e-01  1.0001750511759779e-01  1.0000000000000003e-01  1.0001087578900081e-01  1.0001661353392925e-01  1.0001921896686651e-01  1.0002075112311504e-01  1.0002115568444603e-01  1.0002935537877398e-01  1.0002770359208725e-01  1.0002846434836360e-01  1.0003931284414498e-01  1.0003662785272661e-01  1.0003773421981797e-01  1.0005414638053549e-01  1.0004480846455314e-01  1.0004874953746415e-01  1.0006385611595901e-01  1.0005941710017897e-01  1.0003776336769664e-01  1.0011043709859070e-01  1.0006962903570334e-01  1.0008222164183941e-01  1.0011333531317021e-01  1.0008081061455724e-01  1.0010625069086047e-01  1.0011845630152406e-01  1.0013351841702062e-01  1.0006009220590802e-01  1.0025642149581426e-01  9.9900826503497436e-02  1.0054189022016365e-01  1.0014194036281296e-01  9.9414612197422231e-02  9.9742399998974551e-02  9.9975327783727336e-02  9.9869586138535540e-02  9.9889780972005626e-02  9.9918522522848302e-02  9.9914596772534822e-02  9.9897671046377437e-02  9.9901824976264875e-02  9.9958152975163972e-02  9.9907003169179803e-02  9.9956358445718735e-02  9.9938121006550501e-02  9.9941568206596387e-02  9.9955569796875393e-02  9.9956745246948850e-02  9.9953879418734529e-02  9.9966250050715577e-02  9.9965922241104649e-02  9.9966612297593682e-02  9.9974276172536694e-02  9.9975346228981785e-02  9.9975886493081881e-02  9.9981467473174310e-02  9.9982154572049120e-02  9.9984860410013948e-02  9.9986214406564730e-02  9.9991472140449081e-02  9.9987225422331419e-02  1.0000000000000003e-01  1.0001814705038901e-01  1.0000000000000003e-01  1.0001099996518391e-01  1.0001971701064596e-01  1.0001819507638841e-01  1.0002081702807085e-01  1.0002698122356778e-01  1.0002671675122361e-01  1.0002745204028897e-01  1.0003743409332190e-01  1.0003436361417410e-01  1.0003565650894147e-01  1.0005097732208651e-01  1.0004442983398117e-01  1.0004592970283564e-01  1.0006453402273255e-01  1.0005529150247661e-01  1.0005041401617205e-01  1.0008871181433084e-01  1.0003874200447524e-01  1.0009797053099254e-01  1.0010603482247618e-01  1.0008812826391503e-01  1.0008666444593885e-01  1.0014042132672334e-01  1.0008054191169029e-01  1.0014042614802988e-01  1.0009304125080341e-01  1.0022205312733402e-01  9.9908372085371316e-02  1.0056852688683156e-01  1.0012277459886425e-01  9.9388606673577032e-02  9.9775614426604764e-02  9.9962852675885588e-02  9.9836784332978296e-02  9.9931542765525294e-02  9.9900291757864482e-02  9.9894752328312228e-02  9.9921897157072184e-02  9.9929183259471838e-02  9.9877086209581786e-02  9.9969085701946084e-02  9.9925860831203292e-02  9.9940168932347639e-02  9.9947111867700444e-02  9.9953447756385344e-02  9.9946258010440242e-02  9.9963112145194336e-02  9.9961728108933723e-02  9.9961109153755570e-02  9.9970509155218823e-02  9.9971921889038265e-02  9.9972317406212999e-02  9.9978625326193046e-02  9.9980171834699594e-02  9.9980856690457656e-02  9.9986015194765077e-02  9.9985777524949179e-02  9.9991101300968777e-02  9.9987540334388350e-02  1.0000000000000003e-01  1.0001869227362460e-01  1.0000000000000003e-01  1.0001239038194112e-01  1.0001896938885410e-01  1.0001788032114432e-01  1.0002497993807397e-01  1.0002450586331189e-01  1.0002606692202665e-01  1.0003456748681407e-01  1.0003272423880366e-01  1.0003310600004173e-01  1.0004677560438396e-01  1.0004202941377735e-01  1.0004327643187472e-01  1.0006101902145173e-01  1.0005202895007174e-01  1.0005217001023614e-01  1.0007931412814716e-01  1.0005502513696528e-01  1.0007111585636760e-01  1.0007190518846962e-01  1.0010001325863691e-01  1.0008805759259300e-01  1.0012814581045076e-01  1.0009646472084489e-01  1.0009025772344791e-01  1.0017639027501161e-01  1.0005213128468926e-01  1.0022408113976511e-01  9.9946320620261001e-02  1.0052887621166849e-01  1.0016414492340782e-01  9.9338983186657528e-02  9.9765546771590552e-02  9.9935934333981361e-02  9.9871860941609852e-02  9.9920266012059888e-02  9.9872984210463547e-02  9.9924255216270921e-02  9.9919317726176182e-02  9.9899936604703213e-02  9.9938872319242297e-02  9.9903175498411573e-02  9.9949031147941264e-02  9.9936385988867171e-02  9.9955113687290154e-02  9.9935881603399293e-02  9.9960746029144509e-02  9.9956641503544427e-02  9.9956337406865214e-02  9.9967311412888185e-02  9.9967929833613731e-02  9.9967108660996715e-02  9.9976172431942928e-02  9.9976935325216454e-02  9.9978145341356267e-02  9.9982730032452477e-02  9.9985346936311517e-02  9.9984946814814471e-02  9.9991572560873737e-02  9.9987431888273054e-02  1.0000000000000003e-01  1.0001976516541242e-01  1.0000000000000003e-01  1.0001194838326664e-01  1.0001883005655288e-01  1.0002082633806635e-01  1.0002328969239936e-01  1.0002366187174203e-01  1.0003179054706809e-01  1.0003089144897515e-01  1.0003129587941036e-01  1.0004222494199425e-01  1.0003994154410503e-01  1.0004024698200986e-01  1.0005606393538850e-01  1.0004982315553268e-01  1.0004927141602941e-01  1.0007292989708762e-01  1.0005776301704290e-01  1.0006225152387468e-01  1.0008447502095945e-01  1.0007590867068511e-01  1.0004346629026169e-01  1.0015014638835089e-01  1.0007965138708780e-01  1.0011113816206207e-01  1.0013063504328436e-01  1.0012480764869730e-01  1.0005871026495786e-01  1.0026428731280176e-01  9.9904676225499145e-02  1.0052406873017543e-01  1.0018093880930852e-01  9.9341514986474991e-02  9.9731225469725349e-02  9.9968900551931902e-02  9.9866862930270375e-02  9.9893264608072921e-02  9.9904042990073966e-02  9.9919138535856142e-02  9.9891533084653164e-02  9.9934248951666402e-02  9.9926360880154844e-02  9.9920261687585207e-02  9.9914756355912113e-02  9.9967993656906340e-02  9.9923370402659459e-02  9.9963153643619351e-02  9.9949849167991905e-02  9.9952210267778813e-02  9.9963437690206894e-02  9.9965578094659946e-02  9.9962835352152474e-02  9.9972928355028801e-02  9.9973605210317132e-02  9.9974301907007110e-02  9.9981244602801306e-02  9.9982110427223853e-02  9.9984194351435532e-02  9.9986466648447084e-02  9.9991354666379595e-02  9.9987446201334734e-02  1.0000000000000003e-01  1.0001980512629451e-01  1.0000000000000003e-01  1.0001151188873096e-01  1.0002084105000739e-01  1.0001919531869595e-01  1.0002230081004559e-01  1.0002781120565522e-01  1.0002844093335363e-01  1.0002904892161861e-01  1.0003844915580476e-01  1.0003630985640037e-01  1.0003720255963633e-01  1.0005105363024773e-01  1.0004645903268203e-01  1.0004550334534952e-01  1.0006583049226571e-01  1.0005614850855593e-01  1.0005566631876978e-01  1.0008280947650899e-01  1.0006718879778849e-01  1.0005980001741144e-01  1.0011273421483381e-01  1.0004428863286238e-01  1.0011399602801130e-01  1