<?xml version="1.0"?>
<VTKFile type="UnstructuredGrid"  version="0.1"  >
<UnstructuredGrid>
<Piece  NumberOfPoints="1933" NumberOfCells="3640">
<Points>
<DataArray  type="Float64"  NumberOfComponents="3"  format="ascii">-0.4752533408515992 -0.002626819442357783 0  4.524746712015455 -0.002558851027755923 0  4.524644737605081 7.497441269939668 0  -0.4753553315580407 7.497373276193663 0  9.524746803236901 -0.002490970603348702 0  9.524644849696905 7.497509152387184 0  14.52474697973532 -0.002423164017756716 0  14.52464502063227 7.497576954413617 0  19.5247472792716 -0.002355388242037999 0  19.52464526257492 7.497644724581065 0  24.52474772871718 -0.002287585979313408 0  24.52464558393653 7.497712521913146 0  29.5247483454041 -0.00221969226656336 0  29.52464598885954 7.497780411749689 0  34.52474913894653 -0.002151637201155561 0  34.5246464768274 7.497848463901573 0  39.52475011273452 -0.002083346636027978 0  39.52464704236455 7.497916752279038 0  44.52475126490995 -0.002014741729655697 0  44.52464767468557 7.497985355453364 0  49.52475258882112 -0.001945737777974332 0  49.52464835716462 7.49805435785202 0  54.5247540729902 -0.001876242512846989 0  54.52464906652054 7.498123851450463 0  59.52475570060562 -0.001806153910101609 0  59.52464977161778 7.498193937932945 0  64.52475744851276 -0.001735357454421363 0  64.52465043176521 7.498264731374968 0  69.52475928561057 -0.001663722727973373 0  69.52465099436255 7.498336361569202 0  74.52476117048862 -0.001591099104375082 0  74.52465139168365 7.498408978187229 0  79.5247630480105 -0.001517310221808804 0  79.52465153649963 7.498482756053813 0  84.52476484437062 -0.00144214675929578 0  84.52465131613094 7.498557901914552 0  89.52476645983174 -0.001365356822901625 0  89.52465058435382 7.49863466320845 0  94.52476775783248 -0.001286632929413503 0  94.52464915038948 7.49871333950743 0  99.52476854822025 -0.001205594108588983 0  99.524646764002 7.498794297423352 0  104.5247685607285 -0.001121760982161373 0  104.5246430955791 7.498877989811481 0  109.5247674018132 -0.001034520794719422 0  109.5246377102628 7.498964979758789 0  114.524764482499 -0.0009430783695163021 0  114.5246300362882 7.499055968525269 0  119.5247588947137 -0.0008463883564197331 0  119.5246193310766 7.499151822902024 0  124.5247491947163 -0.0007430656814030607 0  124.524604657408 7.49925358829197 0  129.5247330169484 -0.0006312801716861086 0  129.5245849027812 7.499362452756177 0  134.524706375744 -0.0005086743609116235 0  134.524558921902 7.499479581825177 0  139.5246623880632 -0.0003724542160113005 0  139.5245259845866 7.499605655023046 0  144.524588907213 -0.0002201889972011275 0  144.5244869338062 7.499739803687548 0  149.5244640179897 -5.33597408597597e-05 0  149.5244469668065 7.499877706212279 0  159.5244717418519 9.687355319549951e-19 0  164.5244526439274 -7.694587727694669e-05 0  164.5244703116021 7.499904429294734 0  159.5244675443671 7.499957015105908 0  169.5244613280322 -0.0001165293888224065 0  169.5244726885184 7.499874455508244 0  174.5244812203496 -0.0001301904328034162 0  174.5244778575577 7.499865225051852 0  179.5245047146438 -0.0001251158460354569 0  179.5244856305495 7.499872515272998 0  184.5245283215581 -0.0001062835261261989 0  184.5244950991227 7.499892501241569 0  189.5245505125692 -7.722832179789219e-05 0  189.5245053936163 7.499922170832691 0  194.5245707008758 -4.048583163387845e-05 0  194.5245158607491 7.499959245422762 0  199.5245887466121 2.106572177296899e-06 0  199.5245260623924 7.500002019180772 0  204.5246047143302 4.920082436623283e-05 0  204.5245357286904 7.500049212945003 0  209.5246187542205 9.979385641220736e-05 0  209.5245447089556 7.500099860362408 0  214.5246310445754 0.0001531282430228226 0  214.524552932244 7.500153223888987 0  219.5246417646609 0.0002086236024742715 0  219.5245603788136 7.500208734094352 0  224.5246510826767 0.0002658288362233451 0  224.5245670605279 7.500265946027829 0  229.5246591511661 0.0003243884740135317 0  229.5245730078414 7.500324507745274 0  234.5246661060464 0.0003840186193207603 0  234.5245782613751 7.500384137424142 0  239.5246720673516 0.00044448949681616 0  239.5245828665958 7.500444606548497 0  244.5246771407451 0.0005056126037228678 0  244.5245868705719 7.500505727415602 0  249.524681419336 0.0005672311273194417 0  249.5245903200995 7.500567343756756 0  254.524684985599 0.0006292127293406427 0  254.5245932607447 7.500629323642449 0  259.5246879133033 0.0006914440947343784 0  259.5245957364801 7.50069155410542 0  264.5246902694537 0.0007538268507206933 0  264.5245977897216 7.500753937105388 0  269.5246921162357 0.000816274619262177 0  269.5245994616197 7.500816386603377 0  274.5246935130181 0.0008787110990931403 0  274.524600792492 7.50087882663374 0  279.5246945184163 0.0009410692057417248 0  279.5246018223125 7.500941190373837 0  284.5246951924045 0.001003291453113289 0  284.5246025911568 7.501003420329465 0  289.5246955983295 0.001065331965873835 0  289.5246031394947 7.501065469886151 0  294.5246958044887 0.00112716079805825 0  294.524603508261 7.501127306624442 0  299.5246958843718 0.001188771611109687 0  299.5246037386842 7.501188917945564 0  304.5246959136646 0.001250194107578416 0  304.5246038722588 7.501250319675941 0  309.5246959597953 0.001311512078974458 0  309.5246039521718 7.501311568551272 0  4.524542568311697 14.99744151917845 0  -0.4754574988621609 14.99737350580569 0  9.524542655523602 14.99750937875646 0  14.52454277074616 14.99757714713357 0  19.52454291519999 14.99764488446117 0  24.52454308647989 14.99771265300012 0  29.52454327919689 14.99778051805072 0  34.52454348468721 14.99784854820566 0  39.52454369039183 14.99791681578712 0  44.52454387909275 14.99798539766198 0  49.52454402802584 14.9980543764458 0  54.52454410782878 14.99812384208127 0  59.52454408125748 14.99819389380112 0  64.52454390160108 14.99826464251741 0  69.5245435107163 14.99833621371331 0  74.52454283661167 14.99840875094355 0  79.52454179052211 14.99848242007184 0  84.52454026346589 14.99855741437622 0  89.5245381223788 14.99863396061397 0  94.52453520615543 14.99871232599908 0  99.52453132236226 14.99879282570659 0  104.5245262462481 14.99887582976499 0  109.5245197251738 14.99896176663903 0  114.524511494216 14.99905111770558 0  119.5245013129446 14.99914439088582 0  124.5244890397543 14.9992420507382 0  129.5244747682569 14.99934436301778 0  134.5244590567886 14.99945107990649 0  139.5244432750218 14.99956084468347 0  144.5244300357301 14.99967013128946 0  149.5244234767439 14.99977142391939 0  164.5244537889664 14.99985277058555 0  159.5244483613306 14.99986502205891 0  169.5244545456275 14.99984653200761 0  174.5244541815746 14.99985039089287 0  179.5244544078488 14.99986478764196 0  184.5244557603768 14.99988862047574 0  189.5244582140319 14.99992037015191 0  194.5244615306162 14.99995856483307 0  199.5244654272772 15.00000193458055 0  204.5244696475555 15.00004943684006 0  209.5244739845547 15.00010023459014 0  214.5244782826393 15.00015366157335 0  219.5244824308031 15.00020918801517 0  224.5244863538528 15.00026639123741 0  229.5244900040065 15.00032493192654 0  234.5244933538402 15.00038453549508 0  239.5244963907178 15.00044497762265 0  244.5244991125692 15.00050607308692 0  249.5245015247728 15.00056766714028 0  254.5245036379 15.00062962885018 0  259.5245054661133 15.00069184597035 0  264.5245070260374 15.00075422103138 0  269.5245083359754 15.00081666844178 0  274.524509415359 15.0008791124727 0  279.5245102843479 15.00094148606819 0  284.5245109635694 15.00100373047541 0  289.5245114739791 15.00106579571426 0  294.5245118370303 15.00112764187268 0  299.5245120754574 15.00118924106422 0  304.5245122153991 15.00125057948883 0  309.5245122911581 15.00131165815745 0  4.524440349520846 22.49744195176921 0  -0.475559712165623 22.4973739946352 0  9.524440410200079 22.49750973783976 0  14.52444046911932 22.49757742982399 0  19.52444052162319 22.49764509520964 0  24.52444056013131 22.49771279820744 0  29.52444057460894 22.49778060304454 0  34.5244405524695 22.4978485757484 0  39.52444047813163 22.49791678534761 0  44.52444033239525 22.49798530495269 0  49.5244400917225 22.49805421292415 0  54.52443972745618 22.49812359421565 0  59.52443920498942 22.49819354193092 0  64.52443848290432 22.49826415911455 0  69.52443751212013 22.49833556078091 0  74.52443623514047 22.49840787616326 0  79.52443458557126 22.49848125111344 0  84.52443248820957 22.49855585048347 0  89.52442986021822 22.49863186013129 0  94.5244266142242 22.49870948785181 0  99.52442266466605 22.49878896192973 0  104.5244179394133 22.49887052497594 0  109.5244123996026 22.49895441897747 0  114.5244060716973 22.49904085470815 0  119.5243990966066 22.49912995440547 0  124.5243918003706 22.49922165071721 0  129.5243847872528 22.49931551812687 0  134.5243790449172 22.49941050914918 0  139.5243760255753 22.49950457831676 0  144.5243776173725 22.4995942345598 0  149.5243858446972 22.49967425649706 0  164.5244121967336 22.4997934275549 0  159.5244074148836 22.49977784396143 0  169.5244127621266 22.49980839073363 0  174.5244109728268 22.49982683966497 0  179.5244083528916 22.49985071377186 0  184.5244058506262 22.49988050861309 0  189.5244039343149 22.49991593642539 0  194.5244027599097 22.49995636760552 0  199.5244023091817 22.50000107750322 0  204.5244024813427 22.50004936716055 0  209.5244031469839 22.50010061321965 0  214.5244041768115 22.50015428156551 0  219.5244054551268 22.50020992408348 0  224.5244068847325 22.50026716866577 0  229.5244083873669 22.5003257074441 0  234.5244099020537 22.50038528549471 0  239.5244113826616 22.5004456908879 0  244.5244127953519 22.50050674629563 0  249.5244141162161 22.50056830208451 0  254.5244153292342 22.50063023071695 0  259.5244164245524 22.50069242226578 0  264.5244173970776 22.5007547808648 0  269.5244182453253 22.50081722194821 0  274.5244189705051 22.50087967015946 0  279.5244195758133 22.50094205782587 0  284.5244200659638 22.50100432388742 0  289.5244204470278 22.5010664131163 0  294.5244207267648 22.50112827533482 0  299.52442091
[...]
<PointData  Scalars="p"> 
<DataArray  type="Float64"  Name="p"  format="ascii">1.0000000000000001e-01  1.0000000000000003e-01  9.9997878429769912e-02  1.0000000000000003e-01  1.0000000000000003e-01  9.9998660729684788e-02  1.0000000000000003e-01  9.9997973127888121e-02  1.0000000000000003e-01  9.9998123589474130e-02  1.0000000000000003e-01  9.9997720731732687e-02  1.0000000000000003e-01  9.9996246969721411e-02  1.0000000000000003e-01  9.9996177202062220e-02  1.0000000000000003e-01  9.9995172672448715e-02  1.0000000000000003e-01  9.9993436929238316e-02  1.0000000000000003e-01  9.9994712950515166e-02  1.0000000000000003e-01  9.9987492354072088e-02  1.0000000000000003e-01  9.9986126218805815e-02  1.0000000000000003e-01  9.9982875290825182e-02  1.0000000000000003e-01  9.9980954105939324e-02  1.0000000000000003e-01  9.9974821561773203e-02  1.0000000000000003e-01  9.9972877704733426e-02  1.0000000000000003e-01  9.9967604455978881e-02  1.0000000000000003e-01  9.9959819340111777e-02  1.0000000000000003e-01  9.9956851009954883e-02  1.0000000000000003e-01  9.9947551899813331e-02  1.0000000000000003e-01  9.9941399049517099e-02  1.0000000000000003e-01  9.9930557598654671e-02  1.0000000000000003e-01  9.9929926722735027e-02  1.0000000000000003e-01  9.9905157333349814e-02  1.0000000000000003e-01  9.9922490190852767e-02  1.0000000000000003e-01  9.9873183665145179e-02  1.0000000000000003e-01  9.9922606669915731e-02  1.0000000000000003e-01  9.9831541407855232e-02  1.0000000000000003e-01  9.9934490041301366e-02  1.0000000000000001e-01  9.9765826257578683e-02  1.0000000000000001e-01  1.0000000000000003e-01  1.0013662417701522e-01  1.0034093801529467e-01  1.0000000000000003e-01  1.0001539198613912e-01  1.0000000000000003e-01  1.0010366368778829e-01  1.0000000000000003e-01  1.0005103595565346e-01  1.0000000000000003e-01  1.0006413887940090e-01  1.0000000000000003e-01  1.0004990419682767e-01  1.0000000000000003e-01  1.0005332491952999e-01  1.0000000000000003e-01  1.0004116826598639e-01  1.0000000000000003e-01  1.0004157697103148e-01  1.0000000000000003e-01  1.0003663841103991e-01  1.0000000000000003e-01  1.0003266770347236e-01  1.0000000000000003e-01  1.0002986463543485e-01  1.0000000000000003e-01  1.0002780176324003e-01  1.0000000000000003e-01  1.0002440880415105e-01  1.0000000000000003e-01  1.0002286254457812e-01  1.0000000000000003e-01  1.0002122168415116e-01  1.0000000000000003e-01  1.0001924781487673e-01  1.0000000000000003e-01  1.0001808221048351e-01  1.0000000000000003e-01  1.0001712370944045e-01  1.0000000000000003e-01  1.0001580342165202e-01  1.0000000000000003e-01  1.0001518951568103e-01  1.0000000000000003e-01  1.0001434414732156e-01  1.0000000000000003e-01  1.0001392943185197e-01  1.0000000000000003e-01  1.0001287333161656e-01  1.0000000000000003e-01  1.0001343633333205e-01  1.0000000000000003e-01  1.0001128302082972e-01  1.0000000000000003e-01  1.0001379154190647e-01  1.0000000000000003e-01  1.0000872046033087e-01  1.0000000000000003e-01  1.0001679698323505e-01  1.0000000000000001e-01  1.0000000000000003e-01  9.9995283208028141e-02  1.0000000000000003e-01  9.9996016324562079e-02  9.9995839699132061e-02  9.9995285115130492e-02  9.9993353862303846e-02  9.9993654974712520e-02  9.9993063770706617e-02  9.9990034974141620e-02  9.9991822346911854e-02  9.9990318689295352e-02  9.9989292918091194e-02  9.9980413799447124e-02  9.9985117562687187e-02  9.9976984509322728e-02  9.9981295970702350e-02  9.9976890289703343e-02  9.9970624242886261e-02  9.9971537105155869e-02  9.9967714395819945e-02  9.9957332406884480e-02  9.9961822631426556e-02  9.9950835831430801e-02  9.9950310101826603e-02  9.9938448069492411e-02  9.9954308613052059e-02  9.9908796142258102e-02  9.9980642412319715e-02  9.9851497249274057e-02  1.0004900161803519e-01  9.9763630807746834e-02  9.9835454396931950e-02  1.0048256578431281e-01  1.0017453167643925e-01  1.0001804500405358e-01  1.0004620219653686e-01  1.0003683534876230e-01  1.0005219005893148e-01  1.0002780638618219e-01  1.0003833981556094e-01  1.0003292170475388e-01  1.0002712532750437e-01  1.0002629329097833e-01  1.0002562917978927e-01  1.0002021982881090e-01  1.0001992716894220e-01  1.0001883448482357e-01  1.0001581054095120e-01  1.0001512856146383e-01  1.0001439071306931e-01  1.0001236154792283e-01  1.0001166555425769e-01  1.0001105745056556e-01  1.0000951066049647e-01  1.0000911891304717e-01  1.0000800320241528e-01  1.0000777768045398e-01  1.0000580479471791e-01  1.0000757358644417e-01  1.0000274610950166e-01  1.0000858233926443e-01  1.0000000000000003e-01  9.9992443888994559e-02  1.0000000000000003e-01  9.9995540688433249e-02  9.9993608355337715e-02  9.9991774213533585e-02  9.9991890574066197e-02  9.9991224463705203e-02  9.9986948439500123e-02  9.9988132017985454e-02  9.9987344595215133e-02  9.9983034967532580e-02  9.9981574576377977e-02  9.9987547540815083e-02  9.9963886319008752e-02  9.9975396718415627e-02  9.9969546094937495e-02  9.9961037812308362e-02  9.9964725408029448e-02  9.9958669000684536e-02  9.9945601806210704e-02  9.9948837403090310e-02  9.9942213170921307e-02  9.9923319462515051e-02  9.9935093135638184e-02  9.9911415049281110e-02  9.9921044594486919e-02  9.9888207324600062e-02  9.9939664043017698e-02  9.9820906577093860e-02  1.0003674287846635e-01  9.9632233443804077e-02  9.9924380366558430e-02  1.0038644808803458e-01  1.0022887723971714e-01  1.0004023774293801e-01  1.0006169958404904e-01  1.0009684124933090e-01  1.0003565436227926e-01  1.0006997035570545e-01  1.0005717327187445e-01  1.0004600234953590e-01  1.0004616701334924e-01  1.0004611469382613e-01  1.0003509090228480e-01  1.0003581411258876e-01  1.0003389309708954e-01  1.0002782964388628e-01  1.0002707995075504e-01  1.0002610261512389e-01  1.0002203951999515e-01  1.0002130285976704e-01  1.0002027415187964e-01  1.0001771564713346e-01  1.0001668665172346e-01  1.0001596430325295e-01  1.0001373754063388e-01  1.0001352521139266e-01  1.0001140120859310e-01  1.0001214024184076e-01  1.0000765661724152e-01  1.0001360117751017e-01  1.0000000000000003e-01  9.9990584906368155e-02  1.0000000000000003e-01  9.9994267085272440e-02  9.9989784020054498e-02  9.9990685370032473e-02  9.9989811552354008e-02  9.9985121982683015e-02  9.9986221181151039e-02  9.9985120290812690e-02  9.9979284843436086e-02  9.9981499288756201e-02  9.9981156247916286e-02  9.9968230621814147e-02  9.9983606731558206e-02  9.9960853602027361e-02  9.9960316801840310e-02  9.9962966849179713e-02  9.9961633493854160e-02  9.9945859859121702e-02  9.9954649631709580e-02  9.9944578360832231e-02  9.9931500271353002e-02  9.9933890004725898e-02  9.9932579953380854e-02  9.9902082292926520e-02  9.9936955740710792e-02  9.9878475644299733e-02  9.9953426285976157e-02  9.9815134842091938e-02  1.0006103794363251e-01  9.9613270510263224e-02  9.9943093244904066e-02  1.0049438321003151e-01  1.0013819818877455e-01  1.0002492733843267e-01  1.0017843225606025e-01  9.9994953765893513e-02  1.0009022243637741e-01  1.0005916201763862e-01  1.0005237240754244e-01  1.0005066229852477e-01  1.0005574661546231e-01  1.0003778586072692e-01  1.0004174741537368e-01  1.0003957321133554e-01  1.0003132860154064e-01  1.0003073736091908e-01  1.0002995425312672e-01  1.0002422290268424e-01  1.0002370314372400e-01  1.0002272049905359e-01  1.0001904160890876e-01  1.0001820486121168e-01  1.0001698390997714e-01  1.0001471562736765e-01  1.0001316491864989e-01  1.0001277981357039e-01  1.0000959912761830e-01  1.0001084380452863e-01  1.0000571095911132e-01  1.0001084262554708e-01  1.0000000000000003e-01  9.9988686707118954e-02  1.0000000000000003e-01  9.9991928985304707e-02  9.9989015622762661e-02  9.9989438355838095e-02  9.9984262042989325e-02  9.9985496444830707e-02  9.9983982301145830e-02  9.9977302563335271e-02  9.9979695854333278e-02  9.9979013995631860e-02  9.9967655945547698e-02  9.9974713729301543e-02  9.9967286033960268e-02  9.9969409898130648e-02  9.9951112768159503e-02  9.9959081343373529e-02  9.9940618027155162e-02  9.9952743552222015e-02  9.9944665125065210e-02  9.9925523505750513e-02  9.9937477697442614e-02  9.9922834572294478e-02  9.9910270387202224e-02  9.9907407800286008e-02  9.9919911567850475e-02  9.9860125482704884e-02  9.9951764412526248e-02  9.9790253025642206e-02  1.0006739437627887e-01  9.9555854676111610e-02  9.9851045440277231e-02  1.0054857302748456e-01  1.0019599355133707e-01  1.0008517603227443e-01  1.0007985616031539e-01  1.0011086651700810e-01  1.0007197760443370e-01  1.0006612461403615e-01  1.0005880077520884e-01  1.0007803351560395e-01  1.0004555063536297e-01  1.0005574288267077e-01  1.0005259696984972e-01  1.0004060231757263e-01  1.0004073638121745e-01  1.0004054326924516e-01  1.0003143824235544e-01  1.0003130133710721e-01  1.0003032677736132e-01  1.0002496879329564e-01  1.0002405983605424e-01  1.0002313961897621e-01  1.0001930618952061e-01  1.0001839307583356e-01  1.0001670928103852e-01  1.0001481578826352e-01  1.0001233043006630e-01  1.0001299888138718e-01  1.0000751176838645e-01  1.0001280080345804e-01  1.0000000000000003e-01  9.9986463033627904e-02  1.0000000000000003e-01  9.9991593635046422e-02  9.9987653830847192e-02  9.9984971174810797e-02  9.9984532993571643e-02  9.9983780181670728e-02  9.9977012098033169e-02  9.9978496078241288e-02  9.9977807058506826e-02  9.9968168190810849e-02  9.9971760379381422e-02  9.9968502376123286e-02  9.9959325336770766e-02  9.9960338050941663e-02  9.9974891708276267e-02  9.9927501125738102e-02  9.9953503704782190e-02  9.9942799613354533e-02  9.9927180189502043e-02  9.9938004785483051e-02  9.9931674575770596e-02  9.9902476585632852e-02  9.9926540169648803e-02  9.9899031589304743e-02  9.9903194496304082e-02  9.9871175979020649e-02  9.9947119487581573e-02  9.9771059202688972e-02  1.0009247188496914e-01  9.9511879061093295e-02  9.9885408429109368e-02  1.0050783671438338e-01  1.0024441396449191e-01  1.0000216497483930e-01  1.0012177153473224e-01  1.0009897946187002e-01  1.0010671448568985e-01  1.0003910982477433e-01  1.0010474898657863e-01  1.0004039019539747e-01  1.0006870762085177e-01  1.0006159925905034e-01  1.0004673707709991e-01  1.0004693990071967e-01  1.0004895109364988e-01  1.0003579250516510e-01  1.0003692419287816e-01  1.0003593420602538e-01  1.0002823707330731e-01  1.0002774150790575e-01  1.0002704590023698e-01  1.0002192906674104e-01  1.0002088451318938e-01  1.0001992787108586e-01  1.0001599894313917e-01  1.0001540172661105e-01  1.0001263464101381e-01  1.0001240940780426e-01  1.0000721725381075e-01  1.0001196096317266e-01  1.0000000000000003e-01  9.9985263988215820e-02  1.0000000000000003e-01  9.9990958476019673e-02  9.9983775498367011e-02  9.9985291600137513e-02  9.9983345488773592e-02  9.9977481398377005e-02  9.9978232587846327e-02  9.9977535774338655e-02  9.9968041636830346e-02  9.9971780975782257e-02  9.9969036711867937e-02  9.9956631736344906e-02  9.9961490011293647e-02  9.9963812256344473e-02  9.9939766983931144e-02  9.9970645157619456e-02  9.9930651730822093e-02  9.9925911123105809e-02  9.9936803811611255e-02  9.9931715121292716e-02  9.9907065245972468e-02  9.9921690497884186e-02  9.9916346412249835e-02  9.9875643334877001e-02  9.9919865988818413e-02  9.9860583963923125e-02  9.9925900422495578e-02  9.9780570195053639e-02  1.0008690308965566e-01  9.9475488953760377e-02  9.9908919632393914e-02  1.0055676458286478e-01  1.0018785266735344e-01  1.0004087736939131e-01  1.0015511887861435e-01  1.0005962348520911e-01  1.0008926215603769e-01  1.0013917558441744e-01  1.0003194153706112e-01  1.0008424537944408e-01  1.0006868712816702e-01  1.0005785225963255e-01  1.0005407913551283e-01  1.0006072810415953e-01  1.0004163896879451e-01  1.0004448435824226e-01  1.0004403482474668e-01  1.0003410247661239e-01  1.0003329979003697e-01  1.0003294936005544e-01  1.0002606609297743e-01  1.0002539929965576e-01  1.0002418414571995e-01  1.0001997519991632e-01  1.0001823415815696e-01  1.0001739570511028e-01  1.0001317506313460e-01  1.0001363418776289e-01  1.0000824253232797e-01  1.0001261454852950e-01  1.0000000000000003e-01  9.9984080072968246e-02  1.0000000000000003e-01  9.9988914183547328e-02  9.9983887965145984e-02  9.9984626069061666e-02  9.9978106857137455e-02  9.9979008790444732e-02  9.9977627929447296e-02  9.9969034279265914e-02  9.9971962901964917e-02  9.9970586007711248e-02  9.9957589199248076e-02  9.9962315738907764e-02  9.9961281507797040e-02  9.9943119035338715e-02  9.9958556675002405e-02  9.9945991102176182e-02  9.9949030132607725e-02  9.9922525829534911e-02  9.9935319731772790e-02  9.9902758792376867e-02  9.9930350789326411e-02  9.9913098167549855e-02  9.9891654919561298e-02  9.9900050798882700e-02  9.9912626023350867e-02  9.9835721503904282e-02  9.9948469171258006e-02  9.9769307916327238e-02  1.0007574746096745e-01  9.9473140957426001e-02  9.9850338847885786e-02  1.0060592690689987e-01  1.0022255341626035e-01  1.0007113025301188e-01  1.0010871733360728e-01  1.0007388982764875e-01  1.0012820951705123e-01  1.0006143773598954e-01  1.0011701170867050e-01  1.0005984062145257e-01  1.0007212563436739e-01  1.0005305490222606e-01  1.0007527586282457e-01  1.0004478865665076e-01  1.0005187087032413e-01  1.0005108558826253e-01  1.0003858040447404e-01  1.0003850169885591e-01  1.0003918108684670e-01  1.0002944463888182e-01  1.0002903299749254e-01  1.0002839355107998e-01  1.0002241808787342e-01  1.0002147152166482e-01  1.0001987908608234e-01  1.0001654797400089e-01  1.0001381276884012e-01  1.0001415558831384e-01  1.0000793182729470e-01  1.0001241004692787e-01  1.0000000000000003e-01  9.9982493084396162e-02  1.0000000000000003e-01  9.9989123282195849e-02  9.9983385266533484e-02  9.9980779427724265e-02  9.9979247372384492e-02  9.9978843256716868e-02  9.9970642309768751e-02  9.9972294665444925e-02  9.9971534572909235e-02  9.9960684146573109e-02  9.9963369983289960e-02  9.9962264421924255e-02  9.9945849294844069e-02  9.9955189262737623e-02  9.9951248872677090e-02  9.9936139065747373e-02  9.9940579898413429e-02  9.9962237998818718e-02  9.9889552324661901e-02  9.9930367750274474e-02  9.9917774946225377e-02  9.9886655000202218e-02  9.9919186304983698e-02  9.9893745478362925e-02  9.9881533925180080e-02  9.9866475662149082e-02  9.9939908127532520e-02  9.9743560766619999e-02  1.0009918212184217e-01  9.9458084106632538e-02  9.9858024313943902e-02  1.0058548611303797e-01  1.0025762904060392e-01  1.0002467232634804e-01  1.0013042586326483e-01  1.0011022525908085e-01  1.0008148719313584e-01  1.0008540957438902e-01  1.0010233687796839e-01  1.0009818262051685e-01  1.0004185235775422e-01  1.0009300340235242e-01  1.0004364760778323e-01  1.0006188425390544e-01  1.0005843714172272e-01  1.0004443549735195e-01  1.0004325918817010e-01  1.0004612515240767e-01  1.0003375441063944e-01  1.0003408161398600e-01  1.0003339146386410e-01  1.0002572741896630e-01  1.0002465688101340e-01  1.0002411658832251e-01  1.0001853532618095e-01  1.0001784806171682e-01  1.0001514180905570e-01  1.0001378809359213e-01  1.0000852927795072e-01  1.0001277731782299e-01  1.0000000000000003e-01  9.9981851110171382e-02  1.0000000000000003e-01  9.9988999187292468e-02  9.9980281241688701e-02  9.9981803526458385e-02  9.9979181735780687e-02  9.9973016601710582e-02  9.9973281421545448e-02  9.9972546681598273e-02  9.9962562986576742e-02  9.9965634294147662e-02  9.9964342074954832e-02  9.9949018519704627e-02  9.9955567492890196e-02  9.9954068635140628e-02  9.9935460692274936e-02  9.9944705478513501e-02  9.9949585105717331e-02  9.9911280442348427e-02  9.9961258535099795e-02  9.9902023464455467e-02  9.9893955385454050e-02  9.9911867111645125e-02  9.9913332508372560e-02  9.9859566126096408e-02  9.9919455644305294e-02  9.9859567459539111e-02  9.9906951101430899e-02  9.9777933946425465e-02  1.0009163966122037e-01  9.9431433864849719e-02  9.9877187514438498e-02  1.0061149789672409e-01  1.0022441939079939e-01  1.0003714483569737e-01  1.0016323007159626e-01  1.0006846494319606e-01  1.0009971699213618e-01  1.0010525549139923e-01  1.0007811188590555e-01  1.0007082348135614e-01  1.0012292131167126e-01  1.0003092090486738e-01  1.0007414516135625e-01  1.0005983695034737e-01  1.0005289422230146e-01  1.0004655713851389e-01  1.0005374712516002e-01  1.0003689277816548e-01  1.0003827611060369e-01  1.0003889516290815e-01  1.0002949493838563e-01  1.0002808159886452e-01  1.0002768598093761e-01  1.0002137788727809e-01  1.0001983090501118e-01  1.0001914607080702e-01  1.0001398709135034e-01  1.0001422495007174e-01  1.0000890015847662e-01  1.0001246240679439e-01  1.0000000000000003e-01  9.9981305888426339e-02  1.0000000000000003e-01  9.9987608512080037e-02  9.9981029017893006e-02  9.9982118517109614e-02  9.9975018021923129e-02  9.9975492382699385e-02  9.9973931696352727e-02  9.9965429777745848e-02  9.9967273613406543e-02  9.9966892579439123e-02  9.9953220657767336e-02  9.9957967911873738e-02  9.9956721748948651e-02  9.9938975852969084e-02  9.9947967948160923e-02  9.9947828254856264e-02  9.9920678947341440e-02  9.9944972625678571e-02  9.9928881324254384e-02  9.9928089600874112e-02  9.9899979521577434e-02  9.9911938579465981e-02  9.9871841607600945e-02  9.9903530635008286e-02  9.9909739629709518e-02  9.9823593128290783e-02  9.9947869738556613e-02  9.9775904793434775e-02  1.0005368485771331e-01  9.9471084895678935e-02  9.9835816401378188e-02  1.0066113105137549e-01  1.0023448696221610e-01  1.0006406381131205e-01  1.0012815641367921e-01  1.0007973989634820e-01  1.0012702636608674e-01  1.0007575411577808e-01  1.0008069010813861e-01  1.0010007143620088e-01  1.0006113619643629e-01  1.0009683117573863e-01  1.0005097519559078e-01  1.0006362100901946e-01  1.0004489163091058e-01  1.0006412423233958e-01  1.0003925949877278e-01  1.0004336317876121e-01  1.0004366731546500e-01  1.0003269315527506e-01  1.0003207413460834e-01  1.0003289527183315e-01  1.0002383116442902e-01  1.0002306782582800e-01  1.0002185760307121e-01  1.0001727284191285e-01  1.0001465533255419e-01  1.0001505576065670e-01  1.0000842895914773e-01  1.0001257088277787e-01  1.0000000000000003e-01  9.9980232872597552e-02  1.0000000000000003e-01  9.9988050588365338e-02  9.9981168523689087e-02  9.9979171920569682e-02  9.9976708539627729e-02  9.9976336776707503e-02  9.9968206903361251e-02  9.9969106383965639e-02  9.9968702615353053e-02  9.9957771683747490e-02  9.9960055753937085e-02  9.9959751258671709e-02  9.9943931366329411e-02  9.9950173506812512e-02  9.9950726643031840e-02  9.9927063713127123e-02  9.9942233576770581e-02  9.9937746217011403e-02  9.9915517608968621e-02  9.9924086880980770e-02  9.9956535452532677e-02  9.9849837650284587e-02  9.9920344647762144e-02  9.9888855997058185e-02  9.9869351907094422e-02  9.9875184930153918e-02  9.9941291783899919e-02  9.9735685796821225e-02  1.0009534069254745e-01  9.9475886984904852e-02  9.9819015392411031e-02  1.0065861122267671e-01  1.0026881183448547e-01  1.0003109974045631e-01  1.0013315273325009e-01  1.0010674267520624e-01  1.0009596983914608e-01  1.0008086913473641e-01  1.0010847626259782e-01  1.0006576028545477e-01  1.0007364641482798e-01  1.0007974609662167e-01  1.0008525162733865e-01  1.0003201189794673e-01  1.0007663616188923e-01  1.0003685247209523e-01  1.0005015602967098e-01  1.0004779492740860e-01  1.0003656742878290e-01  1.0003442613502185e-01  1.0003716892977001e-01  1.0002707583114707e-01  1.0002639830612155e-01  1.0002570148681617e-01  1.0001875847512635e-01  1.0001789234187083e-01  1.0001580802801122e-01  1.0001353596781197e-01  1.0000864683613171e-01  1.0001255658699024e-01  1.0000000000000003e-01  9.9980192972054044e-02  1.0000000000000003e-01  9.9988487220760924e-02  9.9979157144977016e-02  9.9980803184464423e-02  9.9977697767051621e-02  9.9972186554456041e-02  9.9971557007917197e-02  9.9970949521804756e-02  9.9961547774412379e-02  9.9963687632709020e-02  9.9962795637217827e-02  9.9948942136845312e-02  9.9953537751249502e-02  9.9954494689655726e-02  9.9934163737919218e-02  9.9943847660114410e-02  9.9944331574967724e-02  9.9917182999425924e-02  9.9932806964943249e-02  9.9940198902612465e-02  9.9887254594435565e-02  9.9955711734742006e-02  9.9885996697827828e-02  9