<?xml version="1.0"?>
<VTKFile type="UnstructuredGrid"  version="0.1"  >
<UnstructuredGrid>
<Piece  NumberOfPoints="1933" NumberOfCells="3640">
<Points>
<DataArray  type="Float64"  NumberOfComponents="3"  format="ascii">-0.4752472608211026 -0.002836748930383537 0  4.524752804602219 -0.002767831900200538 0  4.524649413901707 7.497232324095457 0  -0.4753506763288973 7.497163367209 0  9.524752913787063 -0.002699032416380459 0  9.524649562828717 7.497301130107398 0  14.52475312940209 -0.002630345919482007 0  14.52464979418775 7.497369812912782 0  19.52475350534215 -0.002561726635843756 0  19.52465012752458 7.497438426249875 0  24.52475408289666 -0.00249310742106118 0  24.52465057827686 7.497507039971079 0  29.52475489176512 -0.002424409115689617 0  29.52465115706758 7.497575734008254 0  34.5247559521578 -0.002355544706289673 0  34.524651869178 7.497644595432684 0  39.52475727673448 -0.002286420680724347 0  39.52465271418772 7.497713717567365 0  44.52475887202232 -0.002216936750243129 0  44.52465368560753 7.497783200439565 0  49.52476073925065 -0.002146984519296818 0  49.52465477033186 7.497853152165373 0  54.52476287462272 -0.002076445364382533 0  54.5246559477734 7.49792369107164 0  59.52476526903271 -0.002005187592107746 0  59.5246571885467 7.497994948508522 0  64.52476790720141 -0.001933062814695693 0  64.52465845254972 7.49806707241692 0  69.52477076612632 -0.00185990136924848 0  69.52465968625289 7.498140231811934 0  74.52477381265717 -0.001785506488431401 0  74.5246608189304 7.498214622444042 0  79.52477699985398 -0.001709646781075591 0  79.52466175745546 7.49829047401921 0  84.52478026156727 -0.001632046374581994 0  84.52466237914041 7.49836805950913 0  89.52478350429055 -0.001552371771305636 0  89.52466252188162 7.4984477072745 0  94.52478659470066 -0.001470214028717235 0  94.52466197061342 7.498529816954735 0  99.52478934014661 -0.001385064220664429 0  99.5246604387881 7.498614880316532 0  104.5247914573209 -0.0012962791933222 0  104.524657543369 7.498703508392762 0  109.5247925205952 -0.001203033329238161 0  109.5246527719781 7.498796465982084 0  114.5247918746516 -0.001104250436145579 0  114.5246454420894 7.498894713191779 0  119.5247884832207 -0.0009985085017876229 0  119.5246346562087 7.498999449492302 0  124.5247806618059 -0.0008839108509404207 0  124.5246192677308 7.499112144956 0  129.5247655972994 -0.0007579264800051514 0  129.5245978979704 7.499234518027131 0  134.5247384727251 -0.0006172398976857577 0  134.5245691037251 7.499368363957755 0  139.5246908540835 -0.0004577837656020078 0  139.5245319249304 7.499515030194443 0  144.5246076757511 -0.0002756114310137049 0  144.5244873295395 7.49967418219205 0  149.524461433112 -7.12172824124672e-05 0  149.5244417457161 7.499841635636191 0  159.5244717418518 1.127692537441993e-18 0  164.5244281965069 -0.0001182758765276575 0  164.524466578751 7.499855915063979 0  159.5244698323693 7.499940562237668 0  169.5244263159533 -0.00018937606935566 0  169.5244628510025 7.499797998889042 0  174.5244425601729 -0.0002275168021652702 0  174.524463481012 7.499765956345786 0  179.524465877702 -0.000241630129377437 0  179.5244683690663 7.499754918745135 0  184.5244910129487 -0.0002379737858798539 0  184.5244762919636 7.499760195085995 0  189.5245155162665 -0.0002210372830930358 0  189.5244860183788 7.499778006582313 0  194.5245383168093 -0.0001940650224535727 0  194.5244965890031 7.499805460163043 0  199.5245590205082 -0.0001594202948010022 0  199.5245073330015 7.499840373722365 0  204.5245775601245 -0.0001188436099480612 0  204.5245178123634 7.499881102446169 0  209.5245940199488 -7.363388394157107e-05 0  209.5245277582729 7.499926398865384 0  214.5246085481243 -2.477443503631657e-05 0  214.5245370182576 7.499975307790501 0  219.5246213132194 2.69794570011574e-05 0  219.5245455170606 7.500027089602464 0  224.5246324832576 8.103933894463959e-05 0  224.5245532292454 7.500081164745369 0  229.5246422161665 0.0001369403394407739 0  229.5245601606341 7.500137073519436 0  234.5246506560327 0.0001943102111105395 0  234.5245663360039 7.500194446763496 0  239.5246579322893 0.0002528468459651802 0  239.5245717910833 7.500252984271245 0  244.5246641603728 0.0003123017077727185 0  244.5245765674602 7.500312438729294 0  249.5246694430963 0.000372467462741843 0  249.5245807094484 7.500372603639441 0  254.5246738723766 0.0004331686493377596 0  254.5245842622741 7.500433304162952 0  259.5246775311375 0.0004942546077315026 0  259.5245872711484 7.50049439015858 0  264.5246804953378 0.0005555941562749074 0  264.5245897809393 7.500555730927513 0  269.5246828361031 0.000617071703136706 0  269.5245918362502 7.500617211362247 0  274.5246846219931 0.0006785846505627737 0  274.5245934817376 7.500678729348637 0  279.5246859214202 0.0007400421173211478 0  279.5245947625543 7.500740194413276 0  284.5246868051987 0.0008013652029396762 0  284.5245957247915 7.500801527759137 0  289.524687349066 0.0008624892833821588 0  289.5245964157673 7.500862664004636 0  294.524687635778 0.0009233692073446417 0  294.5245968840711 7.50092355513836 0  299.5246877557132 0.0009839887892868758 0  299.5245971793343 7.5009841774095 0  304.5246878036763 0.001044376566424547 0  304.5245973521855 7.501044542059208 0  309.5246878666977 0.001104629510733635 0  309.5245974560625 7.501104711106895 0  4.524545741952661 14.99723265044182 0  -0.4754543474814276 14.99716364582035 0  9.524545863869099 14.99730143966848 0  14.52454603243903 14.99737008613615 0  19.52454625269858 14.99743866124435 0  24.52454652502491 14.99750724069372 0  29.52454684623329 14.99757590537539 0  34.52454720935487 14.99764474140908 0  39.52454760293205 14.99771384047338 0  44.52454801010861 14.99778330069423 0  49.52454840756038 14.99785322810929 0  54.52454876421904 14.99792373868981 0  59.52454903970806 14.99799496093252 0  64.52454918239484 14.99806703908032 0  69.52454912695389 14.9981401370799 0  74.52454879133913 14.9982144434323 0  79.52454807307357 14.99829017713226 0  84.52454684481884 14.99836759491309 0  89.52454494930684 14.99844699998665 0  94.52454219399318 14.99852875232843 0  99.5245383463201 14.99861328017711 0  104.5245331315308 14.99870109153609 0  109.5245262368427 14.99879278258804 0  114.5245173290924 14.99888903613218 0  119.5245060983688 14.99899059575937 0  124.524492348403 14.99909818763659 0  129.5244761652786 14.99921233698174 0  134.5244582055669 14.99933298443677 0  139.5244401386655 14.99945874202134 0  144.524425211863 14.99958553020829 0  149.5244186533566 14.99970413385514 0  164.5244578571266 14.99978404593932 0  159.524452541464 14.99981520917867 0  169.5244564596791 14.99975836964109 0  174.5244532845664 14.99974438231594 0  179.5244508448627 14.99974328940472 0  184.5244500112057 14.99975403625137 0  189.5244508370765 14.99977486501438 0  194.524453044443 14.9998039864966 0  199.5244562665149 14.99983982093189 0  204.5244601549916 14.99988105377882 0  209.5244644189077 14.99992662007926 0  214.5244688316984 14.99997566649166 0  219.5244732251458 15.00002751087814 0  224.5244774791696 15.00008160653159 0  229.5244815114244 15.00013751277966 0  234.5244852682537 15.00019487164833 0  239.5244887173728 15.00025338962756 0  244.5244918422099 15.00031282351183 0  249.5244946376494 15.00037296942119 0  254.5244971068883 15.00043365428832 0  259.524499259157 15.00049472927261 0  264.524501108071 15.00055606470973 0  269.5245026704578 15.00061754633088 0  274.5245039654986 15.00067907258893 0  279.5245050140991 15.00074055301475 0  284.5245058384347 15.00080190759423 0  289.5245064616751 15.00086306718901 0  294.5245069080867 15.00092397498268 0  299.5245072038946 15.00098458873675 0  304.5245073798156 15.00104488310605 0  309.5245074768685 15.0011048500193 0  4.524441944082951 22.49723323146551 0  -0.4755581390572337 22.49716426544964 0  9.524442032562227 22.49730194642131 0  14.52444212940967 22.4973705070111 0  19.52444223162299 22.49743899776207 0  24.52444233198257 22.49750749932486 0  29.52444242000175 22.49757609281754 0  34.52444248200951 22.4976448621351 0  39.52444250069832 22.49771389547585 0  44.52444245438169 22.49778328671943 0  49.52444231609299 22.49785313694667 0  54.52444205257606 22.49792355623088 0  59.52444162319098 22.49799466576242 0  64.52444097875157 22.49806660034574 0  69.52444006033892 22.49813951129103 0  74.5244387981909 22.49821356970147 0  79.52443711086448 22.49828897009921 0  84.52443490502883 22.4983659342208 0  89.52443207650815 22.49844471458827 0  94.52442851360134 22.49852559704832 0  99.52442410431925 22.49860890072818 0  104.5244187500745 22.49869497256337 0  109.5244123895595 22.49878417136253 0  114.5244050379656 22.49887683280224 0  119.5243968479083 22.49897320120814 0  124.5243881982814 22.49907330606208 0  129.5243798130785 22.49917675153194 0  134.5243728986893 22.49928238008712 0  139.524369255906 22.49938778016738 0  144.5243712589711 22.49948867210608 0  149.5243814918679 22.49957844070777 0  164.5244181040319 22.49970190029374 0  159.5244109736602 22.49969677685969 0  169.5244191021222 22.49970450470968 0  174.524416491149 22.49971033755947 0  179.5244124139652 22.49972232546055 0  184.5244082593393 22.49974143268178 0  189.5244047577531 22.49976751100097 0  194.5244021966216 22.49979989309624 0  199.5244006064864 22.49983773548087 0  204.5243998882909 22.49988019287384 0  209.5243998905166 22.49992649523662 0  214.5244004518212 22.49997597357648 0  219.5244014222858 22.50002806097202 0  224.5244026723076 22.50008228296409 0  229.5244040948237 22.50013824444689 0  234.5244056042263 22.50019561641164 0  239.5244071338604 22.50025412395095 0  244.5244086331113 22.50031353597289 0  249.5244100645723 22.50037365663903 0  254.5244114015208 22.50043431836276 0  259.5244126257423 22.50049537615777 0  264.5244137257223 22.50055670313213 0  269.5244146951445 22.50061818695426 0  274.5244155316712 22.50067972714592 0  279.5244162359896 22.50074123307619 0  284.524416811138 22.50080262251663 0  289.5244172622187 22.5008638205535 0  294.5244175966956 22.50092475848449 0  299.5244178256
[...]
<PointData  Scalars="p"> 
<DataArray  type="Float64"  Name="p"  format="ascii">1.0000000000000001e-01  1.0000000000000003e-01  9.9997878433185056e-02  1.0000000000000003e-01  1.0000000000000003e-01  9.9998660734386929e-02  1.0000000000000003e-01  9.9997973136468382e-02  1.0000000000000003e-01  9.9998123600066241e-02  1.0000000000000003e-01  9.9997720743585969e-02  1.0000000000000003e-01  9.9996246985894224e-02  1.0000000000000003e-01  9.9996177220215421e-02  1.0000000000000003e-01  9.9995172691654852e-02  1.0000000000000003e-01  9.9993436954857212e-02  1.0000000000000003e-01  9.9994712978072470e-02  1.0000000000000003e-01  9.9987492379208537e-02  1.0000000000000003e-01  9.9986126251045457e-02  1.0000000000000003e-01  9.9982875322277370e-02  1.0000000000000003e-01  9.9980954137256425e-02  1.0000000000000003e-01  9.9974821598726171e-02  1.0000000000000003e-01  9.9972877739822330e-02  1.0000000000000003e-01  9.9967604486706496e-02  1.0000000000000003e-01  9.9959819376412004e-02  1.0000000000000003e-01  9.9956851036653568e-02  1.0000000000000003e-01  9.9947551923318612e-02  1.0000000000000003e-01  9.9941399066300327e-02  1.0000000000000003e-01  9.9930557613551352e-02  1.0000000000000003e-01  9.9929926711170555e-02  1.0000000000000003e-01  9.9905157342994516e-02  1.0000000000000003e-01  9.9922490146221843e-02  1.0000000000000003e-01  9.9873183664606083e-02  1.0000000000000003e-01  9.9922606590649138e-02  1.0000000000000003e-01  9.9831541360693915e-02  1.0000000000000003e-01  9.9934489898677106e-02  1.0000000000000001e-01  9.9765825955521803e-02  1.0000000000000001e-01  1.0000000000000003e-01  1.0013662347940472e-01  1.0034093781575971e-01  1.0000000000000003e-01  1.0001539157947796e-01  1.0000000000000003e-01  1.0010366295723964e-01  1.0000000000000003e-01  1.0005103532313496e-01  1.0000000000000003e-01  1.0006413818556519e-01  1.0000000000000003e-01  1.0004990351016671e-01  1.0000000000000003e-01  1.0005332420082631e-01  1.0000000000000003e-01  1.0004116758225749e-01  1.0000000000000003e-01  1.0004157626868718e-01  1.0000000000000003e-01  1.0003663772106901e-01  1.0000000000000003e-01  1.0003266702763207e-01  1.0000000000000003e-01  1.0002986396548386e-01  1.0000000000000003e-01  1.0002780110233166e-01  1.0000000000000003e-01  1.0002440816029468e-01  1.0000000000000003e-01  1.0002286190862865e-01  1.0000000000000003e-01  1.0002122106011016e-01  1.0000000000000003e-01  1.0001924720472144e-01  1.0000000000000003e-01  1.0001808161121818e-01  1.0000000000000003e-01  1.0001712311943931e-01  1.0000000000000003e-01  1.0001580284721361e-01  1.0000000000000003e-01  1.0001518894573937e-01  1.0000000000000003e-01  1.0001434359600009e-01  1.0000000000000003e-01  1.0001392887602409e-01  1.0000000000000003e-01  1.0001287281023903e-01  1.0000000000000003e-01  1.0001343577491789e-01  1.0000000000000003e-01  1.0001128254750155e-01  1.0000000000000003e-01  1.0001379094498725e-01  1.0000000000000003e-01  1.0000872008429293e-01  1.0000000000000003e-01  1.0001679622939834e-01  1.0000000000000001e-01  1.0000000000000003e-01  9.9995283211967434e-02  1.0000000000000003e-01  9.9996016330165124e-02  9.9995839705643866e-02  9.9995285120838370e-02  9.9993353873146548e-02  9.9993654985112507e-02  9.9993063778908611e-02  9.9990034989982712e-02  9.9991822362390306e-02  9.9990318701992376e-02  9.9989292940855665e-02  9.9980413814525146e-02  9.9985117576350382e-02  9.9976984534559846e-02  9.9981295991855540e-02  9.9976890304518146e-02  9.9970624271196143e-02  9.9971537126263124e-02  9.9967714407396518e-02  9.9957332436200710e-02  9.9961822644096074e-02  9.9950835849314787e-02  9.9950310116478328e-02  9.9938448099085114e-02  9.9954308605920569e-02  9.9908796183030418e-02  9.9980642386400045e-02  9.9851497177046847e-02  1.0004900167700788e-01  9.9763630124391101e-02  9.9835454537519394e-02  1.0048256592152539e-01  1.0017453132697998e-01  1.0001804472738864e-01  1.0004620198644666e-01  1.0003683509779902e-01  1.0005218975860446e-01  1.0002780618769498e-01  1.0003833955683793e-01  1.0003292145997669e-01  1.0002712510895441e-01  1.0002629305998170e-01  1.0002562894742237e-01  1.0002021961731994e-01  1.0001992694939639e-01  1.0001883426713880e-01  1.0001581033585348e-01  1.0001512835341483e-01  1.0001439050771448e-01  1.0001236134967464e-01  1.0001166535785783e-01  1.0001105725216058e-01  1.0000951047455267e-01  1.0000911871581795e-01  1.0000800302653613e-01  1.0000777747396195e-01  1.0000580464863951e-01  1.0000757333190630e-01  1.0000274604233277e-01  1.0000858197762995e-01  1.0000000000000003e-01  9.9992443895924030e-02  1.0000000000000003e-01  9.9995540694722398e-02  9.9993608362294664e-02  9.9991774226600494e-02  9.9991890588249296e-02  9.9991224474469051e-02  9.9986948461037090e-02  9.9988132038253449e-02  9.9987344611038434e-02  9.9983034999549386e-02  9.9981574604022141e-02  9.9987547563644752e-02  9.9963886353217971e-02  9.9975396750776768e-02  9.9969546116681227e-02  9.9961037859019497e-02  9.9964725442626107e-02  9.9958669024148850e-02  9.9945601851890539e-02  9.9948837436238044e-02  9.9942213184321158e-02  9.9923319508891509e-02  9.9935093144920870e-02  9.9911415077571356e-02  9.9921044588757515e-02  9.9888207360267170e-02  9.9939663973757711e-02  9.9820906576792948e-02  1.0003674282117665e-01  9.9632233014737892e-02  9.9924379911471267e-02  1.0038644861673171e-01  1.0022887659693390e-01  1.0004023752557620e-01  1.0006169911636471e-01  1.0009684067279186e-01  1.0003565402263344e-01  1.0006996984409096e-01  1.0005717280064901e-01  1.0004600192930908e-01  1.0004616655876949e-01  1.0004611423386635e-01  1.0003509048685878e-01  1.0003581367419835e-01  1.0003389266185228e-01  1.0002782923359085e-01  1.0002707953237315e-01  1.0002610219905227e-01  1.0002203912209233e-01  1.0002130245786929e-01  1.0002027375551517e-01  1.0001771525897146e-01  1.0001668626978932e-01  1.0001596391392562e-01  1.0001373717759718e-01  1.0001352481845022e-01  1.0001140086906328e-01  1.0001213981867769e-01  1.0000765635391612e-01  1.0001360060502616e-01  1.0000000000000003e-01  9.9990584914838074e-02  1.0000000000000003e-01  9.9994267090781491e-02  9.9989784032772103e-02  9.9990685382667061e-02  9.9989811561711578e-02  9.9985122002284488e-02  9.9986221200109499e-02  9.9985120303213465e-02  9.9979284871514307e-02  9.9981499314142089e-02  9.9981156264598622e-02  9.9968230658795246e-02  9.9983606766607475e-02  9.9960853613930950e-02  9.9960316846929714e-02  9.9962966882385068e-02  9.9961633515413012e-02  9.9945859910860857e-02  9.9954649666712900e-02  9.9944578383851110e-02  9.9931500319487818e-02  9.9933890046357512e-02  9.9932579962783513e-02  9.9902082362632413e-02  9.9936955738791425e-02  9.9878475705365150e-02  9.9953426259297012e-02  9.9815134860848545e-02  1.0006103793931528e-01  9.9613270169236920e-02  9.9943092884231727e-02  1.0049438308039252e-01  1.0013819809276524e-01  1.0002492702797297e-01  1.0017843176083524e-01  9.9994953627960875e-02  1.0009022201241514e-01  1.0005916167861793e-01  1.0005237213016099e-01  1.0005066198040018e-01  1.0005574627946123e-01  1.0003778559737148e-01  1.0004174710843365e-01  1.0003957290758306e-01  1.0003132833074080e-01  1.0003073707271649e-01  1.0002995396429830e-01  1.0002422263571241e-01  1.0002370286819483e-01  1.0002272022334259e-01  1.0001904134921447e-01  1.0001820459374139e-01  1.0001698365066032e-01  1.0001471536521044e-01  1.0001316467514962e-01  1.0001277953638826e-01  1.0000959891645725e-01  1.0001084348780666e-01  1.0000571081574752e-01  1.0001084219882700e-01  1.0000000000000003e-01  9.9988686716714487e-02  1.0000000000000003e-01  9.9991928994641627e-02  9.9989015636082854e-02  9.9989438364974634e-02  9.9984262062658799e-02  9.9985496463117690e-02  9.9983982313880337e-02  9.9977302591801431e-02  9.9979695880007088e-02  9.9979014012013520e-02  9.9967655983144194e-02  9.9974713762150599e-02  9.9967286053741042e-02  9.9969409954421537e-02  9.9951112795707439e-02  9.9959081365391889e-02  9.9940618082576205e-02  9.9952743595706370e-02  9.9944665147084583e-02  9.9925523571317523e-02  9.9937477736389738e-02  9.9922834603693000e-02  9.9910270437089096e-02  9.9907407862054667e-02  9.9919911556302310e-02  9.9860125587470400e-02  9.9951764340397098e-02  9.9790253132543347e-02  1.0006739426190087e-01  9.9555854553312034e-02  9.9851045571743208e-02  1.0054857267815638e-01  1.0019599300864376e-01  1.0008517552099222e-01  1.0007985597130256e-01  1.0011086607678049e-01  1.0007197715337114e-01  1.0006612427180234e-01  1.0005880039263537e-01  1.0007803306539934e-01  1.0004555032193754e-01  1.0005574249312266e-01  1.0005259658424744e-01  1.0004060198299994e-01  1.0004073601936528e-01  1.0004054290213435e-01  1.0003143791118069e-01  1.0003130098895392e-01  1.0003032642969502e-01  1.0002496846611264e-01  1.0002405950334901e-01  1.0002313928407817e-01  1.0001930587413599e-01  1.0001839274773730e-01  1.0001670897161866e-01  1.0001481545885518e-01  1.0001233014907962e-01  1.0001299851407049e-01  1.0000751156314187e-01  1.0001280030944525e-01  1.0000000000000003e-01  9.9986463046648266e-02  1.0000000000000003e-01  9.9991593644433371e-02  9.9987653840980614e-02  9.9984971192433492e-02  9.9984533011729687e-02  9.9983780192411997e-02  9.9977012124300338e-02  9.9978496102316419e-02  9.9977807072704636e-02  9.9968168227660081e-02  9.9971760409145641e-02  9.9968502390904435e-02  9.9959325385803932e-02  9.9960338088355957e-02  9.9974891736966248e-02  9.9927501170843563e-02  9.9953503746541467e-02  9.9942799630383064e-02  9.9927180257406087e-02  9.9938004833675820e-02  9.9931674594130188e-02  9.9902476664971249e-02  9.9926540207221359e-02  9.9899031634962054e-02  9.9903194529169403e-02  9.9871176075440674e-02  9.9947119413150057e-02  9.9771059364094805e-02  1.0009247169922629e-01  9.9511879161476108e-02  9.9885408310551163e-02  1.0050783659245432e-01  1.0024441332136237e-01  1.0000216490828125e-01  1.0012177111469603e-01  1.0009897904080534e-01  1.0010671424862594e-01  1.0003910949494592e-01  1.0010474852118484e-01  1.0004038997038651e-01  1.0006870724977859e-01  1.0006159890927040e-01  1.0004673679962686e-01  1.0004693958184199e-01  1.0004895076209926e-01  1.0003579222923922e-01  1.0003692388679504e-01  1.0003593389747396e-01  1.0002823679687180e-01  1.0002774121559831e-01  1.0002704560903247e-01  1.0002192879224892e-01  1.0002088423734860e-01  1.0001992758597762e-01  1.0001599868824186e-01  1.0001540143790784e-01  1.0001263440710258e-01  1.0001240908955385e-01  1.0000721708955680e-01  1.0001196053223059e-01  1.0000000000000003e-01  9.9985264003113319e-02  1.0000000000000003e-01  9.9990958483359774e-02  9.9983775516271314e-02  9.9985291616578431e-02  9.9983345501171383e-02  9.9977481422966558e-02  9.9978232611306242e-02  9.9977535787346153e-02  9.9968041671830848e-02  9.9971781007134913e-02  9.9969036726539687e-02  9.9956631780847613e-02  9.9961490047356230e-02  9.9963812276286756e-02  9.9939767041531222e-02  9.9970645215109913e-02  9.9930651731826040e-02  9.9925911191820677e-02  9.9936803854951892e-02  9.9931715144352937e-02  9.9907065319334312e-02  9.9921690557995005e-02  9.9916346423377003e-02  9.9875643433304767e-02  9.9919866004893693e-02  9.9860584043629880e-02  9.9925900376607313e-02  9.9780570374650754e-02  1.0008690283824490e-01  9.9475489245469770e-02  9.9908919471742741e-02  1.0055676413919085e-01  1.0018785234362589e-01  1.0004087703447807e-01  1.0015511833423450e-01  1.0005962329692301e-01  1.0008926180486537e-01  1.0013917511691678e-01  1.0003194131533635e-01  1.0008424495763346e-01  1.0006868675473132e-01  1.0005785195597586e-01  1.0005407879638266e-01  1.0006072773823017e-01  1.0004163868172554e-01  1.0004448402726139e-01  1.0004403449128539e-01  1.0003410218338295e-01  1.0003329947723651e-01  1.0003294904334874e-01  1.0002606580473331e-01  1.0002539899727476e-01  1.0002418384912137e-01  1.0001997491027870e-01  1.0001823387989821e-01  1.0001739540155169e-01  1.0001317481627658e-01  1.0001363385589621e-01  1.0000824235029848e-01  1.0001261410683716e-01  1.0000000000000003e-01  9.9984080088994565e-02  1.0000000000000003e-01  9.9988914195188572e-02  9.9983887982804123e-02  9.9984626080507316e-02  9.9978106880759074e-02  9.9979008812710837e-02  9.9977627942981345e-02  9.9969034311051891e-02  9.9971962930951730e-02  9.9970586023123559e-02  9.9957589242319664e-02  9.9962315773615598e-02  9.9961281522864612e-02  9.9943119089727944e-02  9.9958556720442127e-02  9.9945991118056132e-02  9.9949030217515139e-02  9.9922525856878705e-02  9.9935319746164555e-02  9.9902758868664940e-02  9.9930350840116519e-02  9.9913098191089289e-02  9.9891654994880424e-02  9.9900050874068225e-02  9.9912626009717939e-02  9.9835721633943511e-02  9.9948469114190364e-02  9.9769308086249550e-02  1.0007574721541385e-01  9.9473141362244735e-02  9.9850338993250576e-02  1.0060592636753736e-01  1.0022255286614656e-01  1.0007112985699905e-01  1.0010871709779484e-01  1.0007388949152581e-01  1.0012820905977632e-01  1.0006143757055223e-01  1.0011701134227409e-01  1.0005984025696626e-01  1.0007212533855989e-01  1.0005305459883224e-01  1.0007527548422927e-01  1.0004478840631768e-01  1.0005187055457494e-01  1.0005108526738171e-01  1.0003858013820320e-01  1.0003850140509683e-01  1.0003918078501092e-01  1.0002944437404401e-01  1.0002903271689051e-01  1.0002839326533243e-01  1.0002241782994309e-01  1.0002147124645824e-01  1.0001987882737656e-01  1.0001654770135035e-01  1.0001381254027968e-01  1.0001415528053992e-01  1.0000793166680519e-01  1.0001240963857097e-01  1.0000000000000003e-01  9.9982493104090145e-02  1.0000000000000003e-01  9.9989123293703686e-02  9.9983385280604950e-02  9.9980779448047216e-02  9.9979247394618526e-02  9.9978843269635506e-02  9.9970642340304880e-02  9.9972294693286792e-02  9.9971534587210850e-02  9.9960684187249335e-02  9.9963370017909198e-02  9.9962264436817883e-02  9.9945849346786117e-02  9.9955189304101161e-02  9.9951248885849137e-02  9.9936139136066679e-02  9.9940579944281863e-02  9.9962238031481104e-02  9.9889552380234614e-02  9.9930367803030232e-02  9.9917774950343388e-02  9.9886655096639410e-02  9.9919186352817796e-02  9.9893745508322862e-02  9.9881533982648152e-02  9.9866475769520693e-02  9.9939908037747147e-02  9.9743560989671104e-02  1.0009918186068183e-01  9.9458084554231510e-02  9.9858024267858475e-02  1.0058548582887748e-01  1.0025762842049124e-01  1.0002467221299390e-01  1.0013042544870540e-01  1.0011022482086337e-01  1.0008148698639983e-01  1.0008540924488180e-01  1.0010233650390098e-01  1.0009818237715044e-01  1.0004185206085696e-01  1.0009300298162531e-01  1.0004364738478019e-01  1.0006188391845069e-01  1.0005843681297780e-01  1.0004443523676508e-01  1.0004325889323501e-01  1.0004612484067993e-01  1.0003375415337998e-01  1.0003408132861488e-01  1.0003339117580703e-01  1.0002572715918352e-01  1.0002465661251472e-01  1.0002411631018622e-01  1.0001853508166668e-01  1.0001784778603126e-01  1.0001514157886163e-01  1.0001378779646405e-01  1.0000852911385533e-01  1.0001277691800629e-01  1.0000000000000003e-01  9.9981851131727265e-02  1.0000000000000003e-01  9.9988999196801640e-02  9.9980281263593054e-02  9.9981803545740114e-02  9.9979181751103943e-02  9.9973016629468572e-02  9.9973281448843182e-02  9.9972546697080417e-02  9.9962563024692280e-02  9.9965634328380043e-02  9.9964342090028482e-02  9.9949018568544781e-02  9.9955567534814965e-02  9.9954068649736022e-02  9.9935460754317751e-02  9.9944705524804070e-02  9.9949585122408355e-02  9.9911280517114204e-02  9.9961258606889716e-02  9.9902023451885591e-02  9.9893955470493428e-02  9.9911867169757418e-02  9.9913332507657965e-02  9.9859566237475397e-02  9.9919455677416155e-02  9.9859567510102984e-02  9.9906951094293747e-02  9.9777934144502173e-02  1.0009163937484321e-01  9.9431434385722023e-02  9.9877187368374823e-02  1.0061149750905302e-01  1.0022441904110896e-01  1.0003714457015159e-01  1.0016322958434111e-01  1.0006846477207161e-01  1.0009971665349908e-01  1.0010525509977371e-01  1.0007811168527959e-01  1.0007082321690162e-01  1.0012292092538065e-01  1.0003092071420998e-01  1.0007414481540944e-01  1.0005983663961741e-01  1.0005289396636186e-01  1.0004655686045195e-01  1.0005374681730123e-01  1.0003689254050557e-01  1.0003827583742765e-01  1.0003889488267113e-01  1.0002949469748727e-01  1.0002808133798864e-01  1.0002768572092464e-01  1.0002137764320636e-01  1.0001983066605344e-01  1.0001914580833260e-01  1.0001398688368464e-01  1.0001422466694176e-01  1.0000890000532317e-01  1.0001246203294424e-01  1.0000000000000003e-01  9.9981305911004736e-02  1.0000000000000003e-01  9.9987608525639843e-02  9.9981029039827099e-02  9.9982118531231803e-02  9.9975018048583941e-02  9.9975492408069147e-02  9.9973931713187664e-02  9.9965429812639006e-02  9.9967273646930560e-02  9.9966892596811935e-02  9.9953220702977380e-02  9.9957967951393861e-02  9.9956721765172382e-02  9.9938975912899672e-02  9.9947967994698239e-02  9.9947828268158609e-02  9.9920679018356814e-02  9.9944972682430799e-02  9.9928881329874611e-02  9.9928089709654569e-02  9.9899979552852361e-02  9.9911938585730914e-02  9.9871841695801891e-02  9.9903530710901106e-02  9.9909739601568529e-02  9.9823593268430225e-02  9.9947869715999310e-02  9.9775904922309644e-02  1.0005368467295883e-01  9.9471085385254385e-02  9.9835816447859410e-02  1.0066113060175556e-01  1.0023448651490117e-01  1.0006406345977070e-01  1.0012815617477924e-01  1.0007973960073668e-01  1.0012702595112453e-01  1.0007575393010913e-01  1.0008068981911067e-01  1.0010007107410034e-01  1.0006113603324661e-01  1.0009683087363477e-01  1.0005097488790586e-01  1.0006362074542677e-01  1.0004489137391802e-01  1.0006412390571992e-01  1.0003925927902148e-01  1.0004336290874064e-01  1.0004366703691782e-01  1.0003269292356469e-01  1.0003207388271064e-01  1.0003289500813152e-01  1.0002383093826246e-01  1.0002306757836649e-01  1.0002185736679468e-01  1.0001727260149562e-01  1.0001465512628759e-01  1.0001505548699398e-01  1.0000842881414843e-01  1.0001257052415026e-01  1.0000000000000003e-01  9.9980232898391891e-02  1.0000000000000003e-01  9.9988050601995768e-02  9.9981168542333090e-02  9.9979171943227918e-02  9.9976708565233899e-02  9.9976336792980153e-02  9.9968206936404708e-02  9.9969106415696979e-02  9.9968702633316489e-02  9.9957771727448796e-02  9.9960055793015298e-02  9.9959751274970240e-02  9.9943931421152488e-02  9.9950173553971469e-02  9.9950726658741260e-02  9.9927063781998768e-02  9.9942233629006394e-02  9.9937746223638338e-02  9.9915517696820180e-02  9.9924086937852152e-02  9.9956535467028720e-02  9.9849837736057795e-02  9.9920344698568586e-02  9.9888855998471734e-02  9.9869351994478606e-02  9.9875185030313493e-02  9.9941291694761278e-02  9.9735686013834354e-02  1.0009534051457677e-01  9.9475887380152825e-02  9.9819015339586009e-02  1.0065861100025984e-01  1.0026881131832388e-01  1.0003109960510267e-01  1.0013315240555458e-01  1.0010674230124596e-01  1.0009596964621190e-01  1.0008086886406045e-01  1.0010847589573492e-01  1.0006576011384023e-01  1.0007364615209602e-01  1.0007974580502559e-01  1.0008525141531542e-01  1.0003201166338788e-01  1.0007663581489462e-01  1.0003685228483446e-01  1.0005015575716505e-01  1.0004779465611308e-01  1.0003656721364483e-01  1.0003442589393517e-01  1.0003716867363167e-01  1.0002707561744333e-01  1.0002639807590064e-01  1.0002570124525295e-01  1.0001875827109995e-01  1.0001789210720627e-01  1.0001580783021798e-01  1.0001353571829170e-01  1.0000864669759181e-01  1.0001255624977569e-01  1.0000000000000003e-01  9.9980192999349543e-02  1.0000000000000003e-01  9.9988487232577208e-02  9.9979157170587543e-02  9.9980803206362934e-02  9.9977697786378675e-02  9.9972186584212266e-02  9.9971557038518524e-02  9.9970949540994281e-02  9.9961547814943680e-02  9.9963687671087958e-02  9.9962795656843989e-02  9.9948942187790782e-02  9.9953537796623554e-02  9.9954494707257160e-02  9.9934163802490414e-02  9.9943847715072476e-02  9.9944331586069621e-02  9.9917183078270716e-02  9.9932807020531492e-02  9.9940198908788691e-02  9.9887254688801774e-02  9.9955711812301701e-02  9.9885996664197327e-02  9