<?xml version="1.0"?>
<VTKFile type="UnstructuredGrid"  version="0.1"  >
<UnstructuredGrid>
<Piece  NumberOfPoints="1933" NumberOfCells="3640">
<Points>
<DataArray  type="Float64"  NumberOfComponents="3"  format="ascii">0.2935751101859403 0.002189008552462376 0  5.293575118051886 0.002103843629317301 0  5.293702936272264 7.502103905618328 0  0.2937028948073029 7.502189009949864 0  10.29357511103614 0.002018602603540058 0  10.29370302350863 7.50201869091719 0  15.29357512964462 0.001933205545456476 0  15.29370318618896 7.501933305254034 0  20.29357522868613 0.00184761458107254 0  20.29370345596524 7.501847719213178 0  25.29357546590627 0.001761819158037904 0  25.2937038669584 7.501761926314272 0  30.29357589801632 0.00167582684684131 0  30.29370445517685 7.501675936182644 0  35.29357658006142 0.001589657582445392 0  35.29370525810388 7.50158976983076 0  40.29357756628576 0.001503340235900648 0  40.2937063146766 7.501503456735847 0  45.29357891164876 0.001416910821896232 0  45.2937076656078 7.501417033307846 0  50.29358067361978 0.001330411902556578 0  50.29370935395077 7.501330542433291 0  55.29358291410742 0.001243892925767686 0  55.29371142581612 7.501244033894306 0  60.29358570149164 0.001157411368000276 0  60.29371393117236 7.501157565563587 0  65.29358911278447 0.001071034656014524 0  65.29371692467063 7.501071205366474 0  70.29359323596915 0.0009848429346927421 0  70.29372046644075 7.500985034086282 0  75.29359817258907 0.000898932844028999 0  75.29372462278924 7.500899149179537 0  80.29360404065707 0.0008134225829458394 0  80.29372946669912 7.500813669877397 0  85.293610977965 0.000728458691470565 0  85.2937350779778 7.500728743993461 0  90.29361914584116 0.0006442252056333511 0  90.2937415428032 7.500644557060487 0  95.29362873336461 0.0005609561782022811 0  95.29374895227639 7.500561344710809 0  100.2936399618926 0.000478953090457613 0  100.293757399371 7.50047940964365 0  105.2936530894591 0.0003986095358714253 0  105.2937669733535 7.500399145150987 0  110.2936684139028 0.000320446958375693 0  110.2937777503306 7.500321068075754 0  115.2936862721139 0.0002451675579301678 0  115.2937897781309 7.500245865323464 0  120.2937070296307 0.0001737343900491566 0  120.2938030535034 7.500174459617822 0  125.2937310481716 0.0001074952883128229 0  125.2938174904885 7.500108101776814 0  130.2937586046216 4.837824812012666e-05 0  130.2938328830851 7.50004849731873 0  135.2937897051013 -7.969116227460725e-07 0  135.2938488790896 7.49999797216084 0  140.2938236726848 -3.582684645566579e-05 0  140.2938650212132 7.499959672611331 0  145.2938582370805 -5.042136707659237e-05 0  145.2938810212748 7.499937794611286 0  150.2938874577732 -3.570481114743132e-05 0  150.2938977586932 7.499938026031108 0  160.2938926261464 1.33907162113263e-18 0  165.2937612514755 -0.0001609226307420356 0  165.2938690272284 7.499817643767019 0  160.2939106820107 7.499948350665906 0  170.2936813877599 -0.000308758237597341 0  170.2938267353485 7.49968032387633 0  175.2936306471953 -0.0004468593277757803 0  175.2937905865798 7.499546966904723 0  180.2935973127231 -0.0005767468832890533 0  180.2937614992171 7.499419565732552 0  185.2935748387516 -0.0006997889851241435 0  185.2937387110751 7.499297925501738 0  190.2935594072112 -0.0008172222095300215 0  190.2937210931976 7.499181315680644 0  195.2935487058227 -0.0009300845986944821 0  195.2937075742643 7.499068952360715 0  200.2935412812039 -0.001039210223380323 0  200.2936972572788 7.498960138488317 0  205.2935361851004 -0.001145257336659352 0  205.2936894280593 7.498854292235336 0  210.2935327760303 -0.001248744266077219 0  210.2936835297848 7.498750938836949 0  215.2935306052739 -0.001350081871074198 0  215.2936791312721 7.498649692755228 0  220.2935293495327 -0.001449599519970717 0  220.2936758984438 7.498550239652633 0  225.2935287699428 -0.001547564806757389 0  225.2936735713157 7.498452321067975 0  230.2935286863188 -0.001644198192845632 0  230.2936719463071 7.498355722232369 0  235.2935289604333 -0.001739683825363932 0  235.2936708629224 7.498260262644409 0  240.2935294848033 -0.001834177571053568 0  240.2936701938007 7.49816578883917 0  245.2935301749543 -0.001927813052568861 0  245.2936698372805 7.498072168823972 0  250.2935309639323 -0.002020706258914724 0  250.293669711822 7.497979287752543 0  255.2935317983421 -0.002112959138315663 0  255.2936697518097 7.497887044510076 0  260.2935326354386 -0.002204662463507386 0  260.2936699043726 7.497795348965214 0  265.2935334410041 -0.002295898174828973 0  265.2936701269815 7.497704119711164 0  270.2935341878199 -0.002386741344244843 0  270.2936703856449 7.497613282169856 0  275.2935348546565 -0.00247726185273351 0  275.2936706535673 7.497522766977379 0  280.2935354257357 -0.002567525822408088 0  280.2936709101864 7.497432508613104 0  285.2935358907021 -0.002657596776385776 0  285.2936711405065 7.497342444289571 0  290.2935362451545 -0.00274753638367945 0  290.2936713346557 7.497252513199279 0  295.293536491866 -0.002837404422727269 0  295.2936714876004 7.497162656336603 0  300.2935366427562 -0.002927257131802026 0  300.293671598935 7.497072817299548 0  305.2935367215139 -0.003017142087959663 0  305.2936716727982 7.49698294472241 0  310.293536766093 -0.003107085333528605 0  310.2936717183993 7.49689299717141 0  5.293830451707492 15.00210407206753 0  0.2938303999696182 15.00218902099249 0  10.29383055761688 15.00201892597755 0  15.29383074732673 15.00193356620293 0  20.29383104384678 15.00184798736334 0  25.29383146817507 15.00176219559314 0  30.29383204138257 15.00167620700806 0  35.29383278542668 15.00159004592237 0  40.29383372341528 15.00150374350956 0  45.29383487966512 15.00141733711675 0  50.29383627969148 15.00133087025916 0  55.2938379501624 15.00124439327651 0  60.29383991879473 15.00115796464836 0  65.29384221414308 15.00107165300651 0  70.2938448652046 15.00098553993673 0  75.29384790074532 15.00089972372995 0  80.29385134821737 15.00081432432428 0  85.29385523210767 15.00072948978262 0  90.2938595715147 15.00064540478019 0  95.29386437672377 15.00056230173544 0  100.293869644548 15.00048047539899 0  105.2938753523077 15.00040030188203 0  110.293881450618 15.00032226315316 0  115.2938878559152 15.00024697770272 0  120.2938944452503 15.00017523676323 0  125.2939010590428 15.00010804184015 0  130.2939075232086 15.00004663037072 0  135.293913711403 14.99999245534221 0  140.293919680299 14.99994703512158 0  145.2939259158016 14.99991146336499 0  150.2939336744505 14.99988498578152 0  165.2939409771733 14.9997596433102 0  160.2939492330183 14.99986393558137 0  170.2939263111383 14.99964380600015 0  175.2939089483207 14.99952417992165 0  180.2938916780533 14.99940515538985 0  185.2938759286041 14.9992886126399 0  190.293862249429 14.99917514332015 0  195.2938507170822 14.99906475240887 0  200.2938411831306 14.99895720643794 0  205.2938334102548 14.99885219628208 0  210.2938271417832 14.9987494089668 0  215.2938221343328 14.99864855623216 0  220.2938181709757 14.99854938323549 0  225.2938150646409 14.99845166863582 0  230.2938126569628 14.99835522134318 0  235.2938108152884 14.99825987632392 0  240.2938094291706 14.99816549047267 0  245.2938084069721 14.99807193892012 0  250.2938076728385 14.99797911186129 0  255.2938071641044 14.99788691187067 0  260.2938068291292 14.99779525163357 0  265.2938066255094 14.99770405201672 0  270.2938065186184 14.99761324041305 0  275.2938064804063 14.9975227493116 0  280.2938064883997 14.99743251506323 0  285.2938065248632 14.997342476834 0  290.2938065760486 14.99725257575169 0  295.2938066315452 14.99716275423737 0  300.2938066837516 14.99707295540641 0  305.2938067276701 14.99698312203495 0  310.2938067614226 14.99689319339621 0  5.29395753949446 22.50210445986959 0  0.2939574857487249 22.50218922223404 0  10.29395763569986 22.50201940376417 0  15.29395779992514 22.50193408100849 0  20.29395804905844 22.50184851401838 0  25.29395839542835 22.50176272575678 0  30.29395884928818 22.50167674214233 0  35.29395942011385 22.50159059304214 0  40.29396011713845 22.50150431272911 0  45.29396094942272 22.5014179402996 0  50.29396192564309 22.50133152031553 0  55.29396305368238 22.50124510381453 0  60.29396434005222 22.50115874978274 0  65.29396578913418 22.50107252717692 0  70.29396740220106 22.50098651759686 0  75.29396917617012 22.50090081873865 0  80.29397110202703 22.500815548795 0  85.29397316287763 22.5007308520059 0  90.29397533161436 22.50064690559051 0  95.29397756826816 22.50056392828752 0  100.2939798172735 22.50048219064819 0  105.2939820051728 22.50040202698188 0  110.2939840397845 22.50032384826935 0  115.2939858126771 22.50024815412729 0  120.2939872079755 22.50017553945251 0  125.2939881220692 22.50010668671147 0  130.2939885001774 22.50004232634207 0  135.2939883953349 22.49998313301818 0  140.2939880487628 22.49992950219619 0  145.2939879672026 22.49988112264919 0  150.293988911126 22.49983626823763 0  165.2940102633111 22.49969594512854 0  160.2940022697564 22.49978523769517 0  170.2940120397175 22.49959576110379 0  175.2940091571523 22.49948934935232 0  180.294003406221 22.49938028630746 0  185.2939962741513 22.49927087685268 0  190.2939887854707 22.4991624100239 0  195.2939815632427 22.49905551033227 0  200.2939749423778 22.49895041123211 0  205.2939690705504 22.49884713254438 0  210.2939639821586 22.49874558609503 0  215.2939596477576 22.49864563537528 0  220.2939560052787 22.49854712778365 0  225.2939529788887 22.498449911182 0  230.2939504898899 22.49835384174699 0  235.2939484626775 22.49825878712593 0  240.2939468277155 22.49816462714432 0  245.2939455227692 22.49807125329911 0  250.2939444931499 22.49797856769968 0  255.2939436914367 22.49788648180346 0  260.2939430769279 22.49779491512005 0  265.293942614991 22.49770379396541 0  270.2939422763746 22.49761305030083 0  275.2939420365337 22.49752262066651 0  280.2939418749672 22.49743244520673 0  285.2939417745757 22.49734246676806 0  290.2939417210364 22.49725263002195 0  295.2939417022113 22.49716288048966 0  300.2939417075993 22.49707316317
[...]
<PointData  Scalars="p"> 
<DataArray  type="Float64"  Name="p"  format="ascii">1.0000000000000001e-01  1.0000000000000003e-01  1.0000372062907074e-01  1.0000000000000003e-01  1.0000000000000003e-01  1.0000362867272104e-01  1.0000000000000003e-01  1.0000548244551752e-01  1.0000000000000003e-01  1.0000611491693503e-01  1.0000000000000003e-01  1.0000739379839843e-01  1.0000000000000003e-01  1.0000999640177961e-01  1.0000000000000003e-01  1.0001079625598920e-01  1.0000000000000003e-01  1.0001257667495254e-01  1.0000000000000003e-01  1.0001555734691064e-01  1.0000000000000003e-01  1.0001505057321013e-01  1.0000000000000003e-01  1.0002424580903910e-01  1.0000000000000003e-01  1.0002770187723864e-01  1.0000000000000003e-01  1.0003250470852730e-01  1.0000000000000003e-01  1.0003594357387610e-01  1.0000000000000003e-01  1.0004429277991179e-01  1.0000000000000003e-01  1.0004733763723733e-01  1.0000000000000003e-01  1.0005395060893894e-01  1.0000000000000003e-01  1.0006390892657330e-01  1.0000000000000003e-01  1.0006726725582349e-01  1.0000000000000003e-01  1.0007814223573883e-01  1.0000000000000003e-01  1.0008506894431961e-01  1.0000000000000003e-01  1.0009736927634064e-01  1.0000000000000003e-01  1.0009644154785843e-01  1.0000000000000003e-01  1.0012576334000951e-01  1.0000000000000003e-01  1.0010221726701962e-01  1.0000000000000003e-01  1.0016128858087743e-01  1.0000000000000003e-01  1.0009825007117146e-01  1.0000000000000003e-01  1.0020880916501983e-01  1.0000000000000003e-01  1.0008025228049798e-01  1.0000000000000001e-01  1.0028634617050911e-01  1.0000000000000001e-01  1.0000000000000003e-01  9.9800589403421652e-02  9.9552933362658455e-02  1.0000000000000003e-01  9.9956978271478800e-02  1.0000000000000003e-01  9.9845106065790737e-02  1.0000000000000003e-01  9.9908436551384483e-02  1.0000000000000003e-01  9.9891080418429465e-02  1.0000000000000003e-01  9.9907821458976573e-02  1.0000000000000003e-01  9.9901939567962894e-02  1.0000000000000003e-01  9.9916165114398478e-02  1.0000000000000003e-01  9.9914899020211639e-02  1.0000000000000003e-01  9.9920213207548347e-02  1.0000000000000003e-01  9.9924627182758172e-02  1.0000000000000003e-01  9.9927797324755721e-02  1.0000000000000003e-01  9.9930025381524956e-02  1.0000000000000003e-01  9.9934106699511902e-02  1.0000000000000003e-01  9.9935995930751240e-02  1.0000000000000003e-01  9.9938029144612139e-02  1.0000000000000003e-01  9.9940513341952766e-02  1.0000000000000003e-01  9.9942160560714921e-02  1.0000000000000003e-01  9.9943363693711776e-02  1.0000000000000003e-01  9.9945379129339221e-02  1.0000000000000003e-01  9.9946011760228284e-02  1.0000000000000003e-01  9.9947831501044818e-02  1.0000000000000003e-01  9.9947591603570904e-02  1.0000000000000003e-01  9.9950833292443295e-02  1.0000000000000003e-01  9.9947370202210090e-02  1.0000000000000003e-01  9.9955343878369643e-02  1.0000000000000003e-01  9.9943888087603960e-02  1.0000000000000003e-01  9.9964558546805998e-02  1.0000000000000003e-01  9.9929587666743758e-02  1.0000000000000001e-01  1.0000000000000003e-01  1.0000688225435027e-01  1.0000000000000003e-01  1.0000639290054507e-01  1.0000678497797545e-01  1.0000767567008126e-01  1.0001029989116880e-01  1.0001000854360949e-01  1.0001064257338421e-01  1.0001458434805620e-01  1.0001252176895306e-01  1.0001427952049440e-01  1.0001680334552855e-01  1.0002717240050751e-01  1.0002285201404280e-01  1.0003315550700728e-01  1.0002817783622647e-01  1.0003293583520552e-01  1.0004095712402387e-01  1.0003921304658109e-01  1.0004293842524851e-01  1.0005556954613569e-01  1.0004889715015690e-01  1.0006114494765456e-01  1.0006098060512923e-01  1.0007464087674060e-01  1.0005301617301440e-01  1.0010954525983219e-01  1.0001874356602064e-01  1.0017938325718527e-01  9.9933993131903626e-02  1.0028978114242221e-01  1.0020157198546696e-01  9.9339588959730510e-02  9.9783429123046302e-02  9.9971605380718059e-02  9.9939487940574959e-02  9.9951537480091862e-02  9.9929566045136684e-02  9.9959293107261968e-02  9.9945549845682269e-02  9.9950723425336965e-02  9.9957218474506226e-02  9.9957872898379332e-02  9.9957920744148096e-02  9.9964287663092441e-02  9.9964526486979746e-02  9.9965540927238097e-02  9.9969165965033385e-02  9.9969928527617852e-02  9.9970720914330971e-02  9.9973064538943682e-02  9.9974033432825821e-02  9.9974404393333965e-02  9.9976725851478293e-02  9.9976367989808287e-02  9.9978955420689644e-02  9.9976940805713538e-02  9.9983262602748327e-02  9.9973786162748685e-02  9.9992044895024737e-02  9.9965423149447327e-02  1.0000000000000003e-01  1.0001052841357722e-01  1.0000000000000003e-01  1.0000671740482203e-01  1.0000984670944960e-01  1.0001245567247105e-01  1.0001266470779775e-01  1.0001337165222640e-01  1.0001903116495925e-01  1.0001758569710294e-01  1.0001823742177397e-01  1.0002434241780155e-01  1.0002597552496872e-01  1.0002001364622658e-01  1.0004879329612124e-01  1.0003683093133417e-01  1.0004340508360879e-01  1.0005509006711394e-01  1.0004987036422992e-01  1.0005626987763760e-01  1.0007245856341408e-01  1.0006733557710301e-01  1.0007341461063897e-01  1.0009648543453169e-01  1.0007972181705310e-01  1.0010700301833492e-01  1.0009352151237959e-01  1.0013346664988888e-01  1.0006604100727576e-01  1.0021613331637941e-01  9.9944211757222248e-02  1.0045277110961845e-01  1.0011886735330994e-01  9.9425988018273334e-02  9.9684080325860583e-02  9.9938855626692719e-02  9.9916178910433182e-02  9.9865711276600586e-02  9.9942688955585987e-02  9.9899432788978976e-02  9.9912155223089799e-02  9.9924910362558877e-02  9.9924064875979809e-02  9.9922405700446887e-02  9.9935420398986563e-02  9.9934194814305918e-02  9.9935799514656379e-02  9.9943024535108047e-02  9.9943898564417030e-02  9.9944731350559035e-02  9.9949669913177316e-02  9.9950461031498655e-02  9.9951653326666862e-02  9.9954500692903334e-02  9.9956105715258745e-02  9.9956124066709812e-02  9.9960044114167160e-02  9.9958123772497798e-02  9.9963987737087825e-02  9.9957175734036480e-02  9.9973201343085627e-02  9.9945264690693328e-02  1.0000000000000003e-01  1.0001284031752566e-01  1.0000000000000003e-01  1.0000803972226774e-01  1.0001412242822884e-01  1.0001322506592422e-01  1.0001409684167099e-01  1.0002012911647239e-01  1.0001861826730854e-01  1.0001929165690066e-01  1.0002676665104443e-01  1.0002378972856529e-01  1.0002382749913036e-01  1.0004010091724787e-01  1.0002318383638123e-01  1.0004871229331445e-01  1.0005275767393257e-01  1.0004877491932677e-01  1.0004967429602389e-01  1.0006921109289175e-01  1.0005720650465745e-01  1.0006750097906299e-01  1.0008331828831930e-01  1.0007863469072097e-01  1.0007713039511967e-01  1.0011489002334867e-01  1.0006839341240917e-01  1.0014032560895438e-01  1.0004425055934009e-01  1.0022006084829087e-01  9.9907146297624830e-02  1.0047840999019088e-01  1.0010973395893585e-01  9.9281031623131552e-02  9.9798678319854936e-02  9.9973628739219431e-02  9.9771887269106269e-02  1.0000397784961265e-01  9.9887316175375343e-02  9.9921636897582780e-02  9.9928934721101065e-02  9.9930451606684359e-02  9.9921495609254687e-02  9.9942745235433145e-02  9.9937298677678810e-02  9.9938716032953664e-02  9.9948371238901670e-02  9.9948898998157010e-02  9.9949286939596510e-02  9.9956098344621547e-02  9.9956702226632915e-02  9.9957448542170133e-02  9.9961943687744387e-02  9.9962559000204065e-02  9.9964192566493804e-02  9.9966029825728886e-02  9.9969044251176323e-02  9.9966867856978614e-02  9.9974685166385982e-02  9.9965861874460188e-02  9.9983524663401130e-02  9.9958062477726942e-02  1.0000000000000003e-01  1.0001520782019099e-01  1.0000000000000003e-01  1.0001071845112147e-01  1.0001482460904976e-01  1.0001404010203918e-01  1.0002100989835008e-01  1.0001929843647324e-01  1.0002069438751586e-01  1.0002902423930556e-01  1.0002571465423062e-01  1.0002579315970754e-01  1.0004001921836084e-01  1.0003163873492900e-01  1.0003946799115924e-01  1.0004024148173762e-01  1.0006008512924966e-01  1.0005221898114212e-01  1.0007544922357342e-01  1.0006014625648771e-01  1.0006761986979323e-01  1.0009164218738975e-01  1.0007462630808188e-01  1.0009005324171545e-01  1.0010455336620254e-01  1.0010650303717253e-01  1.0008607918996491e-01  1.0016249133820261e-01  1.0004233676407338e-01  1.0024909298136493e-01  9.9893819390162591e-02  1.0055289002764091e-01  1.0023596506113189e-01  9.9192505332406020e-02  9.9729190188299302e-02  9.9898613985652002e-02  9.9883721735126982e-02  9.9862836092359200e-02  9.9905114136860873e-02  9.9911462231797504e-02  9.9921641551322410e-02  9.9893592295739436e-02  9.9932497807172310e-02  9.9919233858507026e-02  9.9920981902186470e-02  9.9934876657458829e-02  9.9934442967587245e-02  9.9933584448714002e-02  9.9944414974054013e-02  9.9944478529830710e-02  9.9945187851334855e-02  9.9951487547122714e-02  9.9952594570268852e-02  9.9953098747708330e-02  9.9957955456344560e-02  9.9958168550255022e-02  9.9960982143876831e-02  9.9961139353578296e-02  9.9967173026433709e-02  9.9960052942821939e-02  9.9977288845094742e-02  9.9951052249197092e-02  1.0000000000000003e-01  1.0001799889627716e-01  1.0000000000000003e-01  1.0001097490020687e-01  1.0001601165434536e-01  1.0001935179364688e-01  1.0001995724985342e-01  1.0002048030270913e-01  1.0002897943872029e-01  1.0002684073930014e-01  1.0002662386237579e-01  1.0003872184672595e-01  1.0003391983175457e-01  1.0003660832446108e-01  1.0004925437448188e-01  1.0004690819799458e-01  1.0003053780108817e-01  1.0008698837637087e-01  1.0005785759133080e-01  1.0006863115289884e-01  1.0008935028148595e-01  1.0007392971499053e-01  1.0007854439165943e-01  1.0011490697767263e-01  1.0008187375345703e-01  1.0011322597027521e-01  1.0010566003842986e-01  1.0014650584730204e-01  1.0004276762236752e-01  1.0027377684926671e-01  9.9855393717838470e-02  1.0061172830411716e-01  1.0020974678132383e-01  9.9232140790183235e-02  9.9666348546772754e-02  1.0000914767260151e-01  9.9843197835434300e-02  9.9873621623337266e-02  9.9863375528242995e-02  9.9953350340459240e-02  9.9866687282876246e-02  9.9945457529351939e-02  9.9910085306170959e-02  9.9915707770762530e-02  9.9932781155806436e-02  9.9932134491028959e-02  9.9927890218942536e-02  9.9943512335093548e-02  9.9941926132159881e-02  9.9942241644799090e-02  9.9951480744973620e-02  9.9951920373680475e-02  9.9952386249781200e-02  9.9958166300585682e-02  9.9959616196624718e-02  9.9959605576110735e-02  9.9965325264556912e-02  9.9963570392862952e-02  9.9970105004311971e-02  9.9963869816454734e-02  9.9980425465016981e-02  9.9955983746770782e-02  1.0000000000000003e-01  1.0001951534006460e-01  1.0000000000000003e-01  1.0001146688540194e-01  1.0002077430699954e-01  1.0001858189322722e-01  1.0002069140275235e-01  1.0002800655939835e-01  1.0002713151033021e-01  1.0002691975801688e-01  1.0003889189451581e-01  1.0003386268690491e-01  1.0003571301132934e-01  1.0005172129182029e-01  1.0004507788994729e-01  1.0004123234278157e-01  1.0007089634406319e-01  1.0003562345276228e-01  1.0007934022609459e-01  1.0009061125245093e-01  1.0007538485234108e-01  1.0007968463423728e-01  1.0011006777296319e-01  1.0009001835263322e-01  1.0009176822017325e-01  1.0014343326994332e-01  1.0008307807189255e-01  1.0015724412059912e-01  1.0006814800729412e-01  1.0026235417416851e-01  9.9854232796176182e-02  1.0066581870082000e-01  1.0018483451342337e-01  9.9165699681622740e-02  9.9734883114718703e-02  9.9970614051847345e-02  9.9799524576239459e-02  9.9925401202712122e-02  9.9883195737456076e-02  9.9825174882937545e-02  9.9957025285639309e-02  9.9893239821282537e-02  9.9909430489725490e-02  9.9920877137633674e-02  9.9925177755643288e-02  9.9914509115387351e-02  9.9937031898883227e-02  9.9933142496881011e-02  9.9932493518159887e-02  9.9944140707958748e-02  9.9945015131726669e-02  9.9944722661242436e-02  9.9953010055313318e-02  9.9953453843360962e-02  9.9954765849756905e-02  9.9958958607895165e-02  9.9961804972743276e-02  9.9960430087018867e-02  9.9968463988230338e-02  9.9961648691493404e-02  9.9978023710208377e-02  9.9954171268756942e-02  1.0000000000000003e-01  1.0002092402281020e-01  1.0000000000000003e-01  1.0001397849363916e-01  1.0002049645604177e-01  1.0001885918496418e-01  1.0002706557486644e-01  1.0002572847773999e-01  1.0002664757305385e-01  1.0003754718957200e-01  1.0003354477649053e-01  1.0003401715523133e-01  1.0005031688675299e-01  1.0004392460436744e-01  1.0004368435040409e-01  1.0006648816245813e-01  1.0004741993483508e-01  1.0005964846610070e-01  1.0006102091480108e-01  1.0008844119179829e-01  1.0007475123614926e-01  1.0011578247733434e-01  1.0008037545596969e-01  1.0009772032080171e-01  1.0012410333167897e-01  1.0011189781207201e-01  1.0008896326848722e-01  1.0018987442269917e-01  1.0003749520618727e-01  1.0027567341267778e-01  9.9863779206237652e-02  1.0067686715761005e-01  1.0026388729821274e-01  9.9096636127177132e-02  9.9695842963973033e-02  9.9934961483740564e-02  9.9860306323155942e-02  9.9915956021459348e-02  9.9837379896535475e-02  9.9917878663065396e-02  9.9854096182032753e-02  9.9924411197660892e-02  9.9906831199830792e-02  9.9931246363250417e-02  9.9900605994330205e-02  9.9936750264043722e-02  9.9927602017852807e-02  9.9926744666064951e-02  9.9941258506191830e-02  9.9941195901085814e-02  9.9939352634150033e-02  9.9950795741157478e-02  9.9951329532129665e-02  9.9951295761114792e-02  9.9958656389224493e-02  9.9958885574693540e-02  9.9961346592922815e-02  9.9963101677388144e-02  9.9969205486358154e-02  9.9962573163368595e-02  9.9979646270298150e-02  9.9956347840621559e-02  1.0000000000000003e-01  1.0002292970299929e-01  1.0000000000000003e-01  1.0001366061821226e-01  1.0002077482636505e-01  1.0002362336694187e-01  1.0002546521421508e-01  1.0002505765878293e-01  1.0003538277744450e-01  1.0003300244834172e-01  1.0003294666086894e-01  1.0004663872245285e-01  1.0004293406643354e-01  1.0004264659709695e-01  1.0006339140862501e-01  1.0005135380323250e-01  1.0005348840633430e-01  1.0007389925136341e-01  1.0006610226521230e-01  1.0004102766238218e-01  1.0012740168764445e-01  1.0008092215820814e-01  1.0009215255681118e-01  1.0013331419128180e-01  1.0008898176488017e-01  1.0011728846020539e-01  1.0012996088128098e-01  1.0015127887333085e-01  1.0004455867560857e-01  1.0031166539822937e-01  9.9829293221089743e-02  1.0070235571009466e-01  1.0026130397155565e-01  9.9117706386681742e-02  9.9650146054729591e-02  9.9995080829250418e-02  9.9837891972221773e-02  9.9872072653694355e-02  9.9896689852788031e-02  9.9894556397906786e-02  9.9866005977743824e-02  9.9874610043200321e-02  9.9947111041410866e-02  9.9880960526358933e-02  9.9940770369981877e-02  9.9917838419558758e-02  9.9919739984666009e-02  9.9935705434273159e-02  9.9936900698347278e-02  9.9931842733357104e-02  9.9946509123567964e-02  9.9945826871534277e-02  9.9945923563340450e-02  9.9954798059125452e-02  9.9956255140898620e-02  9.9955731059043054e-02  9.9963148867098048e-02  9.9961802324620957e-02  9.9967551599871807e-02  9.9963303857379227e-02  9.9978742058164288e-02  9.9956163413078697e-02  1.0000000000000003e-01  1.0002372619412600e-01  1.0000000000000003e-01  1.0001362683657279e-01  1.0002471330160952e-01  1.0002228221874337e-01  1.0002496745532845e-01  1.0003242985769212e-01  1.0003186981123718e-01  1.0003166472382299e-01  1.0004419954403422e-01  1.0004034542307585e-01  1.0004035209956931e-01  1.0005990539419836e-01  1.0005137022911444e-01  1.0005077173428664e-01  1.0007464429400201e-01  1.0006182037648970e-01  1.0005370241451686e-01  1.0010083962239351e-01  1.0004275264547977e-01  1.0010697976559138e-01  1.0012453050228366e-01  1.0009998129592401e-01  1.0009400423372204e-01  1.0016275587827135e-01  1.0008248465484140e-01  1.0015731899080815e-01  1.0008829822081799e-01  1.0026971105828196e-01  9.9832930909155335e-02  1.0074565737230839e-01  1.0024000032746386e-01  9.9086692701932128e-02  9.9691402618451191e-02  9.9984528411892329e-02  9.9797395955921728e-02  9.9925698128533774e-02  9.9880014299364578e-02  9.9871288209274461e-02  9.9899145632895217e-02  9.9906961696656429e-02  9.9844198989843938e-02  9.9958837464389591e-02  9.9905427952984557e-02  9.9921381006190621e-02  9.9928126870796719e-02  9.9935621562063759e-02  9.9924891181742345e-02  9.9944629122488735e-02  9.9942629172245820e-02  9.9940770964323300e-02  9.9951805046983408e-02  9.9953117180317158e-02  9.9953275736465494e-02  9.9960039743567125e-02  9.9962601264690129e-02  9.9961097820718159e-02  9.9969848949174794e-02  9.9963829916202576e-02  9.9978932963242062e-02  9.9957863638928099e-02  1.0000000000000003e-01  1.0002437587930771e-01  1.0000000000000003e-01  1.0001542825239519e-01  1.0002383264430074e-01  1.0002155105934445e-01  1.0003033469227547e-01  1.0002933292908338e-01  1.0003034754455919e-01  1.0004079269834640e-01  1.0003830086172069e-01  1.0003746006624160e-01  1.0005490856956274e-01  1.0004882919137367e-01  1.0004854135298204e-01  1.0007106353118858e-01  1.0005895744906461e-01  1.0005638367389007e-01  1.0009038982980677e-01  1.0006014122876242e-01  1.0007472449357940e-01  1.0008307457045014e-01  1.0010969014769981e-01  1.0009738840290631e-01  1.0014784090683657e-01  1.0010829041866659e-01  1.0009177214788648e-01  1.0020640274002401e-01  1.0003724201437243e-01  1.0027044845335631e-01  9.9881962840854377e-02  1.0070154759657950e-01  1.0029143887893334e-01  9.9029877447830275e-02  9.9680985412884102e-02  9.9952120223550364e-02  9.9840992228767120e-02  9.9915400944192559e-02  9.9846271154832744e-02  9.9909656931373714e-02  9.9900068736860373e-02  9.9872670514648390e-02  9.9915921088618409e-02  9.9876899908639363e-02  9.9933898603871654e-02  9.9916653131894684e-02  9.9940302845707082e-02  9.9914320104825843e-02  9.9943634695372666e-02  9.9938179416475648e-02  9.9936397253321721e-02  9.9948927993783881e-02  9.9949623404101143e-02  9.9947465955297396e-02  9.9958333945644795e-02  9.9958537652703336e-02  9.9960302625478920e-02  9.9963849904211879e-02  9.9969397867116422e-02  9.9963325907468786e-02  9.9979679324765244e-02  9.9958484533047856e-02  1.0000000000000003e-01  1.0002575135992599e-01  1.0000000000000003e-01  1.0001492058858102e-01  1.0002346001123612e-01  1.0002539780048289e-01  1.0002832012923679e-01  1.0002776815414702e-01  1.0003779415324544e-01  1.0003631375772287e-01  1.0003556588914321e-01  1.0004938323840178e-01  1.0004635275637315e-01  1.0004534549818248e-01  1.0006556870632173e-01  1.0005749381510821e-01  1.0005412010751884e-01  1.0008386289954244e-01  1.0006431014193062e-01  1.0006558672982688e-01  1.0009563933593532e-01  1.0008177320518315e-01  1.0004307544871206e-01  1.0017084718224892e-01  1.0008769180705636e-01  1.0012196412899294e-01  1.0014747825231213e-01  1.0014184964679142e-01  1.0004322168926416e-01  1.0032522306401058e-01  9.9830121173777223e-02  1.0069559464262617e-01  1.0031060394390534e-01  9.9041970724724274e-02  9.9640822486191633e-02  9.9993176762177297e-02  9.9837034826651724e-02  9.9882445619659393e-02  9.9885107318110525e-02  9.9906576817803142e-02  9.9867164706399003e-02  9.9916454371315799e-02  9.9905186374528818e-02  9.9893370690766370e-02  9.9889096738531510e-02  9.9957827176120465e-02  9.9900781837007457e-02  9.9949055542136525e-02  9.9932199728846829e-02  9.9933372089360969e-02  9.9946049973877557e-02  9.9948320703487081e-02  9.9943779665673194e-02  9.9955394994389130e-02  9.9956172093617693e-02  9.9955689572952214e-02  9.9964640615536476e-02  9.9963837779956377e-02  9.9968449899713097e-02  9.9965980733514412e-02  9.9979876270106183e-02  9.9959613041759571e-02  1.0000000000000003e-01  1.0002591505672789e-01  1.0000000000000003e-01  1.0001437004250970e-01  1.0002623815658378e-01  1.0002358720154517e-01  1.0002689682391891e-01  1.0003340207119434e-01  1.0003393527892902e-01  1.0003351064853566e-01  1.0004520464776720e-01  1.0004236223494724e-01  1.0004205710537366e-01  1.0005974806563744e-01  1.0005418567845598e-01  1.0005086807149553e-01  1.0007670858109043e-01  1.0006407095451016e-01  1.0005973426927840e-01  1.0009461338238887e-01  1.0007346713026134e-01  1.0006112220525697e-01  1.0012660585614239e-01  1.0004680619135481e-01  1.0011953707049903e-01  1