<?xml version="1.0"?>
<VTKFile type="UnstructuredGrid"  version="0.1"  >
<UnstructuredGrid>
<Piece  NumberOfPoints="1933" NumberOfCells="3640">
<Points>
<DataArray  type="Float64"  NumberOfComponents="3"  format="ascii">-0.0002655792710686278 0.001801804986024138 0  4.999734430789379 0.001729934311892516 0  4.999842298010956 7.501729995941699 0  -0.0001577425608734195 7.50180181181758 0  9.999734429865269 0.001657991693889087 0  9.999842381299421 7.501658076631629 0  14.99973445625364 0.001585907486309585 0  14.99984253433511 7.501586002209824 0  19.99973456034429 0.001513650706037793 0  19.99984278568351 7.501513749453862 0  24.99973479450745 0.0014412152365375 0  24.9998431658762 7.501441315931468 0  29.99973520966905 0.001368611353509174 0  29.99984370687003 7.501368713750146 0  34.999735854855 0.001295860497040629 0  34.99984444166227 7.501295965294581 0  39.99973677803695 0.001222992209342595 0  39.99984540425635 7.501223100628265 0  44.99973802752319 0.001150042577189345 0  44.99984662992716 7.501150156171652 0  49.99973965356668 0.001077053767748108 0  49.99984815569118 7.501077174363011 0  54.99974171006527 0.001004074416734087 0  54.99985002089557 7.501004204117252 0  59.99974425632729 0.0009311607516787463 0  59.99985226786072 7.500931301993588 0  64.99974735892386 0.0008583784303673563 0  64.9998549425177 7.500858534066889 0  69.99975109366778 0.0007858051607139048 0  69.99985809498621 7.500785978576262 0  74.99975554777332 0.0007135342573756167 0  74.99986178002086 7.500713729508046 0  79.9997608222445 0.0006416793972700008 0  79.99986605722231 7.500641901371536 0  84.99976703453797 0.0005703809798674208 0  84.99987099085563 7.500570635558455 0  89.99977432150195 0.0004998147062971205 0  89.9998766490264 7.500500108862609 0  94.99978284253189 0.00043020330723179 0  94.99988310182812 7.500430545002395 0  99.99979278270015 0.000361832843979994 0  99.99989041787182 7.5003622303746 0  104.9998043552688 0.0002950757979192316 0  104.9998986583224 7.500295535825003 0  109.9998178022224 0.0002304244483782853 0  109.9999078672055 7.500230947001127 0  114.9998333898743 0.000168540150982429 0  114.9999180564101 7.500169106886863 0  119.9998513932861 0.0001103276208100852 0  119.999929183788 7.500110875314364 0  124.9998720563871 5.704908509440249e-05 0  124.9999411239798 7.500057411175762 0  129.9998955004241 1.050244770548378e-05 0  129.9999536364465 7.500010282433378 0  134.9999215235475 -2.669885340181766e-05 0  134.9999663497707 7.499971603954029 0  139.9999491704295 -5.069530136554461e-05 0  139.9999788212663 7.499944189993896 0  144.9999758056295 -5.579803128908548e-05 0  144.9999908393377 7.499931700349469 0  149.9999950470541 -3.421662595792896e-05 0  150.0000034493521 7.499938924679014 0  160.0000000000001 1.245644440399154e-18 0  164.9998827342509 -0.0001465993324193763 0  164.9999791446944 7.499833421131812 0  160.0000157640024 7.499951861765033 0  169.9998125438383 -0.0002796193583129354 0  169.9999419089111 7.499710238514646 0  174.9997687247514 -0.0004026619864052625 0  174.9999102463659 7.499591632046559 0  179.9997405024888 -0.0005174536768782243 0  179.9998849646073 7.499479158071205 0  184.9997218986066 -0.0006254648263844617 0  184.9998653426265 7.499372448377454 0  189.9997094523553 -0.0007279737325863537 0  189.9998503360582 7.499270700573486 0  194.9997010854994 -0.0008260312079326743 0  194.9998389626838 7.499173102334795 0  199.9996955037223 -0.0009204714538842341 0  199.9998304057842 7.49907894762597 0  204.9996918707407 -0.001011947752159011 0  204.9998240192435 7.498987654411795 0  209.9996896264649 -0.001100971655790454 0  209.999819302467 7.49889875161721 0  214.9996883830263 -0.001187946829916224 0  214.999815870246 7.498811859031347 0  219.999687863714 -0.001273195579992921 0  219.9998134260115 7.498726668228576 0  224.9996878660356 -0.00135697877065597 0  224.999811740438 7.49864292675265 0  229.9996882386573 -0.001439510528705529 0  229.9998106351027 7.498560425702753 0  234.9996888665366 -0.001520969068412751 0  234.9998099702527 7.498478990202595 0  239.9996896610242 -0.00160150471223049 0  239.9998096357176 7.498398472123703 0  244.999690553089 -0.001681245905617861 0  244.9998095441558 7.498318744507055 0  249.9996914885504 -0.00176030380055551 0  249.9998096260189 7.498239697242204 0  254.9996924246705 -0.001838775815215385 0  254.9998098257858 7.498161233671454 0  259.9996933276797 -0.001916748457292063 0  259.9998100991287 7.498083267874295 0  264.9996941710011 -0.001994299612846034 0  264.9998104107894 7.4980057224555 0  269.9996949340007 -0.002071500439221156 0  269.9998107329988 7.497928526713648 0  274.9996956012026 -0.002148416948712072 0  274.999811044312 7.497851615112382 0  279.9996961619235 -0.002225111317364661 0  279.9998113287833 7.497774926021724 0  284.999696610362 -0.002301642884420076 0  284.9998115753998 7.497698400751512 0  289.9996969461776 -0.002378068694323994 0  289.9998117777044 7.497621982976149 0  294.9996971756507 -0.002454443219849702 0  294.9998119335449 7.497545618765703 0  299.9996973134358 -0.002530816473026333 0  299.9998120448774 7.49746925761132 0  304.9996973847021 -0.00260722878534195 0  304.999812117688 7.497392855057019 0  309.9996974267472 -0.002683698430781305 0  309.9998121625352 7.497316377722584 0  4.999949887606943 15.00173015673843 0  -5.016190755396943e-05 15.00180183458321 0  9.999949985972965 15.00165829661271 0  14.99995015974364 15.00158624312695 0  19.99995042926381 15.00151399488331 0  24.99995081290388 15.00144156074661 0  29.99995132893282 15.00136895854291 0  34.99995199621948 15.00129621350045 0  39.99995283443162 15.00122335709138 0  44.99995386404591 15.0011504264702 0  49.99995510629109 15.00107746453254 0  54.999956583051 15.00100452057746 0  59.99995831670408 15.00093165157092 0  64.9999603298523 15.00085892404627 0  69.99996264486754 15.00078641672729 0  74.99996528316827 15.00071422402038 0  79.99996826410788 15.00064246059608 0  84.999971603334 15.00057126737106 0  89.99997531044306 15.00050081931447 0  94.99997938574498 15.00043133563604 0  99.9999838159714 15.00036309305581 0  104.9999885688994 15.00029644296418 0  109.9999935872004 15.00023183324218 0  114.9999987826365 15.00016983506034 0  120.0000040333528 15.00011117350877 0  125.0000091901415 15.00005675713154 0  130.0000141030314 15.00000769253851 0  135.0000186881195 14.99996525006814 0  140.0000230649441 14.99993070019455 0  145.0000277961304 14.99990482548151 0  150.0000342029845 14.99988656951439 0  165.0000421054119 14.99977939160128 0  160.0000490433883 14.99987242130686 0  170.0000292442343 14.9996764538771 0  175.0000139256061 14.99957068414078 0  179.9999987099941 14.99946599641445 0  184.9999848918296 14.99936400039622 0  189.9999729576774 14.99926514177713 0  194.9999629638857 14.99916934856727 0  199.99995476501 14.99907634780395 0  204.9999481381107 14.99898581118736 0  209.9999428455834 14.99889741761746 0  214.9999386641822 14.99881087673042 0  219.9999353963559 14.9987259348529 0  224.999932872815 14.99864237356647 0  229.9999309510855 14.99856000560434 0  234.999929512498 14.99847867017169 0  239.9999284587968 14.99839822853886 0  244.9999277089175 14.9983185601896 0  249.9999271961456 14.99823955956158 0  254.999926865705 14.9981611333199 0  259.9999266727592 14.99808319807898 0  264.9999265807715 14.99800567848889 0  269.9999265601717 14.99792850561805 0  274.9999265872653 14.99785161558264 0  279.9999266433283 14.99777494839404 0  284.9999267138519 14.99769844701717 0  289.9999267878699 14.99762205664613 0  294.9999268573958 14.99754572418896 0  299.9999269169984 14.99746939785092 0  304.9999269637397 14.99739302633947 0  309.9999269978962 14.99731655611371 0  5.000057097609784 22.50173052276821 0  5.704662969541197e-05 22.50180203934172 0  10.00005718595601 22.50165873784339 0  15.0000573341533 22.50158671272004 0  20.0000575568272 22.50151447090495 0  25.00005786442244 22.50144203620384 0  30.00005826541864 22.50136943502501 0  35.00005876746886 22.50129669735157 0  40.00005937784648 22.50122385720933 0  45.00006010347288 22.50115095309276 0  50.00006095069109 22.50107802859335 0  55.00006192486189 22.50100513336159 0  60.00006302980864 22.50093232448824 0  65.00006426710029 22.50085966838223 0  70.00006563514047 22.50078724323484 0  75.00006712802447 22.50071514218405 0  80.00006873411901 22.50064347732276 0  85.00007043434213 22.50057238472122 0  90.0000722001584 22.50050203064958 0  95.00007399139474 22.50043261916476 0  100.0000757541471 22.50036440112196 0  105.0000774193463 22.50029768440135 0  110.0000789030418 22.50023284453448 0  115.0000801102354 22.50017033368254 0  120.0000809451924 22.50011068352988 0  125.0000813324951 22.5000544932304 0  130.0000812541462 22.50000238568328 0  135.0000808070972 22.49995490221157 0  140.0000802784136 22.49991228567414 0  145.0000802120616 22.49987407971771 0  150.0000813829626 22.49983848875419 0  165.000101495257 22.499719937331 0  160.0000941117181 22.4997982734652 0  170.0001031545939 22.49963194256748 0  175.0001005627441 22.49953862429512 0  180.0000953827826 22.49944324698675 0  185.0000889807913 22.49934787635818 0  190.0000822887361 22.49925363842732 0  195.0000758669705 22.49916105306213 0  200.0000700116098 22.49907028887064 0  205.0000648486156 22.49898132659028 0  210.0000604020892 22.49889405524627 0  215.0000566395463 22.49880832570919 0  220.0000535002723 22.4987239790903 0  225.0000509122866 22.49864086089075 0  230.0000488020265 22.4985588273467 0  235.0000470995422 22.49847774763789 0  240.0000457410107 22.49839750399617 0  245.0000446696982 22.49831799081837 0  250.0000438360568 22.49823911336696 0  255.0000431973743 22.49816078635645 0  260.0000427172005 22.49808293257017 0  265.000042364699 22.49800548157037 0  270.00004211398 22.49792836852516 0  275.0000419434551 22.49785153315491 0  280.0000418352152 22.49777491878998 0  285.0000417744385 22.49769847151773 0  290.0000417488305 22.4976221393668 0  295.0000417481216 22.4975458714048 0  300.000041763643 22.497
[...]
<PointData  Scalars="p"> 
<DataArray  type="Float64"  Name="p"  format="ascii">1.0000000000000001e-01  1.0000000000000003e-01  1.0000389869565725e-01  1.0000000000000003e-01  1.0000000000000003e-01  1.0000453206209946e-01  1.0000000000000003e-01  1.0000684396749088e-01  1.0000000000000003e-01  1.0000801769002374e-01  1.0000000000000003e-01  1.0000968401629760e-01  1.0000000000000003e-01  1.0001242146197428e-01  1.0000000000000003e-01  1.0001364572327759e-01  1.0000000000000003e-01  1.0001552186099061e-01  1.0000000000000003e-01  1.0001860903611848e-01  1.0000000000000003e-01  1.0001906468264841e-01  1.0000000000000003e-01  1.0002672294489680e-01  1.0000000000000003e-01  1.0003094901978646e-01  1.0000000000000003e-01  1.0003546937861067e-01  1.0000000000000003e-01  1.0003911232370964e-01  1.0000000000000003e-01  1.0004648965892193e-01  1.0000000000000003e-01  1.0004947223296012e-01  1.0000000000000003e-01  1.0005489915971984e-01  1.0000000000000003e-01  1.0006322745346904e-01  1.0000000000000003e-01  1.0006569281359944e-01  1.0000000000000003e-01  1.0007398990776556e-01  1.0000000000000003e-01  1.0007904532545088e-01  1.0000000000000003e-01  1.0008810591780523e-01  1.0000000000000003e-01  1.0008597416723919e-01  1.0000000000000003e-01  1.0010864880462969e-01  1.0000000000000003e-01  1.0008788327711189e-01  1.0000000000000003e-01  1.0013415593679043e-01  1.0000000000000003e-01  1.0008158113813959e-01  1.0000000000000003e-01  1.0016940391020304e-01  1.0000000000000003e-01  1.0006434296858982e-01  1.0000000000000001e-01  1.0022914753189664e-01  1.0000000000000001e-01  1.0000000000000003e-01  9.9813970870687843e-02  9.9617560187187926e-02  1.0000000000000003e-01  9.9945781745307397e-02  1.0000000000000003e-01  9.9853039710418090e-02  1.0000000000000003e-01  9.9902883122408789e-02  1.0000000000000003e-01  9.9887902949811674e-02  1.0000000000000003e-01  9.9900755975774150e-02  1.0000000000000003e-01  9.9894659355203710e-02  1.0000000000000003e-01  9.9905520035258266e-02  1.0000000000000003e-01  9.9903880080184651e-02  1.0000000000000003e-01  9.9907539921428437e-02  1.0000000000000003e-01  9.9910711033161806e-02  1.0000000000000003e-01  9.9913037322227990e-02  1.0000000000000003e-01  9.9914579411189419e-02  1.0000000000000003e-01  9.9917790071247861e-02  1.0000000000000003e-01  9.9919300610715106e-02  1.0000000000000003e-01  9.9920949485576935e-02  1.0000000000000003e-01  9.9922995063030359e-02  1.0000000000000003e-01  9.9924494688925419e-02  1.0000000000000003e-01  9.9925482843216965e-02  1.0000000000000003e-01  9.9927423567687787e-02  1.0000000000000003e-01  9.9927833249295578e-02  1.0000000000000003e-01  9.9929932284524278e-02  1.0000000000000003e-01  9.9929129348799897e-02  1.0000000000000003e-01  9.9933318485319361e-02  1.0000000000000003e-01  9.9928277957545136e-02  1.0000000000000003e-01  9.9939026552262833e-02  1.0000000000000003e-01  9.9922998850458217e-02  1.0000000000000003e-01  9.9951373909738503e-02  1.0000000000000003e-01  9.9902865260248788e-02  1.0000000000000001e-01  1.0000000000000003e-01  1.0000641931691025e-01  1.0000000000000003e-01  1.0000636055204813e-01  1.0000681825602319e-01  1.0000770476349216e-01  1.0001001981338561e-01  1.0000984932470140e-01  1.0001028385888379e-01  1.0001363335589281e-01  1.0001208296393410e-01  1.0001342333673580e-01  1.0001648142880745e-01  1.0002438062049669e-01  1.0002209308625699e-01  1.0003063251641819e-01  1.0002688904061077e-01  1.0003018203795261e-01  1.0003689560703184e-01  1.0003498573407353e-01  1.0003719082315998e-01  1.0004724754935436e-01  1.0004094069412720e-01  1.0004977125890667e-01  1.0004898077345804e-01  1.0005922051034614e-01  1.0004009169341285e-01  1.0008604582697440e-01  1.0001097162178725e-01  1.0014174624150346e-01  9.9942202462953753e-02  1.0023250797358456e-01  1.0016161079822508e-01  9.9413976100985790e-02  9.9824110747214603e-02  9.9972101294841700e-02  9.9948291020116167e-02  9.9958421045104370e-02  9.9938224758257019e-02  9.9961940528383669e-02  9.9950236959994998e-02  9.9953189785780702e-02  9.9957902511674815e-02  9.9958129478864455e-02  9.9957542707484914e-02  9.9962435204960731e-02  9.9962529061424679e-02  9.9963077734899680e-02  9.9965919188471017e-02  9.9966471126371345e-02  9.9967015365617334e-02  9.9968778248736956e-02  9.9969650014440706e-02  9.9969642124320926e-02  9.9971851560599415e-02  9.9970880786699287e-02  9.9973951699612484e-02  9.9970466384802475e-02  9.9978722590169794e-02  9.9965157886283865e-02  9.9989874227279701e-02  9.9952634737774312e-02  1.0000000000000003e-01  1.0000947992677640e-01  1.0000000000000003e-01  1.0000640999736599e-01  1.0000954097626832e-01  1.0001192848148986e-01  1.0001238288625613e-01  1.0001286042522660e-01  1.0001774223345655e-01  1.0001658657875181e-01  1.0001685335702298e-01  1.0002242245168802e-01  1.0002360427491748e-01  1.0001992960666704e-01  1.0004283799841966e-01  1.0003499111759243e-01  1.0003977783121822e-01  1.0005017756157650e-01  1.0004541828516707e-01  1.0004971640856271e-01  1.0006284500389619e-01  1.0005778982344742e-01  1.0006100175002609e-01  1.0007943945386345e-01  1.0006408730721715e-01  1.0008455114963130e-01  1.0007236904903655e-01  1.0010416269349627e-01  1.0004652264653953e-01  1.0017062042778954e-01  9.9946478477885431e-02  1.0036483349020650e-01  1.0011672397332086e-01  9.9457643476053473e-02  9.9717700742768034e-02  9.9941303951648464e-02  9.9926073323629239e-02  9.9879555738135117e-02  9.9942921679563076e-02  9.9907247820465436e-02  9.9915035854898387e-02  9.9924503009793178e-02  9.9923299954314801e-02  9.9920562845695490e-02  9.9930597158099280e-02  9.9929337541701066e-02  9.9930012918181502e-02  9.9935639721428132e-02  9.9936304395098124e-02  9.9936674485105181e-02  9.9940602120612371e-02  9.9941145622131147e-02  9.9942046082801259e-02  9.9944094704245978e-02  9.9945662793495843e-02  9.9944970124090080e-02  9.9949086217551761e-02  9.9945766686078769e-02  9.9953130968256518e-02  9.9942847734555584e-02  9.9964294619269867e-02  9.9925035861047937e-02  1.0000000000000003e-01  1.0001136187758174e-01  1.0000000000000003e-01  1.0000727600319499e-01  1.0001263541246959e-01  1.0001208456229721e-01  1.0001262111942369e-01  1.0001769259620194e-01  1.0001634681252981e-01  1.0001633518915194e-01  1.0002259537211755e-01  1.0001999242883161e-01  1.0001971003883202e-01  1.0003311718959432e-01  1.0002111862709960e-01  1.0003967362802944e-01  1.0004568304555025e-01  1.0004188778110580e-01  1.0004200911810994e-01  1.0005784896197485e-01  1.0004721292432624e-01  1.0005379854089161e-01  1.0006631579567905e-01  1.0006112521423575e-01  1.0005738113404432e-01  1.0008798237104387e-01  1.0004762041421507e-01  1.0010552920197727e-01  1.0002502898566536e-01  1.0017120286481968e-01  9.9910799865788297e-02  1.0038735649886178e-01  1.0012066232931340e-01  9.9331024900120579e-02  9.9812441752735362e-02  9.9982259525418643e-02  9.9809334247189227e-02  1.0000138846527189e-01  9.9907894365659292e-02  9.9932365797141959e-02  9.9937384026643969e-02  9.9938128853950731e-02  9.9928721790518565e-02  9.9945143580208146e-02  9.9940292752340107e-02  9.9940411770557153e-02  9.9947789552463348e-02  9.9948052535611689e-02  9.9947897095854166e-02  9.9953186814073669e-02  9.9953644345927156e-02  9.9953869261954750e-02  9.9957463690365941e-02  9.9957622670479362e-02  9.9959044936976979e-02  9.9959749414576929e-02  9.9963076320964711e-02  9.9959169684461349e-02  9.9968637923823836e-02  9.9955605982719575e-02  9.9979052722553835e-02  9.9942984918353808e-02  1.0000000000000003e-01  1.0001329455745958e-01  1.0000000000000003e-01  1.0000927250037132e-01  1.0001300318175547e-01  1.0001215625783792e-01  1.0001825791883513e-01  1.0001672276844448e-01  1.0001746708986900e-01  1.0002426625444137e-01  1.0002130385731839e-01  1.0002074857681034e-01  1.0003241039841682e-01  1.0002590691788063e-01  1.0003114747298966e-01  1.0003452316888513e-01  1.0004833532045582e-01  1.0004357465739019e-01  1.0006270150689493e-01  1.0005006375398205e-01  1.0005407792090755e-01  1.0007380808991093e-01  1.0005822740566131e-01  1.0006854565248918e-01  1.0007944627768887e-01  1.0007973568627704e-01  1.0005919254815361e-01  1.0012304749997832e-01  1.0002026871470088e-01  1.0019329696005368e-01  9.9895594446195890e-02  1.0045045277672382e-01  1.0023286428367065e-01  9.9241964851983291e-02  9.9757800982351902e-02  9.9921131155179449e-02  9.9891707898265070e-02  9.9888929147653793e-02  9.9918446019771581e-02  9.9922864285127241e-02  9.9932011793388106e-02  9.9905859370826175e-02  9.9936326879483464e-02  9.9925058091289404e-02  9.9924740449103211e-02  9.9935227871576562e-02  9.9934660587203294e-02  9.9933078308735865e-02  9.9941497438879520e-02  9.9941463665713021e-02  9.9941636812221388e-02  9.9946471951847943e-02  9.9947354417289844e-02  9.9947249993060719e-02  9.9951274950363170e-02  9.9950706761224847e-02  9.9953575571881087e-02  9.9951936437756073e-02  9.9959214049008635e-02  9.9948361764885141e-02  9.9970763521478281e-02  9.9933600046864607e-02  1.0000000000000003e-01  1.0001558721976767e-01  1.0000000000000003e-01  1.0000935208778625e-01  1.0001356205857689e-01  1.0001628421325412e-01  1.0001682549843338e-01  1.0001691867437787e-01  1.0002390342433305e-01  1.0002192643354671e-01  1.0002088600289537e-01  1.0003082350962918e-01  1.0002664499041908e-01  1.0002773673742410e-01  1.0003902304313080e-01  1.0003623873024750e-01  1.0002430205402754e-01  1.0006825699156963e-01  1.0004712109218523e-01  1.0005384917923479e-01  1.0007175696426733e-01  1.0005762761080375e-01  1.0005876385358391e-01  1.0008840596030295e-01  1.0005901677387963e-01  1.0008223751075983e-01  1.0007416192211373e-01  1.0010823070952513e-01  1.0001632029199496e-01  1.0021404706985119e-01  9.9858494386856900e-02  1.0050168211202658e-01  1.0022481094201297e-01  9.9265348824745608e-02  9.9704537486809103e-02  1.0001696726048460e-01  9.9868054340733939e-02  9.9894492015428507e-02  9.9885646643585943e-02  9.9963626717485626e-02  9.9889040848679500e-02  9.9952135066313022e-02  9.9923219704260491e-02  9.9925208496158852e-02  9.9937971439801279e-02  9.9937128585102369e-02  9.9932272277399523e-02  9.9944390697624660e-02  9.9942956319196932e-02  9.9942476858608270e-02  9.9949728899744017e-02  9.9949945004359705e-02  9.9950003225211817e-02  9.9954238738540618e-02  9.9955540424213313e-02  9.9954566626377181e-02  9.9959892485867410e-02  9.9956455905283098e-02  9.9964262307669485e-02  9.9953948132821893e-02  9.9975544226416954e-02  9.9940739627258135e-02  1.0000000000000003e-01  1.0001684195195248e-01  1.0000000000000003e-01  1.0000951295142729e-01  1.0001739041818845e-01  1.0001535878871466e-01  1.0001682575497968e-01  1.0002279861412500e-01  1.0002213356314575e-01  1.0002109368031736e-01  1.0003097224349322e-01  1.0002657331528930e-01  1.0002682252961569e-01  1.0004032146405301e-01  1.0003442929421708e-01  1.0003052812481170e-01  1.0005448383268747e-01  1.0002828477095611e-01  1.0005903050552860e-01  1.0007252864733833e-01  1.0005878187838388e-01  1.0006064965894798e-01  1.0008516511920972e-01  1.0006734576035503e-01  1.0006483282310775e-01  1.0010773076397322e-01  1.0005429138776227e-01  1.0011501410377559e-01  1.0003617161424656e-01  1.0020507424116218e-01  9.9851045000067876e-02  1.0055281992573667e-01  1.0020801638780240e-01  9.9206764928020913e-02  9.9758863070958270e-02  9.9993333003619608e-02  9.9830734745146976e-02  9.9938915913510895e-02  9.9900264178927070e-02  9.9856298644862659e-02  9.9962402444091880e-02  9.9911500343179152e-02  9.9922138881682790e-02  9.9929824720737845e-02  9.9933011046415110e-02  9.9922397599548102e-02  9.9939751008827835e-02  9.9936303794234543e-02  9.9934804105994784e-02  9.9943717294220344e-02  9.9944329941046156e-02  9.9943506305488428e-02  9.9950032376669301e-02  9.9950083948151164e-02  9.9950991743828918e-02  9.9953566870236599e-02  9.9956431628480003e-02  9.9953368563258704e-02  9.9962147324355641e-02  9.9951578943908048e-02  9.9972683258356038e-02  9.9938460426635123e-02  1.0000000000000003e-01  1.0001793742468898e-01  1.0000000000000003e-01  1.0001153282426584e-01  1.0001705323166944e-01  1.0001514179440010e-01  1.0002190155479962e-01  1.0002063968524311e-01  1.0002074559870143e-01  1.0002978908409932e-01  1.0002624098905165e-01  1.0002562793626833e-01  1.0003900660814709e-01  1.0003338911713396e-01  1.0003196542556803e-01  1.0005070313849351e-01  1.0003528505076124e-01  1.0004250608224734e-01  1.0004776666359533e-01  1.0006563135441396e-01  1.0005627207940521e-01  1.0009010626685051e-01  1.0006040359056460e-01  1.0007121580206063e-01  1.0009246602258765e-01  1.0008110864045977e-01  1.0005657368291361e-01  1.0014295463746024e-01  1.0000913848608795e-01  1.0021536427256569e-01  9.9855338034561814e-02  1.0056835071903701e-01  1.0027734768026464e-01  9.9144170076073429e-02  9.9730394468740408e-02  9.9965898605368170e-02  9.9882677657533045e-02  9.9937900921921743e-02  9.9865078592806175e-02  9.9928556960386675e-02  9.9880930068431503e-02  9.9937531278536301e-02  9.9921370449044061e-02  9.9941805610919157e-02  9.9914449047406401e-02  9.9942444386309420e-02  9.9934725194672266e-02  9.9932552628027610e-02  9.9943531249821832e-02  9.9943351778075867e-02  9.9941048714504960e-02  9.9949827675656175e-02  9.9950280161727897e-02  9.9949586127831655e-02  9.9955520500520520e-02  9.9954945034661555e-02  9.9957334754673138e-02  9.9956843444957630e-02  9.9963984795810215e-02  9.9953596113482784e-02  9.9974997881697641e-02  9.9941777685231326e-02  1.0000000000000003e-01  1.0001959588763219e-01  1.0000000000000003e-01  1.0001122753401065e-01  1.0001700083837273e-01  1.0001900435713279e-01  1.0002045240861475e-01  1.0001938844971585e-01  1.0002789498356207e-01  1.0002569539478372e-01  1.0002484445381560e-01  1.0003614992513950e-01  1.0003284079644320e-01  1.0003126938735835e-01  1.0004842265483524e-01  1.0003828358630415e-01  1.0003779641145159e-01  1.0005571485339834e-01  1.0004753828518337e-01  1.0002862110054274e-01  1.0009570198504064e-01  1.0006130566595535e-01  1.0006688418556790e-01  1.0010237062050505e-01  1.0006316469826215e-01  1.0008352564691771e-01  1.0009182371257741e-01  1.0011125515771069e-01  1.0001200544804582e-01  1.0024786125547804e-01  9.9822966095143198e-02  1.0059454064452415e-01  1.0028085925609968e-01  9.9157809998633134e-02  9.9691527503298058e-02  1.0001671444648817e-01  9.9868119639942340e-02  9.9903230612626792e-02  9.9914319858344910e-02  9.9914793610531016e-02  9.9885524221502084e-02  9.9895291709009335e-02  9.9956272161838250e-02  9.9900388950729946e-02  9.9947807280042961e-02  9.9928940241724953e-02  9.9928569846516685e-02  9.9940400656926998e-02  9.9941159132701379e-02  9.9935841083461818e-02  9.9947200968578981e-02  9.9946424848863902e-02  9.9945891253487157e-02  9.9952586492931539e-02  9.9953874002224344e-02  9.9952485773478303e-02  9.9958906930716809e-02  9.9956041101797094e-02  9.9962637656722211e-02  9.9954410781866593e-02  9.9974132232169680e-02  9.9941846451353664e-02  1.0000000000000003e-01  1.0002024270446540e-01  1.0000000000000003e-01  1.0001104870637176e-01  1.0002026987719158e-01  1.0001785825790235e-01  1.0001958114200855e-01  1.0002549123164652e-01  1.0002484958734745e-01  1.0002378251103704e-01  1.0003408200191155e-01  1.0003091651760396e-01  1.0002963449893822e-01  1.0004595124224383e-01  1.0003868875674710e-01  1.0003622059535841e-01  1.0005624241316356e-01  1.0004473566680760e-01  1.0003647824527838e-01  1.0007444914015380e-01  1.0003043342868552e-01  1.0007512569413946e-01  1.0009545881270916e-01  1.0007364451445686e-01  1.0006543741929429e-01  1.0012292176721024e-01  1.0005292079392240e-01  1.0011412049909262e-01  1.0004982737652653e-01  1.0021434675320058e-01  9.9821306400288676e-02  1.0063796639819350e-01  1.0026555572320855e-01  9.9133634513669522e-02  9.9725067188395425e-02  1.0001211551780510e-01  9.9835398208161813e-02  9.9948236140847094e-02  9.9905569193437765e-02  9.9896989859420471e-02  9.9914918738798097e-02  9.9920279215127958e-02  9.9870824779697956e-02  9.9964313112056946e-02  9.9921120062884811e-02  9.9932624414258403e-02  9.9936596360471419e-02  9.9942386988449566e-02  9.9932214762536983e-02  9.9947297012290076e-02  9.9945445042387740e-02  9.9943057398358334e-02  9.9951510750356201e-02  9.9952221052593382e-02  9.9952082088165126e-02  9.9956718469168870e-02  9.9959316520111807e-02  9.9956199077342350e-02  9.9965200020281350e-02  9.9955698817878746e-02  9.9974811950941989e-02  9.9944282509145624e-02  1.0000000000000003e-01  1.0002074869461568e-01  1.0000000000000003e-01  1.0001257300544721e-01  1.0001959259105768e-01  1.0001698999643735e-01  1.0002410249490834e-01  1.0002295571895553e-01  1.0002303638491608e-01  1.0003143624416505e-01  1.0002924770247744e-01  1.0002750558300748e-01  1.0004206796394685e-01  1.0003697767852529e-01  1.0003526502603667e-01  1.0005396365405690e-01  1.0004336593647471e-01  1.0003906054225066e-01  1.0006693884304382e-01  1.0004228516157192e-01  1.0004979049854269e-01  1.0006251173287505e-01  1.0007746825885583e-01  1.0006951988685653e-01  1.0011106442871467e-01  1.0007875239828908e-01  1.0005823243878054e-01  1.0015757433610849e-01  1.0000812759106367e-01  1.0021351186216959e-01  9.9862692068733661e-02  1.0060624657231473e-01  1.0030741432818431e-01  9.9091330298775121e-02  9.9718279424731923e-02  9.9986597061736474e-02  9.9870861440176484e-02  9.9942851773669017e-02  9.9878279833336914e-02  9.9929568483757239e-02  9.9918991804461676e-02  9.9894042072085312e-02  9.9925086727714774e-02  9.9897646245527147e-02  9.9944016080820736e-02  9.9928757556577638e-02  9.9948295551919683e-02  9.9925487006908092e-02  9.9948054175437825e-02  9.9943331879627520e-02  9.9940752417991885e-02  9.9950053383663626e-02  9.9950560117828838e-02  9.9947890498777128e-02  9.9956411340551457e-02  9.9955978036408488e-02  9.9957623772448184e-02  9.9958778656233788e-02  9.9965138410256768e-02  9.9955714025103282e-02  9.9975548315741861e-02  9.9945395552174174e-02  1.0000000000000003e-01  1.0002190135777614e-01  1.0000000000000003e-01  1.0001219359703906e-01  1.0001912900740882e-01  1.0002026805473999e-01  1.0002253314946918e-01  1.0002126789166317e-01  1.0002936146472287e-01  1.0002786528941475e-01  1.0002625085069324e-01  1.0003767847650230e-01  1.0003505856683384e-01  1.0003312347068752e-01  1.0005002797161626e-01  1.0004320350979641e-01  1.0003829661101589e-01  1.0006276238230190e-01  1.0004629262168234e-01  1.0004386973312696e-01  1.0007027172211568e-01  1.0005640250532431e-01  1.0002623152883662e-01  1.0012628812458239e-01  1.0006223661047643e-01  1.0008620333757372e-01  1.0010798824512070e-01  1.0010470897015160e-01  1.0001122402267293e-01  1.0026193142741678e-01  9.9820455936171795e-02  1.0060142186340523e-01  1.0032162958084131e-01  9.9108366437169915e-02  9.9687616691094855e-02  1.0002006140132004e-01  9.9869456138060850e-02  9.9916531045837850e-02  9.9910058892326098e-02  9.9929701415739147e-02  9.9893537221522805e-02  9.9930573063113648e-02  9.9920229046831247e-02  9.9907210378591127e-02  9.9905800210523393e-02  9.9963770435576124e-02  9.9916093067530590e-02  9.9954417690886241e-02  9.9940448996592823e-02  9.9939984826036693e-02  9.9949270442344348e-02  9.9950804075905467e-02  9.9946199328729945e-02  9.9954900153040691e-02  9.9955480614456818e-02  9.9954003199377292e-02  9.9961543450524729e-02  9.9959378618699815e-02  9.9964757158221840e-02  9.9958489736675218e-02  9.9976084860162406e-02  9.9947207161632801e-02  1.0000000000000003e-01  1.0002212626974463e-01  1.0000000000000003e-01  1.0001173930435606e-01  1.0002161309394263e-01  1.0001896950073663e-01  1.0002121911335134e-01  1.0002623430495115e-01  1.0002646736505962e-01  1.0002517235830428e-01  1.0003469320554902e-01  1.0003223347602624e-01  1.0003084714069366e-01  1.0004562032985613e-01  1.0004121497282081e-01  1.0003680278455306e-01  1.0005828596299504e-01  1.0004752010576827e-01  1.0004098554059040e-01  1.0007027726047536e-01  1.0005168297831737e-01  1.0003909758811630e-01  1.0009211681664303e-01  1.0003144548689102e-01  1.0007941798768132e-01  1