<?xml version="1.0"?>
<VTKFile type="UnstructuredGrid"  version="0.1"  >
<UnstructuredGrid>
<Piece  NumberOfPoints="1933" NumberOfCells="3640">
<Points>
<DataArray  type="Float64"  NumberOfComponents="3"  format="ascii">0.2940354263760274 -0.001584479563947712 0  5.294035470139516 -0.001549935509099678 0  5.293983653945936 7.498450174846493 0  0.2939835893522571 7.498415596401793 0  10.29403554041448 -0.001515478700147368 0  10.29398376317154 7.498484639556281 0  15.29403568371255 -0.001481117198674604 0  15.2939839366226 7.498519000217574 0  20.29403594279171 -0.001446826331941254 0  20.29398419142424 7.498553287867773 0  25.29403635257361 -0.001412563675768688 0  25.29398454234661 7.498587547260069 0  30.29403694024577 -0.001378276432991805 0  30.29398500125645 7.498621831978656 0  35.294037726533 -0.001343904949408299 0  35.2939855767083 7.498656201862866 0  40.29403872706992 -0.001309384078776275 0  40.29398627369923 7.498690722016873 0  45.29403995352212 -0.00127464325774055 0  45.29398709346463 7.498725462884495 0  50.29404141436338 -0.001239605730870658 0  50.29398803318999 7.498760501078701 0  55.29404311530063 -0.001204187133247204 0  55.29398908553399 7.49879592081032 0  60.29404505934696 -0.001168293495597657 0  60.29399023786792 7.498831815870473 0  65.29404724652724 -0.001131818637031465 0  65.29399147112363 7.498868292205416 0  70.29404967315324 -0.001094640825320144 0  70.29399275811861 7.498905471197079 0  75.29405233055313 -0.00105661849512607 0  75.2939940611755 7.498943493839048 0  80.29405520303837 -0.001017584703039387 0  80.29399532877656 7.498982526089632 0  85.2940582647492 -0.0009773398446688824 0  85.29399649089373 7.499022765798819 0  90.29406147476296 -0.0009356419364841972 0  90.29399745248104 7.499064451755145 0  95.2940647694253 -0.0008921934356865671 0  95.2939980844294 7.499107875583801 0  100.2940680500927 -0.0008466230818196119 0  100.2939982110734 7.499153397433462 0  105.2940711631085 -0.000798460525862927 0  105.2939975931488 7.499201466553277 0  110.2940738662949 -0.0007471004975023892 0  110.2939959051571 7.499252647794245 0  115.2940757715806 -0.0006917519439567847 0  115.2939927068584 7.499307654302928 0  120.2940762446084 -0.0006313662168641753 0  120.2939874112468 7.499367384091598 0  125.2940742257079 -0.0005645381338246316 0  125.2939792585218 7.499432951267205 0  130.2940679054858 -0.0004893784969482912 0  130.2939673229923 7.499505686136207 0  135.2940541293142 -0.0004033791586552967 0  135.2939506200735 7.499587041763152 0  140.2940272917561 -0.0003033760909891875 0  140.2939284704854 7.499678272360247 0  145.2939772548321 -0.0001860336166810305 0  145.2939014799451 7.499779646774654 0  150.2938853037199 -5.058650042154937e-05 0  150.2938739702558 7.499889059029373 0  160.2938926261454 7.756918317334959e-19 0  165.2938476316635 -9.703144802287097e-05 0  165.2938857292654 7.499883398373455 0  160.293893259158 7.499954279401117 0  170.2938362178655 -0.0001615376601438738 0  170.2938777812305 7.4998288758864 0  175.2938402374325 -0.0002033629958398902 0  175.2938734572928 7.49979162476772 0  180.293851042371 -0.0002285442255866176 0  180.2938728109077 7.499768754922433 0  185.2938644032072 -0.0002413270379892271 0  185.2938749487216 7.499757199150841 0  190.293878253179 -0.000244783115617738 0  190.2938789264479 7.499754413603408 0  195.2938916077833 -0.0002411482790836352 0  195.293883984442 7.499758422944049 0  200.2939040284062 -0.0002320601731957935 0  200.2938895726955 7.499767724352941 0  205.2939153512896 -0.0002187301466889773 0  205.2938953155327 7.49978117812356 0  210.2939255492027 -0.0002020655631965124 0  210.2939009669973 7.499797915692999 0  215.293934660438 -0.0001827556947682838 0  215.2939063725245 7.499817269182691 0  220.2939427522953 -0.0001613317974918203 0  220.2939114399533 7.499838719360547 0  225.2939499023923 -0.0001382092832198354 0  225.2939161188605 7.49986185771859 0  230.2939561892686 -0.0001137175902185064 0  230.2939203862945 7.499886358878847 0  235.2939616878698 -8.812160217473329e-05 0  235.293924237121 7.49991196041157 0  240.2939664676162 -6.16372227861242e-05 0  240.2939276775767 7.499938447944636 0  245.2939705918544 -3.444286411801269e-05 0  245.293930721029 7.49996564406175 0  250.2939741180518 -6.688035684921409e-06 0  250.2939333852353 7.499993399937798 0  255.2939770984121 2.15001625671489e-05 0  255.2939356906346 7.500021588981152 0  260.2939795807342 5.001210147993578e-05 0  260.2939376593382 7.500050101979869 0  265.2939816094547 7.875187999818647e-05 0  265.29393931461 7.500078843414089 0  270.2939832268274 0.000107634558516851 0  270.2939406806841 7.500107728722214 0  275.2939844742652 0.0001365842644354448 0  275.2939417827967 7.500136682413292 0  280.2939853938337 0.0001655331816712102 0  280.2939426473512 7.500165637015989 0  285.2939860299057 0.0001944215732616282 0  285.2939433021157 7.500194532959884 0  290.2939864308631 0.0002231991741317514 0  290.293943776354 7.500223319606568 0  295.2939866506252 0.0002518285672960018 0  295.2939441008186 7.500251957792623 0  300.2939867493095 0.0002802915614947383 0  300.2939443075721 7.50028042440625 0  305.2939867915205 0.0003086000984126992 0  305.2939444299517 7.500308719673013 0  310.2939868387938 0.0003368133705038093 0  310.2939445038097 7.50033687805031 0  5.293931612358812 14.99845041083174 0  0.2939315468661882 14.99841577973605 0  10.29393170654656 14.99848487406285 0  15.29393184278601 14.99851921454083 0  20.29393202755138 14.99855347814676 0  25.29393226398748 14.99858771519237 0  30.29393255291052 14.99862198078283 0  35.29393289277254 14.99865633458871 0  40.29393327923559 14.9986908408685 0  45.2939337045838 14.99872556894429 0  50.2939341570219 14.99876059414522 0  55.29393461983518 14.99879599920311 0  60.29393507035355 14.99883187610668 0  65.29393547865305 14.99886832845633 0  70.29393580591474 14.9989054743999 0  75.29393600236412 14.99894345026995 0  80.29393600471442 14.99898241507854 0  85.29393573307151 14.99902255605137 0  90.29393508732866 14.99906409538104 0  95.29393394326223 14.9991072983053 0  100.2939321488794 14.99915248238839 0  105.2939295222797 14.99920002732428 0  110.2939258535422 14.99925038335523 0  115.2939209154079 14.99930407386823 0  120.2939144912553 14.99936168272964 0  125.2939064346333 14.999423807417 0  130.293896782351 14.99949094170974 0  135.2938859504201 14.99956322180125 0  140.29387503933 14.99963992099434 0  145.2938662320443 14.99971849942968 0  150.2938630954125 14.99979283970102 0  165.2938885081552 14.99982950088967 0  160.2938863570623 14.99986253363208 0  170.2938855509023 14.99979858563341 0  175.2938811266821 14.99977477287276 0  180.2938772144474 14.99975940397872 0  185.2938745570678 14.99975203407867 0  190.2938732560378 14.99975159783979 0  195.2938731382192 14.99975693535072 0  200.2938739448159 14.9997669925977 0  205.2938754181258 14.99978087814926 0  210.2938773354549 14.99979786197158 0  215.2938795177633 14.99981735433914 0  220.2938818273578 14.99983888069009 0  225.2938841616706 14.99986205842857 0  230.2938864463456 14.9998865774557 0  235.2938886289816 14.99991218451762 0  240.2938906739336 14.99993867087277 0  245.2938925582057 14.99996586265627 0  250.2938942683013 14.99999361337113 0  255.2938957978505 15.00002179803789 0  260.2938971458537 15.00005030864455 0  265.2938983153817 15.00007905063263 0  270.2938993126239 15.00010794023953 0  275.29390014618 15.00013690258517 0  280.2939008265146 15.00016587045014 0  285.2939013655597 15.0001947837383 0  290.2939017764316 15.00022358964017 0  295.2939020734124 15.00025224348415 0  300.2939022724385 15.00028071012089 0  305.2939023927099 15.00030896528611 0  310.2939024605276 15.00033699541893 0  5.293879429445711 22.49845084365236 0  0.2938793677757652 22.49841621190432 0  10.29387950051184 22.49848527082668 0  15.29387958652182 22.49851956025719 0  20.29387968788476 22.49855377023233 0  25.29387980162187 22.49858795661986 0  30.29387992233029 22.49862217602525 0  35.29388004241769 22.49865648742776 0  40.29388015188339 22.49869095323099 0  45.29388023784674 22.4987256402098 0  50.29388028393401 22.49876062057924 0  55.29388026956961 22.49879597328815 0  60.29388016919044 22.49883178559008 0  65.29387995139443 22.49886815492725 0  70.29387957804737 22.49890519115374 0  75.29387900340727 22.49894301911347 0  80.29387817339021 22.49898178155535 0  85.29387702520395 22.49902164229813 0  90.29387548775557 22.49906278941375 0  95.29387348351348 22.49910543792666 0  100.2938709329247 22.49914983102892 0  105.2938677631096 22.49919623793537 0  110.2938639234007 22.49924494499855 0  115.2938594113136 22.49929623422052 0  120.29385431347 22.49935033938305 0  125.2938488660712 22.49940736429057 0  130.2938435369389 22.4994671403207 0  135.2938391222024 22.49952899405044 0  140.293836828798 22.49959139893407 0  145.2938382693546 22.49965152400221 0  150.2938452221543 22.49970484742247 0  165.2938707337136 22.49976824087581 0  160.2938653644547 22.49977589386761 0  170.2938713923684 22.49975761148396 0  175.2938691602201 22.49974830704525 0  180.2938656435132 22.49974267092878 0  185.2938619251491 22.49974161775228 0  190.2938586043638 22.49974521343739 0  195.2938559431786 22.49975310362977 0  200.293854001197 22.49976477050831 0  205.2938527307729 22.49977966821749 0  210.2938520362893 22.49979728610859 0  215.2938518079799 22.49981717295782 0  220.2938519395908 22.49983894167058 0  225.293852336484 22.49986226512472 0  230.2938529184195 22.49988686865686 0  235.2938536195797 22.49991252186732 0  240.293854387302 22.49993903093667 0  245.2938551803311 22.49996623189952 0  250.293855967003 22.499993984966 0  255.2938567235628 22.50002216982831 0  260.2938574326781 22.50005068183755 0  265.2938580821775 22.50007942892847 0  270.2938586639845 22.50010832918359 0  275.2938591732385 22.50013730894466 0  280.2938596075848 22.50016630138861 0  285.2938599666546 22.5001952454763 0  290.2938602517917 22.50022408513406 0  295.2938604661693 22.50025276841152 0  300
[...]
<PointData  Scalars="p"> 
<DataArray  type="Float64"  Name="p"  format="ascii">1.0000000000000001e-01  1.0000000000000003e-01  9.9997412521549964e-02  1.0000000000000003e-01  1.0000000000000003e-01  9.9996295499283530e-02  1.0000000000000003e-01  9.9994408457998937e-02  1.0000000000000003e-01  9.9993141605345698e-02  1.0000000000000003e-01  9.9991724120445213e-02  1.0000000000000003e-01  9.9989897409465289e-02  1.0000000000000003e-01  9.9988716110015904e-02  1.0000000000000003e-01  9.9987460654497443e-02  1.0000000000000003e-01  9.9985446112876963e-02  1.0000000000000003e-01  9.9984201663218947e-02  1.0000000000000003e-01  9.9981006005429807e-02  1.0000000000000003e-01  9.9977624149047706e-02  1.0000000000000003e-01  9.9975112862251608e-02  1.0000000000000003e-01  9.9972657108525737e-02  1.0000000000000003e-01  9.9969069861961288e-02  1.0000000000000003e-01  9.9967288490138626e-02  1.0000000000000003e-01  9.9965120498570384e-02  1.0000000000000003e-01  9.9961603661603657e-02  1.0000000000000003e-01  9.9960972677939963e-02  1.0000000000000003e-01  9.9958422688046056e-02  1.0000000000000003e-01  9.9957169923640038e-02  1.0000000000000003e-01  9.9954809652867432e-02  1.0000000000000003e-01  9.9957331189533261e-02  1.0000000000000003e-01  9.9949964992137111e-02  1.0000000000000003e-01  9.9960018070262405e-02  1.0000000000000003e-01  9.9944218519946906e-02  1.0000000000000003e-01  9.9966248309966352e-02  1.0000000000000003e-01  9.9934706532612855e-02  1.0000000000000003e-01  9.9976142362832407e-02  1.0000000000000001e-01  9.9915575729849090e-02  1.0000000000000001e-01  1.0000000000000003e-01  1.0010158835030246e-01  1.0017172874882047e-01  1.0000000000000003e-01  1.0004470349699549e-01  1.0000000000000003e-01  1.0008289044505901e-01  1.0000000000000003e-01  1.0006557255002560e-01  1.0000000000000003e-01  1.0007245469192155e-01  1.0000000000000003e-01  1.0006839911699833e-01  1.0000000000000003e-01  1.0007238164217282e-01  1.0000000000000003e-01  1.0006903417477202e-01  1.0000000000000003e-01  1.0007042160202678e-01  1.0000000000000003e-01  1.0006981396666913e-01  1.0000000000000003e-01  1.0006909693331498e-01  1.0000000000000003e-01  1.0006850308393722e-01  1.0000000000000003e-01  1.0006823595358941e-01  1.0000000000000003e-01  1.0006712229487019e-01  1.0000000000000003e-01  1.0006656743900184e-01  1.0000000000000003e-01  1.0006593269904085e-01  1.0000000000000003e-01  1.0006510706918502e-01  1.0000000000000003e-01  1.0006432786312545e-01  1.0000000000000003e-01  1.0006393211178850e-01  1.0000000000000003e-01  1.0006280740703423e-01  1.0000000000000003e-01  1.0006277714844937e-01  1.0000000000000003e-01  1.0006120063127967e-01  1.0000000000000003e-01  1.0006225984459781e-01  1.0000000000000003e-01  1.0005872352772414e-01  1.0000000000000003e-01  1.0006341595966767e-01  1.0000000000000003e-01  1.0005399847832844e-01  1.0000000000000003e-01  1.0006847538712522e-01  1.0000000000000003e-01  1.0004323521038715e-01  1.0000000000000003e-01  1.0008675095452557e-01  1.0000000000000001e-01  1.0000000000000003e-01  9.9996495991093587e-02  1.0000000000000003e-01  9.9996101512962565e-02  9.9995752940294669e-02  9.9995209106293573e-02  9.9994087632666900e-02  9.9994071932790474e-02  9.9994002689537495e-02  9.9992525106989957e-02  9.9992970703118619e-02  9.9992559554227159e-02  9.9990135472518407e-02  9.9987724090053215e-02  9.9987104335703902e-02  9.9983591540610248e-02  9.9984670160949654e-02  9.9984099954251324e-02  9.9981259133540931e-02  9.9982604669653558e-02  9.9982762069968353e-02  9.9979121959702516e-02  9.9982653481179171e-02  9.9980613136695359e-02  9.9981728592181476e-02  9.9978819911298020e-02  9.9988146122393970e-02  9.9970320402266791e-02  1.0000099090174491e-01  9.9950031808271680e-02  1.0002751206413087e-01  9.9913573168476807e-02  9.9940079952261798e-02  1.0028778541056878e-01  1.0006802265103085e-01  1.0001674508868631e-01  1.0002315343020894e-01  1.0001881236241740e-01  1.0002951897536261e-01  1.0002087308559360e-01  1.0002606675056179e-01  1.0002646247905470e-01  1.0002533215327102e-01  1.0002561946030351e-01  1.0002661668659839e-01  1.0002506738035236e-01  1.0002515444652188e-01  1.0002528108883355e-01  1.0002430855567587e-01  1.0002417813104736e-01  1.0002408991074918e-01  1.0002358113074512e-01  1.0002313954176162e-01  1.0002352325025957e-01  1.0002226982211394e-01  1.0002348268231474e-01  1.0002110139369856e-01  1.0002472598143421e-01  1.0001768930913522e-01  1.0003016046354204e-01  1.0000842833438711e-01  1.0004205981262833e-01  1.0000000000000003e-01  9.9995190324602232e-02  1.0000000000000003e-01  9.9996346060596528e-02  9.9994409296817119e-02  9.9993155305927492e-02  9.9992628895039570e-02  9.9992562893269979e-02  9.9990323846914378e-02  9.9990747850059791e-02  9.9990967548597195e-02  9.9988062003923170e-02  9.9987782675570139e-02  9.9987765575755908e-02  9.9979481261367603e-02  9.9980213965061696e-02  9.9979043001041046e-02  9.9973901838502036e-02  9.9976381759678434e-02  9.9975826572685583e-02  9.9970774227055220e-02  9.9973829409341589e-02  9.9974711341339811e-02  9.9967950955577131e-02  9.9976026129242501e-02  9.9970196185835358e-02  9.9976426872560212e-02  9.9964927759993286e-02  9.9990765231693646e-02  9.9940064078557669e-02  1.0003081165112722e-01  9.9862456162653782e-02  9.9930005977413153e-02  1.0030352210808362e-01  1.0014084490430288e-01  1.0003382542033971e-01  1.0003579267179642e-01  1.0006059121966912e-01  1.0003504066535729e-01  1.0004950626122418e-01  1.0004962716838307e-01  1.0004706406916634e-01  1.0004816545645849e-01  1.0005093489842277e-01  1.0004771368605526e-01  1.0004852643433824e-01  1.0004903831258488e-01  1.0004715896959554e-01  1.0004695769863794e-01  1.0004719163324459e-01  1.0004577515972761e-01  1.0004568698000370e-01  1.0004542230821949e-01  1.0004495494374088e-01  1.0004402286474577e-01  1.0004516194314453e-01  1.0004242215710071e-01  1.0004587282958796e-01  1.0003982144951036e-01  1.0004964764897865e-01  1.0003097237624201e-01  1.0006655612774967e-01  1.0000000000000003e-01  9.9994457408862467e-02  1.0000000000000003e-01  9.9996267230378855e-02  9.9993678632674193e-02  9.9993672266598055e-02  9.9993675679827254e-02  9.9991502582992817e-02  9.9992168898130299e-02  9.9992860763215063e-02  9.9990207192531266e-02  9.9991441354417177e-02  9.9991935608735358e-02  9.9986517276336229e-02  9.9989012462221832e-02  9.9984520121886938e-02  9.9978842595969994e-02  9.9980999774964399e-02  9.9981702264982902e-02  9.9975611431783074e-02  9.9980814713611199e-02  9.9980453414268158e-02  9.9976019210816905e-02  9.9979732565722748e-02  9.9984286040986040e-02  9.9972533950352757e-02  9.9991342202576966e-02  9.9969576343745578e-02  1.0000375417271504e-01  9.9943049410164311e-02  1.0005147504416598e-01  9.9851654727119835e-02  9.9914502283657794e-02  1.0036343337723339e-01  1.0010214683736483e-01  1.0000233160461328e-01  1.0008038770225257e-01  1.0000172848749775e-01  1.0003634369469926e-01  1.0003106844375818e-01  1.0003024646320448e-01  1.0003055866722248e-01  1.0003682344952478e-01  1.0003150203026029e-01  1.0003390462003481e-01  1.0003512929885058e-01  1.0003284701402422e-01  1.0003294953236788e-01  1.0003358895688105e-01  1.0003184143954835e-01  1.0003170519778108e-01  1.0003208758063709e-01  1.0003076686641681e-01  1.0003112505183089e-01  1.0003045740485202e-01  1.0003115478873133e-01  1.0002878637545798e-01  1.0003293090806878e-01  1.0002542868335690e-01  1.0003769102319844e-01  1.0001741718144842e-01  1.0005031247291937e-01  1.0000000000000003e-01  9.9993697990318764e-02  1.0000000000000003e-01  9.9995715868444260e-02  9.9993785829233225e-02  9.9994371300586693e-02  9.9991468872630093e-02  9.9992240983537303e-02  9.9992432342378992e-02  9.9989761604979091e-02  9.9991244672542612e-02  9.9992221183128588e-02  9.9987579314632855e-02  9.9989720574217344e-02  9.9989070554235990e-02  9.9984382300524394e-02  9.9981878817344966e-02  9.9981714304070643e-02  9.9973998847520701e-02  9.9979142116393971e-02  9.9980120537696671e-02  9.9972221045127665e-02  9.9980413130310475e-02  9.9979144790741020e-02  9.9976009623962123e-02  9.9977489125080088e-02  9.9990303933931476e-02  9.9963399858546784e-02  1.0000954117706207e-01  9.9936333732072502e-02  1.0006275175770135e-01  9.9824044848622784e-02  9.9859188332487109e-02  1.0041900162075325e-01  1.0012106795637325e-01  1.0002622416093246e-01  1.0005893641912930e-01  1.0004254960130557e-01  1.0003706774851753e-01  1.0003626646405292e-01  1.0003164552493971e-01  1.0004591143446204e-01  1.0003551943782525e-01  1.0004048925874628e-01  1.0004275113629477e-01  1.0003967687109740e-01  1.0004016140262863e-01  1.0004186301947433e-01  1.0003907116269399e-01  1.0003918963873996e-01  1.0003961879864674e-01  1.0003809510841351e-01  1.0003777447434758e-01  1.0003844761251997e-01  1.0003679189973784e-01  1.0003792443130749e-01  1.0003609633614755e-01  1.0003890564472655e-01  1.0003316427474261e-01  1.0004360314187885e-01  1.0002459319420846e-01  1.0005848688337086e-01  1.0000000000000003e-01  9.9992779768280318e-02  1.0000000000000003e-01  9.9995843574764043e-02  9.9994068642234687e-02  9.9993004413765643e-02  9.9992733897627833e-02  9.9993105821708617e-02  9.9990304144804545e-02  9.9991363842115058e-02  9.9992829922484844e-02  9.9988849802116864e-02  9.9990808045770846e-02  9.9991729716896849e-02  9.9986115441557721e-02  9.9988273699511007e-02  9.9991215181492635e-02  9.9976550637340053e-02  9.9981615424528839e-02  9.9981502690578331e-02  9.9973248725468034e-02  9.9980687593170137e-02  9.9983463401267070e-02  9.9971867435955486e-02  9.9986383728934675e-02  9.9980164324508292e-02  9.9985667284234900e-02  9.9971387115582178e-02  1.0001636040299884e-01  9.9927447425858865e-02  1.0008435227075554e-01  9.9799995958166854e-02  9.9846004709319022e-02  1.0042079247096217e-01  1.0014440588773842e-01  9.9981691426008032e-02  1.0005668525857991e-01  1.0004433288526773e-01  1.0004839845817377e-01  1.0001220045416379e-01  1.0004621900312841e-01  1.0002290059150448e-01  1.0003431508633419e-01  1.0003671941453950e-01  1.0003314185840409e-01  1.0003385952335060e-01  1.0003747280976605e-01  1.0003348686692459e-01  1.0003422195776547e-01  1.0003531325023390e-01  1.0003281835177255e-01  1.0003290860765179e-01  1.0003328029124076e-01  1.0003220717883386e-01  1.0003155114234701e-01  1.0003311614334090e-01  1.0003021859536045e-01  1.0003402420644966e-01  1.0002792816195959e-01  1.0003838125032675e-01  1.0001999465882051e-01  1.0005186657545836e-01  1.0000000000000003e-01  9.9992266185556747e-02  1.0000000000000003e-01  9.9996075287100597e-02  9.9992637412506177e-02  9.9993731840083297e-02  9.9993467587297297e-02  9.9991119029375783e-02  9.9991319708901696e-02  9.9992790080632832e-02  9.9988779463223945e-02  9.9990867141782985e-02  9.9992313830390936e-02  9.9986481980259043e-02  9.9989371322842371e-02  9.9991836951532173e-02  9.9982742720614484e-02  9.9989857211993813e-02  9.9983829606058006e-02  9.9973261770478758e-02  9.9980275963765686e-02  9.9981552870247792e-02  9.9972272579690588e-02  9.9981052431776199e-02  9.9986867863831708e-02  9.9969126877391817e-02  9.9995233922048052e-02  9.9971150149882504e-02  1.0000962404087270e-01  9.9930542323333788e-02  1.0009524278062013e-01  9.9771350971421424e-02  9.9848268884788746e-02  1.0044913587150890e-01  1.0012503638247609e-01  9.9981400393890876e-02  1.0007339481718680e-01  1.0002423221029171e-01  1.0004456674242150e-01  1.0005768412437251e-01  1.0001785483346470e-01  1.0003643141254881e-01  1.0003540832996489e-01  1.0003441881664413e-01  1.0003356461618268e-01  1.0004006872682060e-01  1.0003451308721409e-01  1.0003620191771807e-01  1.0003797936972698e-01  1.0003520476549095e-01  1.0003508833854183e-01  1.0003612853724646e-01  1.0003385661384825e-01  1.0003421720875792e-01  1.0003406043499843e-01  1.0003408658524263e-01  1.0003229796011799e-01  1.0003587913222269e-01  1.0002970907752702e-01  1.0003999344231403e-01  1.0002222189963819e-01  1.0005374179134803e-01  1.0000000000000003e-01  9.9991902503698257e-02  1.0000000000000003e-01  9.9995318957901605e-02  9.9992905141878655e-02  9.9994360171908617e-02  9.9991629687545130e-02  9.9992333994589483e-02  9.9993081381757443e-02  9.9989349261994639e-02  9.9991087204906057e-02  9.9992551054491841e-02  9.9987205246769351e-02  9.9989901352139351e-02  9.9991964018360857e-02  9.9984451870529262e-02  9.9990328456884187e-02  9.9990873357925947e-02  9.9983734746344158e-02  9.9982251299680303e-02  9.9983703041980607e-02  9.9969993535388657e-02  9.9982642502425098e-02  9.9982492885755905e-02  9.9974496059641774e-02  9.9980663961340546e-02  9.9997426259899366e-02  9.9958576756265516e-02  1.0002270847042596e-01  9.9927213240977711e-02  1.0009784472503566e-01  9.9757272695673360e-02  9.9815143164106668e-02  1.0048134403481540e-01  1.0013205874850073e-01  9.9990137390998088e-02  1.0005012940349031e-01  1.0001643048918021e-01  1.0005568157017593e-01  1.0003347001317085e-01  1.0004675102113619e-01  1.0002548352217254e-01  1.0003405164254672e-01  1.0002540307441436e-01  1.0003902623902187e-01  1.0002987306557026e-01  1.0003321541747180e-01  1.0003587323997773e-01  1.0003262330699610e-01  1.0003285153286492e-01  1.0003473468476330e-01  1.0003197325038768e-01  1.0003177528780061e-01  1.0003286450117674e-01  1.0003062323377754e-01  1.0003178374232197e-01  1.0003037826199147e-01  1.0003292825447568e-01  1.0002747756547008e-01  1.0003765410370616e-01  1.0002009936808787e-01  1.0005055103674915e-01  1.0000000000000003e-01  9.9991224969951137e-02  1.0000000000000003e-01  9.9995495043308888e-02  9.9993268252309878e-02  9.9992875154373689e-02  9.9992373983479849e-02  9.9993687524192673e-02  9.9990249677610735e-02  9.9991427908945302e-02  9.9992748421393773e-02  9.9988149213109390e-02  9.9989798270245317e-02  9.9992052748017216e-02  9.9985045101519510e-02  9.9989411402453404e-02  9.9992333628973890e-02  9.9983754115502657e-02  9.9989185816808546e-02  9.9994716741739334e-02  9.9972560369650354e-02  9.9981730398585308e-02  9.9983934424004897e-02  9.9967682170390357e-02  9.9986781532044142e-02  9.9982143888664679e-02  9.9981393602859223e-02  9.9971268591515519e-02  1.0002513249452166e-01  9.9910630419942664e-02  1.0011573236500157e-01  9.9740389730145373e-02  9.9806883523503073e-02  1.0048033434181330e-01  1.0014924675549799e-01  9.9968034128969624e-02  1.0005127110875807e-01  1.0002864403146777e-01  1.0003531615073863e-01  1.0003241843390746e-01  1.0005122587895424e-01  1.0004402608058287e-01  1.0001786026343283e-01  1.0004212999956824e-01  1.0002521528948741e-01  1.0003281169512342e-01  1.0003531242013940e-01  1.0003213516266853e-01  1.0003210386347478e-01  1.0003565058361701e-01  1.0003193626433796e-01  1.0003251029788988e-01  1.0003347042705722e-01  1.0003151188111226e-01  1.0003088611639437e-01  1.0003260822533483e-01  1.0002963657434395e-01  1.0003292712362528e-01  1.0002800329221609e-01  1.0003706657245309e-01  1.0002059576614261e-01  1.0005025530414273e-01  1.0000000000000003e-01  9.9990974997468507e-02  1.0000000000000003e-01  9.9995750580147494e-02  9.9991917779341799e-02  9.9993388344721421e-02  9.9993285819202971e-02  9.9991186098922921e-02  9.9991664010922451e-02  9.9993185008805413e-02  9.9989056061668899e-02  9.9990323199562858e-02  9.9992403698470289e-02  9.9985557944550427e-02  9.9988772684683785e-02  9.9992166918120573e-02  9.9983646068251955e-02  9.9989438828804747e-02  9.9994679983658602e-02  9.9980383853926838e-02  9.9993510094025628e-02  9.9985428426983769e-02  9.9970082437487798e-02  9.9980825906615320e-02  9.9988126724707721e-02  9.9963873372216711e-02  9.9996858862663879e-02  9.9972672820530809e-02  1.0000768063770497e-01  9.9922900657629404e-02  1.0012205327735790e-01  9.9713437011917760e-02  9.9810344296525730e-02  1.0048843162775939e-01  1.0013623094723542e-01  9.9964925575141722e-02  1.0006371786940541e-01  1.0000944773784984e-01  1.0003280065371317e-01  1.0003795652396141e-01  1.0003680336593124e-01  1.0003594755814216e-01  1.0005320379138703e-01  1.0001657515464339e-01  1.0003305421663419e-01  1.0003039270437156e-01  1.0003071163742118e-01  1.0002883776409989e-01  1.0003456625160490e-01  1.0002990060585321e-01  1.0003089779021927e-01  1.0003290275022474e-01  1.0003025912535653e-01  1.0003042244663497e-01  1.0003080592620191e-01  1.0003006818976953e-01  1.0002842635398677e-01  1.0003196696102315e-01  1.0002615463220890e-01  1.0003550861463884e-01  1.0001968686022970e-01  1.0004801395048298e-01  1.0000000000000003e-01  9.9990806044801206e-02  1.0000000000000003e-01  9.9995085852425905e-02  9.9992132952468310e-02  9.9994061930177944e-02  9.9991338008122085e-02  9.9992191491920970e-02  9.9993075292104411e-02  9.9989930126183985e-02  9.9990978993541035e-02  9.9992956405090247e-02  9.9986844176887191e-02  9.9989000331763667e-02  9.9991482948040139e-02  9.9983752477684262e-02  9.9988792411158434e-02  9.9993183796157639e-02  9.9982085570478038e-02  9.9991724162909981e-02  9.9994163767223962e-02  9.9981932269703006e-02  9.9984349581172721e-02  9.9984906286382139e-02  9.9968144351641780e-02  9.9980870333806288e-02  9.9997552111772553e-02  9.9951454091395678e-02  1.0002409044549140e-01  9.9924989673010819e-02  1.0010412641004733e-01  9.9720651069429955e-02  9.9794055835938547e-02  1.0050005695468632e-01  1.0013679676966875e-01  9.9973806938022589e-02  1.0004993106369188e-01  1.0000786449417005e-01  1.0004321143796051e-01  1.0002361073750013e-01  1.0003113735880902e-01  1.0004410836999751e-01  1.0003712692573224e-01  1.0004250722262277e-01  1.0002447805464425e-01  1.0003192085733083e-01  1.0002395855299169e-01  1.0003488053987512e-01  1.0002768069274899e-01  1.0002986696871299e-01  1.0003225837216355e-01  1.0002973986701569e-01  1.0002961581268729e-01  1.0003177789844425e-01  1.0002885908934292e-01  1.0002976424296990e-01  1.0002886651252156e-01  1.0003054513347591e-01  1.0002580328900690e-01  1.0003497995662157e-01  1.0001924172559105e-01  1.0004683391421361e-01  1.0000000000000003e-01  9.9990316638973245e-02  1.0000000000000003e-01  9.9995192062371105e-02  9.9992510336819981e-02  9.9992605136500712e-02  9.9991862574418056e-02  9.9993357422453188e-02  9.9990288632905946e-02  9.9991228793272463e-02  9.9993092603062259e-02  9.9988421004834557e-02  9.9989629173512271e-02  9.9991752239750778e-02  9.9984625537908003e-02  9.9987591915683752e-02  9.9992156612315850e-02  9.9982316124094958e-02  9.9989409883210992e-02  9.9994605768077990e-02  9.9981942696573900e-02  9.9990515416756326e-02  1.0000063080403303e-01  9.9966520579696877e-02  9.9986994672477833e-02  9.9982489013173942e-02  9.9972759265903169e-02  9.9972432908268155e-02  1.0002505935221614e-01  9.9901428798890218e-02  1.0012061679537772e-01  9.9722508155120973e-02  9.9790226977295782e-02  1.0048457497446082e-01  1.0014624400774826e-01  9.9960715820711796e-02  1.0004824915439783e-01  1.0001749611310788e-01  1.0003062628729394e-01  1.0002031716425205e-01  1.0003941880748095e-01  1.0002878291754060e-01  1.0003425346710189e-01  1.0004350184491280e-01  1.0004150962668940e-01  1.0001644401880889e-01  1.0003654164366819e-01  1.0002280479294445e-01  1.0002855165872161e-01  1.0003047494844136e-01  1.0002812837538270e-01  1.0002791828967855e-01  1.0003082782388634e-01  1.0002836488900035e-01  1.0002820330266969e-01  1.0003011135443654e-01  1.0002686223487428e-01  1.0002956237692449e-01  1.0002547214815294e-01  1.0003314358326192e-01  1.0001857056469840e-01  1.0004503120287214e-01  1.0000000000000003e-01  9.9990116451684860e-02  1.0000000000000003e-01  9.9995376507584527e-02  9.9991269495725010e-02  9.9992895525656003e-02  9.9992565223277749e-02  9.9990956236452280e-02  9.9991112242942673e-02  9.9992782542685565e-02  9.9989072582411770e-02  9.9990209689178947e-02  9.9992147149801161e-02  9.9985936370938666e-02  9.9987501308108961e-02  9.9991321795354984e-02  9.9982404552969792e-02  9.9987185070828183e-02  9.9993420134617872e-02  9.9980908130817767e-02  9.9989845712606065e-02  9.9997861922697370e-02  9.9977565861876255e-02  9.9995926445241912e-02  9.9991041810165687e-02  9