<?xml version="1.0"?>
<VTKFile type="UnstructuredGrid"  version="0.1"  >
<UnstructuredGrid>
<Piece  NumberOfPoints="1933" NumberOfCells="3640">
<Points>
<DataArray  type="Float64"  NumberOfComponents="3"  format="ascii">0.2935756166416669 0.002171513125918889 0  5.293575625556417 0.002086427295167136 0  5.293703325690993 7.502086492206859 0  0.2937032824679238 7.50217151623562 0  10.29357562004 0.00200126289874211 0  10.29370341599934 7.502001354510435 0  15.29357564191052 0.00191593920762486 0  15.29370358371725 7.501916042286492 0  20.29357574732127 0.001830418576531519 0  20.2937038611119 7.501830526550697 0  25.29357599521934 0.001744691273726324 0  25.29370428288971 7.50174480172511 0  30.29357644334672 0.001658766052725685 0  30.29370488559921 7.50165887865106 0  35.29357714763154 0.001572664274389072 0  35.29370570720685 7.501572779779397 0  40.29357816309053 0.001486416423523486 0  40.29370678707105 7.501486536205082 0  45.2935795453819 0.001400060302091401 0  45.29370816626263 7.501400186126072 0  50.29358135263184 0.001313640446513941 0  50.29370988812828 7.501313774402976 0  55.29358364738904 0.001227208500967179 0  55.29371199900318 7.50122735301388 0  60.29358649867566 0.001140824414368594 0  60.29371454900168 7.501140982303673 0  65.29358998416006 0.001054558436197465 0  65.29371759282408 7.501054733019843 0  70.29359419250041 0.0009684939817746112 0  70.2937211905228 7.50096868921428 0  75.29359922592845 0.0008827315361915476 0  75.29372540815446 7.500882952183466 0  80.29360520314017 0.0007973938841709115 0  80.29373031821066 7.500797645732047 0  85.2936122625654 0.0007126331117295204 0  85.29373599966489 7.500712923192528 0  90.29362056605174 0.0006286400552283154 0  90.29374253737186 7.500628976841216 0  95.29363030294817 0.0005456572223980914 0  95.29375002040885 7.500546050649482 0  100.2936416944038 0.0004639967575256594 0  100.2937585387238 7.50046445774621 0  105.2936549973659 0.0003840659020493513 0  105.2937681771312 7.500384604604932 0  110.2936705069996 0.000306403838390532 0  110.2937790052785 7.500307024877965 0  115.2936885546667 0.0002317361844316488 0  115.2937910617645 7.50023242704146 0  120.2937094952227 0.0001610573841442358 0  120.2938043304293 7.500161761542365 0  125.293733670324 9.575790452110827e-05 0  125.2938187078655 7.500096314587598 0  130.2937613195606 3.782414370184941e-05 0  130.2938339658909 7.500037835893635 0  135.2937923797793 -9.844243246491732e-06 0  135.293849727477 7.49998870385379 0  140.2938260448097 -4.293780111602707e-05 0  140.293865516177 7.499952120435434 0  145.2938598011123 -5.50400113116456e-05 0  145.2938810542198 7.499932326088945 0  150.2938872423548 -3.719299348056598e-05 0  150.2938973235884 7.499935020130255 0  160.2938926261464 1.397189403522538e-18 0  165.2937592141529 -0.0001643668336869367 0  165.2938687161537 7.499813600838388 0  160.2939108726792 7.499946979534444 0  170.2936784700343 -0.000314828827207955 0  170.2938259155239 7.499673952417382 0  175.2936274254544 -0.0004549698683531422 0  175.2937893884728 7.499538694460568 0  180.2935940762467 -0.0005864563832316794 0  180.2937600606727 7.499409766005006 0  185.2935717296311 -0.0007107631107075175 0  185.293737143703 7.499286900014337 0  190.2935564907769 -0.0008292061849013906 0  190.2937194784684 7.499169302064799 0  195.2935460070681 -0.0009428827164269255 0  195.2937059681451 7.499056137041697 0  200.2935388039391 -0.001052670603474852 0  200.2936956963439 7.498946668200624 0  205.2935339221531 -0.001159260803315696 0  205.2936879348695 7.498840283241808 0  210.293530714737 -0.001263196297709123 0  210.2936821170565 7.49873648397381 0  215.2935287304586 -0.001364906770624371 0  215.2936778049275 7.498634866721479 0  220.2935276451282 -0.001464736165253433 0  220.2936746597784 7.49853510296489 0  225.2935272198672 -0.001562963521800644 0  225.2936724185168 7.498436923025806 0  230.2935272749391 -0.001659818418401554 0  230.2936708755089 7.498340103155781 0  235.293527672797 -0.001755492364710817 0  235.293669868939 7.498244455575279 0  240.2935283067414 -0.001850147255142501 0  240.2936692706344 7.498149820845263 0  245.2935290931121 -0.001943921715089713 0  245.293668978477 7.498056062005571 0  250.2935299657637 -0.002036935943599356 0  250.2936689107199 7.497963060024214 0  255.293530872088 -0.002129295482458249 0  255.2936690017193 7.497870710210679 0  260.2935317701023 -0.002221094216427012 0  260.2936691987073 7.497778919335839 0  265.2935326263355 -0.002312416819881227 0  265.2936694593593 7.497687603271402 0  270.2935334143137 -0.002403340799236311 0  270.2936697499711 7.497596685016964 0  275.2935341135733 -0.002493938226817988 0  275.2936700441089 7.49750609302962 0  280.2935347091522 -0.002584277207780383 0  280.2936703216419 7.497415759817867 0  285.2935351915986 -0.002674423049756063 0  285.2936705680756 7.497325620819042 0  290.2935355575437 -0.002764438984140646 0  290.2936707741089 7.49723561366174 0  295.2935358109655 -0.002854386056483497 0  295.2936709353459 7.497145678041021 0  300.2935359651907 -0.002944321325650158 0  300.2936710520813 7.497055756625571 0  305.2935360455016 -0.00303429246583292 0  305.2936711292149 7.496965797667575 0  310.2935360914859 -0.003124324421030637 0  310.2936711768103 7.496875760173557 0  5.293830715843401 15.00208666508559 0  0.29383066224796 15.00217153136546 0  10.29383082464723 15.00200159650732 0  15.29383101880493 15.00191630994789 0  20.29383132164426 15.0018308009643 0  25.29383175439512 15.00174507681093 0  30.29383233831223 15.00165915490273 0  35.29383309549424 15.0015730610146 0  40.29383404914091 15.00148682793308 0  45.29383522359909 15.0014004947769 0  50.29383664433752 15.00131410701314 0  55.29383833788209 15.00122771715059 0  60.29384033168865 15.00114138610755 0  65.29384265390175 15.00105518529339 0  70.29384533292011 15.00096919949925 0  75.29384839667193 15.00088353076163 0  80.29385187146688 15.00079830344629 0  85.29385578026216 15.00071367090412 0  90.2938601401395 15.00062982418165 0  95.29386495876453 15.00054700342749 0  100.293870229607 15.00046551281429 0  105.2938759258204 15.00038573995115 0  110.2938819930084 15.00030818078311 0  115.2938883419211 15.00023347058556 0  120.2938948438202 15.00016242022978 0  125.2939013345702 15.00009605302141 0  130.2939076394601 15.00003562801866 0  135.2939136403309 14.99998261391266 0  140.2939194188307 14.99993852646425 0  145.2939255137362 14.99990441320701 0  150.293933272444 14.99987937824077 0  165.2939413161392 14.99975391611835 0  160.2939495813142 14.99985978433268 0  170.2939264705761 14.99963645902874 0  175.2939088734754 14.999515345799 0  180.2938913810137 14.99939503050057 0  185.2938754493556 14.99927739729489 0  190.2938616345088 14.99916301794542 0  195.2938500097079 14.9990518709823 0  200.2938404195246 14.99894369711737 0  205.2938326189854 14.99883816455907 0  210.2938263444126 14.99873494133779 0  215.2938213465118 14.99863372360306 0  220.2938174035871 14.99853424381516 0  225.2938143248268 14.99843627029741 0  230.2938119489847 14.99833960351333 0  235.2938101412216 14.99824407148044 0  240.2938087894528 14.99814952532764 0  245.2938078008326 14.9980558353538 0  250.2938070986319 14.99796288765962 0  255.2938066195706 14.99787058130845 0  260.2938063115969 14.99777882593612 0  265.2938061320572 14.99768753972652 0  270.293806046201 14.99759664768285 0  275.293806025958 14.99750608014267 0  280.2938060489167 14.9974157715058 0  285.2938060974708 14.99732565916654 0  290.2938061580564 14.99723568265621 0  295.2938062204974 14.99714578298718 0  300.2938062774829 14.99705590207886 0  305.2938063243973 14.99696598174533 0  310.2938063599214 14.99687596050294 0  5.29395767197922 22.50208706526115 0  0.2939576164430869 22.50217174351114 0  10.29395777050367 22.50200208660381 0  15.29395793789184 22.5019168362729 0  20.29395819116966 22.50183133810422 0  25.29395854269586 22.50174561643072 0  30.2939590026861 22.50165969857865 0  35.29395958052596 22.50157361590408 0  40.29396028530476 22.50148740427742 0  45.29396112587607 22.50140110452582 0  50.29396211063062 22.50131476310458 0  55.29396324706809 22.50122843314469 0  60.29396454119737 22.50114217597285 0  65.29396599675279 22.50105606319253 0  70.29396761418739 22.50097017942821 0  75.29396938939639 22.50088462586519 0  80.29397131211152 22.50079952475208 0  85.29397336392809 22.50071502506927 0  90.29397551596062 22.5006313095913 0  95.29397772621282 22.50054860356117 0  100.2939799369173 22.50046718510031 0  105.2939820724119 22.50038739721171 0  110.2939840386452 22.50030966061106 0  115.2939857262467 22.5002344853233 0  120.2939870203172 22.50016247641874 0  125.2939878216506 22.50009432443271 0  130.2939880854435 22.50003076227594 0  135.2939878829569 22.49997245545105 0  140.2939874844578 22.49991976890617 0  145.2939874371931 22.49987232569843 0  150.2939885482633 22.49982828353901 0  165.2940107554673 22.49968831767746 0  160.2940025662082 22.4997784818673 0  170.2940125679163 22.49958710380366 0  175.294009616856 22.49947964075558 0  180.2940037444621 22.49936958723662 0  185.2939964746706 22.49925928719124 0  190.2939888538609 22.49915004128408 0  195.293981516052 22.49904247088268 0  200.2939748002191 22.49893679953778 0  205.2939688541808 22.49883303487623 0  210.2939637104919 22.49873107650022 0  215.293959337037 22.49863077666092 0  220.2939556688953 22.49853197285614 0  225.2939526275325 22.49843450441841 0  230.2939501318509 22.49833822025457 0  235.293948104193 22.49824298183825 0  240.293946473312 22.49814866374683 0  245.2939451755751 22.49805515299699 0  250.2939441551686 22.49796234784777 0  255.2939433637799 22.49787015641924 0  260.2939427600102 22.49777849529946 0  265.293942308692 22.49768728821897 0  270.2939419801712 22.49759646482528 0  275.293941749607 22.49750595956521 0  280.2939415962889 22.49741571066987 0  285.2939415029784 22.49732565922182 0  290.2939414552716 22.49723574825208 0  295.2939414410058 22.49714592173821 0  300.293941449723 22.49705612320016 0  
[...]
<PointData  Scalars="p"> 
<DataArray  type="Float64"  Name="p"  format="ascii">1.0000000000000001e-01  1.0000000000000003e-01  1.0000372062849418e-01  1.0000000000000003e-01  1.0000000000000003e-01  1.0000362867177122e-01  1.0000000000000003e-01  1.0000548244395474e-01  1.0000000000000003e-01  1.0000611491495869e-01  1.0000000000000003e-01  1.0000739379604673e-01  1.0000000000000003e-01  1.0000999639880048e-01  1.0000000000000003e-01  1.0001079625260310e-01  1.0000000000000003e-01  1.0001257667126318e-01  1.0000000000000003e-01  1.0001555734243298e-01  1.0000000000000003e-01  1.0001505056838961e-01  1.0000000000000003e-01  1.0002424580434309e-01  1.0000000000000003e-01  1.0002770187173383e-01  1.0000000000000003e-01  1.0003250470301203e-01  1.0000000000000003e-01  1.0003594356824166e-01  1.0000000000000003e-01  1.0004429277364868e-01  1.0000000000000003e-01  1.0004733763100379e-01  1.0000000000000003e-01  1.0005395060296106e-01  1.0000000000000003e-01  1.0006390891990645e-01  1.0000000000000003e-01  1.0006726724981060e-01  1.0000000000000003e-01  1.0007814222974812e-01  1.0000000000000003e-01  1.0008506893859408e-01  1.0000000000000003e-01  1.0009736927038268e-01  1.0000000000000003e-01  1.0009644154372797e-01  1.0000000000000003e-01  1.0012576333329661e-01  1.0000000000000003e-01  1.0010221726500239e-01  1.0000000000000003e-01  1.0016128857275053e-01  1.0000000000000003e-01  1.0009825007238958e-01  1.0000000000000003e-01  1.0020880915841646e-01  1.0000000000000003e-01  1.0008025228939708e-01  1.0000000000000001e-01  1.0028634618521760e-01  1.0000000000000001e-01  1.0000000000000003e-01  9.9800589438829801e-02  9.9552933418400186e-02  1.0000000000000003e-01  9.9956978272660701e-02  1.0000000000000003e-01  9.9845106113613774e-02  1.0000000000000003e-01  9.9908436582113944e-02  1.0000000000000003e-01  9.9891080459134390e-02  1.0000000000000003e-01  9.9907821498898222e-02  1.0000000000000003e-01  9.9901939612585630e-02  1.0000000000000003e-01  9.9916165155264927e-02  1.0000000000000003e-01  9.9914899064618048e-02  1.0000000000000003e-01  9.9920213251084730e-02  1.0000000000000003e-01  9.9924627225581694e-02  1.0000000000000003e-01  9.9927797367915100e-02  1.0000000000000003e-01  9.9930025424470922e-02  1.0000000000000003e-01  9.9934106741326731e-02  1.0000000000000003e-01  9.9935995972606384e-02  1.0000000000000003e-01  9.9938029185886484e-02  1.0000000000000003e-01  9.9940513382386825e-02  1.0000000000000003e-01  9.9942160600751728e-02  1.0000000000000003e-01  9.9943363733303967e-02  1.0000000000000003e-01  9.9945379167949489e-02  1.0000000000000003e-01  9.9946011798770107e-02  1.0000000000000003e-01  9.9947831538419837e-02  1.0000000000000003e-01  9.9947591641372041e-02  1.0000000000000003e-01  9.9950833327984323e-02  1.0000000000000003e-01  9.9947370240458452e-02  1.0000000000000003e-01  9.9955343910786545e-02  1.0000000000000003e-01  9.9943888128716421e-02  1.0000000000000003e-01  9.9964558572703574e-02  1.0000000000000003e-01  9.9929587718766200e-02  1.0000000000000001e-01  1.0000000000000003e-01  1.0000688225377583e-01  1.0000000000000003e-01  1.0000639289971103e-01  1.0000678497702375e-01  1.0000767566910740e-01  1.0001029988965729e-01  1.0001000854205323e-01  1.0001064257196877e-01  1.0001458434587229e-01  1.0001252176675834e-01  1.0001427951853804e-01  1.0001680334261225e-01  1.0002717239838094e-01  1.0002285201196930e-01  1.0003315550388385e-01  1.0002817783338280e-01  1.0003293583290343e-01  1.0004095712036652e-01  1.0003921304346625e-01  1.0004293842284918e-01  1.0005556954197888e-01  1.0004889714728901e-01  1.0006114494409889e-01  1.0006098060167712e-01  1.0007464087210391e-01  1.0005301617085445e-01  1.0010954525510393e-01  1.0001874356628829e-01  1.0017938326341999e-01  9.9933993127242868e-02  1.0028978120675462e-01  1.0020157192247428e-01  9.9339588981582141e-02  9.9783429177349794e-02  9.9971605391497576e-02  9.9939487952323214e-02  9.9951537497341064e-02  9.9929566068342149e-02  9.9959293117743542e-02  9.9945549865114322e-02  9.9950723442374781e-02  9.9957218488651203e-02  9.9957872914564330e-02  9.9957920760430197e-02  9.9964287676976418e-02  9.9964526502301462e-02  9.9965540942352535e-02  9.9969165978831570e-02  9.9969928542082975e-02  9.9970720928600945e-02  9.9973064552462423e-02  9.9974033446474667e-02  9.9974404407118994e-02  9.9976725864256280e-02  9.9976368003523497e-02  9.9978955432898975e-02  9.9976940820058827e-02  9.9983262612914237e-02  9.9973786180572968e-02  9.9992044899757493e-02  9.9965423174768170e-02  1.0000000000000003e-01  1.0001052841269986e-01  1.0000000000000003e-01  1.0000671740397372e-01  1.0000984670830901e-01  1.0001245567066540e-01  1.0001266470575775e-01  1.0001337165038413e-01  1.0001903116196911e-01  1.0001758569412565e-01  1.0001823741911063e-01  1.0002434241356091e-01  1.0002597552111850e-01  1.0002001364275866e-01  1.0004879329171774e-01  1.0003683092696655e-01  1.0004340508023805e-01  1.0005509006131778e-01  1.0004987035944121e-01  1.0005626987373556e-01  1.0007245855736147e-01  1.0006733557201383e-01  1.0007341460714110e-01  1.0009648542803604e-01  1.0007972181373813e-01  1.0010700301318581e-01  1.0009352151044047e-01  1.0013346664554899e-01  1.0006604100911351e-01  1.0021613331945066e-01  9.9944211754592588e-02  1.0045277115270752e-01  1.0011886736993098e-01  9.9425987962289089e-02  9.9684080388675836e-02  9.9938855618731837e-02  9.9916178940660946e-02  9.9865711316811573e-02  9.9942688966140267e-02  9.9899432825062973e-02  9.9912155252447649e-02  9.9924910386547758e-02  9.9924064905512588e-02  9.9922405730468206e-02  9.9935420423909349e-02  9.9934194843100094e-02  9.9935799543117848e-02  9.9943024560983154e-02  9.9943898592071159e-02  9.9944731378145940e-02  9.9949669939020463e-02  9.9950461058375267e-02  9.9951653353237829e-02  9.9954500718695855e-02  9.9956105741049198e-02  9.9956124093122642e-02  9.9960044138680870e-02  9.9958123799413656e-02  9.9963987760335202e-02  9.9957175763327147e-02  9.9973201361258146e-02  9.9945264730780775e-02  1.0000000000000003e-01  1.0001284031649500e-01  1.0000000000000003e-01  1.0000803972148033e-01  1.0001412242666706e-01  1.0001322506426867e-01  1.0001409684023098e-01  1.0002012911399646e-01  1.0001861826483278e-01  1.0001929165491935e-01  1.0002676664755007e-01  1.0002378972528574e-01  1.0002382749664339e-01  1.0004010091292907e-01  1.0002318383218797e-01  1.0004871229146284e-01  1.0005275766888015e-01  1.0004877491539003e-01  1.0004967429303148e-01  1.0006921108705263e-01  1.0005720650019155e-01  1.0006750097557499e-01  1.0008331828251245e-01  1.0007863468542624e-01  1.0007713039257153e-01  1.0011489001599055e-01  1.0006839341101229e-01  1.0014032560332599e-01  1.0004425055922715e-01  1.0022006085174502e-01  9.9907146285625983e-02  1.0047841004051467e-01  1.0010973397262377e-01  9.9281031640351652e-02  9.9798678315683551e-02  9.9973628755933408e-02  9.9771887320562719e-02  1.0000397783758734e-01  9.9887316211466431e-02  9.9921636918253329e-02  9.9928934735988253e-02  9.9930451628147218e-02  9.9921495632467078e-02  9.9942745249702966e-02  9.9937298698565144e-02  9.9938716052989693e-02  9.9948371255188365e-02  9.9948899017313353e-02  9.9949286958784619e-02  9.9956098361386470e-02  9.9956702245058954e-02  9.9957448560617029e-02  9.9961943704631698e-02  9.9962559018252017e-02  9.9964192584013650e-02  9.9966029843285106e-02  9.9969044267769966e-02  9.9966867876060461e-02  9.9974685180817896e-02  9.9965861896643249e-02  9.9983524673421628e-02  9.9958062508084117e-02  1.0000000000000003e-01  1.0001520781902037e-01  1.0000000000000003e-01  1.0001071845000212e-01  1.0001482460742869e-01  1.0001404010074033e-01  1.0002100989591076e-01  1.0001929843409892e-01  1.0002069438555129e-01  1.0002902423581368e-01  1.0002571465087873e-01  1.0002579315716688e-01  1.0004001921384297e-01  1.0003163873082427e-01  1.0003946798833366e-01  1.0004024147546545e-01  1.0006008512585057e-01  1.0005221897811675e-01  1.0007544921751259e-01  1.0006014625133387e-01  1.0006761986654432e-01  1.0009164218006825e-01  1.0007462630307597e-01  1.0009005323729667e-01  1.0010455336037143e-01  1.0010650303032854e-01  1.0008607918927512e-01  1.0016249132925517e-01  1.0004233676714805e-01  1.0024909297611742e-01  9.9893819387243718e-02  1.0055289006079618e-01  1.0023596501567071e-01  9.9192505360724062e-02  9.9729190234192855e-02  9.9898614021946372e-02  9.9883721733141584e-02  9.9862836128717519e-02  9.9905114164822090e-02  9.9911462247976077e-02  9.9921641575447265e-02  9.9893592327942135e-02  9.9932497822161015e-02  9.9919233885173847e-02  9.9920981927533348e-02  9.9934876676878517e-02  9.9934442991438791e-02  9.9933584473030107e-02  9.9944414994283776e-02  9.9944478552958030e-02  9.9945187874461078e-02  9.9951487568048919e-02  9.9952594592572525e-02  9.9953098770260762e-02  9.9957955477157218e-02  9.9958168572567063e-02  9.9960982164968890e-02  9.9961139376050265e-02  9.9967173045804700e-02  9.9960052968582194e-02  9.9977288859390223e-02  9.9951052284474581e-02  1.0000000000000003e-01  1.0001799889476881e-01  1.0000000000000003e-01  1.0001097489908292e-01  1.0001601165302061e-01  1.0001935179158407e-01  1.0001995724766798e-01  1.0002048030108218e-01  1.0002897943558337e-01  1.0002684073629875e-01  1.0002662386024100e-01  1.0003872184239919e-01  1.0003391982806692e-01  1.0003660832217499e-01  1.0004925436901366e-01  1.0004690819365694e-01  1.0003053779748372e-01  1.0008698837155212e-01  1.0005785758660800e-01  1.0006863115053030e-01  1.0008935027432404e-01  1.0007392970947097e-01  1.0007854438880524e-01  1.0011490696935317e-01  1.0008187374884617e-01  1.0011322596497019e-01  1.0010566003462690e-01  1.0014650583865040e-01  1.0004276762557385e-01  1.0027377684020881e-01  9.9855393719874092e-02  1.0061172831911672e-01  1.0020974677658163e-01  9.9232140784045603e-02  9.9666348601778601e-02  1.0000914765473803e-01  9.9843197870462710e-02  9.9873621654173336e-02  9.9863375541036165e-02  9.9953350357954496e-02  9.9866687320516137e-02  9.9945457534766427e-02  9.9910085334075846e-02  9.9915707794285033e-02  9.9932781170887580e-02  9.9932134512631901e-02  9.9927890241586964e-02  9.9943512351019365e-02  9.9941926152895738e-02  9.9942241665564424e-02  9.9951480762132297e-02  9.9951920393465746e-02  9.9952386269533913e-02  9.9958166318427091e-02  9.9959616215474861e-02  9.9959605595689199e-02  9.9965325281701295e-02  9.9963570412960584e-02  9.9970105020625630e-02  9.9963869838888358e-02  9.9980425476690241e-02  9.9955983777988339e-02  1.0000000000000003e-01  1.0001951533835583e-01  1.0000000000000003e-01  1.0001146688447154e-01  1.0002077430495926e-01  1.0001858189130787e-01  1.0002069140110409e-01  1.0002800655656773e-01  1.0002713150748241e-01  1.0002691975607222e-01  1.0003889189047099e-01  1.0003386268317635e-01  1.0003571300907019e-01  1.0005172128679270e-01  1.0004507788569657e-01  1.0004123234000049e-01  1.0007089633788270e-01  1.0003562344645268e-01  1.0007934022536193e-01  1.0009061124531700e-01  1.0007538484755138e-01  1.0007968463116730e-01  1.0011006776535464e-01  1.0009001834595714e-01  1.0009176821810793e-01  1.0014343326018549e-01  1.0008307806935815e-01  1.0015724411293354e-01  1.0006814800920713e-01  1.0026235416144645e-01  9.9854232805002857e-02  1.0066581869815218e-01  1.0018483451180360e-01  9.9165699717876005e-02  9.9734883126401455e-02  9.9970614071892630e-02  9.9799524620104690e-02  9.9925401202733216e-02  9.9883195762086180e-02  9.9825174924612084e-02  9.9957025286642173e-02  9.9893239854044996e-02  9.9909430514140682e-02  9.9920877154417928e-02  9.9925177778520072e-02  9.9914509141094593e-02  9.9937031914846250e-02  9.9933142519661650e-02  9.9932493540770426e-02  9.9944140725901506e-02  9.9945015153008160e-02  9.9944722682843726e-02  9.9953010073827689e-02  9.9953453864116151e-02  9.9954765870146581e-02  9.9958958627312355e-02  9.9961804992059811e-02  9.9960430108267620e-02  9.9968464005316740e-02  9.9961648715179652e-02  9.9978023723219941e-02  9.9954171300918215e-02  1.0000000000000003e-01  1.0002092402097275e-01  1.0000000000000003e-01  1.0001397849231547e-01  1.0002049645403316e-01  1.0001885918351548e-01  1.0002706557221490e-01  1.0002572847517054e-01  1.0002664757122727e-01  1.0003754718594766e-01  1.0003354477307756e-01  1.0003401715304305e-01  1.0005031688201370e-01  1.0004392460031986e-01  1.0004368434816863e-01  1.0006648815659157e-01  1.0004741992972366e-01  1.0005964846383003e-01  1.0006102090605069e-01  1.0008844118869388e-01  1.0007475123409433e-01  1.0011578246972677e-01  1.0008037545045047e-01  1.0009772031775498e-01  1.0012410332415309e-01  1.0011189780417096e-01  1.0008896326887289e-01  1.0018987441078464e-01  1.0003749520907426e-01  1.0027567339951549e-01  9.9863779217664747e-02  1.0067686714025341e-01  1.0026388725855850e-01  9.9096636173623187e-02  9.9695843009238422e-02  9.9934961509888690e-02  9.9860306329162554e-02  9.9915956044520790e-02  9.9837379934391624e-02  9.9917878663195819e-02  9.9854096215208688e-02  9.9924411219690021e-02  9.9906831216866193e-02  9.9931246382434585e-02  9.9900606023076113e-02  9.9936750276409150e-02  9.9927602040380037e-02  9.9926744688384112e-02  9.9941258522029119e-02  9.9941195921343692e-02  9.9939352655154565e-02  9.9950795757800956e-02  9.9951329551597634e-02  9.9951295780991795e-02  9.9958656406279878e-02  9.9958885593960906e-02  9.9961346611109933e-02  9.9963101696267279e-02  9.9969205502628097e-02  9.9962573185576276e-02  9.9979646281844553e-02  9.9956347870739370e-02  1.0000000000000003e-01  1.0002292970079504e-01  1.0000000000000003e-01  1.0001366061690717e-01  1.0002077482468333e-01  1.0002362336468913e-01  1.0002546521171432e-01  1.0002505765710516e-01  1.0003538277407144e-01  1.0003300244518136e-01  1.0003294665886063e-01  1.0004663871797288e-01  1.0004293406250966e-01  1.0004264659501362e-01  1.0006339140302886e-01  1.0005135379857248e-01  1.0005348840428660e-01  1.0007389924399868e-01  1.0006610226015866e-01  1.0004102765845305e-01  1.0012740168211158e-01  1.0008092215259470e-01  1.0009215255592309e-01  1.0013331418180600e-01  1.0008898175976004e-01  1.0011728845658738e-01  1.0012996087573856e-01  1.0015127886266206e-01  1.0004455868206345e-01  1.0031166537961930e-01  9.9829293235774733e-02  1.0070235568370256e-01  1.0026130395970032e-01  9.9117706402998107e-02  9.9650146106258108e-02  9.9995080819921436e-02  9.9837892004607937e-02  9.9872072687225172e-02  9.9896689857110463e-02  9.9894556422889774e-02  9.9866006005781688e-02  9.9874610058566335e-02  9.9947111057689123e-02  9.9880960560214130e-02  9.9940770377977869e-02  9.9917838444819815e-02  9.9919740007762867e-02  9.9935705449329185e-02  9.9936900718979343e-02  9.9931842755549005e-02  9.9946509139195672e-02  9.9945826891608025e-02  9.9945923583578386e-02  9.9954798076012819e-02  9.9956255159812268e-02  9.9955731078719523e-02  9.9963148883721681e-02  9.9961802344324474e-02  9.9967551616402639e-02  9.9963303878708568e-02  9.9978742070196788e-02  9.9956163442782353e-02  1.0000000000000003e-01  1.0002372619172235e-01  1.0000000000000003e-01  1.0001362683544883e-01  1.0002471329919789e-01  1.0002228221659719e-01  1.0002496745347216e-01  1.0003242985465653e-01  1.0003186980820017e-01  1.0003166472183171e-01  1.0004419953990960e-01  1.0004034541924496e-01  1.0004035209749589e-01  1.0005990538900708e-01  1.0005137022456539e-01  1.0005077173216027e-01  1.0007464428746692e-01  1.0006182037137579e-01  1.0005370241211045e-01  1.0010083961478761e-01  1.0004275263793153e-01  1.0010697976640325e-01  1.0012453049397246e-01  1.0009998128999650e-01  1.0009400423334122e-01  1.0016275586755291e-01  1.0008248465117510e-01  1.0015731898536422e-01  1.0008829822073617e-01  1.0026971104014000e-01  9.9832930928683838e-02  1.0074565733499088e-01  1.0024000032456649e-01  9.9086692738516335e-02  9.9691402637584428e-02  9.9984528426637312e-02  9.9797395995726332e-02  9.9925698129179022e-02  9.9880014325380434e-02  9.9871288239475942e-02  9.9899145640300627e-02  9.9906961714574957e-02  9.9844199025214686e-02  9.9958837466829084e-02  9.9905427980556169e-02  9.9921381027150494e-02  9.9928126886103238e-02  9.9935621581427603e-02  9.9924891204389937e-02  9.9944629136434454e-02  9.9942629191836593e-02  9.9940770984260865e-02  9.9951805062404933e-02  9.9953117198856231e-02  9.9953275755026452e-02  9.9960039760031927e-02  9.9962601281846170e-02  9.9961097839654997e-02  9.9969848963839217e-02  9.9963829936995319e-02  9.9978932974619239e-02  9.9957863666924121e-02  1.0000000000000003e-01  1.0002437587677755e-01  1.0000000000000003e-01  1.0001542825088693e-01  1.0002383264187423e-01  1.0002155105766945e-01  1.0003033468936501e-01  1.0002933292628054e-01  1.0003034754248900e-01  1.0004079269457153e-01  1.0003830085804200e-01  1.0003746006403400e-01  1.0005490856473133e-01  1.0004882918705579e-01  1.0004854135081424e-01  1.0007106352498855e-01  1.0005895744396141e-01  1.0005638367183720e-01  1.0009038982245254e-01  1.0006014122262746e-01  1.0007472449238441e-01  1.0008307455963183e-01  1.0010969014450312e-01  1.0009738840180490e-01  1.0014784089861511e-01  1.0010829041086530e-01  1.0009177215024467e-01  1.0020640272658800e-01  1.0003724201539625e-01  1.0027044844083914e-01  9.9881962853794290e-02  1.0070154755680043e-01  1.0029143885154496e-01  9.9029877491029039e-02  9.9680985450096210e-02  9.9952120246325674e-02  9.9840992238107676e-02  9.9915400965082113e-02  9.9846271188137714e-02  9.9909656936234881e-02  9.9900068757870580e-02  9.9872670543843856e-02  9.9915921092354434e-02  9.9876899935994773e-02  9.9933898622598216e-02  9.9916653148343970e-02  9.9940302862311314e-02  9.9914320130199519e-02  9.9943634707256507e-02  9.9938179436260544e-02  9.9936397273477598e-02  9.9948928008331564e-02  9.9949623422111861e-02  9.9947465974381894e-02  9.9958333960568926e-02  9.9958537670543232e-02  9.9960302642609605e-02  9.9963849921040585e-02  9.9969397882230887e-02  9.9963325927721169e-02  9.9979679335453417e-02  9.9958484560169023e-02  1.0000000000000003e-01  1.0002575135706554e-01  1.0000000000000003e-01  1.0001492058705552e-01  1.0002346000908950e-01  1.0002539779800237e-01  1.0002832012641899e-01  1.0002776815217115e-01  1.0003779414966799e-01  1.0003631375424761e-01  1.0003556588690099e-01  1.0004938323376270e-01  1.0004635275216722e-01  1.0004534549602916e-01  1.0006556870058488e-01  1.0005749381006820e-01  1.0005412010538170e-01  1.0008386289238130e-01  1.0006431013624635e-01  1.0006558672840921e-01  1.0009563932703197e-01  1.0008177319923561e-01  1.0004307544664361e-01  1.0017084717425950e-01  1.0008769180182765e-01  1.0012196412854515e-01  1.0014747824419938e-01  1.0014184963645360e-01  1.0004322169689973e-01  1.0032522304331884e-01  9.9830121186833459e-02  1.0069559460816906e-01  1.0031060393393171e-01  9.9041970741783683e-02  9.9640822529958997e-02  9.9993176758609081e-02  9.9837034852521267e-02  9.9882445648112064e-02  9.9885107324552511e-02  9.9906576837633917e-02  9.9867164735882155e-02  9.9916454376014513e-02  9.9905186394745729e-02  9.9893370712214047e-02  9.9889096753458112e-02  9.9957827188725784e-02  9.9900781865432720e-02  9.9949055549826568e-02  9.9932199749850265e-02  9.9933372109068774e-02  9.9946049987056376e-02  9.9948320720897738e-02  9.9943779684593573e-02  9.9955395008064399e-02  9.9956172110399602e-02  9.9955689590588453e-02  9.9964640629462601e-02  9.9963837797179808e-02  9.9968449914372426e-02  9.9965980751721917e-02  9.9979876280625296e-02  9.9959613067485992e-02  1.0000000000000003e-01  1.0002591505369583e-01  1.0000000000000003e-01  1.0001437004113307e-01  1.0002623815376081e-01  1.0002358719911929e-01  1.0002689682165301e-01  1.0003340206795207e-01  1.0003393527556949e-01  1.0003351064619879e-01  1.0004520464342426e-01  1.0004236223080114e-01  1.0004205710295165e-01  1.0005974806031753e-01  1.0005418567360370e-01  1.0005086806916468e-01  1.0007670857441832e-01  1.0006407094871814e-01  1.0005973426741335e-01  1.0009461337428230e-01  1.0007346712429739e-01  1.0006112220388690e-01  1.0012660584694151e-01  1.0004680618333049e-01  1.0011953707370456e-01  1