<?xml version="1.0"?>
<VTKFile type="UnstructuredGrid"  version="0.1"  >
<UnstructuredGrid>
<Piece  NumberOfPoints="1933" NumberOfCells="3640">
<Points>
<DataArray  type="Float64"  NumberOfComponents="3"  format="ascii">0.4754628598683796 0.0001187472720516505 0  5.475462887231651 9.952495557092526e-05 0  5.475491752617143 7.500099612589896 0  0.4754916989400728 7.500118789148561 0  10.47546292206984 8.022158643545435e-05 0  10.47549185084256 7.500080325333841 0  15.47546300756597 6.079677294784386e-05 0  15.47549201749811 7.500060905215049 0  20.47546319135001 4.124663296680331e-05 0  20.47549227603639 7.500041355575097 0  25.47546351818093 2.158912586889563e-05 0  25.47549264976075 7.500021697457454 0  30.47546402820624 1.855952102729382e-06 0  30.47549316126724 7.500001963910839 0  35.47546475735404 -1.791192759572138e-05 0  35.47549383203745 7.499982196480834 0  40.47546573845496 -3.766657037785866e-05 0  40.47549468229511 7.499962443360529 0  45.47546700252243 -5.73539007623497e-05 0  45.4754957310391 7.499942758738628 0  50.47546857997401 -7.691356546501668e-05 0  50.47549699614056 7.499923203036905 0  55.47547050172346 -9.627802280493805e-05 0  55.47549849440679 7.499903843863089 0  60.4754728001293 -0.0001153709603405023 0  60.47550024152994 7.499884757609886 0  65.47547550980235 -0.0001341050338712459 0  65.47550225183589 7.499866031716488 0  70.47547866825974 -0.0001523788336262699 0  70.47550453773873 7.499847767687115 0  75.4754823163959 -0.0001700728925312681 0  75.47550710877087 7.49983008504266 0  80.47548649868349 -0.0001870444403156677 0  80.47550997000522 7.499813126479624 0  85.47549126294669 -0.0002031204560902958 0  85.47551311960613 7.499797064636812 0  90.47549665939509 -0.0002180883531560735 0  90.47551654512263 7.499782111040211 0  95.47550273836184 -0.0002316833019650906 0  95.47552021797136 7.499768528025998 0  100.4755095457035 -0.0002435706973040012 0  100.4755240853487 7.499756644742813 0  105.4755171139515 -0.0002533215093993332 0  105.4755280585665 7.499746878701002 0  110.4755254456244 -0.0002603770901618578 0  110.4755319966547 7.499739764699976 0  115.4755344819423 -0.000263998263273551 0  115.4755356842828 7.499735993103612 0  120.4755440440534 -0.000263191061901156 0  120.4755388043805 7.499736458734449 0  125.475553722054 -0.0002565984210295729 0  125.4755409100802 7.499742318635941 0  130.475562664061 -0.0002423448293335682 0  130.4755414119 7.499755048251637 0  135.4755691725291 -0.0002178255129956573 0  135.4755396238776 7.499776464461937 0  140.475569925075 -0.0001794689916934757 0  140.4755349782764 7.499808640786888 0  145.4755584478833 -0.0001226881825496545 0  145.4755276756452 7.499853585185295 0  150.4755220127396 -4.31456936404885e-05 0  150.4755204390928 7.499912689549869 0  160.4755282581473 9.532856101473069e-19 0  165.4754455613585 -0.0001236241769278956 0  165.475513824793 7.499856320044377 0  160.4755365254727 7.499952396455085 0  170.4754038121546 -0.0002239240410774662 0  170.4754906279911 7.499766071616913 0  175.4753833056012 -0.0003077082667842268 0  175.4754721236561 7.499686855934072 0  180.4753741889262 -0.0003789037908431607 0  180.4754587469693 7.499618007429109 0  185.4753712818392 -0.0004404012320280185 0  185.4754496774727 7.499557792029308 0  190.4753717775336 -0.0004944001465049097 0  190.4754439047672 7.499504519082563 0  195.4753741193134 -0.000542562213479393 0  195.4754405435651 7.499456779870106 0  200.4753774251285 -0.0005861369745331777 0  200.4754388988438 7.499413458173204 0  205.4753811848951 -0.0006260668579723935 0  205.4754384505771 7.499373684000704 0  210.4753850981298 -0.0006630689006337362 0  210.4754388184226 7.49933678050636 0  215.4753889851987 -0.0006976953325764778 0  215.4754397270204 7.499302218196105 0  220.4753927378106 -0.0007303773922960081 0  220.4754409777367 7.49926957896376 0  225.4753962907818 -0.0007614567336255334 0  225.4754424273342 7.499238528918298 0  230.4753996055532 -0.0007912079662848752 0  230.4754439724462 7.499208798157812 0  235.4754026603378 -0.000819854956736477 0  235.4754455384718 7.499180165752097 0  240.4754054440996 -0.0008475827528857502 0  240.4754470716883 7.499152448541845 0  245.475407952819 -0.0008745464273132127 0  245.4754485336673 7.49912549271266 0  250.4754101871542 -0.0009008777309796469 0  250.4754498973205 7.499099167388247 0  255.4754121510063 -0.0009266901704141483 0  255.4754511441133 7.49907335970488 0  260.4754138506823 -0.0009520829284241947 0  260.4754522621056 7.499047970988431 0  265.4754152945063 -0.0009771439120587425 0  265.4754532446023 7.499022913773413 0  270.475416492767 -0.001001952109805994 0  270.4754540892484 7.498998109493842 0  275.4754174579846 -0.001026579355143301 0  275.4754547974482 7.498973486751519 0  280.4754182054695 -0.001051091508921636 0  280.4754553740227 7.498948980139549 0  285.4754187541931 -0.001075548969049195 0  285.475455827019 7.498924529679819 0  290.475419127938 -0.001100006263656976 0  290.4754561675808 7.498900081033394 0  295.4754193566624 -0.001124510236028876 0  295.4754564098207 7.498875586775189 0  300.4754194777455 -0.001149095904305106 0  300.4754565706306 7.498851009193098 0  305.475419536258 -0.001173778344697344 0  305.4754566696271 7.49882632526479 0  310.475419582066 -0.001198537773908212 0  310.475456730051 7.498801534666455 0  5.475520360693396 15.00009981462119 0  0.4755203019000347 15.00011889284688 0  10.47552045929766 15.00008055754506 0  15.47552061823822 15.00006113830286 0  20.47552085136789 15.0000415790279 0  25.47552116984684 15.00002190943131 0  30.47552158361814 15.000002166304 0  35.47552210175481 14.99998239258941 0  40.47552273234985 14.99996263679045 0  45.47552348222681 14.99994295291397 0  50.47552435655831 14.99992340097211 0  55.47552535839414 14.99990404802421 0  60.47552648805843 14.99988496976088 0  65.47552774235794 14.99986625266947 0  70.47552911352396 14.99984799686525 0  75.47553058780473 14.99983031972392 0  80.47553214360903 14.99981336050689 0  85.47553374910677 14.99979728622994 0  90.47553535921291 14.99978229908276 0  95.47553691196485 14.99976864573716 0  100.4755383244891 14.99975662883952 0  105.4755394891803 14.99974662075453 0  110.4755402715222 14.99973907898815 0  115.4755405125373 14.99973456120507 0  120.4755400415681 14.99973373447769 0  125.4755387096049 14.999737366668 0  130.4755364600864 14.99974627455478 0  135.4755334621606 14.99976117789904 0  140.4755303352733 14.99978236041736 0  145.4755284729222 14.99980894018813 0  150.4755303565048 14.99983728733629 0  165.4755470875674 14.99980159019434 0  160.4755497300506 14.99986560579034 0  170.4755388681652 14.99973357201689 0  175.4755286750168 14.9996676774354 0  180.4755188097221 14.99960658008627 0  185.4755103049164 14.99955087768752 0  190.4755034581335 14.99950026172903 0  195.4754982093291 14.9994541121421 0  200.4754943525969 14.99941175976289 0  205.4754916432388 14.99937258909332 0  210.4754898468605 14.99933606954797 0  215.4754887585015 14.99930175680549 0  220.4754882072341 14.99926928316702 0  225.4754880543208 14.99923834513785 0  230.475488188984 14.99920869153336 0  235.4754885237083 14.9991801132174 0  240.4754889898863 14.99915243465313 0  245.4754895340993 14.99912550709567 0  250.4754901150775 14.99909920315723 0  255.4754907012697 14.99907341247836 0  260.4754912689352 14.99904803828083 0  265.4754918006497 14.9990229946265 0  270.4754922841411 14.99899820425636 0  275.4754927113756 14.99897359692761 0  280.4754930778167 14.99894910820735 0  285.4754933818389 14.99892467871539 0  290.475493624239 14.99890025382716 0  295.4754938079343 14.99887578382623 0  300.4754939379865 14.99885122437213 0  305.4754940223675 14.99882653676083 0  310.4754940742347 14.99880168640328 0  5.47554870008995 22.5001002219236 0  0.4755486424366984 22.50011921557375 0  10.47554878194568 22.50008098616725 0  15.47554890251847 22.5000615562928 0  20.47554906965784 22.50004197361804 0  25.47554928734091 22.50002227842158 0  30.47554955730932 22.50000251271917 0  35.47554987978084 22.49998272158618 0  40.47555025357384 22.49996295392529 0  45.47555067588728 22.4999432631604 0  50.47555114187791 22.49992370809709 0  55.47555164409757 22.49990435406868 0  60.47555217181432 22.49988527443872 0  65.47555271021743 22.49986655251775 0  70.47555323950243 22.49984828395288 0  75.47555373384716 22.49983057965699 0  80.47555416031759 22.49981356934149 0  85.47555447780728 22.49979740569562 0  90.47555463622381 22.49978226919034 0  95.47555457631923 22.49976837333619 0  100.4755542308612 22.49975596992008 0  105.4755535283046 22.49974535316454 0  110.475552400804 22.49973686068305 0  115.4755507993168 22.49973086721979 0  120.4755487195764 22.4997277639621 0  125.4755462434406 22.49972791105974 0  130.4755435993393 22.49973154328205 0  135.4755412405544 22.49973859875852 0  140.4755399253173 22.49974843214016 0  145.4755407483019 22.49975938181097 0  150.4755450059035 22.49976824759071 0  165.4755680619795 22.49974036890031 0  160.475561726002 22.49978408637866 0  170.475569116933 22.49969020382052 0  175.4755665590583 22.49963797528187 0  180.475562045599 22.49958653279626 0  185.4755568181665 22.49953739324283 0  190.4755516530458 22.49949116594512 0  195.4755469670514 22.49944793898984 0  200.4755429402996 22.49940753875611 0  205.4755396121791 22.49936968153176 0  210.475536946053 22.49933405443458 0  215.4755348693843 22.49930035493637 0  220.4755332970836 22.49926830772192 0  225.4755321442352 22.49923766982 0  230.4755313324255 22.49920823006449 0  235.4755307923988 22.4991798061036 0  240.4755304646933 22.49915224059586 0  245.4755302992469 22.49912539738007 0  250.4755302545269 22.49909915796183 0  255.4755302965007 22.49907341843669 0  260.475530397591 22.49904808686573 0  265.4755305357078 22.4990230810739 0  270.475530693369 22.49899832682823 0  275.4755308569258 22.49897375635085 0  280.4755310158858 22.49894930712107 0  285.4755311623464 22.49892492090914 0  290.4755312905672 22.49890054294504 0  295.4755313967659 22.498
[...]
<PointData  Scalars="p"> 
<DataArray  type="Float64"  Name="p"  format="ascii">1.0000000000000001e-01  1.0000000000000003e-01  9.9999711939270985e-02  1.0000000000000003e-01  1.0000000000000003e-01  9.9998538294207698e-02  1.0000000000000003e-01  9.9997796992320323e-02  1.0000000000000003e-01  9.9996921206619335e-02  1.0000000000000003e-01  9.9996294278566530e-02  1.0000000000000003e-01  9.9996076047241186e-02  1.0000000000000003e-01  9.9995389324552028e-02  1.0000000000000003e-01  9.9995234390759052e-02  1.0000000000000003e-01  9.9995062026673937e-02  1.0000000000000003e-01  9.9993504917194678e-02  1.0000000000000003e-01  9.9995991650994889e-02  1.0000000000000003e-01  9.9994745960585552e-02  1.0000000000000003e-01  9.9995203041781347e-02  1.0000000000000003e-01  9.9994872963334216e-02  1.0000000000000003e-01  9.9996445477684728e-02  1.0000000000000003e-01  9.9996546403643957e-02  1.0000000000000003e-01  9.9998465498403966e-02  1.0000000000000003e-01  1.0000110298546770e-01  1.0000000000000003e-01  1.0000254798063107e-01  1.0000000000000003e-01  1.0000671913500934e-01  1.0000000000000003e-01  1.0000974701815803e-01  1.0000000000000003e-01  1.0001498912726053e-01  1.0000000000000003e-01  1.0001693740824286e-01  1.0000000000000003e-01  1.0002769265111836e-01  1.0000000000000003e-01  1.0002319391003513e-01  1.0000000000000003e-01  1.0004390247152907e-01  1.0000000000000003e-01  1.0002697191804935e-01  1.0000000000000003e-01  1.0006376027331605e-01  1.0000000000000003e-01  1.0002574268638252e-01  1.0000000000000001e-01  1.0009255130686538e-01  1.0000000000000001e-01  1.0000000000000003e-01  9.9978348748022541e-02  9.9895434502861494e-02  1.0000000000000003e-01  1.0001811581533498e-01  1.0000000000000003e-01  9.9987163612965724e-02  1.0000000000000003e-01  1.0000898558808299e-01  1.0000000000000003e-01  1.0000514140745705e-01  1.0000000000000003e-01  1.0001143218737628e-01  1.0000000000000003e-01  1.0001177967822046e-01  1.0000000000000003e-01  1.0001722401573607e-01  1.0000000000000003e-01  1.0001782892522942e-01  1.0000000000000003e-01  1.0002050565432995e-01  1.0000000000000003e-01  1.0002251659539906e-01  1.0000000000000003e-01  1.0002388192601724e-01  1.0000000000000003e-01  1.0002499181230939e-01  1.0000000000000003e-01  1.0002640051555618e-01  1.0000000000000003e-01  1.0002701321494836e-01  1.0000000000000003e-01  1.0002763505787908e-01  1.0000000000000003e-01  1.0002834472278160e-01  1.0000000000000003e-01  1.0002858350435689e-01  1.0000000000000003e-01  1.0002893132285259e-01  1.0000000000000003e-01  1.0002905218692773e-01  1.0000000000000003e-01  1.0002941290154380e-01  1.0000000000000003e-01  1.0002896099092214e-01  1.0000000000000003e-01  1.0002987197559676e-01  1.0000000000000003e-01  1.0002833899557047e-01  1.0000000000000003e-01  1.0003089128381504e-01  1.0000000000000003e-01  1.0002640145994136e-01  1.0000000000000003e-01  1.0003379880791963e-01  1.0000000000000003e-01  1.0002133275993726e-01  1.0000000000000003e-01  1.0004323686347835e-01  1.0000000000000001e-01  1.0000000000000003e-01  1.0000074917462036e-01  1.0000000000000003e-01  1.0000005236189746e-01  9.9999946176024812e-02  9.9999952908240847e-02  1.0000045309869190e-01  1.0000025753019544e-01  1.0000058026103562e-01  1.0000153848922115e-01  1.0000070977972064e-01  1.0000138502968910e-01  1.0000052072624908e-01  1.0000451683340042e-01  1.0000122796920283e-01  1.0000408207387650e-01  1.0000208528959448e-01  1.0000445557412310e-01  1.0000657146154690e-01  1.0000683982117993e-01  1.0000929965830063e-01  1.0001346500628090e-01  1.0001287371795281e-01  1.0001840279734033e-01  1.0001941586254617e-01  1.0002495038447384e-01  1.0002091211079121e-01  1.0003802215369113e-01  1.0001257532760625e-01  1.0006089716699895e-01  9.9986717122779414e-02  1.0009266961264134e-01  1.0006465671632520e-01  9.9879642201656404e-02  9.9934178061417106e-02  9.9999197913309648e-02  9.9985757108194448e-02  9.9988862769747680e-02  9.9985990650331050e-02  9.9995716843592083e-02  9.9992416625988761e-02  9.9996009804338440e-02  9.9998893596438876e-02  9.9999585196336463e-02  1.0000061201425940e-01  1.0000299761018572e-01  1.0000323214378515e-01  1.0000398574780545e-01  1.0000525356422148e-01  1.0000559432324967e-01  1.0000599581066828e-01  1.0000693542533279e-01  1.0000709255182261e-01  1.0000770551617805e-01  1.0000788674742531e-01  1.0000887841914131e-01  1.0000809613057388e-01  1.0001047570697379e-01  1.0000734581624933e-01  1.0001396061306014e-01  1.0000351218236384e-01  1.0002069167246280e-01  1.0000000000000003e-01  1.0000169668501376e-01  1.0000000000000003e-01  1.0000049743357031e-01  1.0000049474724239e-01  1.0000085297790173e-01  1.0000045597800486e-01  1.0000082709144925e-01  1.0000208534456706e-01  1.0000161641579308e-01  1.0000223916865536e-01  1.0000310622520321e-01  1.0000383635617696e-01  1.0000013596223897e-01  1.0000963529252221e-01  1.0000297698904052e-01  1.0000586890452740e-01  1.0000794845351270e-01  1.0000720358863636e-01  1.0001060362660756e-01  1.0001555479186189e-01  1.0001544533345751e-01  1.0002008430354337e-01  1.0002758063679676e-01  1.0002529713071605e-01  1.0003632761155486e-01  1.0003422507166171e-01  1.0004741433210583e-01  1.0003158157694517e-01  1.0007364003440573e-01  9.9996333812835111e-02  1.0014228448865709e-01  1.0000346793121477e-01  9.9948780267075252e-02  9.9945603067413930e-02  9.9996039087520625e-02  9.9983991380530685e-02  9.9977600332036259e-02  9.9999623914545435e-02  9.9987355776556791e-02  9.9995339626043622e-02  1.0000065956737542e-01  1.0000123806672651e-01  1.0000298219309282e-01  1.0000780443112819e-01  1.0000785945222436e-01  1.0000936310352974e-01  1.0001194899558000e-01  1.0001228768984047e-01  1.0001303632264727e-01  1.0001467196844746e-01  1.0001507257091280e-01  1.0001554474091702e-01  1.0001683708087755e-01  1.0001689680714791e-01  1.0001804722252765e-01  1.0001772999812338e-01  1.0001999386557793e-01  1.0001756633459209e-01  1.0002318276960127e-01  1.0001441112185908e-01  1.0003273027414071e-01  1.0000000000000003e-01  1.0000239244229900e-01  1.0000000000000003e-01  1.0000123578927844e-01  1.0000240610446269e-01  1.0000184540092426e-01  1.0000238775937685e-01  1.0000394226108300e-01  1.0000367519741307e-01  1.0000478346388425e-01  1.0000674894581141e-01  1.0000614385955632e-01  1.0000666186569966e-01  1.0001129929701939e-01  1.0000334169864868e-01  1.0001462424350493e-01  1.0001144689092568e-01  1.0001114352252785e-01  1.0001240238891530e-01  1.0001838386193480e-01  1.0001616978981766e-01  1.0002217062152023e-01  1.0002751001220690e-01  1.0002833056381778e-01  1.0003195447332257e-01  1.0004353655701108e-01  1.0003361096252485e-01  1.0005630070072311e-01  1.0003110059996383e-01  1.0007905218354438e-01  9.9994089755733734e-02  1.0014732380392262e-01  9.9982319131760478e-02  9.9919107523136846e-02  9.9977730943235685e-02  9.9986035831942849e-02  9.9939411932031680e-02  1.0000419007551047e-01  9.9966705154661481e-02  9.9982641197534111e-02  9.9986329562531812e-02  9.9987578649368927e-02  9.9988308545816335e-02  9.9996119937094022e-02  9.9995156001761773e-02  9.9997256735492701e-02  1.0000094157707289e-01  1.0000136993618657e-01  1.0000224913793375e-01  1.0000471119499037e-01  1.0000494794425362e-01  1.0000579155454779e-01  1.0000724888101452e-01  1.0000798718645611e-01  1.0000832905292605e-01  1.0001016186697420e-01  1.0000965624426114e-01  1.0001245576057108e-01  1.0000978453286301e-01  1.0001659410746401e-01  1.0000723565040794e-01  1.0002439552689621e-01  1.0000000000000003e-01  1.0000309606853894e-01  1.0000000000000003e-01  1.0000233967213473e-01  1.0000294728000157e-01  1.0000304815381776e-01  1.0000445277185850e-01  1.0000416749490565e-01  1.0000522178673572e-01  1.0000769834013951e-01  1.0000713661815366e-01  1.0000816202333584e-01  1.0001231080131330e-01  1.0000927401838348e-01  1.0001346228996377e-01  1.0000925237580972e-01  1.0001901093416216e-01  1.0001398683124173e-01  1.0002062581438266e-01  1.0001631381405188e-01  1.0002191096875226e-01  1.0002885554847654e-01  1.0002653366670072e-01  1.0003479942721180e-01  1.0004062321314994e-01  1.0004330984499354e-01  1.0004350275150493e-01  1.0006381997305727e-01  1.0003570651613983e-01  1.0009027788277898e-01  9.9997128935421481e-02  1.0016574293408771e-01  1.0000501926296038e-01  9.9919969575127859e-02  9.9953707295009783e-02  9.9963568136767225e-02  9.9987079112784483e-02  9.9957782265714487e-02  9.9978429767692389e-02  9.9981552186976630e-02  9.9983221461285007e-02  9.9980152491228616e-02  9.9993805084759718e-02  9.9990576867689640e-02  9.9993919177435442e-02  9.9999432207291183e-02  9.9999648303148669e-02  1.0000081936088601e-01  1.0000472096222915e-01  1.0000487839432264e-01  1.0000574592431015e-01  1.0000811554008772e-01  1.0000847882288780e-01  1.0000946352492945e-01  1.0001080926365458e-01  1.0001207334172438e-01  1.0001198398315311e-01  1.0001489044193762e-01  1.0001287772079882e-01  1.0001891640552904e-01  1.0001055802430339e-01  1.0002823770121461e-01  1.0000000000000003e-01  1.0000390257103603e-01  1.0000000000000003e-01  1.0000262588773856e-01  1.0000396370893368e-01  1.0000496346956386e-01  1.0000506733169894e-01  1.0000576280392150e-01  1.0000821301386272e-01  1.0000795140286989e-01  1.0000928383779548e-01  1.0001277938180138e-01  1.0001177066567758e-01  1.0001435406487556e-01  1.0001655412868660e-01  1.0001726296107209e-01  1.0001008974758335e-01  1.0003030683889659e-01  1.0001737215683815e-01  1.0002391735960678e-01  1.0002846603294681e-01  1.0002637703369470e-01  1.0003200497878338e-01  1.0004287845154235e-01  1.0003698276697562e-01  1.0005013933165008e-01  1.0005096362097490e-01  1.0006192923932271e-01  1.0004279180439529e-01  1.0009664222633652e-01  9.9994984153347177e-02  1.0017805389593180e-01  9.9975629166738259e-02  9.9946262732831706e-02  9.9938209800244288e-02  9.9987349105964032e-02  9.9959782573263059e-02  9.9966232693263671e-02  9.9963966379649979e-02  9.9983373390047134e-02  9.9963832795747443e-02  9.9989196348445442e-02  9.9978749103208711e-02  9.9984628413712931e-02  9.9991602676074001e-02  9.9991920013662638e-02  9.9992910327315873e-02  9.9998579268326337e-02  9.9998333541525930e-02  9.9999619820551111e-02  1.0000283485463399e-01  1.0000319645829257e-01  1.0000385604073204e-01  1.0000635506174760e-01  1.0000659481570497e-01  1.0000815321983093e-01  1.0000879040230322e-01  1.0001151137144859e-01  1.0000945359313886e-01  1.0001605337024666e-01  1.0000789789742628e-01  1.0002466502699782e-01  1.0000000000000003e-01  1.0000432609203606e-01  1.0000000000000003e-01  1.0000316166492502e-01  1.0000547543104057e-01  1.0000521518974255e-01  1.0000625481033312e-01  1.0000842653674191e-01  1.0000808681241125e-01  1.0000942664570331e-01  1.0001281395850803e-01  1.0001179425473734e-01  1.0001438473956976e-01  1.0001844478541901e-01  1.0001722935976019e-01  1.0001731935264636e-01  1.0002655493191628e-01  1.0001187446515405e-01  1.0003286061490532e-01  1.0002925788432392e-01  1.0002686390437925e-01  1.0003079878677211e-01  1.0004029228699239e-01  1.0003668445811860e-01  1.0004358137475214e-01  1.0005776627760128e-01  1.0004657682977680e-01  1.0006832800080553e-01  1.0005173725016976e-01  1.0009267885177361e-01  1.0000515832317319e-01  1.0018283119665110e-01  9.9962496065854833e-02  9.9933547920414562e-02  9.9961199657574051e-02  9.9963242071057806e-02  9.9949502641094437e-02  9.9978134214050191e-02  9.9972383967550954e-02  9.9949642938866531e-02  9.9991300541952932e-02  9.9970455205999509e-02  9.9979438545192881e-02  9.9985523498147794e-02  9.9987326267407112e-02  9.9987237042132138e-02  9.9995601022970268e-02  9.9994885472148493e-02  9.9996261950048348e-02  1.0000068551320400e-01  1.0000110899503101e-01  1.0000196843796039e-01  1.0000481821892650e-01  1.0000545276846753e-01  1.0000610676699614e-01  1.0000872405500892e-01  1.0000869424583088e-01  1.0001142569998049e-01  1.0001022048203677e-01  1.0001629293907417e-01  1.0000864090974185e-01  1.0002542018313440e-01  1.0000000000000003e-01  1.0000483291575027e-01  1.0000000000000003e-01  1.0000395730279302e-01  1.0000557150865484e-01  1.0000601496192704e-01  1.0000835558651494e-01  1.0000823385286560e-01  1.0000954951887710e-01  1.0001255263811436e-01  1.0001181762313005e-01  1.0001357378071619e-01  1.0001829994419008e-01  1.0001704646099785e-01  1.0001896117790854e-01  1.0002553986369493e-01  1.0001963426399851e-01  1.0002773588238792e-01  1.0002144558067610e-01  1.0003690583864157e-01  1.0002989963700544e-01  1.0004154394342123e-01  1.0003231482291769e-01  1.0004288419814161e-01  1.0005118870458626e-01  1.0004981686003703e-01  1.0005240595611251e-01  1.0007591551694801e-01  1.0004588084049362e-01  1.0009757989127466e-01  1.0001365735267535e-01  1.0017557967004902e-01  9.9978226477528326e-02  9.9923080760298238e-02  9.9944094350377391e-02  9.9949945804656576e-02  9.9963803960557610e-02  9.9964494136254856e-02  9.9955184478015852e-02  9.9982723576244187e-02  9.9956583773572444e-02  9.9978772595752566e-02  9.9976476429251712e-02  9.9982915769603109e-02  9.9977602703661378e-02  9.9990787563250347e-02  9.9988475250263220e-02  9.9990603296606625e-02  9.9996323221949221e-02  9.9996512223369888e-02  9.9997256182786584e-02  1.0000156672163807e-01  1.0000169821736982e-01  1.0000276652303164e-01  1.0000507416319669e-01  1.0000637602921054e-01  1.0000649136995031e-01  1.0001012599320172e-01  1.0000844720424341e-01  1.0001452496798140e-01  1.0000752115631173e-01  1.0002357454941198e-01  1.0000000000000003e-01  1.0000539475296610e-01  1.0000000000000003e-01  1.0000393697283727e-01  1.0000610670408919e-01  1.0000747378027906e-01  1.0000811100499415e-01  1.0000917296791252e-01  1.0001211536095636e-01  1.0001182294233511e-01  1.0001310943017273e-01  1.0001697083691166e-01  1.0001633099100135e-01  1.0001840833051247e-01  1.0002421928709164e-01  1.0002114764719625e-01  1.0002538938637162e-01  1.0002942203320843e-01  1.0003003607700850e-01  1.0002007414820824e-01  1.0005128907732229e-01  1.0003174002770847e-01  1.0004088415107372e-01  1.0005006640729845e-01  1.0004177200315657e-01  1.0005462788317700e-01  1.0006170498537041e-01  1.0006475812627948e-01  1.0005267031300356e-01  1.0010323432034975e-01  1.0001023683625651e-01  1.0017444518971452e-01  9.9968365315977761e-02  9.9935102403424472e-02  9.9933043794926887e-02  9.9964999377097755e-02  9.9951092182427717e-02  9.9949587957127578e-02  9.9971475779132499e-02  9.9967257097056977e-02  9.9968420587865314e-02  9.9966538326156387e-02  9.9985178077223749e-02  9.9968565824893676e-02  9.9988615088430446e-02  9.9982037930052239e-02  9.9985713989010960e-02  9.9992403784474479e-02  9.9993110369748645e-02  9.9993531210246456e-02  9.9998881083903493e-02  9.9999032860055875e-02  1.0000005267066264e-01  1.0000357867696504e-01  1.0000385297938753e-01  1.0000525116156951e-01  1.0000686369430772e-01  1.0000932184103799e-01  1.0000795091294988e-01  1.0001438910615192e-01  1.0000745876356343e-01  1.0002316487940471e-01  1.0000000000000003e-01  1.0000563696406960e-01  1.0000000000000003e-01  1.0000417165757053e-01  1.0000718985516471e-01  1.0000715824135181e-01  1.0000871533565209e-01  1.0001122686078061e-01  1.0001135893088278e-01  1.0001275352753261e-01  1.0001637017764031e-01  1.0001525606089338e-01  1.0001734108601115e-01  1.0002257772648750e-01  1.0002051869955635e-01  1.0002354363710993e-01  1.0002977395834868e-01  1.0002764284243100e-01  1.0002786843968484e-01  1.0004269882982247e-01  1.0001993300039834e-01  1.0005153882154026e-01  1.0004703790788312e-01  1.0004261297920088e-01  1.0004622088744070e-01  1.0006445070796116e-01  1.0004783396671002e-01  1.0006989442366591e-01  1.0006224433526766e-01  1.0008957915372249e-01  1.0001880731588485e-01  1.0017424430263255e-01  9.9958658284572025e-02  9.9924037166845198e-02  9.9945529922982987e-02  9.9955366603004372e-02  9.9938513404400825e-02  9.9963535358509686e-02  9.9958653173729331e-02  9.9958416100662403e-02  9.9974480311727537e-02  9.9978453206997123e-02  9.9956920796654497e-02  9.9991141412548987e-02  9.9974611063015625e-02  9.9981809029271493e-02  9.9986297188176088e-02  9.9989054162895344e-02  9.9988151128550737e-02  9.9995683952599904e-02  9.9995444395006308e-02  9.9996301043159513e-02  1.0000047659744457e-01  1.0000145027256439e-01  1.0000193167765098e-01  1.0000537413196496e-01  1.0000531496415621e-01  1.0000792638788041e-01  1.0000752213763368e-01  1.0001315622842882e-01  1.0000666787430326e-01  1.0002197429800937e-01  1.0000000000000003e-01  1.0000586948786105e-01  1.0000000000000003e-01  1.0000462003004672e-01  1.0000686084853297e-01  1.0000738006655893e-01  1.0001008395945579e-01  1.0001031856644542e-01  1.0001182964677213e-01  1.0001513881308643e-01  1.0001464813575200e-01  1.0001610638338786e-01  1.0002077602023482e-01  1.0001917582792764e-01  1.0002148107183297e-01  1.0002766740642853e-01  1.0002522701428032e-01  1.0002802858258965e-01  1.0003794303654660e-01  1.0002889094106600e-01  1.0004034224856537e-01  1.0003327062768297e-01  1.0005213400299805e-01  1.0004509126624520e-01  1.0005950353221381e-01  1.0004779247320603e-01  1.0005426638850673e-01  1.0007900300906029e-01  1.0004710623016624e-01  1.0009212262375362e-01  1.0003117814570540e-01  1.0015419813637064e-01  9.9974159518804326e-02  9.9900558740151205e-02  9.9939657060947137e-02  9.9944219807158660e-02  9.9951673003919758e-02  9.9955586262199650e-02  9.9948211437712847e-02  9.9967784742158367e-02  9.9969383560962119e-02  9.9965422092012923e-02  9.9985171231384826e-02  9.9966433592074647e-02  9.9983630973436391e-02  9.9980416116631290e-02  9.9987068550534589e-02  9.9981932798465151e-02  9.9992850012185025e-02  9.9991663908490222e-02  9.9992953946541951e-02  9.9998179642995372e-02  9.9998484818774602e-02  9.9999313501876491e-02  1.0000311112893152e-01  1.0000414175585325e-01  1.0000433467307469e-01  1.0000820551839681e-01  1.0000689197388300e-01  1.0001231615744705e-01  1.0000668405468571e-01  1.0002117799256227e-01  1.0000000000000003e-01  1.0000623001586033e-01  1.0000000000000003e-01  1.0000441252581939e-01  1.0000700800177420e-01  1.0000830017059585e-01  1.0000936364615746e-01  1.0001051763371194e-01  1.0001364423490619e-01  1.0001366978155354e-01  1.0001507180882591e-01  1.0001893826404695e-01  1.0001827404637512e-01  1.0001977521351692e-01  1.0002514475461032e-01  1.0002312172191348e-01  1.0002560225076880e-01  1.0003414018108270e-01  1.0002915215824301e-01  1.0003513745596265e-01  1.0004104405460346e-01  1.0004104890151860e-01  1.0002725354107091e-01  1.0007209459614490e-01  1.0004118670806772e-01  1.0005786019334303e-01  1.0006389361245298e-01  1.0006009295654256e-01  1.0005177088097945e-01  1.0010240420343341e-01  1.0001563705956666e-01  1.0015237213535749e-01  9.9982167999177585e-02  9.9892562129100554e-02  9.9924286476988117e-02  9.9956504604261059e-02  9.9947543401221611e-02  9.9944852113295304e-02  9.9959630132497299e-02  9.9962585857571978e-02  9.9957330817073864e-02  9.9977157445065024e-02  9.9975662031972237e-02  9.9977608652164526e-02  9.9972975163608133e-02  9.9990384709249133e-02  9.9975227515654991e-02  9.9991324933371026e-02  9.9986653415963425e-02  9.9989301326902952e-02  9.9994789950767854e-02  9.9995982413586024e-02  9.9996085494122672e-02  1.0000080110290201e-01  1.0000111914843024e-01  1.0000272887812531e-01  1.0000501150591011e-01  1.0000721514473966e-01  1.0000597505684108e-01  1.0001212056890316e-01  1.0000613458268820e-01  1.0002007272867686e-01  1.0000000000000003e-01  1.0000613099638642e-01  1.0000000000000003e-01  1.0000425679242150e-01  1.0000748379176312e-01  1.0000747172923384e-01  1.0000918684519938e-01  1.0001159763438609e-01  1.0001208331661965e-01  1.0001349149274884e-01  1.0001700755345221e-01  1.0001638843701145e-01  1.0001813773015612e-01  1.0002285856506575e-01  1.0002098663904116e-01  1.0002275754140412e-01  1.0002980750313263e-01  1.0002677916875385e-01  1.0003033505448126e-01  1.0003937518832233e-01  1.0003524621992037e-01  1.0003563518909706e-01  1.0005580163476893e-01  1.0002485396062924e-01  1.0006491073135396e-01  1