<?xml version="1.0"?>
<VTKFile type="UnstructuredGrid"  version="0.1"  >
<UnstructuredGrid>
<Piece  NumberOfPoints="1933" NumberOfCells="3640">
<Points>
<DataArray  type="Float64"  NumberOfComponents="3"  format="ascii">-0.0002670986701350242 0.001854290876924161 0  4.999732908244519 0.001782182939197611 0  4.999841129703135 7.50178223580189 0  -0.0001589055950043661 7.501854292572515 0  9.999732902822998 0.001710010446724145 0  9.999841203776244 7.501710085491239 0  14.99973291942585 0.001637706151832379 0  14.99984134169975 7.501637790765366 0  19.99973300440937 0.00156523838527271 0  19.99984157019358 7.501565327107794 0  24.99973320653923 0.001492598568659749 0  24.99984191803279 7.501492689379021 0  29.99973357364939 0.001419793428605193 0  29.99984241555398 7.501419886038536 0  34.99973415211666 0.001346840127500409 0  34.99984309430489 7.501346935155884 0  39.99973498759514 0.001273763366280493 0  39.99984398702501 7.501273861941335 0  44.99973612629669 0.001200593869896979 0  44.99984512791514 7.5012006974513 0  49.99973761650397 0.001127367882620205 0  49.99984655311152 7.501127478201836 0  54.99973951019439 0.001054127451291307 0  54.99984830128781 7.501054246519936 0  59.99974186474972 0.0009809213860960328 0  59.99985041432668 7.500981051548248 0  64.99974474477213 0.0009078068766575426 0  64.99985293801186 7.500907950895195 0  69.99974822404974 0.0008348518195701701 0  69.99985592269519 7.500835012994166 0  74.9997523877315 0.0007621379941937796 0  74.99985942388103 7.500762320311623 0  79.9997573347724 0.0006897653200419864 0  79.99986350264432 7.5006899736364 0  84.99976318071478 0.0006178575586119285 0  84.99986822575197 7.500618097803509 0  89.99977006084917 0.0005465700100367767 0  89.99987366527918 7.50054684937611 0  94.99977813376124 0.0004761000400978603 0  94.9998798973908 7.500476427055489 0  99.99978758514789 0.0004067017210818852 0  99.99988699977517 7.500407085949457 0  104.9997986315311 0.0003387065904668924 0  104.9998950469526 7.500339157359122 0  109.9998115229165 0.0002725537121192395 0  109.9999041023276 7.500273076503869 0  114.9998265422022 0.0002088341879100813 0  114.999914205478 7.50020942165564 0  119.9998439964985 0.0001483585675801303 0  119.9999253529821 7.500148969476846 0  124.9998641899213 9.226117819322083e-05 0  124.9999374718245 7.500092772692748 0  129.9998873556014 4.216471553862619e-05 0  129.999950388009 7.500042266670996 0  134.9999134995107 4.43109376195752e-07 0  134.9999638045935 7.499999408850034 0  139.9999420540551 -2.936245504144312e-05 0  139.999977336365 7.499966846508058 0  144.9999711135368 -4.194209890085613e-05 0  144.999990740497 7.499948105912531 0  149.999995693312 -2.975205164066436e-05 0  150.0000047546634 7.499947942380853 0  159.9999999999999 1.311754906549773e-18 0  164.9998888462179 -0.0001362666556351955 0  164.9999800779081 7.499845549988415 0  160.0000151919897 7.499955975196752 0  169.9998212970047 -0.0002614074839556042 0  169.9999443683638 7.499729352985586 0  174.9997783899543 -0.0003783302359326349 0  174.9999138406552 7.499616449492262 0  179.9997502118915 -0.0004883250318973238 0  179.9998892802006 7.499508557383661 0  184.999731225937 -0.0005925422912066325 0  184.9998700446965 7.499405524984417 0  189.9997182016234 -0.0006920216361482598 0  189.9998551801953 7.499306741579674 0  194.9997091817259 -0.0007876366730572451 0  194.9998437809875 7.499211548463731 0  199.9997029354777 -0.0008800901207167745 0  199.9998350885325 7.499119358673761 0  204.999698659542 -0.000969937148065794 0  204.9998284987545 7.499029681589681 0  209.9996958103034 -0.001057615345414498 0  209.999823540592 7.498942116416403 0  214.99969400743 -0.001143471904280816 0  214.9998198492191 7.498856337354794 0  219.9996929768846 -0.001227785405497219 0  219.9998171419459 7.498772078526423 0  224.9996925162189 -0.001310782375061598 0  224.9998151987725 7.498689121126207 0  229.9996924727528 -0.001392649589610092 0  229.9998138474342 7.498607283192029 0  234.9996927294012 -0.001473543175847195 0  234.9998129521395 7.498526411682007 0  239.9996931951655 -0.00155359537322181 0  239.9998124051528 7.49844637639001 0  244.9996937985708 -0.001632919618990144 0  244.9998121205024 7.498367065259444 0  249.9996944830111 -0.001711614435020036 0  249.9998120292609 7.498288380737022 0  254.9996952033877 -0.001789766458811458 0  254.9998120759923 7.498210236892145 0  259.9996959236427 -0.001867452861997686 0  259.9998122160595 7.498132557097628 0  264.9996966149608 -0.001944743328542911 0  264.9998124135907 7.498055272122716 0  269.9996972544728 -0.002021701712450378 0  269.9998126399545 7.497978318532977 0  274.9996978244056 -0.002098387451985876 0  274.9998128726211 7.497901637329051 0  279.9996983116267 -0.00217485677408363 0  279.9998130943503 7.497825172793546 0  284.9996987076246 -0.002251163664449606 0  284.9998132926253 7.497748871561923 0  289.9996990089613 -0.002327360480391621 0  289.9998134592772 7.497672682000275 0  294.9996992183032 -0.002403497893357807 0  294.99981359024 7.497596554076617 0  299.9996993460821 -0.002479623453604133 0  299.9998136853695 7.497520440070065 0  304.9996994126881 -0.002555777201210522 0  304.9998137483679 7.497444296670946 0  309.9996994505177 -0.002631980705142317 0  309.9998137872317 7.497368089178166 0  4.999949095127249 15.001782377311 0  -5.09488151855253e-05 15.00185430307751 0  9.999949184810577 15.00171028466369 0  14.99994934523823 15.00163801154597 0  19.99994959580111 15.0015655537479 0  24.99994995417394 15.00149291677432 0  29.99995043807454 15.00142011455357 0  34.99995106594792 15.00134716793203 0  39.99995185718642 15.00127410354272 0  44.99995283217604 15.00120095322529 0  49.99995401228554 15.00112775401978 0  54.99995541982501 15.00105454871801 0  59.99995707795593 15.00098138696981 0  64.99995901051049 15.00090832697572 0  69.99996124165594 15.0008354378435 0  74.99996379532412 15.00076280274279 0  79.99996669429621 15.00069052306119 0  84.99996995880848 15.00061872385138 0  89.99997360450786 15.00054756096865 0  94.99997763956344 15.00047723043217 0  99.99998206073727 15.00040798069593 0  104.9999868483064 15.00034012865654 0  109.9999919599771 15.0002740802657 0  114.9999973245699 15.00021035633876 0  120.0000028375982 15.00014962304936 0  125.0000083635187 15.00009272354102 0  130.0000137542413 15.00004069956033 0  135.0000189013058 14.99999477433391 0  140.0000238493245 14.99995622615376 0  145.000029002307 14.9999259759507 0  150.000035408989 14.99990339213671 0  165.0000410884923 14.99979657327546 0  160.0000479984905 14.99988487515835 0  170.0000287658889 14.99969849489548 0  175.0000141501004 14.99959718662298 0  179.9999996010624 14.99949637120863 0  184.9999863295174 14.99939764657055 0  189.9999748023745 14.99930151805385 0  194.9999650859406 14.99920799301275 0  199.9999570557566 14.9991168759446 0  204.9999505118446 14.99902790654841 0  209.999945237619 14.99894082070952 0  214.9999410275674 14.99885537483573 0  219.9999376984423 14.99877135334478 0  224.9999350921769 14.99868856882542 0  229.9999330749387 14.9986068593505 0  234.9999315346167 14.99852608497159 0  239.9999303778678 14.99844612425622 0  244.9999295272534 14.9983668711837 0  249.9999289186824 14.99828823247457 0  254.999928499223 14.99821012532742 0  259.9999282252716 14.99813247550503 0  264.9999280610438 14.99805521570603 0  269.9999279773392 14.99797828416801 0  274.9999279505249 14.99790162346158 0  279.9999279616917 14.99782517945126 0  284.999927995943 14.99774890041721 0  289.9999280417599 14.99767273634296 0  294.9999280904522 14.99759663836257 0  299.9999281357164 14.99752055826923 0  304.9999281734702 14.99744444765663 0  309.9999282023107 14.99736825525438 0  5.000056700063314 22.50178270622126 0  5.665445376284994e-05 22.50185447512462 0  10.000056781453 22.50171068896578 0  15.00005692016217 22.50163844658168 0  20.00005713040297 22.5015659983159 0  25.00005742252986 22.5014933638641 0  30.00005780513531 22.50142056541178 0  35.00005828614339 22.50134762847515 0  40.00005887325889 22.50127458228746 0  45.00005957402467 22.50120146015085 0  50.00006039564081 22.50112829997665 0  55.00006134461768 22.50105514513532 0  60.0000624262867 22.50098204569585 0  65.00006364415864 22.50090906012712 0  70.00006499909651 22.5008362575463 0  75.00006648826169 22.50076372062377 0  80.00006810378268 22.50069154928473 0  85.00006983110909 22.50061986537815 0  90.00007164703963 22.50054881850811 0  95.00007351748251 22.50047859321854 0  100.0000753951398 22.50040941765415 0  105.0000772175556 22.50034157361417 0  110.0000789063893 22.50027540742527 0  115.0000803694597 22.50021134002387 0  120.0000815081045 22.50014987257358 0  125.0000822336925 22.50009158002168 0  130.0000824982943 22.50003707784852 0  135.0000823441834 22.49998693489077 0  140.0000819712853 22.49994148553166 0  145.0000818020516 22.49990047056541 0  150.0000824715164 22.49986244285133 0  165.000100018752 22.49974281980497 0  160.0000932223327 22.49981854109204 0  170.0001015699529 22.49965791458471 0  175.0000991835796 22.4995677502063 0  180.0000943679975 22.49947534432833 0  185.0000883791639 22.49938264548188 0  190.0000820834899 22.49929074479773 0  195.0000760084613 22.49920017157412 0  200.0000704380001 22.49911112412955 0  205.0000654976355 22.49902361978352 0  210.0000612169972 22.49893758423251 0  215.0000575716138 22.49885290206717 0  220.0000545093266 22.4987694441008 0  225.0000519662575 22.49868708142257 0  230.0000498760446 22.49860569207805 0  235.0000481748962 22.49852516376809 0  240.0000468041211 22.49844539446884 0  245.0000457111797 22.49836629201793 0  250.000044849899 22.49828777322891 0  255.0000441802427 22.49820976282833 0  260.0000436678509 22.49813219236413 0  265.0000432834927 22.49805499915481 0  270.0000430024872 22.4979781253098 0  275.000042804132 22.4979015168297 0  280.0000426711457 22.4978251227843 0  285.0000425891255 22.49774889455297 0  290.0000425460196 22.49767278508566 0  295.0000425316322 22.49759674808107 0  300.00004253716
[...]
<PointData  Scalars="p"> 
<DataArray  type="Float64"  Name="p"  format="ascii">1.0000000000000001e-01  1.0000000000000003e-01  1.0000389869762705e-01  1.0000000000000003e-01  1.0000000000000003e-01  1.0000453206551517e-01  1.0000000000000003e-01  1.0000684397290141e-01  1.0000000000000003e-01  1.0000801769695641e-01  1.0000000000000003e-01  1.0000968402470725e-01  1.0000000000000003e-01  1.0001242147234125e-01  1.0000000000000003e-01  1.0001364573513534e-01  1.0000000000000003e-01  1.0001552187403426e-01  1.0000000000000003e-01  1.0001860905136374e-01  1.0000000000000003e-01  1.0001906469909048e-01  1.0000000000000003e-01  1.0002672296139174e-01  1.0000000000000003e-01  1.0003094903833731e-01  1.0000000000000003e-01  1.0003546939749747e-01  1.0000000000000003e-01  1.0003911234313174e-01  1.0000000000000003e-01  1.0004648968001956e-01  1.0000000000000003e-01  1.0004947225437637e-01  1.0000000000000003e-01  1.0005489918098112e-01  1.0000000000000003e-01  1.0006322747666370e-01  1.0000000000000003e-01  1.0006569283605334e-01  1.0000000000000003e-01  1.0007398993088275e-01  1.0000000000000003e-01  1.0007904534896302e-01  1.0000000000000003e-01  1.0008810594293328e-01  1.0000000000000003e-01  1.0008597419010037e-01  1.0000000000000003e-01  1.0010864883471045e-01  1.0000000000000003e-01  1.0008788329800170e-01  1.0000000000000003e-01  1.0013415597627938e-01  1.0000000000000003e-01  1.0008158115197427e-01  1.0000000000000003e-01  1.0016940395393301e-01  1.0000000000000003e-01  1.0006434296105439e-01  1.0000000000000001e-01  1.0022914753582277e-01  1.0000000000000001e-01  1.0000000000000003e-01  9.9813970871365579e-02  9.9617559966044752e-02  1.0000000000000003e-01  9.9945781841177472e-02  1.0000000000000003e-01  9.9853039659545229e-02  1.0000000000000003e-01  9.9902883130746134e-02  1.0000000000000003e-01  9.9887902924749319e-02  1.0000000000000003e-01  9.9900755952838760e-02  1.0000000000000003e-01  9.9894659317424764e-02  1.0000000000000003e-01  9.9905520007026960e-02  1.0000000000000003e-01  9.9903880039380610e-02  1.0000000000000003e-01  9.9907539881803023e-02  1.0000000000000003e-01  9.9910710993459440e-02  1.0000000000000003e-01  9.9913037279427200e-02  1.0000000000000003e-01  9.9914579367180845e-02  1.0000000000000003e-01  9.9917790028474673e-02  1.0000000000000003e-01  9.9919300565769531e-02  1.0000000000000003e-01  9.9920949440489265e-02  1.0000000000000003e-01  9.9922995018553992e-02  1.0000000000000003e-01  9.9924494643659031e-02  1.0000000000000003e-01  9.9925482797801141e-02  1.0000000000000003e-01  9.9927423523155215e-02  1.0000000000000003e-01  9.9927833203968433e-02  1.0000000000000003e-01  9.9929932240223882e-02  1.0000000000000003e-01  9.9929129303542405e-02  1.0000000000000003e-01  9.9933318442457342e-02  1.0000000000000003e-01  9.9928277910744240e-02  1.0000000000000003e-01  9.9939026512607512e-02  1.0000000000000003e-01  9.9922998799316029e-02  1.0000000000000003e-01  9.9951373877532015e-02  1.0000000000000003e-01  9.9902865195161533e-02  1.0000000000000001e-01  1.0000000000000003e-01  1.0000641931877306e-01  1.0000000000000003e-01  1.0000636055470317e-01  1.0000681825904473e-01  1.0000770476680010e-01  1.0001001981802916e-01  1.0000984932969298e-01  1.0001028386370846e-01  1.0001363336252594e-01  1.0001208297074921e-01  1.0001342334305474e-01  1.0001648143722659e-01  1.0002438062721529e-01  1.0002209309281762e-01  1.0003063252530611e-01  1.0002688904913384e-01  1.0003018204542775e-01  1.0003689561767182e-01  1.0003498574396097e-01  1.0003719083189409e-01  1.0004724756217610e-01  1.0004094070491834e-01  1.0004977127167446e-01  1.0004898078653170e-01  1.0005922052547114e-01  1.0004009170567833e-01  1.0008604583968089e-01  1.0001097162701625e-01  1.0014174622921895e-01  9.9942202470902908e-02  1.0023250783198100e-01  1.0016161107000950e-01  9.9413975961680140e-02  9.9824110569217736e-02  9.9972101311940259e-02  9.9948291015193327e-02  9.9958421023773697e-02  9.9938224720340807e-02  9.9961940526881302e-02  9.9950236929958108e-02  9.9953189763989564e-02  9.9957902497345458e-02  9.9958129457721062e-02  9.9957542686247430e-02  9.9962435190143958e-02  9.9962529041626794e-02  9.9963077715669438e-02  9.9965919172478102e-02  9.9966471107873767e-02  9.9967015347412577e-02  9.9968778232396416e-02  9.9969649997010412e-02  9.9969642106733939e-02  9.9971851544795987e-02  9.9970880769152934e-02  9.9973951684069376e-02  9.9970466366500907e-02  9.9978722577134263e-02  9.9965157863041082e-02  9.9989874221003347e-02  9.9952634704775542e-02  1.0000000000000003e-01  1.0000947992939446e-01  1.0000000000000003e-01  1.0000640999995045e-01  1.0000954098010326e-01  1.0001192848698263e-01  1.0001238289265608e-01  1.0001286043150784e-01  1.0001774224258063e-01  1.0001658658819408e-01  1.0001685336598909e-01  1.0002242246423046e-01  1.0002360428680036e-01  1.0001992961769331e-01  1.0004283801139942e-01  1.0003499113067582e-01  1.0003977784218067e-01  1.0005017757796147e-01  1.0004541829985478e-01  1.0004971642159910e-01  1.0006284502181896e-01  1.0005778983993011e-01  1.0006100176363240e-01  1.0007943947375103e-01  1.0006408732105590e-01  1.0008455116751942e-01  1.0007236905984919e-01  1.0010416270567254e-01  1.0004652265494388e-01  1.0017062041282632e-01  9.9946478505175823e-02  1.0036483338796151e-01  1.0011672400368132e-01  9.9457643620534095e-02  9.9717700599076503e-02  9.9941304043615883e-02  9.9926073293294712e-02  9.9879555686305826e-02  9.9942921712890542e-02  9.9907247772392987e-02  9.9915035829686749e-02  9.9924502997824613e-02  9.9923299923967437e-02  9.9920562814397831e-02  9.9930597140414829e-02  9.9929337510922159e-02  9.9930012888291148e-02  9.9935639697843012e-02  9.9936304364884987e-02  9.9936674454679408e-02  9.9940602094098080e-02  9.9941145591595698e-02  9.9942046052389363e-02  9.9944094675554762e-02  9.9945662763267121e-02  9.9944970092683050e-02  9.9949086188817829e-02  9.9945766653121895e-02  9.9953130939826496e-02  9.9942847697580467e-02  9.9964294596527808e-02  9.9925035808794305e-02  1.0000000000000003e-01  1.0001136188060036e-01  1.0000000000000003e-01  1.0000727600567616e-01  1.0001263541692949e-01  1.0001208456725069e-01  1.0001262112409830e-01  1.0001769260332562e-01  1.0001634681992408e-01  1.0001633519570020e-01  1.0002259538206314e-01  1.0001999243851789e-01  1.0001971004674116e-01  1.0003311720136253e-01  1.0002111863869370e-01  1.0003967363429506e-01  1.0004568305866496e-01  1.0004188779211688e-01  1.0004200912720380e-01  1.0005784897739249e-01  1.0004721293736406e-01  1.0005379855207874e-01  1.0006631581181309e-01  1.0006112522964505e-01  1.0005738114407532e-01  1.0008798238930430e-01  1.0004762042159876e-01  1.0010552921400272e-01  1.0002502899291542e-01  1.0017120284334367e-01  9.9910799925305285e-02  1.0038735633943879e-01  1.0012066235036279e-01  9.9331024853512875e-02  9.9812441798172044e-02  9.9982259521603431e-02  9.9809334119996596e-02  1.0000138855844391e-01  9.9907894295550664e-02  9.9932365781324820e-02  9.9937384023302767e-02  9.9938128828816405e-02  9.9928721761444905e-02  9.9945143576402773e-02  9.9940292727218799e-02  9.9940411748863381e-02  9.9947789540708348e-02  9.9948052514249083e-02  9.9947897074546474e-02  9.9953186799049992e-02  9.9953644324966368e-02  9.9953869240972104e-02  9.9957463672943059e-02  9.9957622649357508e-02  9.9959044916408057e-02  9.9959749394522346e-02  9.9963076300945752e-02  9.9959169660742614e-02  9.9968637906258415e-02  9.9955605953772494e-02  9.9979052709553054e-02  9.9942984877080393e-02  1.0000000000000003e-01  1.0001329456090199e-01  1.0000000000000003e-01  1.0000927250351427e-01  1.0001300318641582e-01  1.0001215626191937e-01  1.0001825792580324e-01  1.0001672277548333e-01  1.0001746709625145e-01  1.0002426626432778e-01  1.0002130386730095e-01  1.0002074858507706e-01  1.0003241041099607e-01  1.0002590692971575e-01  1.0003114748184670e-01  1.0003452318511535e-01  1.0004833533053642e-01  1.0004357466643291e-01  1.0006270152254734e-01  1.0005006376825211e-01  1.0005407793121825e-01  1.0007380810903045e-01  1.0005822742040653e-01  1.0006854566610161e-01  1.0007944629352121e-01  1.0007973570420610e-01  1.0005919255442849e-01  1.0012304751717899e-01  1.0002026871800335e-01  1.0019329695869281e-01  9.9895594489193926e-02  1.0045045264612529e-01  1.0023286446853907e-01  9.9241964808474262e-02  9.9757800896071058e-02  9.9921131105575517e-02  9.9891707956115308e-02  9.9888929079552449e-02  9.9918445996761543e-02  9.9922864291581856e-02  9.9932011771374590e-02  9.9905859326532093e-02  9.9936326884667123e-02  9.9925058058630944e-02  9.9924740422017405e-02  9.9935227860472542e-02  9.9934660561357483e-02  9.9933078282022927e-02  9.9941497423002013e-02  9.9941463639989722e-02  9.9941636786433086e-02  9.9946471931603373e-02  9.9947354391729457e-02  9.9947249966869475e-02  9.9951274927736811e-02  9.9950706734483530e-02  9.9953575546429793e-02  9.9951936410562964e-02  9.9959214024829907e-02  9.9948361731157148e-02  9.9970763503108628e-02  9.9933599998432002e-02  1.0000000000000003e-01  1.0001558722401994e-01  1.0000000000000003e-01  1.0000935209097959e-01  1.0001356206258344e-01  1.0001628421892705e-01  1.0001682550464830e-01  1.0001691867965623e-01  1.0002390343300741e-01  1.0002192644222514e-01  1.0002088600979689e-01  1.0003082352145422e-01  1.0002664500106968e-01  1.0002773674490197e-01  1.0003902305740113e-01  1.0003623874223400e-01  1.0002430206420143e-01  1.0006825700405853e-01  1.0004712110471159e-01  1.0005384918661459e-01  1.0007175698199609e-01  1.0005762762581472e-01  1.0005876386286729e-01  1.0008840598085350e-01  1.0005901678709855e-01  1.0008223752512672e-01  1.0007416193237634e-01  1.0010823072758564e-01  1.0001632029514126e-01  1.0021404707333025e-01  9.9858494423863728e-02  1.0050168201359926e-01  1.0022481099027693e-01  9.9265348892809829e-02  9.9704537381924335e-02  1.0001696736336700e-01  9.9868054275275758e-02  9.9894491971214111e-02  9.9885646639846337e-02  9.9963626714765427e-02  9.9889040781709765e-02  9.9952135096067402e-02  9.9923219660940518e-02  9.9925208469081331e-02  9.9937971435543838e-02  9.9937128559472094e-02  9.9932272249980844e-02  9.9944390688891854e-02  9.9942956294604937e-02  9.9942476834570929e-02  9.9949728885159170e-02  9.9949944980970970e-02  9.9950003201757967e-02  9.9954238720166011e-02  9.9955540401279797e-02  9.9954566602234590e-02  9.9959892466006062e-02  9.9956455879489148e-02  9.9964262286632841e-02  9.9953948103027740e-02  9.9975544210581579e-02  9.9940739582841456e-02  1.0000000000000003e-01  1.0001684195675015e-01  1.0000000000000003e-01  1.0000951295418169e-01  1.0001739042374198e-01  1.0001535879405686e-01  1.0001682575998086e-01  1.0002279862178505e-01  1.0002213357126802e-01  1.0002109368654266e-01  1.0003097225439153e-01  1.0002657332578013e-01  1.0002682253700498e-01  1.0004032147736849e-01  1.0003442930609753e-01  1.0003052813333985e-01  1.0005448384840226e-01  1.0002828478724682e-01  1.0005903050931035e-01  1.0007252866458803e-01  1.0005878189120020e-01  1.0006064966806870e-01  1.0008516513784865e-01  1.0006734577798676e-01  1.0006483283042721e-01  1.0010773078672683e-01  1.0005429139632772e-01  1.0011501412107773e-01  1.0003617161652088e-01  1.0020507425809194e-01  9.9851045020427021e-02  1.0055281986517213e-01  1.0020801643144364e-01  9.9206764870881051e-02  9.9758863097138106e-02  9.9993332988448633e-02  9.9830734668615126e-02  9.9938915960048572e-02  9.9900264147341794e-02  9.9856298558243156e-02  9.9962402494752495e-02  9.9911500288778918e-02  9.9922138856241946e-02  9.9929824714715912e-02  9.9933011019642207e-02  9.9922397565830171e-02  9.9939751002690730e-02  9.9936303765901999e-02  9.9934804079214679e-02  9.9943717280000954e-02  9.9944329915484867e-02  9.9943506279416838e-02  9.9950032358445587e-02  9.9950083922561953e-02  9.9950991718617516e-02  9.9953566847978126e-02  9.9956431603880957e-02  9.9953368535586562e-02  9.9962147302773904e-02  9.9951578911417080e-02  9.9972683240445351e-02  9.9938460380297883e-02  1.0000000000000003e-01  1.0001793742984755e-01  1.0000000000000003e-01  1.0001153282786161e-01  1.0001705323719866e-01  1.0001514179867939e-01  1.0002190156187377e-01  1.0002063969233270e-01  1.0002074560429734e-01  1.0002978909380821e-01  1.0002624099853728e-01  1.0002562794309172e-01  1.0003900662049788e-01  1.0003338912837140e-01  1.0003196543273160e-01  1.0005070315345968e-01  1.0003528506444608e-01  1.0004250608947653e-01  1.0004776668462058e-01  1.0006563136345877e-01  1.0005627208560815e-01  1.0009010628486767e-01  1.0006040360492871e-01  1.0007121581107553e-01  1.0009246604029830e-01  1.0008110866034363e-01  1.0005657368455184e-01  1.0014295466278229e-01  1.0000913848671769e-01  1.0021536429389810e-01  9.9855338040854752e-02  1.0056835070167679e-01  1.0027734783173088e-01  9.9144169994325196e-02  9.9730394388016563e-02  9.9965898576227827e-02  9.9882677687681151e-02  9.9937900893436155e-02  9.9865078523065032e-02  9.9928557001528251e-02  9.9880929997727547e-02  9.9937531262732734e-02  9.9921370439766774e-02  9.9941805593226948e-02  9.9914449002091121e-02  9.9942444388519541e-02  9.9934725163762603e-02  9.9932552599557883e-02  9.9943531239108790e-02  9.9943351752743631e-02  9.9941048687644612e-02  9.9949827660687066e-02  9.9950280136964456e-02  9.9949586102423896e-02  9.9955520481839602e-02  9.9954945009536528e-02  9.9957334730721548e-02  9.9956843421077163e-02  9.9963984773640505e-02  9.9953596082180615e-02  9.9974997865533322e-02  9.9941777640511181e-02  1.0000000000000003e-01  1.0001959589367890e-01  1.0000000000000003e-01  1.0001122753758859e-01  1.0001700084319570e-01  1.0001900436309580e-01  1.0002045241540490e-01  1.0001938845474798e-01  1.0002789499240040e-01  1.0002569540339132e-01  1.0002484446008691e-01  1.0003614993673229e-01  1.0003284080707343e-01  1.0003126939389918e-01  1.0004842266908881e-01  1.0003828359889158e-01  1.0003779641822889e-01  1.0005571487154516e-01  1.0004753829872536e-01  1.0002862111123641e-01  1.0009570199858332e-01  1.0006130568013738e-01  1.0006688418908910e-01  1.0010237064233177e-01  1.0006316471160760e-01  1.0008352565705125e-01  1.0009182372517703e-01  1.0011125518297767e-01  1.0001200543933032e-01  1.0024786128991026e-01  9.9822966089822260e-02  1.0059454066011222e-01  1.0028085931991423e-01  9.9157809999326940e-02  9.9691527410292149e-02  1.0001671451875244e-01  9.9868119586383003e-02  9.9903230558924541e-02  9.9914319889183409e-02  9.9914793570947000e-02  9.9885524179317550e-02  9.9895291694256511e-02  9.9956272156876566e-02  9.9900388891043565e-02  9.9947807296718025e-02  9.9928940202414801e-02  9.9928569816277110e-02  9.9940400648587099e-02  9.9941159105841226e-02  9.9935841053328325e-02  9.9947200956645568e-02  9.9946424822341853e-02  9.9945891226931108e-02  9.9952586475518926e-02  9.9953873977148389e-02  9.9952485747141662e-02  9.9958906910791248e-02  9.9956041074672625e-02  9.9962637633704970e-02  9.9954410752163672e-02  9.9974132214539144e-02  9.9941846406512339e-02  1.0000000000000003e-01  1.0002024271104927e-01  1.0000000000000003e-01  1.0001104870956005e-01  1.0002026988360668e-01  1.0001785826368791e-01  1.0001958114735016e-01  1.0002549123955881e-01  1.0002484959549847e-01  1.0002378251696503e-01  1.0003408201250065e-01  1.0003091652789517e-01  1.0002963450531080e-01  1.0004595125526819e-01  1.0003868876872288e-01  1.0003622060216111e-01  1.0005624242942639e-01  1.0004473568048027e-01  1.0003647825280862e-01  1.0007444915856374e-01  1.0003043344747649e-01  1.0007512569404878e-01  1.0009545883152966e-01  1.0007364452932209e-01  1.0006543742134842e-01  1.0012292179146731e-01  1.0005292080387523e-01  1.0011412051297695e-01  1.0004982737882828e-01  1.0021434679198499e-01  9.9821306377565838e-02  1.0063796644846755e-01  1.0026555576901759e-01  9.9133634441656793e-02  9.9725067184839061e-02  1.0001211551087277e-01  9.9835398137154738e-02  9.9948236180017122e-02  9.9905569151442164e-02  9.9896989810656617e-02  9.9914918752697562e-02  9.9920279194399497e-02  9.9870824703647318e-02  9.9964313147885023e-02  9.9921120014877629e-02  9.9932624389986374e-02  9.9936596349737214e-02  9.9942386963562307e-02  9.9932214729233526e-02  9.9947297003651320e-02  9.9945445015174092e-02  9.9943057371321378e-02  9.9951510735355187e-02  9.9952221027431495e-02  9.9952082062751121e-02  9.9956718449899465e-02  9.9959316496219378e-02  9.9956199050676056e-02  9.9965200000697849e-02  9.9955698787294989e-02  9.9974811933776470e-02  9.9944282466120596e-02  1.0000000000000003e-01  1.0002074870157726e-01  1.0000000000000003e-01  1.0001257300949043e-01  1.0001959259760836e-01  1.0001699000119463e-01  1.0002410250253413e-01  1.0002295572645370e-01  1.0002303639092333e-01  1.0003143625388181e-01  1.0002924771222955e-01  1.0002750558952975e-01  1.0004206797619254e-01  1.0003697768987124e-01  1.0003526503259340e-01  1.0005396366931148e-01  1.0004336595001821e-01  1.0003906054899886e-01  1.0006693886110929e-01  1.0004228517752997e-01  1.0004979050319725e-01  1.0006251175787821e-01  1.0007746826774400e-01  1.0006951989041858e-01  1.0011106444681139e-01  1.0007875241760147e-01  1.0005823243457676e-01  1.0015757436628328e-01  1.0000812759229645e-01  1.0021351189067515e-01  9.9862692052535756e-02  1.0060624664269932e-01  1.0030741444434009e-01  9.9091330210561129e-02  9.9718279357636067e-02  9.9986597037799010e-02  9.9870861454757015e-02  9.9942851745358732e-02  9.9878279775467690e-02  9.9929568506223393e-02  9.9918991774529953e-02  9.9894042020592280e-02  9.9925086750692602e-02  9.9897646187197819e-02  9.9944016066892155e-02  9.9928757542113028e-02  9.9948295535237194e-02  9.9925486965048091e-02  9.9948054172365922e-02  9.9943331850686476e-02  9.9940752389499857e-02  9.9950053370621544e-02  9.9950560093007304e-02  9.9947890471753301e-02  9.9956411324311170e-02  9.9955978011309635e-02  9.9957623748056834e-02  9.9958778634284026e-02  9.9965138388140834e-02  9.9955713994800660e-02  9.9975548299877898e-02  9.9945395509599633e-02  1.0000000000000003e-01  1.0002190136555165e-01  1.0000000000000003e-01  1.0001219360118439e-01  1.0001912901340568e-01  1.0002026806126692e-01  1.0002253315700459e-01  1.0002126789736063e-01  1.0002936147397318e-01  1.0002786529863100e-01  1.0002625085724849e-01  1.0003767848820851e-01  1.0003505857782570e-01  1.0003312347720911e-01  1.0005002798578488e-01  1.0004320352281447e-01  1.0003829661766368e-01  1.0006276239994094e-01  1.0004629263666782e-01  1.0004386973852987e-01  1.0007027174333535e-01  1.0005640252068274e-01  1.0002623153497235e-01  1.0012628814269578e-01  1.0006223662339492e-01  1.0008620333971854e-01  1.0010798826261602e-01  1.0010470899588506e-01  1.0001122400809909e-01  1.0026193147355125e-01  9.9820455918123732e-02  1.0060142193133514e-01  1.0032162963741563e-01  9.9108366417986773e-02  9.9687616609935359e-02  1.0002006145077506e-01  9.9869456094445974e-02  9.9916531000843953e-02  9.9910058909070523e-02  9.9929701386683667e-02  9.9893537170042679e-02  9.9930573083105032e-02  9.9920229013910455e-02  9.9907210347763079e-02  9.9905800190174726e-02  9.9963770432927215e-02  9.9916093015891466e-02  9.9954417700130430e-02  9.9940448962336420e-02  9.9939984797960776e-02  9.9949270431814091e-02  9.9950804051310654e-02  9.9946199300646757e-02  9.9954900139758718e-02  9.9955480590204315e-02  9.9954003173860120e-02  9.9961543433617503e-02  9.9959378593401163e-02  9.9964757136232221e-02  9.9958489710270895e-02  9.9976084843512877e-02  9.9947207120495873e-02  1.0000000000000003e-01  1.0002212627801395e-01  1.0000000000000003e-01  1.0001173930822699e-01  1.0002161310148534e-01  1.0001896950726770e-01  1.0002121911974118e-01  1.0002623431341377e-01  1.0002646737400694e-01  1.0002517236504016e-01  1.0003469321664495e-01  1.0003223348687687e-01  1.0003084714773620e-01  1.0004562034307220e-01  1.0004121498540304e-01  1.0003680279156084e-01  1.0005828597927846e-01  1.0004752012067536e-01  1.0004098554703766e-01  1.0007027728017798e-01  1.0005168299398623e-01  1.0003909759324302e-01  1.0009211683795911e-01  1.0003144550665108e-01  1.0007941798145571e-01  1