<?xml version="1.0"?>
<VTKFile type="UnstructuredGrid"  version="0.1"  >
<UnstructuredGrid>
<Piece  NumberOfPoints="1933" NumberOfCells="3640">
<Points>
<DataArray  type="Float64"  NumberOfComponents="3"  format="ascii">0.4754493069524648 0.000603362165295093 0  5.475449305011102 0.0005820985884757307 0  5.475481216709791 7.500582104457702 0  0.4754812122223859 7.500603356215986 0  10.47544929797811 0.0005608229376871821 0  10.47548122893911 7.500560834380687 0  15.47544929228863 0.0005395173062082235 0  15.47548125452311 7.500539531403462 0  20.47544929789526 0.0005181714873011779 0  20.47548129966311 7.500518186864165 0  25.47544932587105 0.0004967805231884271 0  25.47548137123613 7.500496796595922 0  30.47544938745476 0.0004753430354432716 0  30.47548147667821 7.500475359643271 0  35.47544949379446 0.0004538600957656937 0  35.47548162389867 7.500453877312123 0  40.47544965603095 0.0004323344914386602 0  40.47548182127506 7.500432352527674 0  45.47544988554618 0.0004107702798869909 0  45.47548207772515 7.500410789439211 0  50.47545019429505 0.0003891725572627105 0  50.47548240284063 7.500389193217267 0  55.47545059518608 0.0003675473909531041 0  55.47548280706861 7.500367570003641 0  60.47545110250195 0.0003459018858343858 0  60.47548330193162 7.500345926990054 0  65.47545173236551 0.0003242443701049488 0  65.47548390028078 7.500324272614855 0  70.47545250326532 0.0003025847001999937 0  70.47548461658039 7.500302616879901 0  75.47545343666371 0.0002809346973842071 0  75.47548546722419 7.500280971802576 0  80.47545455771771 0.0002593087431290295 0  80.47548647088188 7.500259352032861 0  85.47545589615514 0.0002377245788994227 0  85.4754876488752 7.500237775684788 0  90.47545748736273 0.0002162043823013616 0  90.47548902557226 7.500216265459485 0  95.47545937376537 0.0001947762319388173 0  95.47549062877967 7.500194850179072 0  100.4754616066068 0.0001734761387817977 0  100.4754924900841 7.500173566917248 0  105.4754642482861 0.0001523509325044013 0  105.4754946450511 7.50015246401991 0  110.4754673754605 0.0001314624853931278 0  110.4754971331063 7.500131605485855 0  115.4754710831933 0.0001108941092050955 0  115.4754999967876 7.500111077470851 0  120.4754754904725 9.076062480749912e-05 0  120.4755032798267 7.500090998163456 0  125.4754807473748 7.122490720393602e-05 0  125.4755070231819 7.500071533070968 0  130.4754870437681 5.252639424622386e-05 0  130.4755112577232 7.500052918978509 0  135.4754946181399 3.503298044875497e-05 0  135.4755159920344 7.500035501491213 0  140.4755037615423 1.934219704995791e-05 0  140.475521194754 7.500019792189423 0  145.475514802892 6.498091576086908e-06 0  145.4755267761185 7.500006546429615 0  150.4755280444337 -1.476378978845543e-06 0  150.4755325910637 7.499996823879158 0  160.4755282581476 5.797064283085295e-19 0  165.4755027575818 -2.703942536562912e-05 0  165.4755225571895 7.499969680797684 0  160.4755311562361 7.499990819044769 0  170.4754857678317 -5.363873356075727e-05 0  170.4755136588411 7.499944787132939 0  175.4754738539283 -8.013319579317948e-05 0  175.4755057946979 7.499918967702517 0  180.4754652108479 -0.0001063814124863854 0  180.475499192035 7.499893058272409 0  185.4754587850714 -0.0001322900306379065 0  185.4754937651379 7.499867342694266 0  190.4754539227235 -0.0001578323883922069 0  190.4754893481741 7.499841917646292 0  195.4754501990234 -0.000183017060735217 0  195.4754857707303 7.499816807245152 0  200.475447326801 -0.000207866902519766 0  200.4754828815378 7.499792006062601 0  205.4754451047436 -0.000232408916166458 0  205.4754805536114 7.499767496981407 0  210.4754433870697 -0.0002566699993268769 0  210.4754786828201 7.499743258897649 0  215.4754420652069 -0.0002806754042164407 0  215.4754771845217 7.499719270036022 0  220.4754410563746 -0.0003044483371505563 0  220.4754759900205 7.499695509324014 0  225.4754402962383 -0.0003280099928029265 0  225.4754750434463 7.499671956907675 0  230.4754397340237 -0.0003513797277752804 0  230.4754742991875 7.499648594294153 0  235.4754393291632 -0.0003745752597658007 0  235.4754737198434 7.499625404336817 0  240.4754390489204 -0.0003976128550084862 0  240.4754732746097 7.499602371156969 0  245.4754388666601 -0.0004205074967947141 0  245.4754729380072 7.499579480041217 0  250.4754387605566 -0.0004432730386405895 0  250.4754726888797 7.499556717329082 0  255.4754387126094 -0.0004659223488273021 0  255.4754725096012 7.499534070294605 0  260.4754387078787 -0.0004884674535860659 0  260.4754723854433 7.499511527021011 0  265.4754387338874 -0.0005109196861019839 0  265.4754723040735 7.49948907626526 0  270.4754387801506 -0.0005332898483882073 0  270.4754722551555 7.499466707308399 0  275.4754388378154 -0.0005555883928598599 0  275.4754722300364 7.499444409787391 0  280.4754388993995 -0.000577825629316656 0  280.4754722215079 7.499422173505125 0  285.475438958638 -0.000600011959096641 0  285.4754722236311 7.499399988218681 0  290.4754390104607 -0.0006221581267329998 0  290.4754722316168 7.499377843413858 0  295.4754390511413 -0.0006442754493819636 0  295.4754722417538 7.499355728090676 0  300.4754390786961 -0.0006663759072973636 0  300.4754722513635 7.499333630614984 0  305.4754390936178 -0.0006884717774778915 0  305.4754722587745 7.499311538736427 0  310.4754391000395 -0.000710573933211513 0  310.4754722633356 7.499289439896607 0  5.475513072801761 15.00058212652206 0  0.475513065995701 15.00060334569459 0  10.47551309033925 15.00056087233103 0  15.47551312464269 15.00053957644541 0  20.47551318063617 15.0005182348091 0  25.47551326296125 15.00049684581863 0  30.4755133763883 15.00047540992257 0  35.47551352600234 15.00045392919751 0  40.47551371728859 15.00043240700643 0  45.47551395618265 15.00041084777362 0  50.47551424911472 15.00038925687925 0  55.47551460305796 15.00036764066734 0  60.47551502558119 15.00034600656218 0  65.47551552490059 15.00032436329356 0  70.47551610992144 15.00030272124001 0  75.47551679025585 15.00028109290964 0  80.47551757619753 15.0002594935916 0  85.47551847862431 15.0002379422295 0  90.47551950878817 15.00021646259347 0  95.4755206779307 15.00019508486324 0  100.4755219966382 15.00017384778668 0  105.4755234738158 15.00015280165106 0  110.4755251151218 15.00013201240427 0  115.475526920679 15.00011156738488 0  120.4755288818985 15.00009158323426 0  125.4755309774072 15.00007221655291 0  130.4755331685399 15.00005367738212 0  135.4755353959425 15.00003624367067 0  140.4755375809522 15.00002026889154 0  145.4755396384158 15.00000615789412 0  150.4755415078733 14.99999423995429 0  165.4755375043163 14.9999621417202 0  160.4755398738623 14.99998190349472 0  170.4755343281027 14.99993962543973 0  175.4755307141902 14.99991553295817 0  180.4755270904005 14.99989074730907 0  185.4755237068528 14.99986575283046 0  190.4755206768553 14.9998407956855 0  195.4755180329646 14.99981599507005 0  200.4755157650557 14.99979140399179 0  205.4755138427939 14.99976704111822 0  210.4755122280899 14.99974290742071 0  215.475510881658 14.99971899492167 0  220.4755097662394 14.99969529132087 0  225.4755088480019 14.99967178245384 0  230.4755080969728 14.99964845359958 0  235.4755074869874 14.99962529017043 0  240.4755069954095 14.99960227806533 0  245.4755066027682 14.99957940383589 0  250.4755062923775 14.99955665474485 0  255.4755060499779 14.99953401875959 0  260.475505863412 14.99951148450349 0  265.4755057223398 14.99948904117667 0  270.4755056179931 14.99946667845202 0  275.4755055429663 14.99944438634926 0  280.4755054910335 14.99942215508829 0  285.4755054569898 14.99939997492372 0  290.4755054365005 14.99937783596313 0  295.47550542595 14.99935572796974 0  300.4755054222802 14.99933364013582 0  305.4755054228115 14.99931156075216 0  310.4755054250577 14.99928947649368 0  5.475544838979657 22.50058218732755 0  0.4755448314393164 22.50060336332812 0  10.47554485586845 22.50056095607357 0  15.47554488776549 22.50053967158072 0  20.47554493863931 22.50051833543858 0  25.47554501160432 22.500496949593 0  30.47554510943591 22.50047551667153 0  35.47554523486041 22.5004540400797 0  40.47554539069965 22.50043252400915 0  45.47554557992686 22.50041097343909 0  50.47554580566939 22.50038939417552 0  55.47554607117583 22.50036779295184 0  60.47554637975431 22.50034617760635 0  65.47554673467958 22.50032455735012 0  70.47554713905959 22.50030294314186 0  75.47554759564746 22.500281348193 0  80.47554810657749 22.50025978863536 0  85.47554867299854 22.50023828439687 0  90.4755492945711 22.50021686034644 0  95.47554996878804 22.50019554778935 0  100.4755506900789 22.50017438641646 0  105.4755514486635 22.50015342682948 0  110.4755522291545 22.50013273376598 0  115.4755530089788 22.50011239009946 0  120.4755537568408 22.50009250151532 0  125.475554431719 22.50007320130734 0  130.4755549833159 22.50005465368716 0  135.4755553554236 22.50003705176999 0  140.4755554939873 22.50002060208384 0  145.4755553605995 22.50000548031964 0  150.4755549468769 22.49999173603333 0  165.475554054227 22.49995415932444 0  160.4755532070036 22.49997333903868 0  170.4755540955543 22.49993297603426 0  175.4755534553712 22.49991034099234 0  180.4755523459646 22.49988679714585 0  185.4755509799945 22.49986276507757 0  190.4755495209579 22.49983852656878 0  195.4755480782017 22.4998142563646 0  200.4755467175634 22.49979005721426 0  205.4755454740932 22.49976598621353 0  210.4755443625741 22.49974207232686 0  215.4755433851651 22.49971832746911 0  220.4755425365996 22.49969475336157 0  225.4755418075809 22.49967134573602 0  230.4755411869297 22.49964809690604 0  235.4755406629029 22.49962499733922 0  240.4755402239743 22.49960203661674 0  245.4755398592736 22.49957920401451 0  250.4755395588105 22.4995564888474 0  255.475539313569 22.49953388066243 0  260.4755391155218 22.49951136933363 0  265.4755389575996 22.49948894509042 0  270.4755388336321 22.49946659850008 0  275.4755387382735 22.49944432041688 0  280.4755386669161 22.49942210190644 0  285.4755386155889 22.49939993415063 0  290.4755385808402 22.49937780833442 0  295.4755385595943 22
[...]
<PointData  Scalars="p"> 
<DataArray  type="Float64"  Name="p"  format="ascii">1.0000000000000001e-01  1.0000000000000003e-01  9.9999704635867076e-02  1.0000000000000003e-01  1.0000000000000003e-01  9.9998518380013779e-02  1.0000000000000003e-01  9.9997764827917016e-02  1.0000000000000003e-01  9.9996878693495217e-02  1.0000000000000003e-01  9.9996241272233569e-02  1.0000000000000003e-01  9.9996010625377746e-02  1.0000000000000003e-01  9.9995314501051008e-02  1.0000000000000003e-01  9.9995148353444585e-02  1.0000000000000003e-01  9.9994962026522888e-02  1.0000000000000003e-01  9.9993395008835070e-02  1.0000000000000003e-01  9.9995860865960476e-02  1.0000000000000003e-01  9.9994596942180186e-02  1.0000000000000003e-01  9.9995037354454919e-02  1.0000000000000003e-01  9.9994691087107998e-02  1.0000000000000003e-01  9.9996244000235185e-02  1.0000000000000003e-01  9.9996334610467932e-02  1.0000000000000003e-01  9.9998241914484740e-02  1.0000000000000003e-01  1.0000086465136755e-01  1.0000000000000003e-01  1.0000230911923411e-01  1.0000000000000003e-01  1.0000646861252901e-01  1.0000000000000003e-01  1.0000949669437605e-01  1.0000000000000003e-01  1.0001472676364973e-01  1.0000000000000003e-01  1.0001669273235117e-01  1.0000000000000003e-01  1.0002740704718226e-01  1.0000000000000003e-01  1.0002296906314677e-01  1.0000000000000003e-01  1.0004358086496408e-01  1.0000000000000003e-01  1.0002678345124523e-01  1.0000000000000003e-01  1.0006338426417651e-01  1.0000000000000003e-01  1.0002560944877519e-01  1.0000000000000001e-01  1.0009207296915312e-01  1.0000000000000001e-01  1.0000000000000003e-01  9.9979316264528301e-02  9.9896434984320576e-02  1.0000000000000003e-01  1.0001868020291414e-01  1.0000000000000003e-01  9.9987948992343770e-02  1.0000000000000003e-01  1.0000968043063736e-01  1.0000000000000003e-01  1.0000587232301882e-01  1.0000000000000003e-01  1.0001213553054347e-01  1.0000000000000003e-01  1.0001251154526919e-01  1.0000000000000003e-01  1.0001793654589582e-01  1.0000000000000003e-01  1.0001855110381581e-01  1.0000000000000003e-01  1.0002122904757835e-01  1.0000000000000003e-01  1.0002323839408425e-01  1.0000000000000003e-01  1.0002460277144179e-01  1.0000000000000003e-01  1.0002571482697281e-01  1.0000000000000003e-01  1.0002711851310969e-01  1.0000000000000003e-01  1.0002772907691328e-01  1.0000000000000003e-01  1.0002834803750663e-01  1.0000000000000003e-01  1.0002905270621823e-01  1.0000000000000003e-01  1.0002928536623892e-01  1.0000000000000003e-01  1.0002963099201380e-01  1.0000000000000003e-01  1.0002974168024187e-01  1.0000000000000003e-01  1.0003010355054572e-01  1.0000000000000003e-01  1.0002963548335915e-01  1.0000000000000003e-01  1.0003055982081130e-01  1.0000000000000003e-01  1.0002898855254663e-01  1.0000000000000003e-01  1.0003159428335127e-01  1.0000000000000003e-01  1.0002700049055839e-01  1.0000000000000003e-01  1.0003456009267754e-01  1.0000000000000003e-01  1.0002181336813053e-01  1.0000000000000003e-01  1.0004420319678455e-01  1.0000000000000001e-01  1.0000000000000003e-01  1.0000074795178400e-01  1.0000000000000003e-01  1.0000003921959114e-01  9.9999931277794496e-02  9.9999933026254900e-02  1.0000042670589626e-01  1.0000022979953332e-01  1.0000054919631442e-01  1.0000149834146550e-01  1.0000066896981782e-01  1.0000133697719191e-01  1.0000046094527855e-01  1.0000444199426210e-01  1.0000114783686537e-01  1.0000398277063294e-01  1.0000198928744571e-01  1.0000435271184546e-01  1.0000645903687509e-01  1.0000673530475905e-01  1.0000919667015665e-01  1.0001335053462791e-01  1.0001277959490625e-01  1.0001829469862773e-01  1.0001932127934153e-01  1.0002483161237598e-01  1.0002084533641604e-01  1.0003784571185206e-01  1.0001258241454461e-01  1.0006058733049114e-01  9.9986883682868843e-02  1.0009215438258842e-01  1.0006453272399382e-01  9.9881486679918280e-02  9.9934594616457706e-02  9.9999436297734584e-02  9.9986007870635746e-02  9.9989065842316788e-02  9.9986269507999451e-02  9.9995938194533340e-02  9.9992663798222192e-02  9.9996267098222680e-02  9.9999145385438845e-02  9.9999840108163290e-02  1.0000087962554072e-01  1.0000325799121186e-01  1.0000349427844461e-01  1.0000425166879787e-01  1.0000551290080198e-01  1.0000585211277278e-01  1.0000625255011183e-01  1.0000718808018577e-01  1.0000733979375405e-01  1.0000795710921394e-01  1.0000812567314482e-01  1.0000913151402062e-01  1.0000832371591523e-01  1.0001074540132202e-01  1.0000753821987790e-01  1.0001429346960816e-01  1.0000360384773994e-01  1.0002115987135800e-01  1.0000000000000003e-01  1.0000169912867465e-01  1.0000000000000003e-01  1.0000048816146585e-01  1.0000047893629761e-01  1.0000082530843318e-01  1.0000042581523692e-01  1.0000079214984618e-01  1.0000203878495724e-01  1.0000156928852558e-01  1.0000218641146422e-01  1.0000303698140964e-01  1.0000376066056250e-01  1.0000005486050642e-01  1.0000951139355298e-01  1.0000285640715499e-01  1.0000573287272646e-01  1.0000778993542472e-01  1.0000705552322868e-01  1.0001045001676842e-01  1.0001538681313762e-01  1.0001529543373625e-01  1.0001993872427076e-01  1.0002741092374599e-01  1.0002516940376180e-01  1.0003615870212682e-01  1.0003410075287200e-01  1.0004720766117962e-01  1.0003152562275407e-01  1.0007327234182037e-01  9.9996528400563070e-02  1.0014144796020631e-01  1.0000321364951166e-01  9.9950949665699340e-02  9.9946644007628857e-02  9.9996491621462638e-02  9.9984376686322277e-02  9.9978183087234648e-02  1.0000003665276294e-01  9.9987836210560677e-02  9.9995835786622883e-02  1.0000113804731921e-01  1.0000172176096193e-01  1.0000349510612634e-01  1.0000830075095171e-01  1.0000836322970032e-01  1.0000987802943488e-01  1.0001245356384945e-01  1.0001279080739503e-01  1.0001354318866451e-01  1.0001516755102000e-01  1.0001556611544060e-01  1.0001603509782186e-01  1.0001732434939772e-01  1.0001737366391911e-01  1.0001853768023380e-01  1.0001819227350854e-01  1.0002049615354791e-01  1.0001800290008804e-01  1.0002373128453737e-01  1.0001475288696696e-01  1.0003347135217371e-01  1.0000000000000003e-01  1.0000240123029124e-01  1.0000000000000003e-01  1.0000123054590065e-01  1.0000239524899601e-01  1.0000182866606079e-01  1.0000236955514105e-01  1.0000391297867658e-01  1.0000364893372782e-01  1.0000475582492743e-01  1.0000670788342528e-01  1.0000610549534278e-01  1.0000661787781757e-01  1.0001122651958129e-01  1.0000328024763633e-01  1.0001452939178729e-01  1.0001133089550036e-01  1.0001103271025390e-01  1.0001228863812348e-01  1.0001824760138456e-01  1.0001606216836310e-01  1.0002205962574506e-01  1.0002739253144464e-01  1.0002823220521298e-01  1.0003187640773975e-01  1.0004340368211931e-01  1.0003357444417145e-01  1.0005612313259943e-01  1.0003113154949883e-01  1.0007870240580635e-01  9.9994402138126409e-02  1.0014641807658187e-01  9.9981864321467856e-02  9.9921811047202339e-02  9.9978576735619731e-02  9.9986162523647740e-02  9.9940018270664108e-02  1.0000435389973060e-01  9.9967030195419873e-02  9.9982955321839873e-02  9.9986630212345023e-02  9.9987871889367447e-02  9.9988655191182760e-02  9.9996436532508823e-02  9.9995489187382713e-02  9.9997609577795951e-02  1.0000128317328068e-01  1.0000171388908327e-01  1.0000260232157544e-01  1.0000505264453850e-01  1.0000528603735705e-01  1.0000613305496378e-01  1.0000757793147597e-01  1.0000831861921378e-01  1.0000865265811636e-01  1.0001049542128705e-01  1.0000996411744753e-01  1.0001281158874148e-01  1.0001005930799507e-01  1.0001700792725481e-01  1.0000742530801275e-01  1.0002495560399668e-01  1.0000000000000003e-01  1.0000311077551237e-01  1.0000000000000003e-01  1.0000233705365538e-01  1.0000294568374400e-01  1.0000303937914952e-01  1.0000443286931543e-01  1.0000414865142207e-01  1.0000520185085761e-01  1.0000766530691989e-01  1.0000711007730612e-01  1.0000813325802166e-01  1.0001225826925736e-01  1.0000922809497548e-01  1.0001340039593477e-01  1.0000917166883114e-01  1.0001891095607421e-01  1.0001388241117325e-01  1.0002048708569729e-01  1.0001619960510466e-01  1.0002179557105345e-01  1.0002871686005541e-01  1.0002643942075841e-01  1.0003469590709542e-01  1.0004052109887911e-01  1.0004321018235555e-01  1.0004345932437982e-01  1.0006363718615129e-01  1.0003576817827357e-01  1.0008990092969967e-01  9.9997512310291359e-02  1.0016469411510218e-01  1.0000411306168476e-01  9.9923236932745435e-02  9.9954712015213706e-02  9.9963903418050518e-02  9.9987625788009155e-02  9.9958168552142165e-02  9.9978811897205200e-02  9.9981930219943504e-02  9.9983543679153908e-02  9.9980578512788951e-02  9.9994168321304033e-02  9.9990967796272284e-02  9.9994340947263186e-02  9.9999839402067595e-02  1.0000006089943031e-01  1.0000125285767193e-01  1.0000513830784157e-01  1.0000529621887368e-01  1.0000616889139378e-01  1.0000852669286649e-01  1.0000888401812463e-01  1.0000987469346791e-01  1.0001120438272060e-01  1.0001248046326455e-01  1.0001237138995114e-01  1.0001531222120463e-01  1.0001323709936850e-01  1.0001939482512261e-01  1.0001082702106712e-01  1.0002888884111899e-01  1.0000000000000003e-01  1.0000392243841831e-01  1.0000000000000003e-01  1.0000262935832838e-01  1.0000397081643281e-01  1.0000495661965172e-01  1.0000506292971109e-01  1.0000575493438181e-01  1.0000819335901212e-01  1.0000793762175428e-01  1.0000927192244477e-01  1.0001274946961645e-01  1.0001174919180168e-01  1.0001432614783819e-01  1.0001649912208430e-01  1.0001721111059240e-01  1.0001004412468383e-01  1.0003019079483945e-01  1.0001728645632579e-01  1.0002381813788010e-01  1.0002834020355990e-01  1.0002628782405983e-01  1.0003192535908774e-01  1.0004276203989143e-01  1.0003693995000446e-01  1.0005005540421368e-01  1.0005092362138050e-01  1.0006180228757278e-01  1.0004288480715777e-01  1.0009626052154884e-01  9.9995470998060554e-02  1.0017690871060535e-01  9.9974502652205630e-02  9.9949639872263227e-02  9.9939427502544018e-02  9.9987361594928076e-02  9.9960296168210741e-02  9.9966633082624698e-02  9.9964382479925867e-02  9.9983552601023956e-02  9.9964234886887535e-02  9.9989453345954674e-02  9.9979061976644412e-02  9.9984976972369646e-02  9.9991932201027103e-02  9.9992255402968896e-02  9.9993283828960416e-02  9.9998930688282278e-02  9.9998690271099644e-02  9.9999991188689560e-02  1.0000318870535527e-01  1.0000354909681625e-01  1.0000421099230676e-01  1.0000670178336937e-01  1.0000693172845325e-01  1.0000850672112559e-01  1.0000911435106372e-01  1.0001187827908618e-01  1.0000975396773391e-01  1.0001647381905110e-01  1.0000811514093981e-01  1.0002524245686614e-01  1.0000000000000003e-01  1.0000435265701552e-01  1.0000000000000003e-01  1.0000317020492311e-01  1.0000548467104553e-01  1.0000522000430317e-01  1.0000626039865895e-01  1.0000841848777774e-01  1.0000808263646574e-01  1.0000942384803208e-01  1.0001279479220737e-01  1.0001178568020153e-01  1.0001437564188680e-01  1.0001840924486786e-01  1.0001720394051740e-01  1.0001729205118139e-01  1.0002648224695812e-01  1.0001183835751878e-01  1.0003277860928536e-01  1.0002914380662520e-01  1.0002678067328330e-01  1.0003071293392340e-01  1.0004017902874771e-01  1.0003661650640225e-01  1.0004353463488884e-01  1.0005765405368977e-01  1.0004658723910802e-01  1.0006820371454946e-01  1.0005181688833729e-01  1.0009234020374354e-01  1.0000567146840962e-01  1.0018161994898313e-01  9.9961371861924969e-02  9.9937135737549421e-02  9.9962313222615631e-02  9.9963203012666549e-02  9.9950179821721871e-02  9.9978439836608132e-02  9.9972776125095447e-02  9.9950112600895744e-02  9.9991538607725319e-02  9.9970788408087638e-02  9.9979782879114229e-02  9.9985860972362547e-02  9.9987656546256298e-02  9.9987626243162181e-02  9.9995959900773146e-02  9.9995256814128103e-02  9.9996655789211061e-02  1.0000106265455988e-01  1.0000148449749800e-01  1.0000235518551759e-01  1.0000518671817857e-01  1.0000582238832309e-01  1.0000647290982383e-01  1.0000909325751797e-01  1.0000904232184021e-01  1.0001181397901661e-01  1.0001054256282293e-01  1.0001673141627136e-01  1.0000888292993161e-01  1.0002601887798045e-01  1.0000000000000003e-01  1.0000486567902789e-01  1.0000000000000003e-01  1.0000396670311774e-01  1.0000559021617457e-01  1.0000602761994473e-01  1.0000836153843470e-01  1.0000824113528020e-01  1.0000955839870558e-01  1.0001254440433884e-01  1.0001181934081564e-01  1.0001357697945437e-01  1.0001828009680404e-01  1.0001703994130100e-01  1.0001895364739719e-01  1.0002549612710532e-01  1.0001961518168027e-01  1.0002770051535159e-01  1.0002138947978305e-01  1.0003683627759748e-01  1.0002983605948063e-01  1.0004142620375010e-01  1.0003225974774056e-01  1.0004281593676113e-01  1.0005110559703007e-01  1.0004976245723650e-01  1.0005241818975606e-01  1.0007576058011249e-01  1.0004602369851456e-01  1.0009723904211282e-01  1.0001418156084463e-01  1.0017437196723820e-01  9.9976851633153077e-02  9.9926919981527321e-02  9.9945229724910670e-02  9.9949971228501799e-02  9.9964324212824252e-02  9.9964713653915002e-02  9.9955693139788290e-02  9.9983042723871235e-02  9.9956956314755888e-02  9.9979048117641120e-02  9.9976801193247491e-02  9.9983178513164364e-02  9.9977966708007945e-02  9.9991098865828298e-02  9.9988807633876936e-02  9.9990968241270142e-02  9.9996669848647773e-02  9.9996860531201284e-02  9.9997623593929150e-02  1.0000191617651719e-01  1.0000204344599588e-01  1.0000312248557577e-01  1.0000540980506643e-01  1.0000672229008951e-01  1.0000682044233609e-01  1.0001048609632823e-01  1.0000874601856366e-01  1.0001493834990505e-01  1.0000774077013595e-01  1.0002413807052872e-01  1.0000000000000003e-01  1.0000543187149721e-01  1.0000000000000003e-01  1.0000395089194454e-01  1.0000613190252214e-01  1.0000748521846890e-01  1.0000812840487378e-01  1.0000919014146654e-01  1.0001211942771872e-01  1.0001183306371195e-01  1.0001312117090258e-01  1.0001696200108706e-01  1.0001633295278681e-01  1.0001841211693951e-01  1.0002419220658154e-01  1.0002114074471558e-01  1.0002537965538051e-01  1.0002937512858655e-01  1.0003000944726836e-01  1.0002006602314101e-01  1.0005118263927540e-01  1.0003168963706066e-01  1.0004082704573670e-01  1.0004995191555598e-01  1.0004174702475638e-01  1.0005456543691772e-01  1.0006166263470118e-01  1.0006466413540803e-01  1.0005280720418000e-01  1.0010285379848982e-01  1.0001082340437194e-01  1.0017321344723140e-01  9.9966929356971657e-02  9.9938870008307909e-02  9.9934331892410036e-02  9.9964863056090494e-02  9.9951593208712580e-02  9.9949914125754144e-02  9.9971860878240920e-02  9.9967578910097277e-02  9.9968861757473340e-02  9.9966911633215264e-02  9.9985396558650214e-02  9.9968952855427007e-02  9.9988896115522016e-02  9.9982360987451113e-02  9.9986071767163731e-02  9.9992743453720098e-02  9.9993450410508569e-02  9.9993905439748967e-02  9.9999230767226513e-02  9.9999385357682616e-02  1.0000041577391997e-01  1.0000392861304711e-01  1.0000419395844641e-01  1.0000560936534011e-01  1.0000719215776230e-01  1.0000968502397567e-01  1.0000825805545313e-01  1.0001479938486310e-01  1.0000768503695863e-01  1.0002372566339500e-01  1.0000000000000003e-01  1.0000567975045585e-01  1.0000000000000003e-01  1.0000418821735560e-01  1.0000721383544070e-01  1.0000717671154591e-01  1.0000873928557714e-01  1.0001123798288968e-01  1.0001137682155337e-01  1.0001277284020903e-01  1.0001637141140951e-01  1.0001526519698559e-01  1.0001735238790796e-01  1.0002255947964689e-01  1.0002051746441316e-01  1.0002354568711733e-01  1.0002973887658688e-01  1.0002763295287800e-01  1.0002786681325113e-01  1.0004263323472608e-01  1.0001994004825716e-01  1.0005148343133000e-01  1.0004694241890374e-01  1.0004256168068597e-01  1.0004618900991442e-01  1.0006432201170985e-01  1.0004785970396791e-01  1.0006978365887347e-01  1.0006232152273657e-01  1.0008925741267938e-01  1.0001939338349790e-01  1.0017295538544080e-01  9.9957331383120573e-02  9.9927742160566144e-02  9.9946703839475057e-02  9.9955190271122707e-02  9.9939124613032213e-02  9.9963714952923249e-02  9.9958998268118979e-02  9.9958802324351795e-02  9.9974849670090418e-02  9.9978773900491744e-02  9.9957361241718307e-02  9.9991366552228081e-02  9.9974931427001396e-02  9.9982130903034233e-02  9.9986618237199176e-02  9.9989363679502244e-02  9.9988510274637205e-02  9.9996014276527351e-02  9.9995779939428903e-02  9.9996657009313178e-02  1.0000081305900715e-01  1.0000178815655067e-01  1.0000227268337908e-01  1.0000571292530147e-01  1.0000563326455363e-01  1.0000828232186590e-01  1.0000781448712741e-01  1.0001355152029039e-01  1.0000688560997531e-01  1.0002251123153895e-01  1.0000000000000003e-01  1.0000591713790685e-01  1.0000000000000003e-01  1.0000463496870664e-01  1.0000689001811559e-01  1.0000740176908743e-01  1.0001010212512727e-01  1.0001033852038962e-01  1.0001185361158671e-01  1.0001514727224926e-01  1.0001466414057995e-01  1.0001612436351652e-01  1.0002076646310519e-01  1.0001917829280706e-01  1.0002148546151901e-01  1.0002763743970977e-01  1.0002522250058060e-01  1.0002802970437720e-01  1.0003789598948852e-01  1.0002889083656466e-01  1.0004033107087422e-01  1.0003322555554477e-01  1.0005209431058627e-01  1.0004504675087120e-01  1.0005939998325286e-01  1.0004773881990235e-01  1.0005427150786100e-01  1.0007880956392817e-01  1.0004725377113534e-01  1.0009177929574682e-01  1.0003170201763155e-01  1.0015295512780821e-01  9.9972773814273816e-02  9.9904234153691415e-02  9.9940800789376241e-02  9.9944156756953118e-02  9.9952173686603876e-02  9.9955735953871763e-02  9.9948648887667454e-02  9.9968067852568634e-02  9.9969710725849037e-02  9.9965846482655552e-02  9.9985521644888289e-02  9.9966798312389943e-02  9.9983921413206653e-02  9.9980746956623262e-02  9.9987346190474224e-02  9.9982291212963328e-02  9.9993162793190302e-02  9.9991989256123695e-02  9.9993304223001206e-02  9.9998512818905955e-02  9.9998814511262801e-02  9.9999663404517117e-02  1.0000343857974164e-01  1.0000447831861843e-01  1.0000465983440276e-01  1.0000855261584694e-01  1.0000718355233201e-01  1.0001270784968007e-01  1.0000689981969280e-01  1.0002170256891958e-01  1.0000000000000003e-01  1.0000628078808389e-01  1.0000000000000003e-01  1.0000442907668645e-01  1.0000703987143054e-01  1.0000831584505099e-01  1.0000938661005300e-01  1.0001054063355211e-01  1.0001365682308712e-01  1.0001368765385678e-01  1.0001509383455044e-01  1.0001893782677811e-01  1.0001828126048970e-01  1.0001978290506133e-01  1.0002511948384427e-01  1.0002311351214675e-01  1.0002560192561004e-01  1.0003409768098930e-01  1.0002914756278321e-01  1.0003513709867617e-01  1.0004099588689391e-01  1.0004103800852639e-01  1.0002728097947718e-01  1.0007196898160066e-01  1.0004117467249053e-01  1.0005778744824097e-01  1.0006381096244366e-01  1.0005997909900528e-01  1.0005189752528811e-01  1.0010195738414598e-01  1.0001624421851699e-01  1.0015109018382054e-01  9.9980851025724890e-02  9.9895888164993604e-02  9.9925505927316124e-02  9.9956349365450017e-02  9.9948015481687913e-02  9.9945101336336342e-02  9.9959962172331662e-02  9.9962825729562985e-02  9.9957734966838088e-02  9.9977479396259519e-02  9.9976010227718001e-02  9.9978013963966245e-02  9.9973350942154621e-02  9.9990615964112767e-02  9.9975598671882035e-02  9.9991605039566403e-02  9.9986963839996834e-02  9.9989636380454952e-02  9.9995106923075283e-02  9.9996296976881727e-02  9.9996424707598980e-02  1.0000112335011252e-01  1.0000143663046306e-01  1.0000306726839231e-01  1.0000532037036722e-01  1.0000755275463434e-01  1.0000626444924370e-01  1.0001249621984454e-01  1.0000634440131669e-01  1.0002057784429144e-01  1.0000000000000003e-01  1.0000618605560185e-01  1.0000000000000003e-01  1.0000427393294825e-01  1.0000751182700904e-01  1.0000748955322467e-01  1.0000921096048201e-01  1.0001160930812211e-01  1.0001210134440452e-01  1.0001351203586824e-01  1.0001701184882159e-01  1.0001639945836438e-01  1.0001815001513160e-01  1.0002284062083534e-01  1.0002097824423851e-01  1.0002275446089523e-01  1.0002976473663297e-01  1.0002676388287120e-01  1.0003033368906422e-01  1.0003932338755590e-01  1.0003524100956167e-01  1.0003564615430899e-01  1.0005572834835087e-01  1.0002487811138806e-01  1.0006487698467638e-01  1