<?xml version="1.0"?>
<VTKFile type="UnstructuredGrid"  version="0.1"  >
<UnstructuredGrid>
<Piece  NumberOfPoints="1933" NumberOfCells="3640">
<Points>
<DataArray  type="Float64"  NumberOfComponents="3"  format="ascii">-0.2939960959426838 0.0004592815750197015 0  4.706003928854793 0.0004291919003535584 0  4.706049100405711 7.500429275871626 0  -0.2939509515355181 7.500459318055548 0  9.706003958015531 0.0003990223795398956 0  9.706049196778578 7.500399123753565 0  14.70600403406946 0.0003687274680281732 0  14.70604936210295 7.500368834421839 0  19.7060042053117 0.0003382986428773411 0  19.70604962080414 7.500338406701698 0  24.70600451798253 0.000307749814155877 0  24.70604999752375 7.500307857703873 0  29.706005014239 0.0002771091228259848 0  29.70605051656671 7.500277217006699 0  34.70600573241145 0.0002464143118626939 0  34.70605120150119 7.500246523003049 0  39.70600670809115 0.0002157103039387786 0  39.70605207503918 7.500215820914928 0  44.70600797544417 0.0001850482272676829 0  44.70605315911631 7.500185162024527 0  49.70600956851514 0.0001544854574108746 0  49.70605447506163 7.500154603814593 0  54.70601152244186 0.0001240864428896027 0  54.70605604376195 7.500124210841762 0  59.70601387456578 9.392421680356599e-05 0  59.70605788574202 7.500094056270232 0  64.70601666544529 6.408259729659611e-05 0  64.70606002108069 7.500064224079127 0  69.7060199397708 3.465916753461285e-05 0  69.70606246907575 7.500034812035925 0  74.70602374716877 5.769217316869014e-06 0  74.70606524753846 7.500005935611104 0  79.70602814283488 -2.244905995852536e-05 0  79.70606837154723 7.499977733109034 0  84.70603318787812 -4.982766961872344e-05 0  84.70607185141685 7.499950372419543 0  89.70603894912492 -7.615955214384097e-05 0  89.70607568951816 7.49992405997003 0  94.70604549792165 -0.0001011859582097885 0  94.70607987542333 7.499899052698652 0  99.7060529070434 -0.0001245789603994169 0  99.70608437863947 7.499875674192324 0  104.7060612440436 -0.0001459168161524717 0  104.7060891379384 7.499854336545115 0  109.7060705578616 -0.0001646486850830261 0  109.7060940460904 7.499835569948059 0  114.7060808526148 -0.0001800433557014353 0  114.7060989289139 7.499820062348212 0  119.7060920368637 -0.0001911139147867353 0  119.7061035186152 7.499808711197443 0  124.706103825649 -0.000196506610426132 0  124.7061074250859 7.499802687058356 0  129.7061155510392 -0.0001943383145204901 0  129.7061101189628 7.499803501654693 0  134.7061257943203 -0.0001819676314557892 0  134.7061109657627 7.499813054742305 0  139.7061316670996 -0.0001557113912789338 0  139.7061094119844 7.499833596067033 0  144.7061273862194 -0.0001106733590695176 0  144.7061055734126 7.499867490001005 0  149.7061013438563 -4.16574918014966e-05 0  149.7061018640007 7.499916802225461 0  159.7061073738541 9.582943424696831e-19 0  164.7060167578235 -0.0001302410504020713 0  164.7060919329146 7.499849438755116 0  159.7061174268379 7.499951780055324 0  169.7059689580243 -0.0002388226450158 0  169.706065886393 7.499750986206794 0  174.7059437611376 -0.0003319292932137819 0  174.7060447483328 7.499662489067755 0  179.705930963959 -0.0004130889915971762 0  179.7060290393605 7.499583709043936 0  184.7059251368324 -0.0004849518773634608 0  184.7060179497716 7.499513154285157 0  189.7059232937257 -0.0005495712115876878 0  189.7060104489199 7.499449280877276 0  194.7059237476731 -0.0006085171994286342 0  194.7060056199309 7.499390772654984 0  199.7059255205233 -0.0006629804195680833 0  199.7060027339789 7.499336573574174 0  204.7059280301019 -0.0007138642287107061 0  204.7060012390575 7.499285853746297 0  209.7059309209285 -0.0007618591808879907 0  209.7060007262189 7.49923796358874 0  214.7059339707469 -0.000807499249543714 0  214.7060008952364 7.4991923924252 0  219.7059370377674 -0.0008512029439830923 0  219.7060015261819 7.499148735273345 0  224.7059400301544 -0.0008933029881780758 0  224.706002457722 7.49910666744821 0  229.7059428879202 -0.000934067718804625 0  229.7060035711642 7.499065925515016 0  234.7059455718907 -0.0009737166092853574 0  234.7060047789385 7.499026293074134 0  239.7059480568071 -0.001012431654038253 0  239.7060060163383 7.498987590118123 0  244.7059503269256 -0.001050365829279247 0  244.7060072356132 7.498949664999811 0  249.7059523731647 -0.001087649473632259 0  249.7060084017382 7.498912388306412 0  254.7059541912645 -0.001124395170785336 0  254.7060094893922 7.498875648133842 0  259.705955780624 -0.001160701534817404 0  259.7060104807996 7.498839346402966 0  264.7059571436439 -0.001196656170206276 0  264.7060113642125 7.498803395969717 0  269.7059582854511 -0.001232337982492179 0  269.7060121328641 7.498767718365766 0  274.7059592139761 -0.001267818935498929 0  274.70601278427 7.49873224207766 0  279.7059599403511 -0.001303165270918502 0  279.7060133197902 7.498696901340745 0  284.7059604796528 -0.001338438106723125 0  284.7060137443645 7.498661635501598 0  289.705960851963 -0.00137369318316651 0  289.7060140663338 7.498626389100178 0  294.705961083711 -0.001408979279856003 0  294.7060142972837 7.498591112954243 0  299.7059612090117 -0.00144433439556184 0  299.7060144518472 7.498555766700093 0  304.7059612702451 -0.001479778006933908 0  304.7060145476401 7.498520323444243 0  309.7059613158639 -0.001515296378699274 0  309.7060146061095 7.498484777379442 0  4.706094010076462 15.00042947213452 0  -0.2939060476563851 15.00045940881956 0  9.706094109331836 15.00039935525382 0  14.7060942717453 15.00036907022443 0  19.70609451233183 15.00033863526625 0  24.70609484352951 15.00030807664619 0  29.70609527675186 15.00027742804106 0  34.7060958227993 15.00024672949888 0  39.70609649180415 15.00021602674749 0  44.70609729299397 15.00018537105324 0  49.70609823436732 15.00015481965028 0  54.70609932228753 15.00012443672398 0  59.70610056095677 15.00009429495029 0  64.70610195171406 15.00006447763039 0  69.70610349207941 15.00003508150693 0  74.70610517445964 15.00000622040194 0  79.70610698441108 14.99997802987646 0  84.70610889835405 14.9999506731785 0  89.70611088064437 14.99992434881527 0  94.70611287997126 14.99989930013715 0  99.70611482520695 14.99987582731659 0  104.7061166212059 14.99985430194249 0  109.706118145776 14.99983518392544 0  114.7061192504685 14.99981903909231 0  119.706119770371 14.99980655289181 0  124.7061195523815 14.9997985293973 0  129.7061185180029 14.99979585218608 0  134.7061167849807 14.99979935888773 0  139.7061148773475 14.99980953252216 0  144.7061140365611 14.99982580940413 0  149.7061165394619 14.99984502057671 0  164.7061321171196 14.99979393011219 0  159.7061353490098 14.99986497862447 0  169.7061231116627 14.99971767798982 0  174.7061119748747 14.99964262926329 0  179.7061010997074 14.99957174122599 0  184.706091590441 14.99950581904242 0  189.7060837897957 14.99944469635164 0  194.7060776622835 14.9993878491823 0  199.7060730126653 14.99933467348214 0  204.7060695982719 14.99928459821853 0  209.7060671817163 14.99923712345937 0  214.7060655523658 14.99919182620297 0  219.7060645323953 14.99914835368408 0  224.7060639758153 14.99910641291667 0  229.7060637647396 14.99906576012406 0  234.7060638049541 14.99902619138526 0  239.7060640216893 14.99898753481811 0  244.7060643559433 14.99894964421788 0  249.7060647614362 14.99891239393949 0  254.7060652021476 14.99887567479436 0  259.7060656503647 14.99883939076182 0  264.7060660851378 14.9988034563547 0  269.7060664910676 14.99876779452303 0  274.7060668573466 14.99873233501923 0  279.7060671769744 14.99869701318534 0  284.7060674461334 14.99866176915539 0  289.7060676636596 14.99862654748356 0  294.7060678306908 14.99859129718776 0  299.7060679506127 14.99855597207665 0  304.7060680296968 14.99852053083786 0  309.7060680791429 14.99848493529114 0  4.70613863105002 22.50042987454042 0  -0.2938614259787616 22.50045971327943 0  9.706138714611903 22.50039978822585 0  14.70613884062425 22.50036949918479 0  19.70613901810747 22.50033904588569 0  24.70613925214238 22.50030846595913 0  29.70613954561317 22.50027779890844 0  34.70613989999462 22.50024708738034 0  39.70614031553129 22.50021637788691 0  44.70614079105739 22.50018572145892 0  49.7061413236034 22.50015517447331 0  54.70614190785484 22.50012479977664 0  59.70614253548619 22.50009466817925 0  64.70614319436824 22.50006486038218 0  69.70614386763812 22.50003546940284 0  74.70614453263359 22.50000660357658 0  79.70614515971327 22.4999783902151 0  84.70614571104265 22.49995097999147 0  89.70614613952142 22.49992455207155 0  94.70614638819524 22.49989931988738 0  99.70614639077162 22.49987553717983 0  104.7061460742957 22.49985350341206 0  109.706145365693 22.49983356666436 0  114.706144204782 22.49981612034082 0  119.7061425674194 22.49980158693565 0  124.7061405032999 22.499790377021 0  129.7061381925157 22.49978280376113 0  134.7061360207394 22.49977892245866 0  139.7061346594653 22.49977825358506 0  144.7061351050904 22.49977935007837 0  149.7061385642966 22.49977924413007 0  164.7061616769423 22.49973202839486 0  159.7061547827051 22.49978353398005 0  169.7061630825285 22.4996733568158 0  174.7061606630152 22.4996119651134 0  179.7061561080465 22.49955082881497 0  184.7061507071555 22.49949159536892 0  189.7061452826806 22.49943498381108 0  194.7061402888761 22.49938116682373 0  199.7061359336436 22.49933003350666 0  204.7061322757243 22.49928134581081 0  209.7061292912184 22.49923482383589 0  214.7061269154393 22.49919018880791 0  219.7061250676802 22.49914718250882 0  224.7061236650226 22.49910557427189 0  229.7061226294601 22.4990651617815 0  234.7061218911178 22.4990257690417 0  239.7061213892848 22.49898724326162 0  244.706121072291 22.49894945152271 0  249.7061208968212 22.49891227762539 0  254.7061208270084 22.49887561927299 0  259.7061208334692 22.49883938563502 0  264.7061208923867 22.4988034952782 0  269.7061209846611 22.4987678744349 0  274.7061210951508 22.49873245557254 0  279.7061212119984 22.49869717622489 0  284.7061213260549 22.49866197803365 0  289.7061214304237 22.49862680591003 0  294.7061215202071 22.4985916071
[...]
<PointData  Scalars="p"> 
<DataArray  type="Float64"  Name="p"  format="ascii">1.0000000000000001e-01  1.0000000000000003e-01  1.0000258760318420e-01  1.0000000000000003e-01  1.0000000000000003e-01  1.0000370449654460e-01  1.0000000000000003e-01  1.0000559152539265e-01  1.0000000000000003e-01  1.0000685828835393e-01  1.0000000000000003e-01  1.0000827568758798e-01  1.0000000000000003e-01  1.0001010239296264e-01  1.0000000000000003e-01  1.0001128357041032e-01  1.0000000000000003e-01  1.0001253891438555e-01  1.0000000000000003e-01  1.0001455343439651e-01  1.0000000000000003e-01  1.0001579772123670e-01  1.0000000000000003e-01  1.0001899364427645e-01  1.0000000000000003e-01  1.0002237557115522e-01  1.0000000000000003e-01  1.0002488688645809e-01  1.0000000000000003e-01  1.0002734257503175e-01  1.0000000000000003e-01  1.0003093002984109e-01  1.0000000000000003e-01  1.0003271128699145e-01  1.0000000000000003e-01  1.0003487930520530e-01  1.0000000000000003e-01  1.0003839635059220e-01  1.0000000000000003e-01  1.0003902723848272e-01  1.0000000000000003e-01  1.0004157727192682e-01  1.0000000000000003e-01  1.0004283026521073e-01  1.0000000000000003e-01  1.0004519045548388e-01  1.0000000000000003e-01  1.0004266895720022e-01  1.0000000000000003e-01  1.0005003538901490e-01  1.0000000000000003e-01  1.0003998220906297e-01  1.0000000000000003e-01  1.0005578185826393e-01  1.0000000000000003e-01  1.0003375207753620e-01  1.0000000000000003e-01  1.0006529400741851e-01  1.0000000000000003e-01  1.0002385777915515e-01  1.0000000000000001e-01  1.0008442496788397e-01  1.0000000000000001e-01  1.0000000000000003e-01  9.9898410260216022e-02  9.9828271289333914e-02  1.0000000000000003e-01  9.9955294906584044e-02  1.0000000000000003e-01  9.9917108328070325e-02  1.0000000000000003e-01  9.9934425875289723e-02  1.0000000000000003e-01  9.9927543796177770e-02  1.0000000000000003e-01  9.9931599330827306e-02  1.0000000000000003e-01  9.9927616830358945e-02  1.0000000000000003e-01  9.9930964218975377e-02  1.0000000000000003e-01  9.9929576852412633e-02  1.0000000000000003e-01  9.9930184454984208e-02  1.0000000000000003e-01  9.9930901471549136e-02  1.0000000000000003e-01  9.9931495343649895e-02  1.0000000000000003e-01  9.9931762469036942e-02  1.0000000000000003e-01  9.9932876113111163e-02  1.0000000000000003e-01  9.9933430984287946e-02  1.0000000000000003e-01  9.9934065718069676e-02  1.0000000000000003e-01  9.9934891337046194e-02  1.0000000000000003e-01  9.9935670555182862e-02  1.0000000000000003e-01  9.9936066297937179e-02  1.0000000000000003e-01  9.9937191009319165e-02  1.0000000000000003e-01  9.9937221261386433e-02  1.0000000000000003e-01  9.9938797807622201e-02  1.0000000000000003e-01  9.9937738555319774e-02  1.0000000000000003e-01  9.9941274960682974e-02  1.0000000000000003e-01  9.9936582403962512e-02  1.0000000000000003e-01  9.9946000126344178e-02  1.0000000000000003e-01  9.9931522844767681e-02  1.0000000000000003e-01  9.9956763674923857e-02  1.0000000000000003e-01  9.9913246803146769e-02  1.0000000000000001e-01  1.0000000000000003e-01  1.0000350432177672e-01  1.0000000000000003e-01  1.0000389865866458e-01  1.0000424720304643e-01  1.0000479096778024e-01  1.0000591250822062e-01  1.0000592809751881e-01  1.0000599722606759e-01  1.0000747492150101e-01  1.0000702910862745e-01  1.0000744016389156e-01  1.0000986442474674e-01  1.0001227623898321e-01  1.0001289569367540e-01  1.0001640888529978e-01  1.0001532987529116e-01  1.0001590003283618e-01  1.0001874121429495e-01  1.0001739536378731e-01  1.0001723791205645e-01  1.0002087849048640e-01  1.0001734657171024e-01  1.0001938690052538e-01  1.0001827182605191e-01  1.0002118012961150e-01  1.0001185383110336e-01  1.0002967974891303e-01  9.9999009034304809e-02  1.0004996776277524e-01  9.9972487896848011e-02  1.0008642646432593e-01  1.0005991760693557e-01  9.9712214170722319e-02  9.9931977978162764e-02  9.9983254148221304e-02  9.9976845950546747e-02  9.9981187033045690e-02  9.9970480451957361e-02  9.9979126141845759e-02  9.9973932659377360e-02  9.9973536880303221e-02  9.9974667162987016e-02  9.9974379929330628e-02  9.9973382702342892e-02  9.9974931980477882e-02  9.9974844977676003e-02  9.9974718323821724e-02  9.9975690834808992e-02  9.9975821290832545e-02  9.9975909502663926e-02  9.9976418265332628e-02  9.9976859882185867e-02  9.9976476157455904e-02  9.9977729604225907e-02  9.9976516723371350e-02  9.9978898072843464e-02  9.9975273388654959e-02  9.9982310248219033e-02  9.9969838774855130e-02  9.9991571461401113e-02  9.9957939116681341e-02  1.0000000000000003e-01  1.0000481021287877e-01  1.0000000000000003e-01  1.0000365413751758e-01  1.0000559092964936e-01  1.0000684496094046e-01  1.0000737128673999e-01  1.0000743712784700e-01  1.0000967636677284e-01  1.0000925214585503e-01  1.0000903221191743e-01  1.0001193800054745e-01  1.0001221724458891e-01  1.0001223392625977e-01  1.0002051964219945e-01  1.0001978631218260e-01  1.0002095718973092e-01  1.0002609887741951e-01  1.0002361841651304e-01  1.0002417347473226e-01  1.0002922660105461e-01  1.0002617078211876e-01  1.0002528876557835e-01  1.0003204999221789e-01  1.0002397405253481e-01  1.0002980398499592e-01  1.0002357385705253e-01  1.0003507239271893e-01  1.0000923482817360e-01  1.0005993617279335e-01  9.9969188897113079e-02  1.0013754351990835e-01  1.0006999268030421e-01  9.9696472981246273e-02  9.9859154419589341e-02  9.9966172992964161e-02  9.9964206393597863e-02  9.9939407640492639e-02  9.9964957710537233e-02  9.9950492525377091e-02  9.9950371460623688e-02  9.9952934453992934e-02  9.9951833247829108e-02  9.9949063784593312e-02  9.9952284896490315e-02  9.9951472294724245e-02  9.9950960407939049e-02  9.9952839711699284e-02  9.9953041072631227e-02  9.9952807121659382e-02  9.9954223570405440e-02  9.9954311800354467e-02  9.9954576471170870e-02  9.9955043817304995e-02  9.9955975952918427e-02  9.9954836846275597e-02  9.9957576696497907e-02  9.9954125957861378e-02  9.9960177501777853e-02  9.9950351056908762e-02  9.9969026820613704e-02  9.9933442166552061e-02  1.0000000000000003e-01  1.0000554329586868e-01  1.0000000000000003e-01  1.0000373302415248e-01  1.0000632187666507e-01  1.0000632807639556e-01  1.0000632455559087e-01  1.0000849788538099e-01  1.0000783138556950e-01  1.0000713930792866e-01  1.0000979319239041e-01  1.0000855873199346e-01  1.0000806424160423e-01  1.0001348335210089e-01  1.0001098736490614e-01  1.0001548064279804e-01  1.0002115858676304e-01  1.0001900089655838e-01  1.0001829806252913e-01  1.0002438979257511e-01  1.0001918569679789e-01  1.0001954691765202e-01  1.0002398206519117e-01  1.0002026789634913e-01  1.0001571421247137e-01  1.0002746734943768e-01  1.0000865800417377e-01  1.0003042392464075e-01  9.9996246564864860e-02  1.0005695072534015e-01  9.9948525341021388e-02  1.0014834519510080e-01  1.0008549816403421e-01  9.9636558417856028e-02  9.9897850729031540e-02  9.9997667056413345e-02  9.9919611961297880e-02  9.9998269790132238e-02  9.9963655436858798e-02  9.9968930319057722e-02  9.9969752145023488e-02  9.9969440194467463e-02  9.9963175409591834e-02  9.9968496679435720e-02  9.9966094315502241e-02  9.9964869591143021e-02  9.9967151824736061e-02  9.9967049460523968e-02  9.9966410033829167e-02  9.9968157519707307e-02  9.9968293852413917e-02  9.9967911458095138e-02  9.9969232165661656e-02  9.9968874026856711e-02  9.9969541698541053e-02  9.9968844287015107e-02  9.9971212802760279e-02  9.9967068178781135e-02  9.9974570606395627e-02  9.9962307981172338e-02  9.9982582357089803e-02  9.9949686245371025e-02  1.0000000000000003e-01  1.0000630287178300e-01  1.0000000000000003e-01  1.0000428456335866e-01  1.0000621476037785e-01  1.0000562904597537e-01  1.0000853175102990e-01  1.0000775944867590e-01  1.0000756794075916e-01  1.0001023902793102e-01  1.0000875564221433e-01  1.0000777885111529e-01  1.0001242140082224e-01  1.0001027961827925e-01  1.0001092963832334e-01  1.0001561816969681e-01  1.0001812243399906e-01  1.0001828638751382e-01  1.0002600294291529e-01  1.0002085861636145e-01  1.0001988001222123e-01  1.0002778068620799e-01  1.0001958750863868e-01  1.0002085576690486e-01  1.0002399209104308e-01  1.0002251160609882e-01  1.0000969630185538e-01  1.0003660192204326e-01  9.9990458931458609e-02  1.0006366695797249e-01  9.9937249084078542e-02  1.0017595598141554e-01  1.0014081283027679e-01  9.9580985521194224e-02  9.9878928846728041e-02  9.9973774743656568e-02  9.9941061267586048e-02  9.9957449299779247e-02  9.9962930878627801e-02  9.9963731700676059e-02  9.9968352974232441e-02  9.9954087083151066e-02  9.9964478807976778e-02  9.9959509334132571e-02  9.9957247407475483e-02  9.9960321576914063e-02  9.9959837228682943e-02  9.9958135609257870e-02  9.9960927435724642e-02  9.9960809111228316e-02  9.9960379952353323e-02  9.9961903616903630e-02  9.9962224349224083e-02  9.9961551202614643e-02  9.9963206934703175e-02  9.9962074437078302e-02  9.9963902600029436e-02  9.9961093226070025e-02  9.9966834790129369e-02  9.9956395682155821e-02  9.9975406136395620e-02  9.9941511617936754e-02  1.0000000000000003e-01  1.0000722129549754e-01  1.0000000000000003e-01  1.0000415689694694e-01  1.0000593199404705e-01  1.0000699626868990e-01  1.0000726673127248e-01  1.0000689458996018e-01  1.0000969665841164e-01  1.0000863674070817e-01  1.0000717035103503e-01  1.0001115105090876e-01  1.0000919246363048e-01  1.0000827055974983e-01  1.0001388555229834e-01  1.0001172693687649e-01  1.0000878446001527e-01  1.0002345188348287e-01  1.0001838574965365e-01  1.0001849831907325e-01  1.0002675349240907e-01  1.0001931338369810e-01  1.0001653725744038e-01  1.0002813495413923e-01  1.0001361701363927e-01  1.0001983645993799e-01  1.0001433466269449e-01  1.0002861399632812e-01  9.9983639412565661e-02  1.0007255528787137e-01  9.9915647127974766e-02  1.0020000641504459e-01  1.0015399939652404e-01  9.9579188482491587e-02  9.9855589770657532e-02  1.0001830689828096e-01  9.9943312720517721e-02  9.9955665509118691e-02  9.9951599760622470e-02  9.9987798035371125e-02  9.9953779588357605e-02  9.9977097438330498e-02  9.9965683508732986e-02  9.9963279074052613e-02  9.9966856474973928e-02  9.9966139114615937e-02  9.9962525811594455e-02  9.9966511623133469e-02  9.9965776768531939e-02  9.9964685489255037e-02  9.9967180358055005e-02  9.9967090255220326e-02  9.9966718576885813e-02  9.9967791665574984e-02  9.9968447818823872e-02  9.9966882797646803e-02  9.9969780414952122e-02  9.9965974776305755e-02  9.9972071008698163e-02  9.9961617674170070e-02  9.9980004782885434e-02  9.9948132091253111e-02  1.0000000000000003e-01  1.0000773501115616e-01  1.0000000000000003e-01  1.0000392520001451e-01  1.0000736353698801e-01  1.0000626885248419e-01  1.0000653302845462e-01  1.0000888186779407e-01  1.0000868103765652e-01  1.0000721038437142e-01  1.0001122157735155e-01  1.0000913353473574e-01  1.0000768659254894e-01  1.0001351930709450e-01  1.0001062946520541e-01  1.0000816323719666e-01  1.0001725895456463e-01  1.0001014280140258e-01  1.0001617203112413e-01  1.0002674094731787e-01  1.0001972559732782e-01  1.0001844818525422e-01  1.0002773019298505e-01  1.0001894876369503e-01  1.0001313293540616e-01  1.0003087611129920e-01  1.0000476675124309e-01  1.0002885117252516e-01  9.9990377465594374e-02  1.0006946010322627e-01  9.9904755527006270e-02  1.0022865512583619e-01  1.0015173752288535e-01  9.9550840572171229e-02  9.9874956759524028e-02  1.0001859910382759e-01  9.9926602641760703e-02  9.9975765341503875e-02  9.9955431220706423e-02  9.9942314435817484e-02  9.9982142940312754e-02  9.9963567011415788e-02  9.9964589939280660e-02  9.9965579227207335e-02  9.9966433804464419e-02  9.9959929692592570e-02  9.9965485169915824e-02  9.9963796637431809e-02  9.9962019133437788e-02  9.9964793683232106e-02  9.9964910344281926e-02  9.9963870156966936e-02  9.9966142073888070e-02  9.9965781604234125e-02  9.9965938405033691e-02  9.9965912232205148e-02  9.9967700996261621e-02  9.9964119762865150e-02  9.9970289995295891e-02  9.9960005429953105e-02  9.9977777466553203e-02  9.9946256810193479e-02  1.0000000000000003e-01  1.0000809880523888e-01  1.0000000000000003e-01  1.0000468169518151e-01  1.0000709584571069e-01  1.0000564049560276e-01  1.0000837134711012e-01  1.0000766685269126e-01  1.0000691926247003e-01  1.0001065187019847e-01  1.0000891363260668e-01  1.0000744949281151e-01  1.0001279616018920e-01  1.0001009962111733e-01  1.0000803654901293e-01  1.0001554987846588e-01  1.0000967220822024e-01  1.0000912727769351e-01  1.0001626648835613e-01  1.0001775100035454e-01  1.0001629840747060e-01  1.0003000998989030e-01  1.0001735898915526e-01  1.0001750841090624e-01  1.0002550714774604e-01  1.0001933756972077e-01  1.0000257429278776e-01  1.0004142717272051e-01  9.9977291368127816e-02  1.0007278979437768e-01  9.9902154376103156e-02  1.0024273494282268e-01  1.0018486465360374e-01  9.9518626687049250e-02  9.9867933895341210e-02  1.0000986258453769e-01  9.9949866745733695e-02  9.9983567813898513e-02  9.9944316251168994e-02  9.9966527312364023e-02  9.9953247412110716e-02  9.9974514715273813e-02  9.9965946272370806e-02  9.9974595235341843e-02  9.9960972105978055e-02  9.9970125020538800e-02  9.9966783077495333e-02  9.9964125211811597e-02  9.9967375044840517e-02  9.9967147040520232e-02  9.9965263897314943e-02  9.9968025325229734e-02  9.9968223494097425e-02  9.9967134290823018e-02  9.9969375573995739e-02  9.9968215156990212e-02  9.9969620706995097e-02  9.9967070650317555e-02  9.9972521565572472e-02  9.9962344804556916e-02  9.9979900028529953e-02  9.9949447635176686e-02  1.0000000000000003e-01  1.0000877649862927e-01  1.0000000000000003e-01  1.0000450562384608e-01  1.0000673273307731e-01  1.0000712582758101e-01  1.0000762703331262e-01  1.0000631321911918e-01  1.0000975154263830e-01  1.0000857308167869e-01  1.0000725224138773e-01  1.0001185216351705e-01  1.0001020286155299e-01  1.0000794799440157e-01  1.0001495675449318e-01  1.0001058973437127e-01  1.0000766703581417e-01  1.0001624777551056e-01  1.0001081538085281e-01  1.0000528292068746e-01  1.0002744388033492e-01  1.0001827167577935e-01  1.0001606732680188e-01  1.0003232185456988e-01  1.0001321998019755e-01  1.0001785760361483e-01  1.0001860983208029e-01  1.0002873365619944e-01  9.9974866899354711e-02  1.0008937598606378e-01  9.9884263990939595e-02  1.0025962043716877e-01  1.0019312809841474e-01  9.9519629383927097e-02  9.9850744285043924e-02  1.0003196531999754e-01  9.9948725471475361e-02  9.9971354284254951e-02  9.9964680647528434e-02  9.9967579546845112e-02  9.9948771865126046e-02  9.9955971662997994e-02  9.9982137988527217e-02  9.9957868255798818e-02  9.9974782539584653e-02  9.9967186691068174e-02  9.9964685892088539e-02  9.9967862998630239e-02  9.9967894638748181e-02  9.9964347898779088e-02  9.9968062089237184e-02  9.9967488317953782e-02  9.9966528236718810e-02  9.9968486769789658e-02  9.9969112735051838e-02  9.9967390615680246e-02  9.9970362323198184e-02  9.9967071799763385e-02  9.9971995800481647e-02  9.9962932303382684e-02  9.9979403614930781e-02  9.9949743353946949e-02  1.0000000000000003e-01  1.0000902656219876e-01  1.0000000000000003e-01  1.0000425007613908e-01  1.0000808347792255e-01  1.0000661261959318e-01  1.0000671512429612e-01  1.0000881513438911e-01  1.0000833711987854e-01  1.0000681581866175e-01  1.0001094536830288e-01  1.0000967795248383e-01  1.0000759713055690e-01  1.0001444396069309e-01  1.0001122872280159e-01  1.0000783394845517e-01  1.0001635614938090e-01  1.0001056253636981e-01  1.0000532040041166e-01  1.0001961900651536e-01  1.0000649008621636e-01  1.0001457409747957e-01  1.0002992198994483e-01  1.0001917658970860e-01  1.0001187478721606e-01  1.0003613149678738e-01  1.0000314224153665e-01  1.0002732948396600e-01  9.9992321772158055e-02  1.0007710431298396e-01  9.9877941725264180e-02  1.0028657851649408e-01  1.0018966992586528e-01  9.9511527787402729e-02  9.9863757418351962e-02  1.0003507560765336e-01  9.9936278173240717e-02  9.9990549708072085e-02  9.9967196894173868e-02  9.9962041341114652e-02  9.9963193681111367e-02  9.9964050322034051e-02  9.9946794438299097e-02  9.9983422558294038e-02  9.9966944131325494e-02  9.9969605502154113e-02  9.9969286385935441e-02  9.9971160660281971e-02  9.9965432168292401e-02  9.9970097671062116e-02  9.9969100794714841e-02  9.9967095771164430e-02  9.9969739369685742e-02  9.9969576301834950e-02  9.9969192872248036e-02  9.9969930599254922e-02  9.9971572623926766e-02  9.9968031960642273e-02  9.9973844451804433e-02  9.9964490310676654e-02  9.9980312528955784e-02  9.9951984736905947e-02  1.0000000000000003e-01  1.0000919558092303e-01  1.0000000000000003e-01  1.0000491493409044e-01  1.0000786831572578e-01  1.0000593896735446e-01  1.0000866330370889e-01  1.0000780966280744e-01  1.0000692568861896e-01  1.0001007133110291e-01  1.0000902225889764e-01  1.0000704447830341e-01  1.0001315762639071e-01  1.0001100114530904e-01  1.0000851811447399e-01  1.0001624983220889e-01  1.0001120916742956e-01  1.0000681707470364e-01  1.0001791717593438e-01  1.0000827693142146e-01  1.0000583720065420e-01  1.0001806993524541e-01  1.0001565365433780e-01  1.0001509592775147e-01  1.0003186092414988e-01  1.0001913210287054e-01  1.0000244898007002e-01  1.0004855211702403e-01  9.9975909161538201e-02  1.0007501558183776e-01  9.9895870975175369e-02  1.0027936477375891e-01  1.0020595978933082e-01  9.9499896832876050e-02  9.9863191487728958e-02  1.0002619473671132e-01  9.9950063446823695e-02  9.9992134103556563e-02  9.9956785809728457e-02  9.9976386334388198e-02  9.9968860404379800e-02  9.9955889420718841e-02  9.9962870266119649e-02  9.9957491104243318e-02  9.9975520106653504e-02  9.9968077031791683e-02  9.9976039776280043e-02  9.9965117793902533e-02  9.9972317441699821e-02  9.9970131561936348e-02  9.9967740115533540e-02  9.9970258535322307e-02  9.9970382801786814e-02  9.9968220722907827e-02  9.9971139584504806e-02  9.9970234611198597e-02  9.9971132423175998e-02  9.9969453746297107e-02  9.9974195834734186e-02  9.9965018959903715e-02  9.9980757646118038e-02  9.9953164783357848e-02  1.0000000000000003e-01  1.0000968509911773e-01  1.0000000000000003e-01  1.0000480872694863e-01  1.0000749090103125e-01  1.0000739602667870e-01  1.0000813870575984e-01  1.0000664359012490e-01  1.0000971285854754e-01  1.0000877254531206e-01  1.0000690840671467e-01  1.0001158070686839e-01  1.0001037235204761e-01  1.0000824886490636e-01  1.0001537670621014e-01  1.0001240989169771e-01  1.0000784449498677e-01  1.0001768663122379e-01  1.0001059181549840e-01  1.0000539518770729e-01  1.0001806020829157e-01  1.0000948640504442e-01  9.9999368736497216e-02  1.0003348575249751e-01  1.0001300792728818e-01  1.0001751372328123e-01  1.0002724601416041e-01  1.0002757033422424e-01  9.9974939822467135e-02  1.0009858123110517e-01  9.9879376856159427e-02  1.0027750946306403e-01  1.0020979295423192e-01  9.9515372333829996e-02  9.9853742680132515e-02  1.0003928524034737e-01  9.9951746262622557e-02  9.9982502420829497e-02  9.9969369848875222e-02  9.9979680874865293e-02  9.9960578790906196e-02  9.9971214190580748e-02  9.9965744480543017e-02  9.9956495949453480e-02  9.9958488118664438e-02  9.9983554322475368e-02  9.9963456652404789e-02  9.9977193179285551e-02  9.9971446839821870e-02  9.9969523479675235e-02  9.9971869937173163e-02  9.9972080335262878e-02  9.9969170781554012e-02  9.9971633593424022e-02  9.9971795442216321e-02  9.9969887433022014e-02  9.9973136623799710e-02  9.9970436578689648e-02  9.9974526964084362e-02  9.9966855325296686e-02  9.9981428834758454e-02  9.9954967512035461e-02  1.0000000000000003e-01  1.0000988533345992e-01  1.0000000000000003e-01  1.0000462425266901e-01  1.0000873195257427e-01  1.0000710560655898e-01  1.0000743595766898e-01  1.0000904518316724e-01  1.0000888915684152e-01  1.0000721858248114e-01  1.0001092911743573e-01  1.0000979182609318e-01  1.0000785403896180e-01  1.0001406577325449e-01  1.0001250054108843e-01  1.0000867945403415e-01  1.0001759815458917e-01  1.0001281696719247e-01  1.0000658101020088e-01  1.0001909505522069e-01  1.0001015625831178e-01  1.0000213859725231e-01  1.0002243835313278e-01  1.0000407395112940e-01  1.0000896122153580e-01  1