<?xml version="1.0"?>
<VTKFile type="UnstructuredGrid"  version="0.1"  >
<UnstructuredGrid>
<Piece  NumberOfPoints="1933" NumberOfCells="3640">
<Points>
<DataArray  type="Float64"  NumberOfComponents="3"  format="ascii">-0.2940036933797712 0.0007217034683338476 0  4.705996315698591 0.0006904277256056144 0  4.706043258059815 7.500690467875982 0  -0.2939567675229109 7.500721714283872 0  9.705996322381914 0.0006591090823061258 0  9.706043308365437 7.500659161004654 0  14.70599634951759 0.0006277139840634143 0  14.70604339813796 7.500627770402181 0  19.70599642523314 0.0005962304772425553 0  19.70604354257486 7.500596288423593 0  24.70599657774616 0.0005646601626341345 0  24.70604375753522 7.500564718643551 0  29.7059968337539 0.0005330134357241952 0  29.70604405922273 7.500533072400312 0  34.70599721834127 0.0005013066509751085 0  34.70604446395814 7.500501366511069 0  39.70599775551192 0.0004695605246620211 0  39.70604498813381 7.500469621931754 0  44.70599846894998 0.0004377993758675472 0  44.70604564831508 7.500437863124348 0  49.70599938284825 0.0004060509656620957 0  49.70604646142992 7.500406117960588 0  54.7060005227429 0.0003743467981945682 0  54.70604744499752 7.500374418057578 0  59.70600191634266 0.0003427228198393651 0  59.70604861735458 7.500342799496734 0  64.70600359436114 0.000311220507938499 0  64.70604999784311 7.500311303925057 0  69.70600559136527 0.000279888389069792 0  69.7060516069219 7.500279980081471 0  74.70600794665563 0.0002487840765602561 0  74.70605346615127 7.500248885837236 0  79.70601070518207 0.0002179769768080947 0  79.70605559798099 7.500218090894553 0  84.70601391848287 0.0001875518946360119 0  84.70605802523542 7.500187680359826 0  89.70601764559552 0.0001576138845957645 0  89.7060607701339 7.500157759507432 0  94.70602195381817 0.0001282948715605472 0  94.70606385260588 7.500128460190144 0  99.7060269190482 9.976283782512496e-05 0  99.70606728754562 7.500099949550216 0  104.7060326251394 7.223480641213332e-05 0  104.7060710805029 7.500072441958535 0  109.7060391611352 4.599554031757623e-05 0  109.7060752211438 7.500046215465485 0  114.7060466140789 2.14249821505024e-05 0  114.7060796737319 7.50002163445829 0  119.7060550527736 -9.607816520305001e-07 0  119.7060843641091 7.499999180539584 0  124.7060644931952 -2.044749989959363e-05 0  124.7060891638877 7.499979493436467 0  129.706074826834 -3.602808403062389e-05 0  129.7060938764221 7.499963421897045 0  134.7060856740862 -4.625867658230016e-05 0  134.7060982396057 7.49995207853125 0  139.7060960852287 -4.904775851044832e-05 0  139.7061019872968 7.499946878188334 0  144.7061039257979 -4.139401002697388e-05 0  144.7061050791096 7.499949517585046 0  149.7061045751337 -1.933459137687616e-05 0  149.7061083904949 7.49996189068077 0  159.7061073738537 1.17180767453359e-18 0  164.706047317629 -7.857726950793014e-05 0  164.7060965989262 7.499910083359923 0  159.706114566725 7.499972347313742 0  169.7060127237786 -0.0001477625646252286 0  169.7060781834879 7.499846559101973 0  174.7059920870351 -0.0002102695597126263 0  174.7060627194941 7.499786577080626 0  179.7059795108239 -0.0002674445304618956 0  179.7060506169458 7.499730706650007 0  184.7059717733102 -0.0003203377173011782 0  184.7060414596654 7.49967853862976 0  189.7059670398698 -0.0003698089999163266 0  189.7060346690909 7.499629487485319 0  194.705964228589 -0.0004165425510978063 0  194.7060297108897 7.4995830051428 0  199.7059626790644 -0.0004610715354967301 0  199.7060261471251 7.499538630919957 0  204.7059619738544 -0.0005038087457227589 0  204.7060236359886 7.499495992003683 0  209.7059618398495 -0.0005450749221310859 0  209.7060219161964 7.49945479021132 0  214.7059620924779 -0.0005851216700474724 0  214.7060207894342 7.499414786925541 0  219.7059626033181 -0.0006241488756397799 0  219.7060201051697 7.499375789900322 0  224.7059632807544 -0.0006623175696723583 0  224.7060197486949 7.499337642706847 0  229.7059640580678 -0.0006997593379779896 0  229.7060196321096 7.499300216604109 0  234.7059648858723 -0.0007365832161244491 0  234.7060196876484 7.499263404364749 0  239.7059657271603 -0.000772880783487326 0  239.7060198627791 7.499227115593246 0  244.7059665539711 -0.0008087299752534947 0  244.7060201166015 7.499191273154725 0  249.7059673450943 -0.0008441979794735541 0  249.7060204171949 7.499155810422326 0  254.705968084467 -0.0008793434764678329 0  254.706020739663 7.499120669127577 0  259.7059687600465 -0.0009142184000102942 0  259.7060210646831 7.499085797658027 0  264.7059693630398 -0.0009488693441038558 0  264.7060213774413 7.499051149692034 0  269.7059698874006 -0.0009833386975974237 0  269.7060216668565 7.499016683096281 0  274.7059703295709 -0.001017665554189929 0  274.7060219250213 7.498982359042302 0  279.7059706884379 -0.00105188641003902 0  279.7060221468232 7.498948141328439 0  284.7059709655268 -0.001086035615473078 0  284.7060223296806 7.49891399592933 0  289.7059711654331 -0.001120145475091133 0  289.7060224733771 7.498879890843472 0  294.7059712965145 -0.001154245761911997 0  294.7060225799289 7.498845796378334 0  299.7059713717746 -0.001188362165877126 0  299.7060226534674 7.498811686110156 0  304.705971409695 -0.001222512706616941 0  304.7060227001891 7.498777538877033 0  309.7059714342247 -0.001256700123758628 0  309.7060227287295 7.498743342267423 0  4.706090046497046 15.00069056771633 0  -0.293909983385701 15.00072174376054 0  9.706090102348453 15.00065928847718 0  14.7060901980557 15.0006279055375 0  19.70609034386404 15.00059642305691 0  24.70609054873337 15.0005648505024 0  29.7060908213215 15.00053320206215 0  34.7060911703098 15.0005014958751 0  39.70609160445354 15.00046975347333 0  44.70609213252736 15.00043799954912 0  49.70609276322973 15.0004062620586 0  54.70609350505563 15.00037457265112 0  59.70609436612259 15.00034296742213 0  64.70609535392099 15.00031148800876 0  69.70609647494771 15.00028018307368 0  74.70609773417718 15.00024911025535 0  79.70609913430428 15.00021833870022 0  84.70610067469393 15.00018795233647 0  89.70610234995505 15.00015805410216 0  94.70610414807288 15.00012877139498 0  99.70610604807233 15.00010026305709 0  104.7061080173106 15.00007272820836 0  109.7061100087696 15.00004641711217 0  114.7061119592952 15.00002164381867 0  119.7061137908187 14.99999879919241 0  124.7061154185612 14.99997836030137 0  129.7061167734321 14.99996088640239 0  134.7061178503887 14.99994697956021 0  139.7061187988277 14.99993716187712 0  144.7061200671145 14.99993156149661 0  149.7061225692178 14.99992913359163 0  164.7061270322458 14.99987983883982 0  159.7061301243047 14.99992724813321 0  169.7061207195584 14.9998278836158 0  174.7061130968485 14.99977514242008 0  179.7061055544353 14.99972361617922 0  184.7060987781658 14.9996740511493 0  189.7060930124845 14.99962657923251 0  194.7060882716939 14.99958107317318 0  199.7060844654813 14.99953731621606 0  204.7060814659815 14.99949507732092 0  209.7060791408995 14.99945414148156 0  214.706077368269 14.99941431955417 0  219.7060760417821 14.99937544922875 0  224.7060750715608 14.99933739255549 0  229.706074382925 14.99930003245577 0  234.7060739144533 14.999263269241 0  239.7060736159383 14.99922701751512 0  244.7060734465057 14.99919120355138 0  249.7060733729942 14.9991557631192 0  254.7060733686027 14.99912063969757 0  259.706073411784 14.99908578300779 0  264.7060734853487 14.9990511478056 0  269.7060735757464 14.99901669288693 0  274.7060736724782 14.9989823802764 0  279.7060737676168 14.99894817458192 0  284.7060738554072 14.99891404251365 0  289.7060739319185 14.99887995257301 0  294.706073994773 14.99884587490809 0  299.7060740429926 14.99881178126724 0  304.7060740771278 14.99877764476931 0  309.7060740999831 14.99874343858675 0  4.706136641764025 22.50069078454074 0  -0.2938633884224264 22.50072188468006 0  9.706136690552682 22.50065953682217 0  14.70613676913314 22.50062816172698 0  19.70613688445905 22.50059667642422 0  24.70613704115987 22.50056509799437 0  29.70613724268427 22.50053344482687 0  34.70613749186224 22.50050173723384 0  39.70613779109561 22.50046999776478 0  44.70613814232598 22.50043825148882 0  49.7061385468695 22.50040652638211 0  54.70613900515964 22.50037485389127 0  59.70613951641163 22.50034326971786 0  64.70614007820572 22.50031181486266 0  69.70614068597584 22.5002805369727 0  74.70614133239094 22.50024949204542 0  79.70614200661932 22.50021874655406 0  84.70614269348462 22.50018838006545 0  89.70614337255783 22.50015848841496 0  94.70614401729203 22.50012918746965 0  99.70614459442656 22.50010061741742 0  104.7061450640737 22.50007294731628 0  109.7061453812105 22.50004637922126 0  114.7061454997411 22.50002115041091 0  119.7061453808857 22.4999975307737 0  124.7061450082711 22.49997580984559 0  129.7061444123294 22.49995626369282 0  134.7061437053374 22.4999390851817 0  139.7061431230856 22.49992425240166 0  144.7061430543871 22.49991130402607 0  149.7061440064754 22.49989901448373 0  164.7061542938332 22.49984644116599 0  159.7061503352493 22.4998848723416 0  169.7061551586459 22.49980321747901 0  174.7061537664064 22.49975759544262 0  179.7061510332239 22.4997113165135 0  184.7061476980176 22.49966544221313 0  189.7061442553581 22.49962051713695 0  194.706140995161 22.49957676111406 0  199.7061380643617 22.49953421179292 0  204.7061355195377 22.49949281403239 0  209.7061333644286 22.49945247128655 0  214.7061315744112 22.49941307338076 0  219.7061301115578 22.49937451060665 0  224.7061289334584 22.49933668023726 0  229.7061279981114 22.49929948900381 0  234.7061272664322 22.49926285351606 0  239.7061267033667 22.49922669970474 0  244.7061262782162 22.49919096185531 0  249.7061259645392 22.49915558152369 0  254.7061257398476 22.4991205064736 0  259.70612558521 22.4990856896977 0  264.7061254848367 22.49905108854415 0  269.7061254256695 22.4990166639518 0  274.7061253969998 22.49898237978943 0  279.706125390108 22.49894820228813 0  284.7061253979386 22.49891409954948 0  289.7061254148097 22.49888004109156 0  294.7061254361915 22.49884599734964 0
[...]
<PointData  Scalars="p"> 
<DataArray  type="Float64"  Name="p"  format="ascii">1.0000000000000001e-01  1.0000000000000003e-01  1.0000258761086094e-01  1.0000000000000003e-01  1.0000000000000003e-01  1.0000370450901350e-01  1.0000000000000003e-01  1.0000559154382108e-01  1.0000000000000003e-01  1.0000685831185592e-01  1.0000000000000003e-01  1.0000827571668348e-01  1.0000000000000003e-01  1.0001010242744410e-01  1.0000000000000003e-01  1.0001128361005236e-01  1.0000000000000003e-01  1.0001253895847823e-01  1.0000000000000003e-01  1.0001455348357810e-01  1.0000000000000003e-01  1.0001579777434846e-01  1.0000000000000003e-01  1.0001899369917940e-01  1.0000000000000003e-01  1.0002237562988335e-01  1.0000000000000003e-01  1.0002488694739428e-01  1.0000000000000003e-01  1.0002734263837307e-01  1.0000000000000003e-01  1.0003093009657453e-01  1.0000000000000003e-01  1.0003271135676708e-01  1.0000000000000003e-01  1.0003487937752149e-01  1.0000000000000003e-01  1.0003839642746384e-01  1.0000000000000003e-01  1.0003902731956861e-01  1.0000000000000003e-01  1.0004157735843801e-01  1.0000000000000003e-01  1.0004283035866211e-01  1.0000000000000003e-01  1.0004519055821229e-01  1.0000000000000003e-01  1.0004266907009894e-01  1.0000000000000003e-01  1.0005003551923117e-01  1.0000000000000003e-01  1.0003998233853927e-01  1.0000000000000003e-01  1.0005578204223547e-01  1.0000000000000003e-01  1.0003375219992114e-01  1.0000000000000003e-01  1.0006529424623826e-01  1.0000000000000003e-01  1.0002385784651301e-01  1.0000000000000001e-01  1.0008442520012356e-01  1.0000000000000001e-01  1.0000000000000003e-01  9.9898410784570152e-02  9.9828270428556728e-02  1.0000000000000003e-01  9.9955295671692257e-02  1.0000000000000003e-01  9.9917108626755152e-02  1.0000000000000003e-01  9.9934426384807956e-02  1.0000000000000003e-01  9.9927544190194145e-02  1.0000000000000003e-01  9.9931599729205886e-02  1.0000000000000003e-01  9.9927617180037800e-02  1.0000000000000003e-01  9.9930964588869770e-02  1.0000000000000003e-01  9.9929577175109863e-02  1.0000000000000003e-01  9.9930184773485059e-02  1.0000000000000003e-01  9.9930901779259215e-02  1.0000000000000003e-01  9.9931495631725514e-02  1.0000000000000003e-01  9.9931762744034369e-02  1.0000000000000003e-01  9.9932876381387661e-02  1.0000000000000003e-01  9.9933431235934275e-02  1.0000000000000003e-01  9.9934065959774401e-02  1.0000000000000003e-01  9.9934891571303433e-02  1.0000000000000003e-01  9.9935670777316854e-02  1.0000000000000003e-01  9.9936066512130606e-02  1.0000000000000003e-01  9.9937191216150550e-02  1.0000000000000003e-01  9.9937221460774106e-02  1.0000000000000003e-01  9.9938797998023646e-02  1.0000000000000003e-01  9.9937738744122831e-02  1.0000000000000003e-01  9.9941275135649432e-02  1.0000000000000003e-01  9.9936582586659259e-02  1.0000000000000003e-01  9.9946000281211075e-02  1.0000000000000003e-01  9.9931523034231057e-02  1.0000000000000003e-01  9.9956763794322070e-02  1.0000000000000003e-01  9.9913247039766714e-02  1.0000000000000001e-01  1.0000000000000003e-01  1.0000350433027838e-01  1.0000000000000003e-01  1.0000389866800477e-01  1.0000424721341927e-01  1.0000479097987769e-01  1.0000591252242516e-01  1.0000592811350395e-01  1.0000599724271710e-01  1.0000747494052172e-01  1.0000702912876193e-01  1.0000744018362542e-01  1.0000986444622309e-01  1.0001227625839579e-01  1.0001289571313020e-01  1.0001640890665393e-01  1.0001532989841964e-01  1.0001590005576018e-01  1.0001874124135514e-01  1.0001739539350663e-01  1.0001723794351806e-01  1.0002087852695746e-01  1.0001734661247036e-01  1.0001938694637064e-01  1.0001827187558641e-01  1.0002118017708397e-01  1.0001185389574585e-01  1.0002967977205873e-01  9.9999009081677318e-02  1.0004996774309535e-01  9.9972487899376336e-02  1.0008642626077381e-01  1.0005991878533640e-01  9.9712213527925392e-02  9.9931977387858820e-02  9.9983254433837029e-02  9.9976846081643880e-02  9.9981187114647166e-02  9.9970480488873761e-02  9.9979126279855599e-02  9.9973932704364082e-02  9.9973536953608277e-02  9.9974667253915669e-02  9.9974379996559296e-02  9.9973382769355149e-02  9.9974932063746247e-02  9.9974845042844235e-02  9.9974718389801320e-02  9.9975690907596296e-02  9.9975821353673916e-02  9.9975909564595511e-02  9.9976418331302858e-02  9.9976859941529911e-02  9.9976476217289931e-02  9.9977729663703316e-02  9.9976516782626160e-02  9.9978898126082738e-02  9.9975273450913407e-02  9.9982310291810664e-02  9.9969838848206122e-02  9.9991571479963001e-02  9.9957939221160655e-02  1.0000000000000003e-01  1.0000481022426959e-01  1.0000000000000003e-01  1.0000365414632963e-01  1.0000559094461428e-01  1.0000684497805983e-01  1.0000737130714085e-01  1.0000743715003559e-01  1.0000967639377130e-01  1.0000925217501633e-01  1.0000903224207783e-01  1.0001193803470895e-01  1.0001221727899944e-01  1.0001223395996495e-01  1.0002051967573433e-01  1.0001978634791592e-01  1.0002095722360950e-01  1.0002609891691998e-01  1.0002361845842106e-01  1.0002417351700353e-01  1.0002922664832384e-01  1.0002617083356224e-01  1.0002528881834993e-01  1.0003205004745480e-01  1.0002397410968632e-01  1.0002980404544427e-01  1.0002357390939517e-01  1.0003507241613786e-01  1.0000923492320063e-01  1.0005993607897129e-01  9.9969189090015759e-02  1.0013754329976304e-01  1.0006999309465868e-01  9.9696473500137966e-02  9.9859154239799089e-02  9.9966173596731309e-02  9.9964206595742469e-02  9.9939407817243489e-02  9.9964958123186773e-02  9.9950492672340421e-02  9.9950371685429987e-02  9.9952934706713834e-02  9.9951833436986881e-02  9.9949063971355612e-02  9.9952285117309539e-02  9.9951472469174268e-02  9.9950960583014323e-02  9.9952839899665025e-02  9.9953041234415341e-02  9.9952807279804157e-02  9.9954223734565389e-02  9.9954311947891561e-02  9.9954576614659799e-02  9.9955043963296658e-02  9.9955976086809437e-02  9.9954836979461656e-02  9.9957576823447428e-02  9.9954126086028383e-02  9.9960177612635343e-02  9.9950351187304276e-02  9.9969026903124605e-02  9.9933442331842592e-02  1.0000000000000003e-01  1.0000554330942775e-01  1.0000000000000003e-01  1.0000373303383057e-01  1.0000632189119897e-01  1.0000632809225959e-01  1.0000632457278215e-01  1.0000849790580713e-01  1.0000783140765467e-01  1.0000713933101385e-01  1.0000979321896603e-01  1.0000855875937630e-01  1.0000806426718703e-01  1.0001348337968123e-01  1.0001098739338428e-01  1.0001548066361339e-01  1.0002115861347104e-01  1.0001900092369649e-01  1.0001829808932079e-01  1.0002438982498835e-01  1.0001918573252087e-01  1.0001954695328631e-01  1.0002398210340184e-01  1.0002026793779500e-01  1.0001571425344534e-01  1.0002746737881597e-01  1.0000865804207217e-01  1.0003042392856343e-01  9.9996246623894863e-02  1.0005695058409812e-01  9.9948525662503271e-02  1.0014834461132896e-01  1.0008549842549322e-01  9.9636558558290553e-02  9.9897851078647709e-02  9.9997667258316159e-02  9.9919611723284674e-02  9.9998270342147699e-02  9.9963655413818284e-02  9.9968930491299304e-02  9.9969752334407677e-02  9.9969440308288401e-02  9.9963175515295585e-02  9.9968496855272815e-02  9.9966094420637849e-02  9.9964869708669038e-02  9.9967151967292445e-02  9.9967049569470362e-02  9.9966410142302078e-02  9.9968157643265262e-02  9.9968293953553430e-02  9.9967911558464462e-02  9.9969232271949454e-02  9.9968874120896792e-02  9.9969541788813898e-02  9.9968844381990635e-02  9.9971212884212568e-02  9.9967068266559517e-02  9.9974570675761515e-02  9.9962308072262557e-02  9.9982582398751116e-02  9.9949686356654355e-02  1.0000000000000003e-01  1.0000630288796228e-01  1.0000000000000003e-01  1.0000428457376573e-01  1.0000621477639600e-01  1.0000562906109349e-01  1.0000853177191196e-01  1.0000775947028889e-01  1.0000756796361066e-01  1.0001023905487694e-01  1.0000875567178094e-01  1.0000777887946427e-01  1.0001242143262404e-01  1.0001027965046619e-01  1.0001092966635217e-01  1.0001561820359804e-01  1.0001812246151331e-01  1.0001828641391849e-01  1.0002600297409166e-01  1.0002085865184718e-01  1.0001988004519950e-01  1.0002778072541396e-01  1.0001958755034837e-01  1.0002085580795195e-01  1.0002399212618104e-01  1.0002251164329604e-01  1.0000969634246959e-01  1.0003660191414666e-01  9.9990459010237689e-02  1.0006366684582130e-01  9.9937249413144566e-02  1.0017595536030971e-01  1.0014081349871891e-01  9.9580985880597120e-02  9.9878928907755446e-02  9.9973774858762340e-02  9.9941061712278359e-02  9.9957449298457984e-02  9.9962931101154409e-02  9.9963731987529739e-02  9.9968353152075792e-02  9.9954087200143898e-02  9.9964479065143413e-02  9.9959509464780702e-02  9.9957247559317980e-02  9.9960321770343211e-02  9.9959837370912005e-02  9.9958135749294685e-02  9.9960927602950181e-02  9.9960809243290469e-02  9.9960380082470657e-02  9.9961903759544266e-02  9.9962224470118682e-02  9.9961551321239975e-02  9.9963207056659578e-02  9.9962074548248528e-02  9.9963902703307170e-02  9.9961093335482407e-02  9.9966834878657873e-02  9.9956395786926472e-02  9.9975406197336691e-02  9.9941511743392830e-02  1.0000000000000003e-01  1.0000722131423322e-01  1.0000000000000003e-01  1.0000415690809174e-01  1.0000593201046225e-01  1.0000699628560084e-01  1.0000726675046527e-01  1.0000689461001289e-01  1.0000969668240725e-01  1.0000863676610990e-01  1.0000717037581634e-01  1.0001115108115002e-01  1.0000919249359563e-01  1.0000827058617516e-01  1.0001388558381186e-01  1.0001172696717793e-01  1.0000878448833002e-01  1.0002345190837426e-01  1.0001838577882742e-01  1.0001849834286518e-01  1.0002675352422975e-01  1.0001931342067716e-01  1.0001653728975032e-01  1.0002813498933581e-01  1.0001361705099680e-01  1.0001983649344866e-01  1.0001433468600514e-01  1.0002861400329331e-01  9.9983639496379034e-02  1.0007255515094199e-01  9.9915647494464480e-02  1.0020000576832953e-01  1.0015399956799349e-01  9.9579189259162301e-02  9.9855589817933327e-02  1.0001830742165088e-01  9.9943312742070772e-02  9.9955665605342137e-02  9.9951599928743071e-02  9.9987798267543559e-02  9.9953779607705184e-02  9.9977097749832211e-02  9.9965683575312478e-02  9.9963279199044838e-02  9.9966856659989958e-02  9.9966139226814452e-02  9.9962525921724277e-02  9.9966511784597520e-02  9.9965776875591703e-02  9.9964685598862832e-02  9.9967180491072297e-02  9.9967090357273511e-02  9.9966718676580135e-02  9.9967791778274764e-02  9.9968447910377831e-02  9.9966882889309744e-02  9.9969780505540048e-02  9.9965974862589652e-02  9.9972071077608901e-02  9.9961617761911981e-02  9.9980004825928559e-02  9.9948132189455863e-02  1.0000000000000003e-01  1.0000773503230090e-01  1.0000000000000003e-01  1.0000392521122504e-01  1.0000736355573688e-01  1.0000626886927530e-01  1.0000653304732912e-01  1.0000888188902370e-01  1.0000868106181830e-01  1.0000721040749344e-01  1.0001122160540213e-01  1.0000913356358759e-01  1.0000768661977337e-01  1.0001351933847773e-01  1.0001062949658363e-01  1.0000816326536703e-01  1.0001725898658675e-01  1.0001014283749268e-01  1.0001617205067471e-01  1.0002674097646667e-01  1.0001972562816729e-01  1.0001844821341860e-01  1.0002773022513535e-01  1.0001894880478159e-01  1.0001313296515321e-01  1.0003087614051157e-01  1.0000476678558987e-01  1.0002885118905835e-01  9.9990377520170995e-02  1.0006946002079720e-01  9.9904755869910253e-02  1.0022865450164348e-01  1.0015173767267693e-01  9.9550841011040350e-02  9.9874957223023184e-02  1.0001859925015838e-01  9.9926602696405811e-02  9.9975765707886105e-02  9.9955431344689968e-02  9.9942314362048756e-02  9.9982143352951719e-02  9.9963567063644523e-02  9.9964590089586011e-02  9.9965579424082143e-02  9.9966433926772763e-02  9.9959929797550140e-02  9.9965485352605007e-02  9.9963796745290961e-02  9.9962019248043280e-02  9.9964793830717477e-02  9.9964910451307454e-02  9.9963870262723964e-02  9.9966142197708385e-02  9.9965781702718359e-02  9.9965938500051504e-02  9.9965912336800383e-02  9.9967701081099453e-02  9.9964119850502284e-02  9.9970290071154586e-02  9.9960005514437220e-02  9.9977777512330807e-02  9.9946256906530348e-02  1.0000000000000003e-01  1.0000809882845572e-01  1.0000000000000003e-01  1.0000468170759429e-01  1.0000709586534516e-01  1.0000564051201109e-01  1.0000837136790885e-01  1.0000766687365277e-01  1.0000691928316491e-01  1.0001065189593050e-01  1.0000891365923925e-01  1.0000744951737643e-01  1.0001279618928376e-01  1.0001009965150660e-01  1.0000803657519206e-01  1.0001554991036940e-01  1.0000967224195412e-01  1.0000912730352815e-01  1.0001626652491946e-01  1.0001775102570171e-01  1.0001629842883625e-01  1.0003001001723220e-01  1.0001735902320959e-01  1.0001750843892761e-01  1.0002550717422852e-01  1.0001933760959625e-01  1.0000257431791321e-01  1.0004142718339440e-01  9.9977291432241253e-02  1.0007278973900016e-01  9.9902154648013247e-02  1.0024273443603393e-01  1.0018486509842511e-01  9.9518627075878177e-02  9.9867934018394638e-02  1.0000986269015040e-01  9.9949867098046694e-02  9.9983567927484723e-02  9.9944316258843785e-02  9.9966527643307504e-02  9.9953247350539953e-02  9.9974514904627707e-02  9.9965946449858248e-02  9.9974595376126685e-02  9.9960972164119186e-02  9.9970125217152442e-02  9.9966783162392756e-02  9.9964125308672672e-02  9.9967375189949206e-02  9.9967147135099618e-02  9.9965263988163466e-02  9.9968025447945558e-02  9.9968223580957513e-02  9.9967134376819672e-02  9.9969375672989927e-02  9.9968215237227542e-02  9.9969620779946602e-02  9.9967070733893451e-02  9.9972521625106031e-02  9.9962344876681611e-02  9.9979900066915983e-02  9.9949447714471770e-02  1.0000000000000003e-01  1.0000877652440210e-01  1.0000000000000003e-01  1.0000450563669339e-01  1.0000673275308405e-01  1.0000712584584935e-01  1.0000762705449617e-01  1.0000631323833027e-01  1.0000975156641501e-01  1.0000857310569528e-01  1.0000725226498787e-01  1.0001185219168184e-01  1.0001020288956249e-01  1.0000794801863891e-01  1.0001495678623498e-01  1.0001058976643774e-01  1.0000766706232139e-01  1.0001624781068658e-01  1.0001081541443731e-01  1.0000528295094600e-01  1.0002744390317209e-01  1.0001827170686961e-01  1.0001606734492623e-01  1.0003232188365029e-01  1.0001322001405739e-01  1.0001785763122890e-01  1.0001860984990497e-01  1.0002873369159393e-01  9.9974866946205151e-02  1.0008937594404441e-01  9.9884264232325715e-02  1.0025962004735312e-01  1.0019312825908308e-01  9.9519630006333140e-02  9.9850744385886731e-02  1.0003196571511355e-01  9.9948725555505574e-02  9.9971354336179402e-02  9.9964680966179012e-02  9.9967579608438578e-02  9.9948771942412848e-02  9.9955971778668454e-02  9.9982138188250302e-02  9.9957868275746167e-02  9.9974782787021474e-02  9.9967186751192386e-02  9.9964685985800023e-02  9.9967863151725650e-02  9.9967894727521558e-02  9.9964347980867993e-02  9.9968062221533302e-02  9.9967488400352314e-02  9.9966528318778364e-02  9.9968486876648721e-02  9.9969112811101699e-02  9.9967390691280689e-02  9.9970362405817859e-02  9.9967071869892399e-02  9.9971995856607154e-02  9.9962932375491018e-02  9.9979403648744553e-02  9.9949743425914617e-02  1.0000000000000003e-01  1.0000902659013132e-01  1.0000000000000003e-01  1.0000425008919100e-01  1.0000808350037535e-01  1.0000661263831692e-01  1.0000671514486043e-01  1.0000881515665500e-01  1.0000833714334513e-01  1.0000681584055797e-01  1.0001094539467459e-01  1.0000967797989808e-01  1.0000759715450167e-01  1.0001444398969758e-01  1.0001122875222963e-01  1.0000783397511040e-01  1.0001635618304941e-01  1.0001056257050045e-01  1.0000532042891302e-01  1.0001961903947963e-01  1.0000649012601637e-01  1.0001457411129955e-01  1.0002992201480145e-01  1.0001917662166528e-01  1.0001187480372979e-01  1.0003613152363107e-01  1.0000314227526579e-01  1.0002732950758941e-01  9.9992321803228604e-02  1.0007710431741247e-01  9.9877941909749204e-02  1.0028657821974482e-01  1.0018967004625212e-01  9.9511528143760339e-02  9.9863757768493044e-02  1.0003507573485936e-01  9.9936278209264651e-02  9.9990550021694935e-02  9.9967196960029106e-02  9.9962041392231402e-02  9.9963193908412282e-02  9.9964050429564466e-02  9.9946794356491980e-02  9.9983422875648986e-02  9.9966944159308721e-02  9.9969605611274770e-02  9.9969286525115289e-02  9.9971160746952642e-02  9.9965432232220805e-02  9.9970097805393149e-02  9.9969100865446511e-02  9.9967095845164569e-02  9.9969739474790723e-02  9.9969576372351557e-02  9.9969192939182869e-02  9.9969930685010422e-02  9.9971572683424256e-02  9.9968032022602987e-02  9.9973844508359569e-02  9.9964490368153025e-02  9.9980312556695872e-02  9.9951984798305776e-02  1.0000000000000003e-01  1.0000919561088591e-01  1.0000000000000003e-01  1.0000491494858252e-01  1.0000786833950619e-01  1.0000593898591868e-01  1.0000866332726284e-01  1.0000780968543559e-01  1.0000692571098875e-01  1.0001007135675893e-01  1.0000902228538015e-01  1.0000704450187343e-01  1.0001315765549637e-01  1.0001100117410644e-01  1.0000851813899400e-01  1.0001624986399217e-01  1.0001120920167804e-01  1.0000681710265491e-01  1.0001791721148424e-01  1.0000827696952719e-01  1.0000583722477514e-01  1.0001806997300400e-01  1.0001565367934899e-01  1.0001509594434917e-01  1.0003186094411318e-01  1.0001913214218483e-01  1.0000244899268930e-01  1.0004855214127992e-01  9.9975909212273673e-02  1.0007501558733280e-01  9.9895871111741391e-02  1.0027936459532627e-01  1.0020596012622757e-01  9.9499897122036537e-02  9.9863191610240334e-02  1.0002619482118957e-01  9.9950063727482288e-02  9.9992134185903164e-02  9.9956785838875795e-02  9.9976386587083618e-02  9.9968860487793021e-02  9.9955889439300533e-02  9.9962870509728102e-02  9.9957491054025710e-02  9.9975520263580933e-02  9.9968077160498325e-02  9.9976039888311788e-02  9.9965117830341274e-02  9.9972317590594897e-02  9.9970131622850553e-02  9.9967740181169648e-02  9.9970258643817408e-02  9.9970382867988677e-02  9.9968220784786066e-02  9.9971139672396125e-02  9.9970234671538399e-02  9.9971132477316996e-02  9.9969453815556150e-02  9.9974195878070132e-02  9.9965019011267739e-02  9.9980757674267104e-02  9.9953164835451733e-02  1.0000000000000003e-01  1.0000968513143288e-01  1.0000000000000003e-01  1.0000480874222925e-01  1.0000749092557572e-01  1.0000739604784180e-01  1.0000813873026165e-01  1.0000664361208877e-01  1.0000971288479064e-01  1.0000877257149725e-01  1.0000690843099941e-01  1.0001158073573434e-01  1.0001037238030352e-01  1.0000824888982814e-01  1.0001537673769065e-01  1.0001240992312817e-01  1.0000784452147932e-01  1.0001768666820220e-01  1.0001059185271508e-01  1.0000539521524103e-01  1.0001806024621207e-01  1.0000948644116524e-01  9.9999368761679294e-02  1.0003348577385759e-01  1.0001300795877292e-01  1.0001751373659311e-01  1.0002724603451382e-01  1.0002757037990964e-01  9.9974939849801658e-02  1.0009858124070609e-01  9.9879376997551936e-02  1.0027750933358875e-01  1.0020979309023920e-01  9.9515372801860777e-02  9.9853742754810154e-02  1.0003928553789493e-01  9.9951746333517402e-02  9.9982502458662290e-02  9.9969370087703208e-02  9.9979680944038252e-02  9.9960578812352360e-02  9.9971214424249874e-02  9.9965744527993380e-02  9.9956496018457408e-02  9.9958488184867092e-02  9.9983554487709694e-02  9.9963456657190378e-02  9.9977193364880423e-02  9.9971446878346915e-02  9.9969523541878713e-02  9.9971870046516406e-02  9.9972080395491561e-02  9.9969170832864107e-02  9.9971633687129663e-02  9.9971795494807197e-02  9.9969887485699876e-02  9.9973136691628703e-02  9.9970436627719331e-02  9.9974527001178023e-02  9.9966855378167588e-02  9.9981428854343316e-02  9.9954967555009863e-02  1.0000000000000003e-01  1.0000988536780972e-01  1.0000000000000003e-01  1.0000462426849069e-01  1.0000873197998464e-01  1.0000710562878062e-01  1.0000743598245915e-01  1.0000904520881887e-01  1.0000888918397544e-01  1.0000721860758509e-01  1.0001092914697755e-01  1.0000979185522367e-01  1.0000785406478678e-01  1.0001406580416396e-01  1.0001250057247232e-01  1.0000867948119513e-01  1.0001759818932589e-01  1.0001281700249555e-01  1.0000658104058084e-01  1.0001909509436145e-01  1.0001015629698164e-01  1.0000213862492802e-01  1.0002243838643957e-01  1.0000407399267447e-01  1.0000896122703445e-01  1