<?xml version="1.0"?>
<VTKFile type="UnstructuredGrid"  version="0.1"  >
<UnstructuredGrid>
<Piece  NumberOfPoints="1933" NumberOfCells="3640">
<Points>
<DataArray  type="Float64"  NumberOfComponents="3"  format="ascii">-0.2939874850758784 0.0001618693294342638 0  4.706012557536071 0.0001331239161498265 0  4.706055722092225 7.50013325755024 0  -0.2939443597213974 7.500161934896164 0  9.706012612170701 0.0001042567852228254 0  9.706055870674009 7.500104414203613 0  14.70601274366471 7.520880329749558e-05 0  14.70605612162313 7.500075373030028 0  19.70601302316973 4.597533554909325e-05 0  19.70605650982295 7.500046140187667 0  24.70601351735174 1.65842425136121e-05 0  24.70605706986874 7.500016748128023 0  29.70601428588869 -1.291622338603685e-05 0  29.70605783524659 7.499987247101501 0  34.70601538212253 -4.246407895796092e-05 0  34.70605883773859 7.499957699953254 0  39.70601685477694 -7.198696772398744e-05 0  39.70606010721866 7.499928179406758 0  44.70601874989762 -0.0001014033779149234 0  44.70606167170917 7.499898767140286 0  49.70602111269447 -0.0001306223710158007 0  49.70606355752668 7.499869554195596 0  54.70602398918729 -0.0001595421616930729 0  54.70606578937486 7.499840642460647 0  59.70602742763452 -0.0001880476853812795 0  59.7060683902582 7.499812147126582 0  64.70603147975191 -0.0002160071378586954 0  64.70607138109068 7.499784200148788 0  69.70603620170338 -0.0002432673386690787 0  69.7060747798544 7.499756954860217 0  74.70604165481787 -0.0002696476315252399 0  74.70607860011175 7.499730592010198 0  79.70604790590332 -0.0002949318646203941 0  79.70608284858683 7.499705327651995 0  84.70605502691537 -0.0003188577616400142 0  84.70608752141709 7.499681423496368 0  89.70606309350835 -0.0003411026576144666 0  89.70609259847865 7.499659200610485 0  94.70607218161668 -0.0003612640689940009 0  94.70609803493846 7.49963905769559 0  99.70608236047701 -0.0003788327973175845 0  99.70610374886496 7.49962149564217 0  104.7060936791695 -0.0003931550845337515 0  104.7061096033481 7.499607150630135 0  109.7061061411818 -0.0004033785356719589 0  109.7061153813422 7.499596838609514 0  114.7061196566492 -0.0004083738339860352 0  114.7061207517602 7.499591614228104 0  119.706133952523 -0.0004066204615770625 0  119.7061252273524 7.499592846233197 0  124.7061484027807 -0.0003960398974856441 0  124.7061281213896 7.499602306800737 0  129.7061617054753 -0.0003737561668286643 0  129.7061285274244 7.49962225902667 0  134.7061712642206 -0.0003357706623195703 0  134.7061253889406 7.49965549476503 0  139.7061719934475 -0.0002765963411099815 0  139.7061178267601 7.499705209974416 0  144.7061539748102 -0.0001891893807357418 0  144.7061061336748 7.499774525683169 0  149.7060976818613 -6.695595414327129e-05 0  149.7060944673172 7.499865702084083 0  159.706107373855 8.408246330347618e-19 0  164.705982123563 -0.0001887917605719087 0  164.7060866445756 7.499780710042895 0  159.7061206681468 7.499928471551359 0  169.7059193569052 -0.0003420217388118167 0  169.7060519494142 7.499642672579302 0  174.7058889917036 -0.0004698076365713455 0  174.7060243806885 7.499521858587973 0  179.7058759439736 -0.0005781498677931442 0  179.7060045844021 7.499417114511176 0  184.7058722818707 -0.0006715116858018759 0  184.7059913048467 7.499325721523542 0  189.7058737144278 -0.0007532987993072089 0  189.7059829990091 7.499245049580884 0  194.7058778689451 -0.0008260855570029449 0  194.7059783164646 7.499172912035305 0  199.7058834071492 -0.0008918075931037559 0  199.7059761987096 7.499107578111918 0  204.7058895601621 -0.0009519242299522515 0  204.7059758555127 7.499047699910751 0  209.705895879146 -0.001007545140315719 0  209.7059767105712 7.498992229600029 0  214.7059020991332 -0.001059524313325135 0  214.7059783481566 7.498940348172084 0  219.7059080631799 -0.001108528030699061 0  219.7059804696919 7.498891409544402 0  224.7059136792001 -0.001155083602122995 0  224.7059828610005 7.498844898342004 0  229.7059188948343 -0.001199614348926021 0  229.7059853684917 7.498800398477109 0  234.7059236824808 -0.001242464907937735 0  234.7059878821494 7.49875756982117 0  239.705928030196 -0.001283919744519011 0  239.70599032347 7.498716130806145 0  244.7059319360808 -0.001324216881958753 0  244.7059926369388 7.498675845337109 0  249.7059354048004 -0.001363558230093748 0  249.7059947840127 7.498636512843419 0  254.7059384454713 -0.001402117463635919 0  254.7059967388888 7.498597960633454 0  259.7059410704601 -0.001440046101519365 0  259.705998485545 7.498560037965362 0  264.7059432948526 -0.001477478227240007 0  264.7060000157075 7.498522611429213 0  269.7059451364401 -0.001514534132368911 0  269.7060013275004 7.498485561376578 0  274.7059466161724 -0.001551323033951326 0  274.7060024245848 7.498448779250587 0  279.7059477590613 -0.001587944885661069 0  279.7060033156575 7.498412165781541 0  284.7059485955395 -0.001624491142460156 0  284.7060040141798 7.498375630137176 0  289.705949163241 -0.001661044105282328 0  289.7060045381934 7.498339090270853 0  294.7059495090788 -0.001697674094722143 0  294.7060049101287 7.498302474911818 0  299.7059496910917 -0.001734433059621759 0  299.7060051565209 7.498265727897675 0  304.7059497787466 -0.001771342127805933 0  304.7060053079272 7.498228815839185 0  309.7059498482645 -0.001808368892068176 0  309.7060054003157 7.498191740414244 0  4.706098502418308 15.00013356309088 0  -0.2939015868773844 15.00016209511819 0  9.706098650864215 15.00010476360079 0  14.70609888887739 15.00007572292106 0  19.70609923687839 15.00004647520649 0  24.70609971124733 15.00001706576383 0  29.7061003265208 14.99998755035695 0  34.70610109590076 14.99995799386403 0  39.70610203108023 14.99992846943466 0  44.70610314180002 14.9998990584523 0  49.70610443526557 14.99986985133271 0  54.70610591542414 14.99984094913529 0  59.70610758204084 14.99981246599368 0  64.70610942948298 14.9997845324281 0  69.70611144509665 14.99975729967167 0  74.70611360704578 14.99973094522086 0  79.70611588146248 14.99970567990627 0  84.70611821876372 14.99968175687145 0  89.70612054901817 14.99965948293492 0  94.70612277637913 14.99963923285977 0  99.70612477287906 14.99962146699237 0  104.7061263725352 14.99960675238614 0  109.706127367957 14.99959578655145 0  114.7061275140278 14.99958942066187 0  119.7061265474096 14.9995886740281 0  124.7061242375654 14.99959472132972 0  129.706120495335 14.99960881370754 0  134.7061155776239 14.9996320557644 0  139.7061104330555 14.99966488622365 0  144.7061072019401 14.99970595731502 0  149.7061097057327 14.99974969270099 0  164.7061378797731 14.99969656962365 0  159.706141270381 14.99979440954574 0  169.7061258224011 14.99959278099138 0  174.7061107029384 14.99949245043479 0  179.7060960506284 14.9993996190693 0  184.7060834439613 14.99931515880622 0  189.7060733370283 14.99923856525241 0  194.7060656379082 14.99916886482943 0  199.7060600324436 14.999105014553 0  204.7060561478515 14.99904605806936 0  209.7060536276401 14.99899117253288 0  214.7060521606888 14.99893966990456 0  219.7060514881184 14.99889098157063 0  224.7060514003466 14.99884463883768 0  229.706051730519 14.99880025433792 0  234.7060523472573 14.99875750602008 0  239.7060531479547 14.9987161239841 0  244.7060540530646 14.9986758798831 0  249.7060550014388 14.99863657846854 0  254.7060559466093 14.99859805086149 0  259.7060568538749 14.99856014919986 0  264.7060576980232 14.99852274238746 0  269.7060584615628 14.99848571274861 0  274.7060591333317 14.99844895346014 0  279.7060597073842 14.99841236669577 0  284.7060601820972 14.99837586246965 0  289.7060605594419 14.99833935819535 0  294.706060844541 14.99830277894313 0  299.7060610457262 14.99826605818978 0  304.7060611757518 14.9982291382675 0  309.7060612553338 14.99819196812965 0  4.706140885783697 22.50013417582089 0  -0.2938592016657842 22.50016258492238 0  9.706141008754654 22.50010540581524 0  14.70614118852252 22.50007634768689 0  19.70614143645006 22.50004706404354 0  24.70614175812954 22.50001761580583 0  29.70614215580542 22.49998806640601 0  34.70614262941664 22.49995848380337 0  39.70614317676274 22.49992894166726 0  44.70614379315628 22.49989952045163 0  49.7061444707707 22.49987030872076 0  54.70614519777704 22.49984140490771 0  59.70614595730378 22.49981291961257 0  64.70614672621738 22.49978497852979 0  69.70614747371896 22.49975772609635 0  74.70614815977062 22.49973132996369 0  79.7061487334132 22.49970598639348 0  84.70614913113286 22.49968192664557 0  89.70614927560173 22.4996594243268 0  94.70614907540323 22.4996388034426 0  99.70614842680858 22.49962044642695 0  104.7061472193859 22.49960480053525 0  109.7061453482681 22.49959237934303 0  114.706142737309 22.49958375319674 0  119.7061393789519 22.49957951754399 0  124.7061353977676 22.49958022013174 0  129.7061311434631 22.49958621616886 0  134.7061273115617 22.49959740505192 0  139.7061250673596 22.49961278861523 0  144.7061260958596 22.49962980262035 0  149.7061323964647 22.49964350470286 0  164.7061700443412 22.49960236400713 0  159.7061598231403 22.49966868780755 0  169.7061720627112 22.4995261845183 0  174.7061684788924 22.4994469203781 0  179.7061618591968 22.49936894565438 0  184.706154117178 22.49929457180642 0  189.7061464466391 22.49922471554944 0  194.7061394880803 22.49915949612387 0  199.7061335184952 22.49909863427071 0  204.7061285990756 22.49904168464418 0  209.7061246745957 22.49898815954237 0  214.7061216349626 22.4989375891121 0  219.7061193509867 22.49888954682437 0  224.7061176938392 22.49884365701406 0  229.7061165447083 22.49879959377907 0  234.7061157988231 22.49875707616996 0  239.7061153663949 22.49871586217782 0  244.7061151719862 22.49867574271916 0  249.7061151531582 22.49863653613774 0  254.7061152588805 22.49859808340143 0  259.7061154479247 22.49856024401306 0  264.7061156873763 22.49852289258674 0  269.7061159512891 22.49848591602035 0  274.706116219496 22.49844921119272 0  279.7061164765841 22.49841268311382 0  284.706116711031 22.498376243437 0  289.7061169145659 22.49833980918543 0  294.706117081872 22.4
[...]
<PointData  Scalars="p"> 
<DataArray  type="Float64"  Name="p"  format="ascii">1.0000000000000001e-01  1.0000000000000003e-01  1.0000258759507254e-01  1.0000000000000003e-01  1.0000000000000003e-01  1.0000370448124615e-01  1.0000000000000003e-01  1.0000559150206233e-01  1.0000000000000003e-01  1.0000685825793100e-01  1.0000000000000003e-01  1.0000827564986538e-01  1.0000000000000003e-01  1.0001010234777073e-01  1.0000000000000003e-01  1.0001128351832859e-01  1.0000000000000003e-01  1.0001253885646644e-01  1.0000000000000003e-01  1.0001455336950967e-01  1.0000000000000003e-01  1.0001579765109138e-01  1.0000000000000003e-01  1.0001899357154653e-01  1.0000000000000003e-01  1.0002237549309115e-01  1.0000000000000003e-01  1.0002488680554583e-01  1.0000000000000003e-01  1.0002734249113918e-01  1.0000000000000003e-01  1.0003092994118462e-01  1.0000000000000003e-01  1.0003271119491740e-01  1.0000000000000003e-01  1.0003487921021358e-01  1.0000000000000003e-01  1.0003839624941462e-01  1.0000000000000003e-01  1.0003902713310214e-01  1.0000000000000003e-01  1.0004157716001995e-01  1.0000000000000003e-01  1.0004283014510743e-01  1.0000000000000003e-01  1.0004519032450211e-01  1.0000000000000003e-01  1.0004266881611266e-01  1.0000000000000003e-01  1.0005003522519146e-01  1.0000000000000003e-01  1.0003998205028149e-01  1.0000000000000003e-01  1.0005578163204917e-01  1.0000000000000003e-01  1.0003375192864504e-01  1.0000000000000003e-01  1.0006529371602825e-01  1.0000000000000003e-01  1.0002385769616158e-01  1.0000000000000001e-01  1.0008442467835250e-01  1.0000000000000001e-01  1.0000000000000003e-01  9.9898409641413374e-02  9.9828272404984583e-02  1.0000000000000003e-01  9.9955293993998051e-02  1.0000000000000003e-01  9.9917107974152652e-02  1.0000000000000003e-01  9.9934425265734872e-02  1.0000000000000003e-01  9.9927543324699511e-02  1.0000000000000003e-01  9.9931598852982403e-02  1.0000000000000003e-01  9.9927616409016026e-02  1.0000000000000003e-01  9.9930963773780329e-02  1.0000000000000003e-01  9.9929576462804967e-02  1.0000000000000003e-01  9.9930184069250985e-02  1.0000000000000003e-01  9.9930901098822619e-02  1.0000000000000003e-01  9.9931494993814596e-02  1.0000000000000003e-01  9.9931762133943142e-02  1.0000000000000003e-01  9.9932875786040709e-02  1.0000000000000003e-01  9.9933430676605622e-02  1.0000000000000003e-01  9.9934065421609500e-02  1.0000000000000003e-01  9.9934891049365288e-02  1.0000000000000003e-01  9.9935670281623756e-02  1.0000000000000003e-01  9.9936066033329038e-02  1.0000000000000003e-01  9.9937190753430397e-02  1.0000000000000003e-01  9.9937221013953928e-02  1.0000000000000003e-01  9.9938797570780391e-02  1.0000000000000003e-01  9.9937738319858749e-02  1.0000000000000003e-01  9.9941274742107192e-02  1.0000000000000003e-01  9.9936582174862981e-02  1.0000000000000003e-01  9.9945999932040064e-02  1.0000000000000003e-01  9.9931522606109574e-02  1.0000000000000003e-01  9.9956763524492703e-02  1.0000000000000003e-01  9.9913246504537936e-02  1.0000000000000001e-01  1.0000000000000003e-01  1.0000350431497826e-01  1.0000000000000003e-01  1.0000389864865106e-01  1.0000424719165456e-01  1.0000479095408987e-01  1.0000591249132379e-01  1.0000592807812766e-01  1.0000599720576527e-01  1.0000747489753826e-01  1.0000702908315896e-01  1.0000744013890361e-01  1.0000986439661441e-01  1.0001227621327315e-01  1.0001289566832661e-01  1.0001640885639923e-01  1.0001532984502690e-01  1.0001590000303548e-01  1.0001874117822741e-01  1.0001739532561645e-01  1.0001723787230921e-01  1.0002087844277592e-01  1.0001734652105637e-01  1.0001938684329141e-01  1.0001827176413018e-01  1.0002118006894879e-01  1.0001185375510467e-01  1.0002967971128716e-01  9.9999008982138968e-02  1.0004996776710311e-01  9.9972487904693610e-02  1.0008642666508331e-01  1.0005991615607764e-01  9.9712215140725632e-02  9.9931978697422444e-02  9.9983253802100588e-02  9.9976845792195179e-02  9.9981186932168772e-02  9.9970480401971401e-02  9.9979125973393146e-02  9.9973932601524818e-02  9.9973536786896799e-02  9.9974667050475197e-02  9.9974379844909020e-02  9.9973382616924913e-02  9.9974931877014242e-02  9.9974844895662648e-02  9.9974718239980831e-02  9.9975690743752621e-02  9.9975821211525290e-02  9.9975909423938705e-02  9.9976418182329260e-02  9.9976859807088259e-02  9.9976476081379786e-02  9.9977729529082057e-02  9.9976516648142180e-02  9.9978898005132516e-02  9.9975273309458171e-02  9.9982310192691048e-02  9.9969838681120873e-02  9.9991571437431301e-02  9.9957938983431832e-02  1.0000000000000003e-01  1.0000481020462389e-01  1.0000000000000003e-01  1.0000365412846748e-01  1.0000559091423196e-01  1.0000684494135220e-01  1.0000737126275257e-01  1.0000743710155301e-01  1.0000967633373264e-01  1.0000925210957046e-01  1.0000903217465515e-01  1.0001193795703912e-01  1.0001221720057608e-01  1.0001223388346432e-01  1.0002051959743523e-01  1.0001978626573922e-01  1.0002095714601128e-01  1.0002609882470150e-01  1.0002361836261882e-01  1.0002417342088496e-01  1.0002922653848112e-01  1.0002617071677584e-01  1.0002528869962399e-01  1.0003204991890841e-01  1.0002397398136197e-01  1.0002980390746546e-01  1.0002357378988255e-01  1.0003507235332472e-01  1.0000923471999526e-01  1.0005993625451637e-01  9.9969188693947220e-02  1.0013754371798436e-01  1.0006999208039062e-01  9.9696472691860813e-02  9.9859154685156576e-02  9.9966172273144055e-02  9.9964206153082644e-02  9.9939407426551330e-02  9.9964957217275816e-02  9.9950492347567074e-02  9.9950371185869608e-02  9.9952934149302161e-02  9.9951833018105340e-02  9.9949063554780920e-02  9.9952284628582869e-02  9.9951472081572054e-02  9.9950960191932531e-02  9.9952839482002717e-02  9.9953040873743862e-02  9.9952806925681217e-02  9.9954223368328599e-02  9.9954311617751410e-02  9.9954576292552375e-02  9.9955043636194868e-02  9.9955975786138129e-02  9.9954836679501502e-02  9.9957576537848869e-02  9.9954125796688761e-02  9.9960177362195285e-02  9.9950350891676573e-02  9.9969026716279275e-02  9.9933441955681074e-02  1.0000000000000003e-01  1.0000554328683874e-01  1.0000000000000003e-01  1.0000373301518460e-01  1.0000632186287940e-01  1.0000632805943188e-01  1.0000632453755297e-01  1.0000849786230964e-01  1.0000783135996791e-01  1.0000713928171520e-01  1.0000979316046681e-01  1.0000855869878134e-01  1.0000806421128400e-01  1.0001348331728789e-01  1.0001098732946875e-01  1.0001548061695330e-01  1.0002115855174465e-01  1.0001900086239571e-01  1.0001829802984086e-01  1.0002438974978767e-01  1.0001918565297120e-01  1.0001954687416034e-01  1.0002398201513961e-01  1.0002026784470006e-01  1.0001571416371342e-01  1.0002746730573794e-01  1.0000865796037912e-01  1.0003042390869116e-01  9.9996246500786395e-02  1.0005695086035445e-01  9.9948525003157596e-02  1.0014834579257205e-01  1.0008549768691366e-01  9.9636558662440838e-02  9.9897850402015972e-02  9.9997666798203377e-02  9.9919612257490839e-02  9.9998269131113579e-02  9.9963655464447243e-02  9.9968930107547815e-02  9.9969751917965879e-02  9.9969440056229292e-02  9.9963175277110405e-02  9.9968496467111076e-02  9.9966094186932919e-02  9.9964869444968185e-02  9.9967151651343678e-02  9.9967049326802435e-02  9.9966409898745112e-02  9.9968157368309524e-02  9.9968293727473401e-02  9.9967911332792439e-02  9.9969232034370525e-02  9.9968873909834027e-02  9.9969541585423649e-02  9.9968844168459428e-02  9.9971212700616249e-02  9.9967068067663506e-02  9.9974570518874165e-02  9.9962307864676414e-02  9.9982582303732845e-02  9.9949686101262467e-02  1.0000000000000003e-01  1.0000630286155263e-01  1.0000000000000003e-01  1.0000428455405899e-01  1.0000621474596094e-01  1.0000562903113006e-01  1.0000853172904764e-01  1.0000775942476267e-01  1.0000756791596271e-01  1.0001023899675261e-01  1.0000875560774196e-01  1.0000777881859003e-01  1.0001242136208716e-01  1.0001027957936999e-01  1.0001092960518608e-01  1.0001561812680911e-01  1.0001812239951556e-01  1.0001828635584967e-01  1.0002600290190887e-01  1.0002085857298161e-01  1.0001987997293164e-01  1.0002778063447246e-01  1.0001958745850242e-01  1.0002085571700839e-01  1.0002399204413936e-01  1.0002251155751588e-01  1.0000969625640857e-01  1.0003660191422395e-01  9.9990458850387764e-02  1.0006366705589058e-01  9.9937248744207244e-02  1.0017595660429615e-01  1.0014081184358369e-01  9.9580985563280655e-02  9.9878928885583598e-02  9.9973774567093901e-02  9.9941060773707527e-02  9.9957449303371901e-02  9.9962930608958459e-02  9.9963731360852945e-02  9.9968352761270585e-02  9.9954086936823477e-02  9.9964478499826204e-02  9.9959509175843397e-02  9.9957247219464265e-02  9.9960321343351560e-02  9.9959837055483516e-02  9.9958135435598131e-02  9.9960927232336724e-02  9.9960808949218452e-02  9.9960379790637433e-02  9.9961903441896857e-02  9.9962224199766164e-02  9.9961551054485454e-02  9.9963206783652725e-02  9.9962074298227871e-02  9.9963902470238286e-02  9.9961093088421160e-02  9.9966834678333547e-02  9.9956395547901228e-02  9.9975406058668281e-02  9.9941511454749180e-02  1.0000000000000003e-01  1.0000722128384670e-01  1.0000000000000003e-01  1.0000415688736870e-01  1.0000593198084004e-01  1.0000699625237425e-01  1.0000726671206255e-01  1.0000689456979921e-01  1.0000969663258757e-01  1.0000863671245223e-01  1.0000717032448608e-01  1.0001115101617487e-01  1.0000919242877537e-01  1.0000827053031798e-01  1.0001388551419597e-01  1.0001172690081545e-01  1.0000878442794525e-01  1.0002345185085768e-01  1.0001838571503086e-01  1.0001849829206368e-01  1.0002675345094267e-01  1.0001931334010078e-01  1.0001653722116831e-01  1.0002813490613442e-01  1.0001361697121733e-01  1.0001983641817136e-01  1.0001433463287911e-01  1.0002861397655152e-01  9.9983639331459387e-02  1.0007255540475332e-01  9.9915646761241400e-02  1.0020000704898119e-01  1.0015399896666492e-01  9.9579188100340138e-02  9.9855589826917210e-02  1.0001830624008319e-01  9.9943312733195858e-02  9.9955665386500914e-02  9.9951599577155811e-02  9.9987797757887575e-02  9.9953779559297518e-02  9.9977097067797158e-02  9.9965683428618293e-02  9.9963278917590451e-02  9.9966856253102504e-02  9.9966138978644536e-02  9.9962525673487609e-02  9.9966511428054947e-02  9.9965776637687478e-02  9.9964685352232088e-02  9.9967180195885588e-02  9.9967090129414390e-02  9.9966718451939190e-02  9.9967791526633473e-02  9.9968447704803814e-02  9.9966882681965130e-02  9.9969780301763733e-02  9.9965974666879356e-02  9.9972070920697376e-02  9.9961617561033403e-02  9.9980004727099725e-02  9.9948131961053011e-02  1.0000000000000003e-01  1.0000773499816805e-01  1.0000000000000003e-01  1.0000392519131260e-01  1.0000736352193583e-01  1.0000626883685068e-01  1.0000653301149393e-01  1.0000888184628356e-01  1.0000868101213667e-01  1.0000721036092551e-01  1.0001122154653307e-01  1.0000913350224321e-01  1.0000768656373872e-01  1.0001351927052432e-01  1.0001062942869955e-01  1.0000816320661403e-01  1.0001725891541324e-01  1.0001014275909925e-01  1.0001617200977091e-01  1.0002674090975451e-01  1.0001972556172214e-01  1.0001844815418925e-01  1.0002773015082295e-01  1.0001894871576719e-01  1.0001313290411253e-01  1.0003087606710301e-01  1.0000476671690094e-01  1.0002885114303364e-01  9.9990377413750983e-02  1.0006946015950255e-01  9.9904755199164419e-02  1.0022865570923004e-01  1.0015173707172416e-01  9.9550840631773219e-02  9.9874956352903957e-02  1.0001859888517299e-01  9.9926602603865683e-02  9.9975764908129663e-02  9.9955431094410227e-02  9.9942314519481615e-02  9.9982142452788275e-02  9.9963566950810628e-02  9.9964589752212438e-02  9.9965578992622234e-02  9.9966433657272730e-02  9.9959929560048622e-02  9.9965484950161637e-02  9.9963796506120833e-02  9.9962018989965692e-02  9.9964793504167038e-02  9.9964910212881522e-02  9.9963870024339180e-02  9.9966141921961030e-02  9.9965781481936772e-02  9.9965938285298594e-02  9.9965912101877760e-02  9.9967700889459304e-02  9.9964119650802583e-02  9.9970289898926437e-02  9.9960005320091430e-02  9.9977777406739118e-02  9.9946256681269330e-02  1.0000000000000003e-01  1.0000809879138309e-01  1.0000000000000003e-01  1.0000468168554370e-01  1.0000709583049511e-01  1.0000564048193455e-01  1.0000837132832112e-01  1.0000766683212198e-01  1.0000691924306036e-01  1.0001065184339662e-01  1.0000891360414972e-01  1.0000744946809645e-01  1.0001279612791912e-01  1.0001009958730245e-01  1.0000803652191520e-01  1.0001554984104216e-01  1.0000967216986473e-01  1.0000912725068975e-01  1.0001626644369127e-01  1.0001775097109433e-01  1.0001629838599450e-01  1.0003000995361386e-01  1.0001735895189888e-01  1.0001750838067143e-01  1.0002550711271110e-01  1.0001933752186364e-01  1.0000257427282654e-01  1.0004142714033645e-01  9.9977291316823147e-02  1.0007278981732110e-01  9.9902154133613794e-02  1.0024273537783304e-01  1.0018486385672636e-01  9.9518626799817933e-02  9.9867933904750614e-02  1.0000986238459526e-01  9.9949866373612875e-02  9.9983567679697294e-02  9.9944316247544018e-02  9.9966526930840849e-02  9.9953247497907197e-02  9.9974514479812857e-02  9.9965946064504374e-02  9.9974595067984659e-02  9.9960972028751316e-02  9.9970124785709616e-02  9.9966782974786880e-02  9.9964125089073735e-02  9.9967374869807446e-02  9.9967146924921285e-02  9.9965263782397576e-02  9.9968025175597636e-02  9.9968223386605590e-02  9.9967134181839362e-02  9.9969375451525178e-02  9.9968215055997109e-02  9.9969620613627519e-02  9.9967070544141209e-02  9.9972521488856880e-02  9.9962344709168094e-02  9.9979899977873113e-02  9.9949447526526791e-02  1.0000000000000003e-01  1.0000877648309915e-01  1.0000000000000003e-01  1.0000450561413174e-01  1.0000673271901826e-01  1.0000712581226177e-01  1.0000762701467726e-01  1.0000631320249898e-01  1.0000975151987079e-01  1.0000857305718844e-01  1.0000725221889215e-01  1.0001185213395077e-01  1.0001020283130763e-01  1.0000794797067362e-01  1.0001495671936303e-01  1.0001058969856329e-01  1.0000766700925984e-01  1.0001624773424979e-01  1.0001081534315245e-01  1.0000528288977151e-01  1.0002744385046825e-01  1.0001827164153103e-01  1.0001606731082752e-01  1.0003232181459980e-01  1.0001321994612003e-01  1.0001785757263819e-01  1.0001860981075189e-01  1.0002873360481911e-01  9.9974866873922735e-02  1.0008937597899675e-01  9.9884263802843071e-02  1.0025962072071111e-01  1.0019312763477189e-01  9.9519629257961401e-02  9.9850744296403199e-02  1.0003196479284253e-01  9.9948725422594781e-02  9.9971354198811785e-02  9.9964680291829866e-02  9.9967579485163272e-02  9.9948771774604733e-02  9.9955971535842944e-02  9.9982137753980793e-02  9.9957868223944257e-02  9.9974782246240693e-02  9.9967186619606033e-02  9.9964685772279391e-02  9.9967862815289646e-02  9.9967894531107770e-02  9.9964347793730132e-02  9.9968061929118293e-02  9.9967488216521475e-02  9.9966528132250543e-02  9.9968486638528628e-02  9.9969112639946553e-02  9.9967390518661756e-02  9.9970362219609005e-02  9.9967071709502850e-02  9.9971995726972712e-02  9.9962932208333549e-02  9.9979403569430414e-02  9.9949743253436085e-02  1.0000000000000003e-01  1.0000902654533332e-01  1.0000000000000003e-01  1.0000425006704711e-01  1.0000808346183010e-01  1.0000661260416747e-01  1.0000671510824326e-01  1.0000881511454873e-01  1.0000833709775729e-01  1.0000681579921511e-01  1.0001094534220174e-01  1.0000967792392487e-01  1.0000759710830644e-01  1.0001444393013276e-01  1.0001122869093820e-01  1.0000783392324682e-01  1.0001635611167878e-01  1.0001056249844190e-01  1.0000532037315792e-01  1.0001961896706923e-01  1.0000649004237806e-01  1.0001457408620378e-01  1.0002992195799265e-01  1.0001917655518903e-01  1.0001187477631439e-01  1.0003613145512973e-01  1.0000314221489762e-01  1.0002732944838272e-01  9.9992321755187324e-02  1.0007710425937685e-01  9.9877941616587168e-02  1.0028657866272558e-01  1.0018966946706311e-01  9.9511527988437085e-02  9.9863757163036124e-02  1.0003507540092539e-01  9.9936278153257813e-02  9.9990549330654419e-02  9.9967196840681616e-02  9.9962041271335803e-02  9.9963193427414401e-02  9.9964050208855210e-02  9.9946794533293609e-02  9.9983422183556561e-02  9.9966944101488986e-02  9.9969605363879180e-02  9.9969286220892961e-02  9.9971160556545091e-02  9.9965432084844999e-02  9.9970097509615635e-02  9.9969100708317618e-02  9.9967095676385204e-02  9.9969739241578481e-02  9.9969576214178638e-02  9.9969192786139957e-02  9.9969930492392403e-02  9.9971572548090748e-02  9.9968031879246286e-02  9.9973844378798360e-02  9.9964490233118750e-02  9.9980312490422010e-02  9.9951984649006953e-02  1.0000000000000003e-01  1.0000919556297211e-01  1.0000000000000003e-01  1.0000491492377594e-01  1.0000786829877055e-01  1.0000593895354641e-01  1.0000866328476710e-01  1.0000780964287329e-01  1.0000692567002901e-01  1.0001007130728810e-01  1.0000902223297095e-01  1.0000704445711296e-01  1.0001315759713177e-01  1.0001100111537731e-01  1.0000851809226213e-01  1.0001624979845021e-01  1.0001120913072402e-01  1.0000681704880227e-01  1.0001791713563232e-01  1.0000827688991908e-01  1.0000583717966452e-01  1.0001806988905802e-01  1.0001565362894689e-01  1.0001509591469185e-01  1.0003186089784948e-01  1.0001913205908326e-01  1.0000244898134272e-01  1.0004855206523801e-01  9.9975909138574667e-02  1.0007501552654466e-01  9.9895870918111571e-02  1.0027936477614835e-01  1.0020595910615239e-01  9.9499897058217740e-02  9.9863191512310850e-02  1.0002619454231594e-01  9.9950063161988498e-02  9.9992134004084160e-02  9.9956785773040194e-02  9.9976386043042001e-02  9.9968860323813941e-02  9.9955889394480094e-02  9.9962869991895589e-02  9.9957491175333479e-02  9.9975519911091201e-02  9.9968076882322135e-02  9.9976039644444639e-02  9.9965117742930598e-02  9.9972317264466745e-02  9.9970131488538561e-02  9.9967740030521043e-02  9.9970258404364992e-02  9.9970382720396447e-02  9.9968220642752140e-02  9.9971139476441845e-02  9.9970234534863270e-02  9.9971132352203243e-02  9.9969453657741875e-02  9.9974195777524130e-02  9.9965018888962837e-02  9.9980757607420062e-02  9.9953164706336098e-02  1.0000000000000003e-01  1.0000968507949755e-01  1.0000000000000003e-01  1.0000480871604499e-01  1.0000749088459877e-01  1.0000739601045340e-01  1.0000813868613384e-01  1.0000664357289554e-01  1.0000971283595764e-01  1.0000877252102632e-01  1.0000690838601310e-01  1.0001158067953471e-01  1.0001037232367820e-01  1.0000824884289600e-01  1.0001537667473517e-01  1.0001240985874889e-01  1.0000784447166589e-01  1.0001768659199611e-01  1.0001059177538899e-01  1.0000539516359770e-01  1.0001806016518405e-01  1.0000948636627308e-01  9.9999368716379461e-02  1.0003348572236512e-01  1.0001300789911383e-01  1.0001751371247000e-01  1.0002724599180017e-01  1.0002757027341412e-01  9.9974939832948348e-02  1.0009858114946071e-01  9.9879376818456461e-02  1.0027750939488238e-01  1.0020979252894252e-01  9.9515372370574381e-02  9.9853742712688653e-02  1.0003928482442286e-01  9.9951746234597544e-02  9.9982502339311233e-02  9.9969369586634035e-02  9.9979680804318613e-02  9.9960578759541716e-02  9.9971213926466407e-02  9.9965744440574766e-02  9.9956495866408757e-02  9.9958488051473171e-02  9.9983554130110494e-02  9.9963456639843379e-02  9.9977192960508859e-02  9.9971446795266067e-02  9.9969523398572541e-02  9.9971869806849412e-02  9.9972080262442434e-02  9.9969170714189398e-02  9.9971633479705835e-02  9.9971795376671654e-02  9.9969887363815027e-02  9.9973136539040858e-02  9.9970436514531080e-02  9.9974526913440429e-02  9.9966855253640616e-02  9.9981428806317038e-02  9.9954967445718940e-02  1.0000000000000003e-01  1.0000988531241117e-01  1.0000000000000003e-01  1.0000462424186680e-01  1.0000873193362618e-01  1.0000710558943202e-01  1.0000743593941787e-01  1.0000904516224264e-01  1.0000888913336739e-01  1.0000721856191630e-01  1.0001092909093372e-01  1.0000979179819719e-01  1.0000785401694381e-01  1.0001406574370937e-01  1.0001250050912462e-01  1.0000867943070875e-01  1.0001759811971116e-01  1.0001281692982773e-01  1.0000658098436542e-01  1.0001909501299475e-01  1.0001015621684899e-01  1.0000213857497235e-01  1.0002243831438552e-01  1.0000407390663746e-01  1.0000896122715860e-01  1