<?xml version="1.0"?>
<VTKFile type="UnstructuredGrid"  version="0.1"  >
<UnstructuredGrid>
<Piece  NumberOfPoints="1933" NumberOfCells="3640">
<Points>
<DataArray  type="Float64"  NumberOfComponents="3"  format="ascii">-0.2940026804637154 0.0006867143454640132 0  4.70599733071055 0.0006555967286724555 0  4.706044036988452 7.500655642721874 0  -0.2939559921087674 7.500686728583031 0  9.705997340390878 0.0006244312852236415 0  9.706044093436406 7.50062448980117 0  14.70599737404901 0.0005931828620428362 0  14.70604419328254 7.500593246018294 0  19.70599746250147 0.0005618399629139978 0  19.70604435295474 7.50056190459097 0  24.7059976363689 0.0005304058298615918 0  24.70604458948306 7.500530470898664 0  29.70599792440987 0.0004988932244342687 0  29.7060449201514 7.500498958711638 0  34.70599835347534 0.0004673213528977922 0  34.7060453622468 7.500467387723849 0  39.70599894911401 0.0004357141590500099 0  39.70604593300425 7.500435782126712 0  44.70599973640757 0.0004040995365279626 0  44.70604664970516 7.500404169958233 0  49.70600074086243 0.0003725091950054733 0  49.70604752986432 7.500372583038292 0  54.706001989295 0.0003409790312194355 0  54.70604859144989 7.500341057375937 0  59.70600351069834 0.0003095499364469282 0  59.70604985309033 7.500309633996961 0  64.70600533709873 0.000278269033476678 0  64.70605133422598 7.500278360192657 0  69.70600750441291 0.0002471913897719099 0  69.70605305516075 7.500247291239099 0  74.70601005331829 0.0002163823088635623 0  74.70605503695512 7.500216492687446 0  79.70601303013078 0.0001859203687583607 0  79.70605730107609 7.500186043386873 0  84.70601648766474 0.0001559014662680879 0  84.70605986867997 7.500156039481586 0  89.70602048599635 0.0001264442566163674 0  89.70606275933972 7.50012659973305 0  94.7060250929634 9.769757461252439e-05 0  94.70606598893717 7.500097872672108 0  99.70603038404704 6.985072857598556e-05 0  99.70606956631495 7.500070046300324 0  104.7060364409277 4.314803747375149e-05 0  104.7060734881192 7.500043361351704 0  109.7060433473018 1.790974128751247e-05 0  109.7060777310967 7.50001812949542 0  114.7060511791557 -5.437381531987761e-06 0  114.7060822410516 7.499994758260049 0  119.7060599839271 -2.631446766494349e-05 0  119.7060869180081 7.499973784694839 0  124.7060697374675 -4.392199919114919e-05 0  124.7060915986824 7.499955919305029 0  129.706080256678 -5.713608230193796e-05 0  129.7060960420671 7.499942099235577 0  134.7060910234077 -6.43531877414646e-05 0  134.7060999364056 7.499933542049389 0  139.7061008294456 -6.3269576200795e-05 0  139.7061029772417 7.49993177391572 0  144.7061070538363 -5.063127289950768e-05 0  144.7061051450116 7.499938580573504 0  149.7061041442909 -2.231101742008263e-05 0  149.7061075202974 7.499955878884468 0  159.7061073738537 9.69794167988134e-19 0  164.7060432429687 -8.546585195228247e-05 0  164.7060959767968 7.499901997322625 0  159.7061149480824 7.49996960496254 0  169.7060068883208 -0.0001599040310490176 0  169.7060765438792 7.499833815927992 0  174.7059856435571 -0.0002264910084408762 0  174.7060603233413 7.499770031865643 0  179.7059730378826 -0.0002868639641237027 0  179.706047739934 7.499711106801407 0  184.7059655550859 -0.000342286461903249 0  184.70603832501 7.499656487197469 0  189.7059612070216 -0.0003937775008146065 0  189.7060314397293 7.499605459734276 0  194.7059588311026 -0.0004421393921993631 0  194.7060264987539 7.499557373925077 0  199.7059577245592 -0.0004879929563666364 0  199.7060230253619 7.499511689705622 0  204.7059574479856 -0.0005318163947028934 0  204.7060206497187 7.499467973319144 0  209.7059577172897 -0.0005739797561696721 0  209.7060190908515 7.499425879729515 0  214.7059583428749 -0.0006147722952303159 0  214.7060181368582 7.499385134044787 0  219.7059591945373 -0.000654423047826118 0  219.7060176279533 7.499345515654046 0  224.705960180632 -0.0006931159371521981 0  224.7060174432123 7.499306845694308 0  229.7059612353377 -0.0007310007824797233 0  229.7060174906294 7.499268977465391 0  234.7059623106298 -0.0007682013444114673 0  234.7060176997984 7.499231789183633 0  239.705963371067 -0.0008048212576464023 0  239.706018016564 7.49919517850527 0  244.7059643903179 -0.0008409484628249831 0  244.7060183991125 7.499159058360468 0  249.7059653487891 -0.0008766585680570161 0  249.7060188151093 7.499123353750922 0  254.7059662319914 -0.0009120174407614631 0  254.7060192396015 7.49908799925676 0  259.7059670294076 -0.0009470832387365806 0  259.7060196534728 7.499052937069988 0  264.7059677337374 -0.0009819080240332056 0  264.7060200423178 7.499018115425989 0  269.7059683404239 -0.00101653905437735 0  269.7060203956307 7.498983487346793 0  274.7059688474415 -0.001051019806138114 0  274.7060207062275 7.498949009645944 0  279.7059692553094 -0.001085390741532591 0  279.7060209698582 7.498914642180068 0  284.7059695673597 -0.00111968977989847 0  284.7060211849444 7.498880347373403 0  289.7059697902532 -0.001153952350582288 0  289.7060213524107 7.498846090096645 0  294.7059699347568 -0.001188210760812409 0  294.7060214755487 7.498811838058641 0  299.705970016689 -0.001222492341711271 0  299.7060215598906 7.498777562976967 0  304.7059700577179 -0.001256815307191696 0  304.706021613155 7.498743242925499 0  309.7059700850594 -0.001291180200252455 0  309.706021645686 7.498708866373245 0  4.706090574948167 15.00065575541861 0  -0.2939094586479557 15.00068676623137 0  9.706090636586802 15.00062463114413 0  14.70609074118826 15.00059339457599 0  19.70609089963373 15.00056205174852 0  24.70609112134693 15.00053061436871 0  29.70609141535305 15.00049909922322 0  34.70609179061601 15.00046752737219 0  39.70609225607472 15.00043592357383 0  44.70609282056419 15.00040431606362 0  49.70609349268957 15.00037273670143 0  54.70609428066163 15.00034122147474 0  59.70609519207585 15.00030981135644 0  64.70609623360242 15.00027855353884 0  69.70609741054137 15.00024750309531 0  74.70609872619143 15.00021672515546 0  79.70610018096232 15.00018629772102 0  84.70610177115971 15.00015631529618 0  89.70610348735877 15.00012689356155 0  94.70610531230538 15.00009817537522 0  99.70610721833735 15.00007033842341 0  104.7061091644782 15.0000436048219 0  109.7061110936869 15.00001825278706 0  114.7061129314366 14.99999462993931 0  119.7061145880796 14.99997316642114 0  124.7061159697273 14.99995438290132 0  129.7061170060351 14.99993888187952 0  134.7061177083319 14.9999272968293 0  139.7061182759657 14.99992014464238 0  144.7061192630466 14.99991746121942 0  149.7061217652582 14.99991791851813 0  164.7061277102426 14.99986838421466 0  159.7061308209377 14.9999189453955 0  169.706121038522 14.99981318939417 0  174.706112947269 14.99975747384569 0  179.706104960488 14.9997033660154 0  184.7060978198176 14.99965162001513 0  189.7060917828061 14.99960232797897 0  194.7060868571176 14.99955530975583 0  199.7060829384491 14.99951029695074 0  204.7060798836283 14.99946701319106 0  209.7060775463483 14.99942520548037 0  214.7060757928203 14.99938465349375 0  219.7060745072009 14.99934516952713 0  224.7060735921305 14.9993065949592 0  229.7060729671682 14.99926879581824 0  234.7060725665204 14.99923165851802 0  239.7060723367045 14.99919508613101 0  244.7060722344294 14.99915899526674 0  249.7060722247844 14.99912331350602 0  254.7060722797394 14.99908797730554 0  259.7060723769249 14.99905293028766 0  264.7060724986504 14.99901812184243 0  269.7060726311188 14.99898350598633 0  274.70607276379 14.99894904044104 0  279.7060728888603 14.99891468591236 0  284.7060730008331 14.99888040556697 0  289.7060730961461 14.99884616471336 0  294.7060731728909 14.99881193068222 0  299.7060732306707 14.99877767282998 0  304.706073270799 14.99874336235131 0  309.7060732971998 14.99870897090495 0  4.706136907000646 22.50065599698732 0  -0.2938631267648123 22.50068692895633 0  9.706136960425763 22.50062490410615 0  14.70613704533052 22.50059367380168 0  19.70613716894411 22.5005623260829 0  24.70613733595622 22.50053088077025 0  29.70613754974022 22.5004993590684 0  34.70613781294543 22.50046778426741 0  39.70613812768603 22.50043618211179 0  44.70613849548929 22.50040458113224 0  49.7061389171 22.50037301309167 0  54.70613939218519 22.50034151362338 0  59.70613991895466 22.5003101231101 0  64.70614049369408 22.50027888784598 0  69.70614111019782 22.50024786152746 0  74.70614175909066 22.50021710713036 0  79.70614242703294 22.50018669923977 0  84.70614309582726 22.50015672690331 0  89.70614374148846 22.50012729706715 0  94.70614433341528 22.500098538607 0  99.70614483394282 22.5000706068512 0  104.7061451987745 22.50004368824515 0  109.7061453791472 22.50001800431392 0  114.7061453270869 22.49999381315284 0  119.7061450057654 22.49997140499786 0  124.7061444076188 22.49995108552316 0  129.7061435830336 22.49993313574146 0  134.706142680739 22.49991773017746 0  139.7061419946196 22.4999047859052 0  144.7061419944988 22.49989371016737 0  149.7061432808689 22.49988304509565 0  164.7061552782675 22.49983118597843 0  159.7061509282604 22.49987136040574 0  169.7061562151875 22.49978590256867 0  174.7061546859812 22.49973817790104 0  179.7061517098957 22.49968991797723 0  184.7061480992654 22.49964226244374 0  189.7061443923639 22.49959577915556 0  194.7061409010187 22.4995506816559 0  199.7061377802941 22.49950698778695 0  204.7061350870565 22.4994646180199 0  209.7061328213602 22.49942345136161 0  214.7061309532403 22.49938335515754 0  219.7061294390652 22.49934419989805 0  224.7061282310239 22.49930586579752 0  229.706127282314 22.49926824504761 0  234.7061265497457 22.49923124191066 0  239.7061259948439 22.49919477182119 0  244.7061255841136 22.49915876010414 0  249.7061252888637 22.49912314061471 0  254.7061250848222 22.4990878544419 0  259.706124951664 22.49905284873531 0  264.7061248725291 22.49901807567227 0  269.706124833554 22.4989834915641 0  274.7061248234385 22.49894905609272 0  279.7061248330452 22.49891473166295 0  284.7061248550391 22.49888048284838 0  289.7061248835765 22.4988462758862 0  294.7061249140783 22.4988120781243 0  299.70
[...]
<PointData  Scalars="p"> 
<DataArray  type="Float64"  Name="p"  format="ascii">1.0000000000000001e-01  1.0000000000000003e-01  1.0000258760958983e-01  1.0000000000000003e-01  1.0000000000000003e-01  1.0000370450793729e-01  1.0000000000000003e-01  1.0000559154256396e-01  1.0000000000000003e-01  1.0000685831054300e-01  1.0000000000000003e-01  1.0000827571509285e-01  1.0000000000000003e-01  1.0001010242577821e-01  1.0000000000000003e-01  1.0001128360817249e-01  1.0000000000000003e-01  1.0001253895638530e-01  1.0000000000000003e-01  1.0001455348137109e-01  1.0000000000000003e-01  1.0001579777196495e-01  1.0000000000000003e-01  1.0001899369684823e-01  1.0000000000000003e-01  1.0002237562752649e-01  1.0000000000000003e-01  1.0002488694489292e-01  1.0000000000000003e-01  1.0002734263569453e-01  1.0000000000000003e-01  1.0003093009387655e-01  1.0000000000000003e-01  1.0003271135364356e-01  1.0000000000000003e-01  1.0003487937409408e-01  1.0000000000000003e-01  1.0003839642390902e-01  1.0000000000000003e-01  1.0003902731517550e-01  1.0000000000000003e-01  1.0004157735351671e-01  1.0000000000000003e-01  1.0004283035296235e-01  1.0000000000000003e-01  1.0004519055144544e-01  1.0000000000000003e-01  1.0004266906132060e-01  1.0000000000000003e-01  1.0005003550959961e-01  1.0000000000000003e-01  1.0003998232702180e-01  1.0000000000000003e-01  1.0005578202614504e-01  1.0000000000000003e-01  1.0003375218846554e-01  1.0000000000000003e-01  1.0006529422426864e-01  1.0000000000000003e-01  1.0002385784070966e-01  1.0000000000000001e-01  1.0008442518169003e-01  1.0000000000000001e-01  1.0000000000000003e-01  9.9898410722153747e-02  9.9828270491088958e-02  1.0000000000000003e-01  9.9955295585178183e-02  1.0000000000000003e-01  9.9917108591286330e-02  1.0000000000000003e-01  9.9934426327437459e-02  1.0000000000000003e-01  9.9927544145533384e-02  1.0000000000000003e-01  9.9931599684516870e-02  1.0000000000000003e-01  9.9927617141377656e-02  1.0000000000000003e-01  9.9930964547862530e-02  1.0000000000000003e-01  9.9929577139623471e-02  1.0000000000000003e-01  9.9930184738923483e-02  1.0000000000000003e-01  9.9930901745843431e-02  1.0000000000000003e-01  9.9931495600707118e-02  1.0000000000000003e-01  9.9931762714817518e-02  1.0000000000000003e-01  9.9932876352920863e-02  1.0000000000000003e-01  9.9933431209499657e-02  1.0000000000000003e-01  9.9934065934707036e-02  1.0000000000000003e-01  9.9934891547110355e-02  1.0000000000000003e-01  9.9935670754616124e-02  1.0000000000000003e-01  9.9936066490523112e-02  1.0000000000000003e-01  9.9937191195401689e-02  1.0000000000000003e-01  9.9937221441014093e-02  1.0000000000000003e-01  9.9938797979344948e-02  1.0000000000000003e-01  9.9937738725797490e-02  1.0000000000000003e-01  9.9941275118787476e-02  1.0000000000000003e-01  9.9936582569341029e-02  1.0000000000000003e-01  9.9946000266562945e-02  1.0000000000000003e-01  9.9931523016623280e-02  1.0000000000000003e-01  9.9956763783235064e-02  1.0000000000000003e-01  9.9913247017960352e-02  1.0000000000000001e-01  1.0000000000000003e-01  1.0000350432786363e-01  1.0000000000000003e-01  1.0000389866654082e-01  1.0000424721190140e-01  1.0000479097830718e-01  1.0000591252095843e-01  1.0000592811199981e-01  1.0000599724120891e-01  1.0000747493915922e-01  1.0000702912732636e-01  1.0000744018225234e-01  1.0000986444516677e-01  1.0001227625757500e-01  1.0001289571216267e-01  1.0001640890608256e-01  1.0001532989728361e-01  1.0001590005457608e-01  1.0001874124035906e-01  1.0001739539170218e-01  1.0001723794133208e-01  1.0002087852516371e-01  1.0001734660918550e-01  1.0001938694283294e-01  1.0001827187176611e-01  1.0002118017404420e-01  1.0001185388850314e-01  1.0002967977440767e-01  9.9999009074694334e-02  1.0004996775429813e-01  9.9972487894010781e-02  1.0008642630215847e-01  1.0005991866990135e-01  9.9712213523804299e-02  9.9931977447622611e-02  9.9983254403525290e-02  9.9976846067190900e-02  9.9981187106355118e-02  9.9970480486464411e-02  9.9979126265388824e-02  9.9973932700369944e-02  9.9973536947195338e-02  9.9974667244786028e-02  9.9974379990143553e-02  9.9973382763475629e-02  9.9974932055531748e-02  9.9974845036702314e-02  9.9974718383921746e-02  9.9975690900606276e-02  9.9975821347838750e-02  9.9975909559072859e-02  9.9976418325118166e-02  9.9976859936093190e-02  9.9976476211951354e-02  9.9977729658227404e-02  9.9976516777286875e-02  9.9978898121335924e-02  9.9975273445363527e-02  9.9982310287946158e-02  9.9969838841817496e-02  9.9991571478420666e-02  9.9957939211982968e-02  1.0000000000000003e-01  1.0000481022064550e-01  1.0000000000000003e-01  1.0000365414475561e-01  1.0000559094197076e-01  1.0000684497595221e-01  1.0000737130488142e-01  1.0000743714768305e-01  1.0000967639140820e-01  1.0000925217266969e-01  1.0000903223955690e-01  1.0001193803246541e-01  1.0001221727677014e-01  1.0001223395766899e-01  1.0002051967453368e-01  1.0001978634600649e-01  1.0002095722170587e-01  1.0002609891550930e-01  1.0002361845590062e-01  1.0002417351429195e-01  1.0002922664636307e-01  1.0002617083008701e-01  1.0002528881434460e-01  1.0003205004522914e-01  1.0002397410515686e-01  1.0002980404177693e-01  1.0002357390620432e-01  1.0003507241915836e-01  1.0000923491088660e-01  1.0005993610319555e-01  9.9969189057048990e-02  1.0013754335357652e-01  1.0006999308655740e-01  9.9696473319411477e-02  9.9859154240034192e-02  9.9966173528241928e-02  9.9964206572062564e-02  9.9939407797801708e-02  9.9964958076638355e-02  9.9950492655906609e-02  9.9950371661977996e-02  9.9952934678814429e-02  9.9951833416493691e-02  9.9949063952315328e-02  9.9952285093483223e-02  9.9951472450721668e-02  9.9950960565345276e-02  9.9952839879893951e-02  9.9953041217724067e-02  9.9952807264096388e-02  9.9954223717765592e-02  9.9954311933079881e-02  9.9954576600648021e-02  9.9955043948804043e-02  9.9955976073723404e-02  9.9954836966761468e-02  9.9957576811221777e-02  9.9954126074009456e-02  9.9960177602308159e-02  9.9950351175496915e-02  9.9969026895577948e-02  9.9933442317347826e-02  1.0000000000000003e-01  1.0000554330473889e-01  1.0000000000000003e-01  1.0000373303166571e-01  1.0000632188810148e-01  1.0000632808972798e-01  1.0000632456990344e-01  1.0000849790315727e-01  1.0000783140500868e-01  1.0000713932803801e-01  1.0000979321635360e-01  1.0000855875673977e-01  1.0000806426445247e-01  1.0001348337775612e-01  1.0001098739104312e-01  1.0001548066200110e-01  1.0002115861229013e-01  1.0001900092172884e-01  1.0001829808698920e-01  1.0002438982363746e-01  1.0001918572939981e-01  1.0001954695015042e-01  1.0002398210159498e-01  1.0002026793455138e-01  1.0001571424923839e-01  1.0002746737990167e-01  1.0000865803750428e-01  1.0003042393362577e-01  9.9996246614786857e-02  1.0005695061485718e-01  9.9948525607268190e-02  1.0014834471957690e-01  1.0008549845699614e-01  9.9636558388581639e-02  9.9897851005502719e-02  9.9997667241432719e-02  9.9919611744681905e-02  9.9998270280122967e-02  9.9963655415572977e-02  9.9968930473799816e-02  9.9969752313013541e-02  9.9969440295826634e-02  9.9963175505313445e-02  9.9968496835986118e-02  9.9966094409436435e-02  9.9964869697240319e-02  9.9967151952030833e-02  9.9967049558112378e-02  9.9966410131777234e-02  9.9968157630394183e-02  9.9968293943290376e-02  9.9967911548801802e-02  9.9969232261209975e-02  9.9968874111644665e-02  9.9969541780238536e-02  9.9968844372793755e-02  9.9971212876463211e-02  9.9967068258576736e-02  9.9974570669347534e-02  9.9962308064354383e-02  9.9982582395158837e-02  9.9949686347589869e-02  1.0000000000000003e-01  1.0000630288212205e-01  1.0000000000000003e-01  1.0000428457128835e-01  1.0000621477259203e-01  1.0000562905809600e-01  1.0000853176846780e-01  1.0000775946719805e-01  1.0000756796015216e-01  1.0001023905169565e-01  1.0000875566831921e-01  1.0000777887593940e-01  1.0001242142973983e-01  1.0001027964730462e-01  1.0001092966334396e-01  1.0001561820123954e-01  1.0001812245942508e-01  1.0001828641139737e-01  1.0002600297275190e-01  1.0002085864867936e-01  1.0001988004187860e-01  1.0002778072376678e-01  1.0001958754621920e-01  1.0002085580425953e-01  1.0002399212495398e-01  1.0002251164145276e-01  1.0000969633698331e-01  1.0003660192320872e-01  9.9990458995971254e-02  1.0006366687472810e-01  9.9937249353772323e-02  1.0017595548149576e-01  1.0014081349381393e-01  9.9580985664574073e-02  9.9878928858425184e-02  9.9973774859819522e-02  9.9941061648228219e-02  9.9957449296913164e-02  9.9962931077291178e-02  9.9963731953810295e-02  9.9968353131707807e-02  9.9954087188930923e-02  9.9964479036204354e-02  9.9959509450309986e-02  9.9957247544291458e-02  9.9960321749077166e-02  9.9959837355620029e-02  9.9958135735486411e-02  9.9960927585043616e-02  9.9960809229513739e-02  9.9960380069729390e-02  9.9961903744749447e-02  9.9962224457901441e-02  9.9961551309819860e-02  9.9963207044465582e-02  9.9962074537488760e-02  9.9963902693614853e-02  9.9961093325240141e-02  9.9966834870498136e-02  9.9956395777931889e-02  9.9975406191976576e-02  9.9941511733413049e-02  1.0000000000000003e-01  1.0000722130738819e-01  1.0000000000000003e-01  1.0000415690524055e-01  1.0000593200586064e-01  1.0000699628214110e-01  1.0000726674679108e-01  1.0000689460625004e-01  1.0000969667871994e-01  1.0000863676252329e-01  1.0000717037188107e-01  1.0001115107746873e-01  1.0000919249001185e-01  1.0000827058249158e-01  1.0001388558084617e-01  1.0001172696392958e-01  1.0000878448460604e-01  1.0002345190728502e-01  1.0001838577575395e-01  1.0001849833990416e-01  1.0002675352271123e-01  1.0001931341661491e-01  1.0001653728549906e-01  1.0002813498860988e-01  1.0001361704615330e-01  1.0001983649099062e-01  1.0001433468463405e-01  1.0002861400805563e-01  9.9983639478908856e-02  1.0007255518736032e-01  9.9915647422806980e-02  1.0020000590144321e-01  1.0015399963194496e-01  9.9579188968348900e-02  9.9855589770121073e-02  1.0001830737509923e-01  9.9943312724453393e-02  9.9955665596981699e-02  9.9951599902852309e-02  9.9987798241068751e-02  9.9953779607196397e-02  9.9977097714006091e-02  9.9965683567370220e-02  9.9963279187311405e-02  9.9966856639109120e-02  9.9966139214409167e-02  9.9962525911404754e-02  9.9966511766879415e-02  9.9965776864178055e-02  9.9964685588430857e-02  9.9967180476930720e-02  9.9967090346794699e-02  9.9966718667155938e-02  9.9967791766787009e-02  9.9968447901374644e-02  9.9966882880877364e-02  9.9969780496794003e-02  9.9965974854772141e-02  9.9972071071593310e-02  9.9961617754597457e-02  9.9980004822423280e-02  9.9948132182452715e-02  1.0000000000000003e-01  1.0000773502449409e-01  1.0000000000000003e-01  1.0000392520793991e-01  1.0000736355048676e-01  1.0000626886552962e-01  1.0000653304286745e-01  1.0000888188515573e-01  1.0000868105779544e-01  1.0000721040324645e-01  1.0001122160138012e-01  1.0000913355965046e-01  1.0000768661530052e-01  1.0001351933490941e-01  1.0001062949282045e-01  1.0000816326108258e-01  1.0001725898380369e-01  1.0001014283326146e-01  1.0001617204786398e-01  1.0002674097494653e-01  1.0001972562442564e-01  1.0001844820950642e-01  1.0002773022372133e-01  1.0001894880004283e-01  1.0001313296030456e-01  1.0003087614197419e-01  1.0000476677898026e-01  1.0002885119215668e-01  9.9990377508345316e-02  1.0006946004936332e-01  9.9904755795860001e-02  1.0022865464337065e-01  1.0015173775759316e-01  9.9550840742410329e-02  9.9874957115785229e-02  1.0001859924926620e-01  9.9926602679596618e-02  9.9975765664806954e-02  9.9955431321877022e-02  9.9942314371326543e-02  9.9982143304433321e-02  9.9963567056316677e-02  9.9964590075178106e-02  9.9965579401273125e-02  9.9966433912861155e-02  9.9959929788004637e-02  9.9965485332227488e-02  9.9963796733546745e-02  9.9962019237214886e-02  9.9964793814783792e-02  9.9964910440106497e-02  9.9963870252763168e-02  9.9966142184845327e-02  9.9965781692893316e-02  9.9965938491258607e-02  9.9965912326579698e-02  9.9967701073131188e-02  9.9964119842905388e-02  9.9970290064346795e-02  9.9960005507684802e-02  9.9977777508772875e-02  9.9946256900054820e-02  1.0000000000000003e-01  1.0000809881970522e-01  1.0000000000000003e-01  1.0000468170396941e-01  1.0000709585955293e-01  1.0000564050763482e-01  1.0000837136306626e-01  1.0000766686945176e-01  1.0000691927863839e-01  1.0001065189157617e-01  1.0000891365493446e-01  1.0000744951276540e-01  1.0001279618523723e-01  1.0001009964717190e-01  1.0000803657060936e-01  1.0001554990686425e-01  1.0000967223747027e-01  1.0000912729914825e-01  1.0001626652164682e-01  1.0001775102258371e-01  1.0001629842498254e-01  1.0003001001627800e-01  1.0001735901813570e-01  1.0001750843473861e-01  1.0002550717324503e-01  1.0001933760563046e-01  1.0000257431087094e-01  1.0004142719162480e-01  9.9977291413817088e-02  1.0007278976533650e-01  9.9902154581093763e-02  1.0024273456918005e-01  1.0018486514805652e-01  9.9518626815383010e-02  9.9867933944961781e-02  1.0000986270566388e-01  9.9949867039916721e-02  9.9983567913343063e-02  9.9944316255431570e-02  9.9966527600676688e-02  9.9953247351912466e-02  9.9974514886626328e-02  9.9965946427866506e-02  9.9974595359457158e-02  9.9960972160038269e-02  9.9970125194664514e-02  9.9966783152755298e-02  9.9964125300037787e-02  9.9967375173852471e-02  9.9967147124950861e-02  9.9965263979949939e-02  9.9968025434865604e-02  9.9968223572115211e-02  9.9967134369076074e-02  9.9969375663007315e-02  9.9968215229652949e-02  9.9969620773653026e-02  9.9967070726384416e-02  9.9972521620087532e-02  9.9962344871463951e-02  9.9979900064085275e-02  9.9949447709972952e-02  1.0000000000000003e-01  1.0000877651476597e-01  1.0000000000000003e-01  1.0000450563279649e-01  1.0000673274653595e-01  1.0000712584105265e-01  1.0000762704926335e-01  1.0000631323349034e-01  1.0000975156148630e-01  1.0000857310127741e-01  1.0000725225998722e-01  1.0001185218703582e-01  1.0001020288515777e-01  1.0000794801377441e-01  1.0001495678182495e-01  1.0001058976187933e-01  1.0000766705727614e-01  1.0001624780682380e-01  1.0001081540973678e-01  1.0000528294541136e-01  1.0002744390220877e-01  1.0001827170235554e-01  1.0001606734064228e-01  1.0003232188329261e-01  1.0001322000762876e-01  1.0001785762769266e-01  1.0001860984825175e-01  1.0002873369223989e-01  9.9974866927354578e-02  1.0008937597538130e-01  9.9884264160260361e-02  1.0025962017377162e-01  1.0019312834254511e-01  9.9519629703439694e-02  9.9850744324760599e-02  1.0003196569120103e-01  9.9948725525770291e-02  9.9971354338759769e-02  9.9964680920665752e-02  9.9967579596198675e-02  9.9948771932700450e-02  9.9955971760936166e-02  9.9982138163790021e-02  9.9957868276006237e-02  9.9974782758049399e-02  9.9967186743620068e-02  9.9964685977841056e-02  9.9967863134245979e-02  9.9967894717595721e-02  9.9964347973853007e-02  9.9968062207020578e-02  9.9967488391706855e-02  9.9966528311560401e-02  9.9968486865546005e-02  9.9969112803667395e-02  9.9967390684850069e-02  9.9970362397924464e-02  9.9967071863925519e-02  9.9971995852305345e-02  9.9962932370149152e-02  9.9979403646525189e-02  9.9949743422467943e-02  1.0000000000000003e-01  1.0000902657969618e-01  1.0000000000000003e-01  1.0000425008488441e-01  1.0000808349319430e-01  1.0000661263321350e-01  1.0000671513887541e-01  1.0000881515135349e-01  1.0000833713821082e-01  1.0000681583526973e-01  1.0001094538959573e-01  1.0000967797510814e-01  1.0000759714917393e-01  1.0001444398499335e-01  1.0001122874759077e-01  1.0000783396937363e-01  1.0001635617856355e-01  1.0001056256552532e-01  1.0000532042288605e-01  1.0001961903625857e-01  1.0000649011996231e-01  1.0001457410763427e-01  1.0002992201357182e-01  1.0001917661666163e-01  1.0001187479820904e-01  1.0003613152549420e-01  1.0000314226549722e-01  1.0002732950885555e-01  9.9992321790776523e-02  1.0007710433959816e-01  9.9877941838611872e-02  1.0028657834831302e-01  1.0018967015191439e-01  9.9511527865590227e-02  9.9863757667283809e-02  1.0003507574027115e-01  9.9936278196249520e-02  9.9990549987118954e-02  9.9967196942234673e-02  9.9962041389418707e-02  9.9963193875722681e-02  9.9964050411043975e-02  9.9946794366118891e-02  9.9983422838126196e-02  9.9966944154052134e-02  9.9969605601670675e-02  9.9969286508532151e-02  9.9971160736723824e-02  9.9965432227274456e-02  9.9970097790239715e-02  9.9969100857678711e-02  9.9967095838843223e-02  9.9969739463505652e-02  9.9969576365215668e-02  9.9969192933552664e-02  9.9969930676578903e-02  9.9971572678060533e-02  9.9968032017932765e-02  9.9973844503634363e-02  9.9964490364454636e-02  9.9980312555285569e-02  9.9951984796073062e-02  1.0000000000000003e-01  1.0000919559963466e-01  1.0000000000000003e-01  1.0000491494391296e-01  1.0000786833181254e-01  1.0000593898019539e-01  1.0000866332069371e-01  1.0000780967984690e-01  1.0000692570498691e-01  1.0001007135108843e-01  1.0000902228000370e-01  1.0000704449627684e-01  1.0001315765011094e-01  1.0001100116903386e-01  1.0000851813328117e-01  1.0001624985893581e-01  1.0001120919609896e-01  1.0000681709637149e-01  1.0001791720696909e-01  1.0000827696354625e-01  1.0000583721876258e-01  1.0001806996965962e-01  1.0001565367460420e-01  1.0001509593980497e-01  1.0003186094342532e-01  1.0001913213665743e-01  1.0000244898411388e-01  1.0004855214950611e-01  9.9975909189592024e-02  1.0007501560973957e-01  9.9895871048242962e-02  1.0027936471233967e-01  1.0020596019473312e-01  9.9499896872743562e-02  9.9863191530619677e-02  1.0002619484697105e-01  9.9950063676461989e-02  9.9992134176070863e-02  9.9956785835968051e-02  9.9976386554279081e-02  9.9968860470403959e-02  9.9955889438330836e-02  9.9962870475668861e-02  9.9957491054586969e-02  9.9975520248784838e-02  9.9968077143888293e-02  9.9976039874414696e-02  9.9965117828585442e-02  9.9972317573200173e-02  9.9970131615657792e-02  9.9967740175874217e-02  9.9970258631685391e-02  9.9970382860910548e-02  9.9968220779758962e-02  9.9971139663237757e-02  9.9970234665861218e-02  9.9971132473180263e-02  9.9969453809475958e-02  9.9974195874811961e-02  9.9965019008540226e-02  9.9980757672686008e-02  9.9953164834363825e-02  1.0000000000000003e-01  1.0000968511942679e-01  1.0000000000000003e-01  1.0000480873729105e-01  1.0000749091715788e-01  1.0000739604156564e-01  1.0000813872331372e-01  1.0000664360571797e-01  1.0000971287816358e-01  1.0000877256556319e-01  1.0000690842470944e-01  1.0001158072960901e-01  1.0001037237485434e-01  1.0000824888373597e-01  1.0001537673182292e-01  1.0001240991768746e-01  1.0000784451495183e-01  1.0001768666231824e-01  1.0001059184668459e-01  1.0000539520839785e-01  1.0001806024144733e-01  1.0000948643519822e-01  9.9999368754486034e-02  1.0003348577401419e-01  1.0001300795117282e-01  1.0001751373311855e-01  1.0002724603176635e-01  1.0002757037803819e-01  9.9974939827355475e-02  1.0009858127235857e-01  9.9879376921979290e-02  1.0027750945100043e-01  1.0020979317419351e-01  9.9515372521429390e-02  9.9853742700035622e-02  1.0003928552705815e-01  9.9951746302988059e-02  9.9982502467931694e-02  9.9969370051646689e-02  9.9979680930769255e-02  9.9960578811748635e-02  9.9971214391895241e-02  9.9965744515554414e-02  9.9956496010630114e-02  9.9958488172323584e-02  9.9983554466745547e-02  9.9963456658741262e-02  9.9977193342541015e-02  9.9971446872805625e-02  9.9969523537057042e-02  9.9971870033655180e-02  9.9972080388512616e-02  9.9969170828969278e-02  9.9971633676834259e-02  9.9971795489429818e-02  9.9969887481716271e-02  9.9973136684983158e-02  9.9970436623807835e-02  9.9974526998993785e-02  9.9966855374873070e-02  9.9981428853713389e-02  9.9954967555045460e-02  1.0000000000000003e-01  1.0000988535512913e-01  1.0000000000000003e-01  1.0000462426316077e-01  1.0000873197087938e-01  1.0000710562216975e-01  1.0000743597471295e-01  1.0000904520179162e-01  1.0000888917705730e-01  1.0000721860069195e-01  1.0001092914000612e-01  1.0000979184899675e-01  1.0000785405809445e-01  1.0001406579774576e-01  1.0001250056661386e-01  1.0000867947425805e-01  1.0001759818292945e-01  1.0001281699646918e-01  1.0000658103269433e-01  1.0001909508843981e-01  1.0001015629055365e-01  1.0000213861715006e-01  1.0002243838271924e-01  1.0000407398563736e-01  1.0000896122107765e-01  1