<?xml version="1.0"?>
<VTKFile type="UnstructuredGrid"  version="0.1"  >
<UnstructuredGrid>
<Piece  NumberOfPoints="1933" NumberOfCells="3640">
<Points>
<DataArray  type="Float64"  NumberOfComponents="3"  format="ascii">-0.2935412669748424 -0.003304997734190358 0  4.70645879485265 -0.003217215162432976 0  4.70632708979695 7.49678292324011 0  -0.2936729888359979 7.496695115176378 0  9.706458903317397 -0.003129531270564846 0  9.706327215921711 7.496870607549499 0  14.70645911104826 -0.003041923240785733 0  14.7063274061866 7.496958209313526 0  19.70645945872678 -0.00295433716081473 0  19.70632767264149 7.497045788372703 0  24.70645997389623 -0.002866704248172261 0  24.70632802270064 7.497133415251296 0  29.70646067286481 -0.002778947987820378 0  29.70632845857314 7.497221166756335 0  34.70646156291613 -0.002690986929722043 0  34.70632897683159 7.49730912414751 0  39.70646264401732 -0.002602735250828484 0  39.70632956805705 7.497397372920947 0  44.70646390986295 -0.002514102080600122 0  44.7063302163977 7.497486003596428 0  49.70646534827883 -0.002424990063573783 0  49.70633089889443 7.497575113176322 0  54.70646694103692 -0.002335293357938953 0  54.70633158445727 7.497664807129222 0  59.70646866309749 -0.002244895110907766 0  59.70633223237793 7.497755201873477 0  64.70647048124491 -0.002153664345767587 0  64.70633279024231 7.497846427824335 0  69.70647235200261 -0.002061452106919485 0  69.70633319106916 7.497938633144125 0  74.70647421862415 -0.001968086614950644 0  74.70633334942748 7.498031988412276 0  79.70647600680515 -0.001873367064143849 0  79.70633315618669 7.498126692523751 0  84.70647761854447 -0.001777055528136325 0  84.70633247142274 7.498222980237787 0  89.70647892320734 -0.00167886619769831 0  89.70633111481197 7.498321131938744 0  94.70647974422661 -0.001578450820261335 0  94.70632885262597 7.498421486328013 0  99.70647983877731 -0.00147537869602915 0  99.70632538020982 7.498524456897611 0  104.7064788658318 -0.001369108861626887 0  104.7063202986759 7.498630553021746 0  109.7064763344786 -0.001258951148501463 0  109.7063130848019 7.49874040602694 0  114.7064715179823 -0.00114401179022061 0  114.7063030544594 7.498854798931639 0  119.7064633071935 -0.00102311883685871 0  119.70628932395 7.498974694011029 0  124.7064499549248 -0.0008947249950393946 0  124.7062707840232 7.499101241309774 0  129.7064286219676 -0.0007567972119533092 0  129.7062461257718 7.499235726100093 0  134.706394559187 -0.0006067432063021622 0  134.7062140123426 7.499379359448036 0  139.7063396169799 -0.0004415594764277632 0  139.7061736093208 7.499532711346308 0  144.706249494575 -0.0002588478326880832 0  144.7061259434282 7.49969443168641 0  149.7060985256324 -6.112756688802998e-05 0  149.7060771414 7.499858969895782 0  159.7061073738525 8.486626478178763e-19 0  164.7060950673819 -7.877090826785842e-05 0  164.7061074870089 7.499900774871799 0  159.7061009941557 7.49995308763059 0  169.7061117368335 -0.0001140919096547703 0  169.7061136056953 7.49987603927987 0  174.7061394342692 -0.000119292202182651 0  174.7061225751013 7.499875736678539 0  179.706170033247 -0.0001028148463404719 0  179.7061340915726 7.499894656017715 0  184.7061998990796 -7.048710754349892e-05 0  184.7061471314738 7.499928246968289 0  189.7062275160828 -2.642612832169928e-05 0  189.7061607476533 7.499972974505049 0  194.706252370578 2.642728025211837e-05 0  194.7061742466325 7.500026183818317 0  199.7062744127633 8.594912580171902e-05 0  199.7061871776218 7.500085896813101 0  204.7062937958965 0.0001505851519382495 0  204.7061992758765 7.500150635291583 0  209.7063107505906 0.0002191814684848306 0  209.706210406153 7.500219285662554 0  214.7063255253821 0.000290868571583759 0  214.7062205182243 7.500291000102177 0  219.7063383598162 0.000364981558774952 0  219.7062296151262 7.500365125560815 0  224.7063494734078 0.0004410047199631695 0  224.7062377316339 7.500441152924655 0  229.7063590622541 0.0005185325593958771 0  229.7062449201616 7.500518680443327 0  234.7063672992381 0.0005972419700318264 0  234.7062512417875 7.500597387187737 0  239.7063743358247 0.0006768720638617544 0  239.7062567607091 7.500677013576444 0  244.7063803044928 0.0007572093357603089 0  244.706261540972 7.500757346925268 0  249.7063853213462 0.0008380766096635034 0  249.7062656446856 7.50083821061307 0  254.7063894887218 0.0009193247262465291 0  254.7062691312159 7.500919455899077 0  259.7063928977237 0.001000826275936837 0  259.7062720570079 7.501000955735074 0  264.706395630703 0.001082470923081309 0  264.7062744758214 7.501082600137199 0  269.7063977636998 0.001164162049502023 0  269.7062764392206 7.501164292850214 0  274.7063993689045 0.001245814600115745 0  274.7062779971969 7.50124594917635 0  279.706400517155 0.001327354166648535 0  279.7062791988276 7.50132749497089 0  284.7064012804515 0.001408717524493605 0  284.7062800928594 7.50140886694248 0  289.706401734312 0.001489855073010608 0  289.7062807280941 7.501490014547121 0  294.7064019595521 0.001570735951963964 0  294.7062811534965 7.501570903931009 0  299.7064020424272 0.001651357019176904 0  299.7062814180135 7.501651524539037 0  304.7064020708796 0.001731757202272615 0  304.7062815705467 7.501731899131796 0  309.7064021219501 0.001812037912438239 0  309.7062816616117 7.501812098215875 0  4.706195176300833 14.99678320598696 0  -0.2938048991955546 14.99669538635228 0  9.706195271485155 14.99687085799149 0  14.70619539358004 14.9969584178884 0  19.70619554229624 14.9970459574568 0  24.70619571319516 14.99713355010926 0  29.70619589829313 14.99722127211447 0  34.70619608565423 14.99730920303547 0  39.70619625863301 14.99739742635353 0  44.70619639496252 14.99748603049212 0  49.70619646570053 14.99757511025163 0  54.70619643398161 14.99766476864009 0  59.70619625349875 14.99775511911163 0  64.70619586663337 14.99784628826052 0  69.70619520214694 14.99793841905416 0  74.70619417235754 14.99803167471979 0  79.70619266974089 14.99812624341919 0  84.70619056295867 14.99822234384135 0  89.70618769244257 14.99832023178568 0  94.70618386594525 14.99842020763158 0  99.70617885498707 14.99852262417178 0  104.7061723941461 14.99862789337704 0  109.7061641868993 14.99873648879825 0  114.7061539248018 14.99884893664348 0  119.7061413317279 14.99896578159208 0  124.7061262522625 14.99908750063211 0  129.7061088125755 14.99921431590912 0  134.7060896892264 14.99934582132494 0  139.7060705120445 14.99948028495962 0  144.7060543603794 14.99961342350932 0  149.7060460746154 14.99973634055686 0  164.7060819351452 14.99984379319008 0  159.7060748926689 14.9998500056998 0  169.7060839188143 14.99984566186398 0  174.7060847923787 14.99985987297458 0  179.7060863720543 14.99988659688092 0  184.7060891807322 14.9999243668023 0  189.706093143084 14.9999713227751 0  194.7060979679946 15.00002570919577 0  199.706103329403 15.00008603077696 0  204.7061089400202 15.00015106968617 0  209.7061145733259 15.00021985361208 0  214.706120062936 15.00029161193978 0  219.7061252936121 15.00036573412802 0  224.7061301904593 15.00044173463241 0  229.7061347089898 15.00051922485193 0  234.7061388269429 15.00059789123236 0  239.7061425379221 15.00067747835383 0  244.7061458466286 15.00075777590944 0  249.7061487653862 15.00083860867977 0  254.7061513116568 15.00091982881031 0  259.7061535063041 15.00100130988097 0  264.7061553723895 15.00108294240165 0  269.706156934355 15.00116463048952 0  274.7061582174608 15.00124628957988 0  279.7061592473925 15.00132784510333 0  284.706160050012 15.00140923212255 0  289.7061606512553 15.0014903959507 0  294.7061610773832 15.00157129373596 0  299.7061613559509 15.00165189682658 0  304.7061615183474 15.00173219329263 0  309.7061616054 15.00181218902805 0  4.706063236329528 22.49678368961997 0  -0.2939368325014138 22.49669595079647 0  9.70606330074931 22.49687124762641 0  14.70606335792839 22.49695871411245 0  19.70606340106183 22.49704616746175 0  24.70606342021879 22.49713368212663 0  29.70606340271296 22.49722133235802 0  34.70606333288846 22.49730919425064 0  39.70606319155303 22.49739734713701 0  44.70606295523147 22.49748587484244 0  49.7060625953277 22.49757486702731 0  54.70606207722677 22.49766442071016 0  59.70606135935261 22.4977546420105 0  64.70606039220225 22.49784564812863 0  69.7060591174087 22.49793756956034 0  74.70605746694325 22.49803055251474 0  79.7060553626653 22.49812476143999 0  84.70605271658255 22.49822038144026 0  89.70604943243498 22.49831762014001 0  94.70604540959712 22.49841670814537 0  99.70604055085998 22.49851789653781 0  104.7060347764639 22.49862144862179 0  109.7060280478143 22.49872762112775 0  114.7060204055137 22.49883662685146 0  119.7060120272445 22.4989485658437 0  124.7060033105252 22.4990633055902 0  129.7059949808931 22.49918028317531 0  134.7059882128039 22.49929819887416 0  139.7059847203116 22.49941458513985 0  144.7059867172697 22.49952530556287 0  149.7059965612956 22.49962426830675 0  164.7060266018835 22.49977808597504 0  159.7060215907746 22.49975226371289 0  169.706027078632 22.49980401120476 0  174.7060251210637 22.49983457391363 0  179.7060224062238 22.49987180576443 0  184.7060199466813 22.4999161150377 0  189.7060182187311 22.49996705627034 0  194.7060173580883 22.50002382939667 0  199.7060173157959 22.50008555234547 0  204.7060179594776 22.50015139083263 0  209.7060191317552 22.50022060939423 0  214.7060206805533 22.50029258285166 0  219.7060224726656 22.50036678984257 0  224.7060243980837 22.50044279956439 0  229.7060263696347 22.50052025710548 0  234.7060283205279 22.50059886972056 0  239.7060302012022 22.50067839490854 0  244.7060319761793 22.50075863044769 0  249.7060336212243 22.5008394062475 0  254.7060351209319 22.50092057777735 0  259.7060364667151 22.50100202082534 0  264.7060376551809 22.50108362736867 0  269.7060386868115 22.50116530237704 0  274.706039564926 22.50124696140545 0  279.7060402948916 22.5013285288534 0  284.706040883613 22.50140993675817 0  289.7060413393911 22.50149112393218 0  294.7060416723572 22.50157203510684 0  299.7060418957874 22.5016526194
[...]
<PointData  Scalars="p"> 
<DataArray  type="Float64"  Name="p"  format="ascii">1.0000000000000001e-01  1.0000000000000003e-01  9.9996279288146486e-02  1.0000000000000003e-01  1.0000000000000003e-01  9.9996371144708024e-02  1.0000000000000003e-01  9.9994517289408641e-02  1.0000000000000003e-01  9.9993884709902017e-02  1.0000000000000003e-01  9.9992605731432385e-02  1.0000000000000003e-01  9.9990003063918448e-02  1.0000000000000003e-01  9.9989203091397305e-02  1.0000000000000003e-01  9.9987422610497881e-02  1.0000000000000003e-01  9.9984441853294304e-02  1.0000000000000003e-01  9.9984948344813904e-02  1.0000000000000003e-01  9.9975753220773192e-02  1.0000000000000003e-01  9.9972296740543184e-02  1.0000000000000003e-01  9.9967493753917988e-02  1.0000000000000003e-01  9.9964054578529943e-02  1.0000000000000003e-01  9.9955705269006351e-02  1.0000000000000003e-01  9.9952660108107522e-02  1.0000000000000003e-01  9.9946046982843650e-02  1.0000000000000003e-01  9.9936088517193350e-02  1.0000000000000003e-01  9.9932729913590521e-02  1.0000000000000003e-01  9.9921854823919909e-02  1.0000000000000003e-01  9.9914927921152710e-02  1.0000000000000003e-01  9.9902627478571718e-02  1.0000000000000003e-01  9.9903554921014728e-02  1.0000000000000003e-01  9.9874233292455261e-02  1.0000000000000003e-01  9.9897778913224364e-02  1.0000000000000003e-01  9.9838707769507748e-02  1.0000000000000003e-01  9.9901746172170069e-02  1.0000000000000003e-01  9.9791186449677285e-02  1.0000000000000003e-01  9.9919744375375250e-02  1.0000000000000001e-01  9.9713646885756027e-02  1.0000000000000001e-01  1.0000000000000003e-01  1.0019940753741223e-01  1.0044706441081627e-01  1.0000000000000003e-01  1.0004302067891728e-01  1.0000000000000003e-01  1.0015489093150257e-01  1.0000000000000003e-01  1.0009156119690311e-01  1.0000000000000003e-01  1.0010891699991974e-01  1.0000000000000003e-01  1.0009217607875583e-01  1.0000000000000003e-01  1.0009805792964757e-01  1.0000000000000003e-01  1.0008383256707692e-01  1.0000000000000003e-01  1.0008509869820360e-01  1.0000000000000003e-01  1.0007978461569317e-01  1.0000000000000003e-01  1.0007537076784728e-01  1.0000000000000003e-01  1.0007220072481256e-01  1.0000000000000003e-01  1.0006997275213364e-01  1.0000000000000003e-01  1.0006589154739028e-01  1.0000000000000003e-01  1.0006400239671012e-01  1.0000000000000003e-01  1.0006196925636453e-01  1.0000000000000003e-01  1.0005948514295339e-01  1.0000000000000003e-01  1.0005783799319169e-01  1.0000000000000003e-01  1.0005663491226874e-01  1.0000000000000003e-01  1.0005461954530240e-01  1.0000000000000003e-01  1.0005398695166291e-01  1.0000000000000003e-01  1.0005216726904165e-01  1.0000000000000003e-01  1.0005240717551925e-01  1.0000000000000003e-01  1.0004916557222314e-01  1.0000000000000003e-01  1.0005262859446369e-01  1.0000000000000003e-01  1.0004465510271755e-01  1.0000000000000003e-01  1.0005611064805112e-01  1.0000000000000003e-01  1.0003544065163118e-01  1.0000000000000003e-01  1.0007041077356367e-01  1.0000000000000001e-01  1.0000000000000003e-01  9.9993117708140261e-02  1.0000000000000003e-01  9.9993607036611615e-02  9.9993214937481756e-02  9.9992324227216073e-02  9.9989700032560927e-02  9.9989991331687969e-02  9.9989357310394794e-02  9.9985415610649372e-02  9.9987478085191456e-02  9.9985720379264106e-02  9.9983196326947549e-02  9.9972827635045891e-02  9.9977147465138194e-02  9.9966844221318615e-02  9.9971821576825576e-02  9.9967063707253626e-02  9.9959042438155177e-02  9.9960786376856542e-02  9.9957060998411520e-02  9.9944430018096803e-02  9.9951102134628031e-02  9.9938854522175394e-02  9.9939018765545465e-02  9.9925358615309448e-02  9.9946982878874782e-02  9.9890454492615632e-02  9.9981255131193839e-02  9.9820615730808845e-02  1.0006600586270557e-01  9.9710215222584567e-02  9.9798425750950576e-02  1.0066041562809697e-01  1.0021656738151541e-01  1.0002839321797016e-01  1.0006051006207936e-01  1.0004846060761609e-01  1.0007043201767971e-01  1.0004070534243376e-01  1.0005444849867810e-01  1.0004927505407360e-01  1.0004278016177608e-01  1.0004212577840076e-01  1.0004207798002743e-01  1.0003571119773691e-01  1.0003547241847982e-01  1.0003445801757736e-01  1.0003083307732519e-01  1.0003007056603304e-01  1.0002927821785182e-01  1.0002693466672900e-01  1.0002596582382463e-01  1.0002559488972487e-01  1.0002327350286941e-01  1.0002363137799072e-01  1.0002104402115515e-01  1.0002305860784227e-01  1.0001673696932169e-01  1.0002621321710430e-01  1.0000795490381943e-01  1.0003457608815766e-01  1.0000000000000003e-01  9.9989471571948360e-02  1.0000000000000003e-01  9.9993282550762924e-02  9.9990153193801057e-02  9.9987544253245755e-02  9.9987335129308241e-02  9.9986628176084599e-02  9.9980968725270208e-02  9.9982414097362610e-02  9.9981762399091581e-02  9.9975657403351070e-02  9.9974024346020665e-02  9.9979985611932651e-02  9.9951206823710795e-02  9.9963168196668367e-02  9.9956594248556019e-02  9.9944909239247925e-02  9.9950128724646592e-02  9.9943729245119295e-02  9.9927540715184462e-02  9.9932663380859252e-02  9.9926584367791699e-02  9.9903513822494225e-02  9.9920276904410243e-02  9.9892996098324777e-02  9.9906477260980814e-02  9.9866532597397806e-02  9.9933956861667131e-02  9.9783866607754318e-02  1.0005578505582050e-01  9.9547227447631198e-02  9.9881123612416495e-02  1.0057402397029104e-01  1.0031591821554656e-01  1.0006114122708387e-01  1.0008381832064346e-01  1.0013428553710689e-01  1.0005730868529993e-01  1.0010056435801748e-01  1.0008784222600918e-01  1.0007508733799543e-01  1.0007593286317620e-01  1.0007759209234776e-01  1.0006457763305578e-01  1.0006580327983262e-01  1.0006419863696493e-01  1.0005697378451610e-01  1.0005609982938346e-01  1.0005526708616061e-01  1.0005032865976632e-01  1.0004953760933480e-01  1.0004834536683672e-01  1.0004549809253531e-01  1.0004389314463452e-01  1.0004387481542984e-01  1.0003995488036860e-01  1.0004187520677782e-01  1.0003601139376306e-01  1.0004282326898048e-01  1.0002679803584703e-01  1.0005473410196754e-01  1.0000000000000003e-01  9.9987159670313824e-02  1.0000000000000003e-01  9.9991960253167006e-02  9.9985877607005280e-02  9.9986774890268471e-02  9.9985903126048201e-02  9.9979870941840049e-02  9.9981381697569732e-02  9.9980708367395657e-02  9.9973233494568561e-02  9.9976210311907884e-02  9.9976172517808326e-02  9.9959899517966022e-02  9.9976815564496793e-02  9.9951288226012069e-02  9.9947242118375565e-02  9.9951224856459950e-02  9.9950325409809929e-02  9.9930789020332811e-02  9.9942793200603619e-02  9.9932498992174032e-02  9.9916681856892300e-02  9.9921365250767655e-02  9.9922869483974497e-02  9.9885110524748619e-02  9.9931606158444111e-02  9.9859675026947398e-02  9.9955748737743197e-02  9.9779940364883718e-02  1.0009285069571092e-01  9.9521592846025145e-02  9.9890254223527403e-02  1.0071898314908684e-01  1.0020132304377023e-01  1.0002636653072743e-01  1.0022810895654762e-01  9.9996020335336971e-02  1.0011268054143249e-01  1.0007836053979249e-01  1.0007106291282324e-01  1.0006954612772370e-01  1.0007850212152206e-01  1.0005725286053571e-01  1.0006269944272021e-01  1.0006128212753607e-01  1.0005162714792462e-01  1.0005109946589381e-01  1.0005071154949535e-01  1.0004390030876674e-01  1.0004329649765462e-01  1.0004255022241526e-01  1.0003805520620423e-01  1.0003743995569965e-01  1.0003580645056787e-01  1.0003396926017304e-01  1.0003095493816429e-01  1.0003313130761476e-01  1.0002531419734334e-01  1.0003413732540115e-01  1.0001647494641157e-01  1.0004193660816507e-01  1.0000000000000003e-01  9.9984792176593493e-02  1.0000000000000003e-01  9.9989281580154715e-02  9.9985175400544787e-02  9.9985959916490924e-02  9.9978990186415054e-02  9.9980701562216764e-02  9.9979305642610580e-02  9.9970975950215188e-02  9.9974285398015991e-02  9.9974206911470354e-02  9.9959981188651459e-02  9.9968361262394625e-02  9.9960532433451113e-02  9.9959758184328576e-02  9.9939915534326282e-02  9.9947780715306064e-02  9.9924551055141086e-02  9.9939853441807017e-02  9.9932380193658243e-02  9.9908358210740358e-02  9.9925373643154680e-02  9.9909947076238279e-02  9.9895447131336898e-02  9.9893497367346262e-02  9.9913920821165070e-02  9.9837510120062409e-02  9.9957662241877548e-02  9.9750909332757445e-02  1.0010617734710062e-01  9.9447114869889539e-02  9.9764021490046428e-02  1.0080751314893453e-01  1.0027081067193837e-01  1.0010137989340680e-01  1.0011627647191688e-01  1.0013715918462578e-01  1.0009488307282641e-01  1.0008853474283727e-01  1.0007835563738500e-01  1.0010640474200265e-01  1.0006749985558130e-01  1.0008076372487566e-01  1.0007901576358244e-01  1.0006512132356647e-01  1.0006555507258778e-01  1.0006641362092246e-01  1.0005558334173487e-01  1.0005551985029321e-01  1.0005481056373550e-01  1.0004851103443861e-01  1.0004740409648462e-01  1.0004689995795306e-01  1.0004204339267017e-01  1.0004183035128580e-01  1.0003901684804067e-01  1.0003885967443757e-01  1.0003282617089289e-01  1.0003994612874062e-01  1.0002271062848656e-01  1.0004894669222082e-01  1.0000000000000003e-01  9.9982001133172876e-02  1.0000000000000003e-01  9.9989025113944835e-02  9.9983988395278972e-02  9.9980648346265438e-02  9.9980042834167115e-02  9.9979519794722110e-02  9.9971020822969575e-02  9.9973159405971831e-02  9.9973376338739178e-02  9.9961278584712640e-02  9.9966080397149909e-02  9.9963392109757104e-02  9.9950746140595279e-02  9.9953092448763756e-02  9.9969461799615758e-02  9.9913013218677377e-02  9.9942142241301810e-02  9.9931369312888887e-02  9.9910650357378963e-02  9.9926070664071720e-02  9.9921456209089002e-02  9.9885094315541503e-02  9.9918126771525950e-02  9.9886775292479912e-02  9.9894341107943790e-02  9.9853495816736124e-02  9.9957232288041001e-02  9.9726226966596790e-02  1.0014460252410419e-01  9.9388279411393610e-02  9.9790236644756891e-02  1.0076788142843748e-01  1.0033365264013994e-01  9.9990846652461593e-02  1.0015679950101279e-01  1.0012637396623507e-01  1.0013662092896802e-01  1.0004664694427065e-01  1.0013330913280757e-01  1.0005454008596523e-01  1.0008991193118913e-01  1.0008428965434890e-01  1.0006721664586289e-01  1.0006786340288568e-01  1.0007210766600660e-01  1.0005648585973650e-01  1.0005807214499227e-01  1.0005775665702168e-01  1.0004851777056510e-01  1.0004807822175650e-01  1.0004761237549793e-01  1.0004183248746570e-01  1.0004038268628773e-01  1.0004039333527463e-01  1.0003467381045716e-01  1.0003642869336432e-01  1.0002989425389808e-01  1.0003612934553617e-01  1.0001957408523542e-01  1.0004401532081349e-01  1.0000000000000003e-01  9.9980484696280805e-02  1.0000000000000003e-01  9.9988533155769430e-02  9.9979225844031169e-02  9.9981418210663933e-02  9.9979308748203904e-02  9.9971993752539151e-02  9.9972868673397358e-02  9.9973080505157921e-02  9.9961108594710413e-02  9.9966137580185827e-02  9.9964287428724874e-02  9.9948279397807441e-02  9.9954922639833965e-02  9.9958768120315761e-02  9.9929105045151137e-02  9.9964376123619553e-02  9.9920661513666381e-02  9.9909389437787599e-02  9.9924615708655309e-02  9.9920316057420883e-02  9.9889933637352712e-02  9.9909982541670633e-02  9.9908232993968435e-02  9.9856568882305749e-02  9.9916922896851695e-02  9.9842758290974609e-02  9.9931852956355927e-02  9.9737649662416203e-02  1.0014576399928787e-01  9.9334190916873871e-02  9.9815146564551566e-02  1.0083432406710655e-01  1.0026511947786503e-01  1.0002937864688645e-01  1.0020047235364939e-01  1.0007459479542215e-01  1.0011680101957424e-01  1.0017482021613079e-01  1.0004297246431723e-01  1.0010675677773645e-01  1.0009056655020900e-01  1.0007912022738487e-01  1.0007481980859406e-01  1.0008548835270965e-01  1.0006296602550734e-01  1.0006685550276123e-01  1.0006750446855867e-01  1.0005585757221307e-01  1.0005498325888598e-01  1.0005527572894456e-01  1.0004698854482211e-01  1.0004654483686541e-01  1.0004523288692563e-01  1.0004104026372033e-01  1.0003819402327659e-01  1.0003956891480967e-01  1.0003153522853669e-01  1.0003835043229459e-01  1.0002197578901083e-01  1.0004582777790111e-01  1.0000000000000003e-01  9.9979076048548068e-02  1.0000000000000003e-01  9.9986021612656698e-02  9.9979503672569664e-02  9.9981140976299052e-02  9.9972934743344052e-02  9.9974271767619555e-02  9.9973352749806829e-02  9.9962453347577140e-02  9.9966455595860745e-02  9.9965983303232211e-02  9.9949683902976622e-02  9.9956075934516830e-02  9.9956316299474338e-02  9.9933513073862126e-02  9.9952580636620381e-02  9.9940353025563380e-02  9.9938979425555366e-02  9.9911560888782072e-02  9.9925249458318016e-02  9.9884219312046621e-02  9.9919625337897319e-02  9.9902281340904300e-02  9.9875898803858026e-02  9.9888104032774039e-02  9.9911038547886771e-02  9.9810129132644032e-02  9.9962505668508644e-02  9.9724331350847850e-02  1.0013621871009412e-01  9.9323142878688306e-02  9.9736093376078749e-02  1.0090338758455690e-01  1.0030415949510647e-01  1.0006502989619818e-01  1.0013969138038879e-01  1.0008403938371313e-01  1.0016261608381677e-01  1.0008211800435211e-01  1.0014589964269356e-01  1.0007558585019138e-01  1.0009316569520726e-01  1.0006875103148793e-01  1.0009939102639122e-01  1.0006324747831143e-01  1.0007239572866755e-01  1.0007325308647355e-01  1.0005873962110837e-01  1.0005880230831775e-01  1.0006064557799840e-01  1.0004920275751827e-01  1.0004866904650983e-01  1.0004870283315315e-01  1.0004134240610933e-01  1.0004111329770694e-01  1.0003865236671793e-01  1.0003689737448700e-01  1.0003079375278190e-01  1.0003742598402041e-01  1.0002035326957585e-01  1.0004365127980415e-01  1.0000000000000003e-01  9.9977070423075728e-02  1.0000000000000003e-01  9.9986339480483466e-02  9.9979225355742177e-02  9.9976376932273014e-02  9.9974535055529751e-02  9.9974942674438780e-02  9.9964617782570889e-02  9.9966998005406801e-02  9.9967053861224411e-02  9.9953362082174660e-02  9.9957066545237838e-02  9.9957354123862863e-02  9.9936609755503558e-02  9.9948646960936444e-02  9.9946512806650414e-02  9.9926102195871128e-02  9.9933899401757884e-02  9.9958972516949268e-02  9.9872601715901940e-02  9.9919078639319828e-02  9.9907849217810818e-02  9.9866688133595546e-02  9.9911019880325316e-02  9.9882714063282113e-02  9.9870042123465189e-02  9.9848724161994154e-02  9.9955443201536057e-02  9.9688340433196784e-02  1.0017070472763649e-01  9.9297654951028561e-02  9.9738676116694069e-02  1.0088231814788523e-01  1.0034985533491041e-01  1.0000491082841576e-01  1.0016210542991334e-01  1.0012792153710258e-01  1.0010330693953710e-01  1.0010543973581627e-01  1.0013399014870690e-01  1.0012538591091610e-01  1.0005288654282733e-01  1.0011903582513750e-01  1.0005922718834442e-01  1.0008215895094139e-01  1.0008025744846905e-01  1.0006429241887548e-01  1.0006309731108350e-01  1.0006815522588818e-01  1.0005348916605354e-01  1.0005417153457279e-01  1.0005407486409443e-01  1.0004520058826268e-01  1.0004374361566934e-01  1.0004426770845737e-01  1.0003685011387402e-01  1.0003819670439817e-01  1.0003244759030155e-01  1.0003669531094285e-01  1.0002125747051928e-01  1.0004383572812556e-01  1.0000000000000003e-01  9.9976273969355392e-02  1.0000000000000003e-01  9.9986373301923587e-02  9.9975287004419280e-02  9.9977718053631134e-02  9.9975032899460747e-02  9.9967570691982338e-02  9.9968130664298688e-02  9.9968335859328711e-02  9.9955801330633712e-02  9.9959655228107069e-02  9.9959648706502952e-02  9.9940095791457587e-02  9.9948630623385562e-02  9.9949229382366847e-02  9.9925357301357043e-02  9.9938181024131947e-02  9.9946298945444309e-02  9.9899163269297292e-02  9.9957247471044189e-02  9.9893023837217362e-02  9.9875471680059641e-02  9.9900020728624694e-02  9.9905997940155589e-02  9.9837247836140966e-02  9.9917517604083239e-02  9.9842684945299659e-02  9.9911705027961192e-02  9.9730294161729627e-02  1.0016706833031644e-01  9.9254353999139178e-02  9.9759978009735933e-02  1.0091333174839676e-01  1.0030859926946610e-01  1.0001546305859081e-01  1.0020260018800274e-01  1.0007429664006981e-01  1.0011998219667764e-01  1.0012870712556694e-01  1.0010085096388659e-01  1.0009303508455226e-01  1.0015579644202101e-01  1.0004116025220340e-01  1.0009456896215940e-01  1.0007861618886414e-01  1.0007187065302246e-01  1.0006437626296963e-01  1.0007510648334436e-01  1.0005536901019488e-01  1.0005736908736626e-01  1.0005922724359684e-01  1.0004819347626902e-01  1.0004688147597236e-01  1.0004672292209890e-01  1.0003995910992798e-01  1.0003739771816747e-01  1.0003890117378400e-01  1.0003015028610687e-01  1.0003616928185427e-01  1.0002106657062693e-01  1.0004213556860832e-01  1.0000000000000003e-01  9.9975624335691224e-02  1.0000000000000003e-01  9.9984571953188592e-02  9.9976167649473369e-02  9.9978449272962649e-02  9.9969665833522667e-02  9.9970667547497061e-02  9.9969653028831443e-02  9.9959208150799866e-02  9.9961699861328246e-02  9.9962540761001861e-02  9.9945092630644453e-02  9.9951171729983496e-02  9.9951459746109500e-02  9.9928938059412983e-02  9.9941043808123034e-02  9.9943617838802318e-02  9.9909612613461291e-02  9.9939860225201682e-02  9.9925278354415795e-02  9.9916926764285152e-02  9.9890313671265940e-02  9.9902613785677885e-02  9.9852162756504576e-02  9.9891712076037545e-02  9.9908231099962594e-02  9.9793602342441612e-02  9.9962760569999878e-02  9.9729557485076406e-02  1.0011803816266873e-01  9.9298462493001130e-02  9.9708540261603099e-02  1.0097014342365714e-01  1.0031901674544229e-01  1.0004786955810040e-01  1.0015900446736828e-01  1.0008459381722298e-01  1.0015372418900435e-01  1.0009033888846550e-01  1.0009992794624516e-01  1.0012732530825652e-01  1.0008407586881495e-01  1.0012309623838604e-01  1.0006609867320693e-01  1.0008334392961714e-01  1.0005969486139153e-01  1.0008567716310565e-01  1.0005636326171906e-01  1.0006181861966107e-01  1.0006360075081414e-01  1.0005107038846736e-01  1.0005037508155767e-01  1.0005253252548704e-01  1.0004166483883188e-01  1.0004146120436054e-01  1.0003969628823677e-01  1.0003614914982401e-01  1.0003060137492145e-01  1.0003667327914945e-01  1.0002032023119178e-01  1.0004151472033863e-01  1.0000000000000003e-01  9.9974248936873303e-02  1.0000000000000003e-01  9.9985079625237075e-02  9.9976540349316689e-02  9.9974602677093391e-02  9.9971680366166576e-02  9.9972232414751311e-02  9.9962206667206385e-02  9.9963686986931297e-02  9.9964434962828419e-02  9.9950617947230327e-02  9.9953648264875544e-02  9.9954655627144909e-02  9.9934432877402973e-02  9.9942507453498128e-02  9.9945881388039129e-02  9.9916139335771745e-02  9.9935691502963470e-02  9.9934415626893730e-02  9.9904363376807762e-02  9.9918229816491413e-02  9.9956925519434081e-02  9.9829158668588144e-02  9.9912310248382263e-02  9.9878039722302206e-02  9.9852525987510946e-02  9.9858154387450090e-02  9.9956781821692917e-02  9.9674784230167846e-02  1.0016987929933205e-01  9.9304415669322757e-02  9.9689377154026496e-02  1.0095804801993438e-01  1.0035917714304292e-01  1.0000681358292944e-01  1.0016296227912183e-01  1.0011754762276746e-01  1.0011488862589193e-01  1.0009341916714817e-01  1.0013283081534476e-01  1.0008354219220239e-01  1.0009481048815545e-01  1.0010662573852791e-01  1.0011089957913810e-01  1.0004217077477974e-01  1.0009921492937768e-01  1.0005094230376876e-01  1.0006779805259547e-01  1.0006662569522833e-01  1.0005394821149301e-01  1.0005167767388329e-01  1.0005621866015336e-01  1.0004460362776429e-01  1.0004382668095599e-01  1.0004430922075876e-01  1.0003535840995711e-01  1.0003616131693970e-01  1.0003154931457396e-01  1.0003401852777440e-01  1.0002012330564783e-01  1.0004038626822669e-01  1.0000000000000003e-01  9.9974085278316402e-02  1.0000000000000003e-01  9.9985630191735869e-02  9.9973762304966560e-02  9.9976413233083733e-02  9.9973103722788156e-02  9.9966598674006368e-02  9.9966065432011225e-02  9.9966490168696562e-02  9.9954796475427446e-02  9.9957638735397772e-02  9.9957944024626696e-02  9.9940253472224752e-02  9.9945815566594126e-02  9.9949133362464512e-02  9.9923293472413632e-02  9.9935930674257337e-02  9.9940267750092585e-02  9.9905389383503074e-02  9.9926535288314675e-02  9.9938880214789874e-02  9.9873398729667634e-02  9.9953194592035735e-02  9.9880468591492313e-02  9