<?xml version="1.0"?>
<VTKFile type="UnstructuredGrid"  version="0.1"  >
<UnstructuredGrid>
<Piece  NumberOfPoints="1933" NumberOfCells="3640">
<Points>
<DataArray  type="Float64"  NumberOfComponents="3"  format="ascii">-0.4754193938912505 -0.001419103994861439 0  4.524580658243131 -0.001394814673684182 0  4.524544235253677 7.498605322494637 0  -0.4754558459663335 7.498580984364668 0  9.524580738341712 -0.00137063700722458 0  9.524544374675335 7.498629513318328 0  14.52458090590977 -0.001346592756104809 0  14.52454459934861 7.498653558405311 0  19.52458121840977 -0.001322659698938813 0  19.52454493382248 7.498677488582566 0  24.52458172482783 -0.001298791076640918 0  24.52454540036199 7.498701353911648 0  29.52458246518476 -0.001274925467877277 0  29.52454601824005 7.498725217037225 0  34.52458347190766 -0.001250991704866294 0  34.52454680321626 7.498749149509755 0  39.52458477155224 -0.00122691096173464 0  39.5245477672638 7.498773230205396 0  44.5245863863416 -0.001202597108809771 0  44.52454891839911 7.498797545184037 0  49.52458833535817 -0.001177955904614234 0  49.52455026045349 7.498822188582057 0  54.52459063535878 -0.001152883302687241 0  54.52455179265589 7.498847264331552 0  59.52459330120927 -0.001127262966177369 0  59.52455350890573 7.498872888640377 0  64.52459634592739 -0.00110096295165342 0  64.52455539660444 7.498899193278645 0  69.52459978027238 -0.001073831410627279 0  69.52455743488738 7.498926329816654 0  74.52460361176254 -0.0010456910382851 0  74.5245595920354 7.498954475063081 0  79.52460784288978 -0.001016331851054202 0  79.52456182175278 7.498983838076387 0  84.52461246813597 -0.0009855016713160424 0  84.52456405787505 7.499014669280323 0  89.52461746910159 -0.0009528934026843353 0  89.52456620687485 7.499047272422199 0  94.52462280656597 -0.0009181277407617602 0  94.52456813729746 7.499082020378322 0  99.52462840739297 -0.000880729307057079 0  99.52456966497544 7.499119376126559 0  104.5246341425859 -0.0008400932153982497 0  104.524570532594 7.499159920511634 0  109.5246397897768 -0.0007954376606088144 0  109.5245703821669 7.499204388523915 0  114.5246449678547 -0.0007457361801120098 0  114.5245687197624 7.499253715178653 0  119.5246490208687 -0.0006896209553853851 0  119.5245648747685 7.499309089445884 0  124.5246508083642 -0.0006252469882048852 0  124.5245579642809 7.499372007143305 0  129.5246483212716 -0.0005501103251987774 0  129.5245468937997 7.499444294996453 0  134.5246379697431 -0.0004608359356622287 0  134.5245304737155 7.499528035924719 0  139.5246132482351 -0.0003530437023801755 0  139.5245078407279 7.499625242082772 0  144.5245621960002 -0.0002217711763710724 0  144.5244796229164 7.499737007848339 0  149.5244624016477 -6.452601802379231e-05 0  149.5244508931947 7.499862032458755 0  159.5244717418528 8.956741305169347e-19 0  164.5243974924861 -0.0001394827919753834 0  164.5244605134402 7.499834469687985 0  159.5244761458459 7.499939435203524 0  169.524370731117 -0.0002396613977840842 0  169.5244443397866 7.499747442215964 0  174.5243667724876 -0.0003121422696245909 0  174.5244333691059 7.49968101822797 0  179.524373633923 -0.0003640629565626349 0  179.5244278176468 7.499632185414268 0  184.5243853050299 -0.0004005293644844517 0  184.5244265303749 7.499597375632214 0  189.5243987398723 -0.0004252884856662735 0  189.5244282293385 7.499573532611246 0  194.5244124023724 -0.0004410949595051917 0  194.5244318578039 7.499558244821831 0  199.5244255358105 -0.0004499804322731879 0  199.5244366298182 7.499549659571128 0  204.5244377886141 -0.0004534552610153752 0  204.5244419914401 7.499546362344249 0  209.5244490201421 -0.0004526552374257214 0  209.524447565151 7.499547269674586 0  214.5244591988238 -0.0004484460472086625 0  214.5244531002951 7.499551544968031 0  219.5244683482452 -0.0004414969695261659 0  219.5244584347711 7.499558535440903 0  224.5244765184181 -0.0004323329034111624 0  224.5244634672435 7.499567725755385 0  229.5244837704391 -0.0004213713540573216 0  229.5244681376435 7.499578704086337 0  234.5244901683679 -0.0004089490198724154 0  234.5244724137405 7.49959113720429 0  239.5244957750543 -0.0003953411599562915 0  239.5244762819948 7.49960475203715 0  244.5245006501682 -0.0003807759026173004 0  244.5244797413902 7.499619321890083 0  249.5245048494845 -0.0003654449612979572 0  249.5244827993189 7.499634656038285 0  254.524508424916 -0.0003495117542603851 0  254.5244854688939 7.499650591794391 0  259.5245114250136 -0.0003331176029994205 0  259.5244877672456 7.499666988428578 0  264.5245138958095 -0.0003163864579679345 0  264.5244897145166 7.499683722520801 0  269.5245158819276 -0.0002994284303493898 0  269.5244913333454 7.499700684478559 0  274.5245174279579 -0.0002823422659423969 0  274.5244926486802 7.499717776081249 0  279.524518580095 -0.000265216755370898 0  279.5244936878057 7.499734909033219 0  284.524519388033 -0.0002481309051824295 0  284.5244944804612 7.49975200463755 0  289.5245199070188 -0.0002311524589849686 0  289.524495058917 7.499768994856217 0  294.5245201998035 -0.0002143340035165014 0  294.5244954579166 7.499785825208294 0  299.5245203377132 -0.000197705353942905 0  299.5244957144392 7.499802460171848 0  304.5245203990908 -0.0001812601621906471 0  304.5244958676404 7.499818891971408 0  309.5245204609575 -0.0001649341351917151 0  309.5244959603719 7.499835153920729 0  4.524507507112181 14.99860561963971 0  -0.4754925767459713 14.99858119698156 0  9.524507632254769 14.99862981953933 0  14.52450781857859 14.99865384567749 0  19.52450807708269 14.99867774962517 0  24.52450841465956 14.99870158977842 0  29.52450883557086 14.99872543154105 0  34.52450934153831 14.9987493467938 0  39.52450993130169 14.99877341372151 0  44.52451059995906 14.99879771726303 0  49.52451133816574 14.99882235020542 0  54.52451213116816 14.9988474149034 0  59.52451295760378 14.99887302563281 0  64.52451378798084 14.99889931163437 0  69.52451458273416 14.99892642095837 0  74.52451528975116 14.99895452527787 0  79.52451584125819 14.99898382589432 0  84.52451614998769 14.99901456120733 0  89.52451610462214 14.99904701594259 0  94.52451556471067 14.99908153237794 0  99.52451435564343 14.999118523583 0  104.5245122650929 14.9991584880828 0  109.5245090438142 14.99920202397321 0  114.5245044164068 14.99924983757531 0  119.5244981121819 14.99930273578218 0  124.5244899334497 14.99936157976336 0  129.5244798884278 14.99942715633548 0  134.5244684260869 14.9994998853393 0  139.5244568094546 14.9995792165544 0  144.524447616106 14.99966245585822 0  149.5244451484815 14.99974248539754 0  164.524477036627 14.99976231254669 0  159.5244756237713 14.9998188494963 0  169.5244713807265 14.99970621079006 0  174.5244635338234 14.9996576459264 0  179.5244562605814 14.99961891011681 0  184.5244506657102 14.99958981118183 0  189.5244469643183 14.99956922296832 0  194.5244449735469 14.99955580967968 0  199.5244443726466 14.99954831627588 0  204.5244448263583 14.99954566189185 0  209.5244460360538 14.99954695099215 0  214.5244477554059 14.99955145409094 0  219.5244497900608 14.99955858032063 0  224.5244519910967 14.99956785072158 0  229.5244542468885 14.99957887523408 0  234.5244564753991 14.9995913339176 0  239.524458617598 14.99960496200453 0  244.5244606321548 14.99961953813846 0  249.5244624912975 14.99963487515602 0  254.5244641776387 14.99965081286728 0  259.5244656817876 14.99966721240967 0  264.5244670005506 14.99968395185804 0  269.5244681355899 14.99970092287161 0  274.524469092405 14.99971802824012 0  279.5244698795419 14.99973518026277 0  284.5244705079919 14.99975229994976 0  289.524470990745 14.99976931706566 0  294.5244713426634 14.99978617099773 0  299.5244715809575 14.99980281225203 0  304.5244717270155 14.999819203857 0  309.5244718109099 14.99983532064961 0  4.524470550420361 22.49860617646527 0  -0.4755295293691362 22.49858172390413 0  9.524470647547117 22.49863034928232 0  14.52447077230686 22.49865432303207 0  19.52447092776653 22.49867816782978 0  24.52447111241273 22.49870195106173 0  29.52447132164253 22.49872574138704 0  34.52447154823334 22.49874961077591 0  39.52447178217312 22.49877363579488 0  44.52447201012784 22.49879789876938 0  49.52447221470087 22.49882248912323 0  54.5244723735494 22.49884750503746 0  59.52447245838376 22.49887305550456 0  64.5244724338578 22.49889926283516 0  69.52447225637115 22.49892626566627 0  74.52447187284186 22.49895422251343 0  79.52447121957749 22.49898331587778 0  84.52447022149701 22.49901375684712 0  89.52446879216112 22.49904578997123 0  94.52446683539962 22.49907969788223 0  99.52446424983231 22.49911580454935 0  104.5244609383425 22.4991544750151 0  109.5244568256169 22.49919610763846 0  114.5244518881867 22.4992411118129 0  119.5244462026862 22.49928985920935 0  124.5244400184378 22.49934258919471 0  129.5244338577974 22.49939923915506 0  134.5244286374773 22.49945916033072 0  139.5244257778843 22.49952067891351 0  144.5244272123398 22.49958050084452 0  149.5244351120736 22.49963313589351 0  164.52446952905 22.49968064829007 0  159.5244615877849 22.49970527112879 0  169.5244708951034 22.49965067219734 0  174.5244680724976 22.49962112630129 0  179.5244632350606 22.49959533617966 0  184.524457894968 22.49957475513042 0  189.5244529247807 22.49955968195583 0  194.5244487381031 22.4995498163271 0  199.5244454648387 22.49954460198717 0  204.5244430784118 22.4995434134463 0  209.5244414769435 22.49954564713493 0  214.5244405308488 22.49955075965796 0  219.5244401086538 22.49955827881425 0  224.5244400896485 22.49956780167888 0  229.5244403690225 22.49957898730029 0  234.5244408589548 22.49959154779291 0  239.5244414876936 22.49960523959333 0  244.5244421977757 22.49961985560801 0  249.5244429439898 22.49963521847449 0  254.5244436914033 22.49965117492388 0  259.5244444135645 22.49966759114276 0  264.5244450909448 22.49968434900808 0  269.5244457096001 22.49970134307558 0  274.5244462600444 22.49971847821703 0  279.5244467363288 22.49973566781061 0  284.5244471353358 22.49975283237447 0  289.5244474563648 22.49976989847503 0  294.524447701
[...]
<PointData  Scalars="p"> 
<DataArray  type="Float64"  Name="p"  format="ascii">1.0000000000000001e-01  1.0000000000000003e-01  1.0000028806736788e-01  1.0000000000000003e-01  1.0000000000000003e-01  1.0000146188234574e-01  1.0000000000000003e-01  1.0000220322040793e-01  1.0000000000000003e-01  1.0000307916163879e-01  1.0000000000000003e-01  1.0000370623044112e-01  1.0000000000000003e-01  1.0000392440980510e-01  1.0000000000000003e-01  1.0000461134586636e-01  1.0000000000000003e-01  1.0000476640097104e-01  1.0000000000000003e-01  1.0000493874587764e-01  1.0000000000000003e-01  1.0000649645060440e-01  1.0000000000000003e-01  1.0000400912285995e-01  1.0000000000000003e-01  1.0000525502925521e-01  1.0000000000000003e-01  1.0000479798994133e-01  1.0000000000000003e-01  1.0000512839980298e-01  1.0000000000000003e-01  1.0000355551858515e-01  1.0000000000000003e-01  1.0000345508726645e-01  1.0000000000000003e-01  1.0000153600577399e-01  1.0000000000000003e-01  9.9998898254724577e-02  1.0000000000000003e-01  9.9997453683695003e-02  1.0000000000000003e-01  9.9993282564796268e-02  1.0000000000000003e-01  9.9990254338564663e-02  1.0000000000000003e-01  9.9985012653821786e-02  1.0000000000000003e-01  9.9983064408081010e-02  1.0000000000000003e-01  9.9972308829319012e-02  1.0000000000000003e-01  9.9976807878715018e-02  1.0000000000000003e-01  9.9956099630460551e-02  1.0000000000000003e-01  9.9973029337026911e-02  1.0000000000000003e-01  9.9936242346291171e-02  1.0000000000000003e-01  9.9974258418011802e-02  1.0000000000000001e-01  9.9907452302995650e-02  1.0000000000000001e-01  1.0000000000000003e-01  1.0002165236302167e-01  1.0010457918831708e-01  1.0000000000000003e-01  9.9981882559155896e-02  1.0000000000000003e-01  1.0001283776318151e-01  1.0000000000000003e-01  9.9991014447180365e-02  1.0000000000000003e-01  9.9994859338962377e-02  1.0000000000000003e-01  9.9988568256565699e-02  1.0000000000000003e-01  9.9988221122830817e-02  1.0000000000000003e-01  9.9982776664895551e-02  1.0000000000000003e-01  9.9982171873924677e-02  1.0000000000000003e-01  9.9979495194842768e-02  1.0000000000000003e-01  9.9977484308282724e-02  1.0000000000000003e-01  9.9976118967758612e-02  1.0000000000000003e-01  9.9975009145489763e-02  1.0000000000000003e-01  9.9973600451093783e-02  1.0000000000000003e-01  9.9972987753617182e-02  1.0000000000000003e-01  9.9972365940267566e-02  1.0000000000000003e-01  9.9971656285044383e-02  1.0000000000000003e-01  9.9971417495073545e-02  1.0000000000000003e-01  9.9971069697609855e-02  1.0000000000000003e-01  9.9970948828640577e-02  1.0000000000000003e-01  9.9970588117627990e-02  1.0000000000000003e-01  9.9971040017444293e-02  1.0000000000000003e-01  9.9970129057266599e-02  1.0000000000000003e-01  9.9971661980349638e-02  1.0000000000000003e-01  9.9969109772099607e-02  1.0000000000000003e-01  9.9973599441650490e-02  1.0000000000000003e-01  9.9966202320787609e-02  1.0000000000000003e-01  9.9978667952468459e-02  1.0000000000000003e-01  9.9956764540795009e-02  1.0000000000000001e-01  1.0000000000000003e-01  9.9999250679719501e-02  1.0000000000000003e-01  9.9999947512774801e-02  1.0000005377532165e-01  1.0000004710657059e-01  9.9999546694298058e-02  9.9999742442660550e-02  9.9999419789238111e-02  9.9998461172053951e-02  9.9999290316162823e-02  9.9998615058585788e-02  9.9999479429174712e-02  9.9995482440221009e-02  9.9998772407387693e-02  9.9995917201243109e-02  9.9997914981544950e-02  9.9995544497408426e-02  9.9993427845715188e-02  9.9993160242155057e-02  9.9990700372167923e-02  9.9986533974702307e-02  9.9987126239954385e-02  9.9981597006262621e-02  9.9980582974645071e-02  9.9975049238699806e-02  9.9979087658731536e-02  9.9961976475321915e-02  9.9987424264992866e-02  9.9939102833231250e-02  1.0001328129600341e-01  9.9907331697360532e-02  9.9935335124759259e-02  1.0012038181820265e-01  1.0006582799053490e-01  1.0000080255484632e-01  1.0001424459760544e-01  1.0001113850130429e-01  1.0001401125352134e-01  1.0000428450361225e-01  1.0000758489564350e-01  1.0000399166842459e-01  1.0000110783431082e-01  1.0000041611449105e-01  9.9999389349892595e-02  9.9997003664224773e-02  9.9996769038483285e-02  9.9996015443204855e-02  9.9994747570233425e-02  9.9994406717763426e-02  9.9994005218202370e-02  9.9993065545398274e-02  9.9992908335277061e-02  9.9992295348598659e-02  9.9992114045679134e-02  9.9991122329492171e-02  9.9991904537494902e-02  9.9989524969264845e-02  9.9992654684691429e-02  9.9986040042208305e-02  9.9996488063666733e-02  9.9979309063209815e-02  1.0000000000000003e-01  9.9998302965402006e-02  1.0000000000000003e-01  9.9999502419875153e-02  9.9999505212243670e-02  9.9999146709191591e-02  9.9999543941056840e-02  9.9999172970826861e-02  9.9997914197023002e-02  9.9998383528071208e-02  9.9997760953116174e-02  9.9996893373323570e-02  9.9996163411368938e-02  9.9999865273687163e-02  9.9990362740923114e-02  9.9997023399468671e-02  9.9994131165855926e-02  9.9992050550686357e-02  9.9992796604744208e-02  9.9989396586873974e-02  9.9984443673048359e-02  9.9984554768927092e-02  9.9979915662670504e-02  9.9972417412124398e-02  9.9974702737868487e-02  9.9963671956549857e-02  9.9965772997429869e-02  9.9952584859468410e-02  9.9968418497409603e-02  9.9926357478385658e-02  1.0000366653536077e-01  9.9857715783709194e-02  9.9996523110771077e-02  1.0005124684677208e-01  1.0005440692125668e-01  1.0000396194589431e-01  1.0001601078595811e-01  1.0002240316861723e-01  1.0000037805193794e-01  1.0001264688808231e-01  1.0000466290247707e-01  9.9999342863629534e-02  9.9998764119531972e-02  9.9997020160508474e-02  9.9992197775722005e-02  9.9992142577539703e-02  9.9990638956636568e-02  9.9988052975629127e-02  9.9987714110868112e-02  9.9986965493674543e-02  9.9985329752501823e-02  9.9984929012065724e-02  9.9984456809324274e-02  9.9983164386964585e-02  9.9983104529844852e-02  9.9981954083624577e-02  9.9982271183082824e-02  9.9980007279263219e-02  9.9982434637193224e-02  9.9976818290496289e-02  9.9985589535698860e-02  9.9967270895450031e-02  1.0000000000000003e-01  9.9997607117954371e-02  1.0000000000000003e-01  9.9998764037336763e-02  9.9997593369914969e-02  9.9998154293927874e-02  9.9997612074247622e-02  9.9996056975468262e-02  9.9996324414255447e-02  9.9995216296566908e-02  9.9993250003189496e-02  9.9993855680084967e-02  9.9993338062357939e-02  9.9988698814379148e-02  9.9996659235932844e-02  9.9985374021190065e-02  9.9988551514551313e-02  9.9988855799156437e-02  9.9987597357327276e-02  9.9981613642087241e-02  9.9983829693250259e-02  9.9977828527543486e-02  9.9972486950310385e-02  9.9971668351442736e-02  9.9968044384650387e-02  9.9956459636868514e-02  9.9966387826677952e-02  9.9943697167738640e-02  9.9968896577872585e-02  9.9920944871369544e-02  1.0000591097506296e-01  9.9852670905622609e-02  1.0001767190458001e-01  1.0008092467545777e-01  1.0002227898229181e-01  1.0001396451052572e-01  1.0006059557450732e-01  9.9995811409552493e-02  1.0003329878994341e-01  1.0001736208628903e-01  1.0001367378402813e-01  1.0001242415309626e-01  1.0001169459774867e-01  1.0000388284931958e-01  1.0000484656263849e-01  1.0000274588958180e-01  9.9999060884011809e-02  9.9998632245341307e-02  9.9997753067524661e-02  9.9995290865920322e-02  9.9995053912788914e-02  9.9994210267078346e-02  9.9992752805760643e-02  9.9992014331079931e-02  9.9991672381183214e-02  9.9989839464681221e-02  9.9990344900528549e-02  9.9987545364476682e-02  9.9990216347273564e-02  9.9983406863746752e-02  9.9992764862961062e-02  9.9975605446220708e-02  1.0000000000000003e-01  9.9996903409054289e-02  1.0000000000000003e-01  9.9997659877806164e-02  9.9997052270049583e-02  9.9996951554058688e-02  9.9995546419750003e-02  9.9995832027652803e-02  9.9994777881743088e-02  9.9992300421812022e-02  9.9992862788525996e-02  9.9991837682007423e-02  9.9987687305361755e-02  9.9990725588702520e-02  9.9986536741595147e-02  9.9990747139029973e-02  9.9980986612524456e-02  9.9986012839149541e-02  9.9979371018609764e-02  9.9983685622765328e-02  9.9978088035470689e-02  9.9971140795417454e-02  9.9973465196258965e-02  9.9965199031755617e-02  9.9959372378655376e-02  9.9956688116704412e-02  9.9956495659424716e-02  9.9936174316631543e-02  9.9964292572799679e-02  9.9909717751844401e-02  1.0000287055496129e-01  9.9834249880960763e-02  9.9994969827612246e-02  1.0008006843898255e-01  1.0004630432868461e-01  1.0003643429029915e-01  1.0001292743297363e-01  1.0004222230052630e-01  1.0002157458920005e-01  1.0001845226627328e-01  1.0001678206019590e-01  1.0001985183027638e-01  1.0000619851961834e-01  1.0000942653269335e-01  1.0000608426704957e-01  1.0000057102185200e-01  1.0000035458539029e-01  9.9999183575336395e-02  9.9995281742774986e-02  9.9995124035532512e-02  9.9994256486690442e-02  9.9991886709455816e-02  9.9991523181356318e-02  9.9990538423745542e-02  9.9989192509348387e-02  9.9987928256154032e-02  9.9988017477610644e-02  9.9985110929650872e-02  9.9987123380857051e-02  9.9981084768909406e-02  9.9989442665242900e-02  9.9971763465524291e-02  1.0000000000000003e-01  9.9996096720302824e-02  1.0000000000000003e-01  9.9997373718371779e-02  9.9996035867146962e-02  9.9995035669524515e-02  9.9994932033456677e-02  9.9994236783618670e-02  9.9991785665947908e-02  9.9992047769057485e-02  9.9990715640741426e-02  9.9987218727156588e-02  9.9988228366701237e-02  9.9985645022590983e-02  9.9983443606111846e-02  9.9982735395682004e-02  9.9989911546187360e-02  9.9969687556919637e-02  9.9982627057715143e-02  9.9976081088534355e-02  9.9971529797367953e-02  9.9973621461049406e-02  9.9967993401258365e-02  9.9957115862201268e-02  9.9963015358862747e-02  9.9949857867310477e-02  9.9949030542783715e-02  9.9938066909572229e-02  9.9957207049680849e-02  9.9903348377772122e-02  1.0000501866404610e-01  9.9821934797588524e-02  1.0002435837393645e-01  1.0005377971441473e-01  1.0006180520930576e-01  1.0001265261825741e-01  1.0004022460757700e-01  1.0003377289768231e-01  1.0003604063708156e-01  1.0001662993653163e-01  1.0003617305992750e-01  1.0001080786306081e-01  1.0002125514564707e-01  1.0001537581674774e-01  1.0000840133198115e-01  1.0000808340476182e-01  1.0000709324894545e-01  1.0000142405960623e-01  1.0000166937136593e-01  1.0000038307408544e-01  9.9997167842123855e-02  9.9996805907038841e-02  9.9996146285232568e-02  9.9993647075660830e-02  9.9993407044042845e-02  9.9991848563887889e-02  9.9991211158716189e-02  9.9988490044561507e-02  9.9990547571131030e-02  9.9983947833291689e-02  9.9992102778320269e-02  9.9975336114434890e-02  1.0000000000000003e-01  9.9995673164783791e-02  1.0000000000000003e-01  9.9996837966260660e-02  9.9994523667991275e-02  9.9994784134191453e-02  9.9993744644983451e-02  9.9991572118395280e-02  9.9991912286749154e-02  9.9990572702207778e-02  9.9987184079420560e-02  9.9988204656635590e-02  9.9985614331044262e-02  9.9981552488711434e-02  9.9982769054929824e-02  9.9982680046944189e-02  9.9973440743465300e-02  9.9988126558453960e-02  9.9967135467072601e-02  9.9970737711838745e-02  9.9973133993670610e-02  9.9969199479770718e-02  9.9959701671949758e-02  9.9963313265370113e-02  9.9956416032003031e-02  9.9942226051932134e-02  9.9953420698572826e-02  9.9931667177054109e-02  9.9948257310657235e-02  9.9907313390041108e-02  9.9994845666499022e-02  9.9817149913362851e-02  1.0003749190921145e-01  1.0006649820314167e-01  1.0003881706258809e-01  1.0003675951383317e-01  1.0005050688811674e-01  1.0002187165254348e-01  1.0002762230641889e-01  1.0005036447728859e-01  1.0000870437248635e-01  1.0002955004786383e-01  1.0002056651945825e-01  1.0001448154254131e-01  1.0001267784353422e-01  1.0001276740400157e-01  1.0000440299462042e-01  1.0000511805239630e-01  1.0000374165607616e-01  9.9999317817611871e-02  9.9998893869488084e-02  9.9998034420579363e-02  9.9995184401339102e-02  9.9994549537832822e-02  9.9993895435479624e-02  9.9991277957305752e-02  9.9991307459774068e-02  9.9988575935145083e-02  9.9989780837006409e-02  9.9983708374159916e-02  9.9991359878769920e-02  9.9974581069735100e-02  1.0000000000000003e-01  9.9995166299981966e-02  1.0000000000000003e-01  9.9996042063281401e-02  9.9994427735320121e-02  9.9993984455039528e-02  9.9991643134070177e-02  9.9991765174906211e-02  9.9990449713254576e-02  9.9987445448722262e-02  9.9988181157397132e-02  9.9986425286763103e-02  9.9981697271099929e-02  9.9982951899021261e-02  9.9981037631699354e-02  9.9974456128901157e-02  9.9980364526428306e-02  9.9972261719711963e-02  9.9978552374386562e-02  9.9963089229465896e-02  9.9970098601508378e-02  9.9958449108699873e-02  9.9967683107591146e-02  9.9957112647702809e-02  9.9948803584706120e-02  9.9950179367481157e-02  9.9947591035752861e-02  9.9924073740029790e-02  9.9954117784920055e-02  9.9902410626570654e-02  9.9986343575755920e-02  9.9824400192744564e-02  1.0002176077208307e-01  1.0007697222746750e-01  1.0005592313174595e-01  1.0005005764283779e-01  1.0003620669633201e-01  1.0003551127063651e-01  1.0004482387652276e-01  1.0001728340225743e-01  1.0004342329685058e-01  1.0002123278827321e-01  1.0002352990682482e-01  1.0001708885813332e-01  1.0002240276309758e-01  1.0000921719057286e-01  1.0001152894432815e-01  1.0000940094297359e-01  1.0000368071705264e-01  1.0000349120796931e-01  1.0000274724969362e-01  9.9998436379411679e-02  9.9998304480634140e-02  9.9997236114943031e-02  9.9994928222954582e-02  9.9993626048761150e-02  9.9993510544073336e-02  9.9989875754428137e-02  9.9991554163452193e-02  9.9985476442410431e-02  9.9992479671745668e-02  9.9976426733321341e-02  1.0000000000000003e-01  9.9994604323855998e-02  1.0000000000000003e-01  9.9996062475509684e-02  9.9993892624590089e-02  9.9992525083156134e-02  9.9991888001308149e-02  9.9990826255395654e-02  9.9987882805972386e-02  9.9988175707628524e-02  9.9986889609419899e-02  9.9983026601680555e-02  9.9983667241724694e-02  9.9981590357399050e-02  9.9975776936700678e-02  9.9978850399644881e-02  9.9974608714668095e-02  9.9970573587263009e-02  9.9969960731230961e-02  9.9979926975342054e-02  9.9948701000667453e-02  9.9968257667248359e-02  9.9959112436648026e-02  9.9949925189770403e-02  9.9958224940119231e-02  9.9945367727733700e-02  9.9938285645661387e-02  9.9935235723829022e-02  9.9947328252702583e-02  9.9896748882069217e-02  9.9989770034909525e-02  9.9825530152268513e-02  1.0003161850262797e-01  1.0006495763685049e-01  1.0006697728895822e-01  1.0003500502093286e-01  1.0004891824353751e-01  1.0005041966407527e-01  1.0002853325739663e-01  1.0003274953010742e-01  1.0003158732986206e-01  1.0003346971938813e-01  1.0001482680135985e-01  1.0003144083906268e-01  1.0001139043259002e-01  1.0001796707317769e-01  1.0001429100811554e-01  1.0000760095451978e-01  1.0000689356929565e-01  1.0000647284022261e-01  1.0000112268880929e-01  1.0000097035050658e-01  9.9999950453166050e-02  9.9996424194099057e-02  9.9996149460080577e-02  9.9994751209783211e-02  9.9993138381441540e-02  9.9990679981037861e-02  9.9992050623074993e-02  9.9985612408880320e-02  9.9992542122312539e-02  9.9976836490906315e-02  1.0000000000000003e-01  9.9994362108522125e-02  1.0000000000000003e-01  9.9995827836549464e-02  9.9992809035570604e-02  9.9992840832135693e-02  9.9991283826551924e-02  9.9988771451219635e-02  9.9988639707057320e-02  9.9987245379883544e-02  9.9983627334009700e-02  9.9984742231856660e-02  9.9982657546249229e-02  9.9977418674672303e-02  9.9979479061707233e-02  9.9976454579392596e-02  9.9970221286297720e-02  9.9972354216540674e-02  9.9972130117815819e-02  9.9957293584285484e-02  9.9980067736799239e-02  9.9948454480707979e-02  9.9952953894165877e-02  9.9957382818547019e-02  9.9953775663411432e-02  9.9935537728352591e-02  9.9952162944819858e-02  9.9930098308535484e-02  9.9937747467731458e-02  9.9910408263483144e-02  9.9981201023238542e-02  9.9825720460338691e-02  1.0004132540111552e-01  1.0007602638314997e-01  1.0005449455427559e-01  1.0004463613852721e-01  1.0006149968680733e-01  1.0003647340068203e-01  1.0004135534484128e-01  1.0004159224681862e-01  1.0002552839034788e-01  1.0002155347977175e-01  1.0004308752550457e-01  1.0000886453215065e-01  1.0002539492501432e-01  1.0001819662022253e-01  1.0001370848573893e-01  1.0001095034604879e-01  1.0001185364884332e-01  1.0000432038087879e-01  1.0000455928922208e-01  1.0000370270751736e-01  9.9999526805874747e-02  9.9998552565920440e-02  9.9998071091609894e-02  9.9994628369219046e-02  9.9994687126752857e-02  9.9992075619163998e-02  9.9992479490095126e-02  9.9986845317045395e-02  9.9993333085276595e-02  9.9978027122307342e-02  1.0000000000000003e-01  9.9994129597608616e-02  1.0000000000000003e-01  9.9995379254258582e-02  9.9993138209749130e-02  9.9992619152929618e-02  9.9989914547874828e-02  9.9989680154870086e-02  9.9988169261057580e-02  9.9984858908289120e-02  9.9985350117432550e-02  9.9983892269923602e-02  9.9979220720237238e-02  9.9980821928329341e-02  9.9978517123984215e-02  9.9972328052889289e-02  9.9974770183421935e-02  9.9971969315979348e-02  9.9962050392629051e-02  9.9971106722196557e-02  9.9959653784953403e-02  9.9966724955181052e-02  9.9947858480480004e-02  9.9954904945663878e-02  9.9940485095474457e-02  9.9952203019389660e-02  9.9945729572317010e-02  9.9920981430900432e-02  9.9952892875913621e-02  9.9907863221727344e-02  9.9968824575885462e-02  9.9845767825575166e-02  1.0002582415903211e-01  1.0009951303592558e-01  1.0006036696717102e-01  1.0005578469234380e-01  1.0004834227269174e-01  1.0004442121934036e-01  1.0005179923613254e-01  1.0003222476325199e-01  1.0003062416767859e-01  1.0003458622882770e-01  1.0001483688227569e-01  1.0003357370722017e-01  1.0001637503410683e-01  1.0001959065844158e-01  1.0001293643602004e-01  1.0001807283826422e-01  1.0000715498454218e-01  1.0000834035698851e-01  1.0000705032297887e-01  1.0000182428684899e-01  1.0000151854836596e-01  1.0000068980651561e-01  9.9996891772006075e-02  9.9995860725638291e-02  9.9995667647517911e-02  9.9991796592507759e-02  9.9993109667373167e-02  9.9987685516913671e-02  9.9993316961777393e-02  9.9978823479178608e-02  1.0000000000000003e-01  9.9993768971892799e-02  1.0000000000000003e-01  9.9995586832171482e-02  9.9992991162870970e-02  9.9991698564000309e-02  9.9990635127934546e-02  9.9989481325398005e-02  9.9986353706691969e-02  9.9986328488423259e-02  9.9984926823811049e-02  9.9981058788708985e-02  9.9981723649363932e-02  9.9980223051505709e-02  9.9974851084725772e-02  9.9976875377264920e-02  9.9974395603963054e-02  9.9965853912132599e-02  9.9970844580688167e-02  9.9964859434156714e-02  9.9958948900566877e-02  9.9958946031503640e-02  9.9972747354268365e-02  9.9927889945903445e-02  9.9958809775684249e-02  9.9942133289233293e-02  9.9936094192181787e-02  9.9939899360740242e-02  9.9948228274263320e-02  9.9897571128782989e-02  9.9984375144977031e-02  9.9847589137039394e-02  1.0001780986767714e-01  1.0010751942748734e-01  1.0007574152650661e-01  1.0004350178140595e-01  1.0005247037437144e-01  1.0005515744040457e-01  1.0004038221077727e-01  1.0003742235997987e-01  1.0004267885964518e-01  1.0002285157293850e-01  1.0002434524877579e-01  1.0002239918110631e-01  1.0002703314710781e-01  1.0000962039534667e-01  1.0002477910387939e-01  1.0000868068333424e-01  1.0001335150970300e-01  1.0001070353360009e-01  1.0000521463895427e-01  1.0000402131951169e-01  1.0000391827390799e-01  9.9999202399221582e-02  9.9998883730957999e-02  9.9997273861436434e-02  9.9994990908323755e-02  9.9992786906628120e-02  9.9994026729200727e-02  9.9987881156729630e-02  9.9993866442144280e-02  9.9979928795430884e-02  1.0000000000000003e-01  9.9993868060137672e-02  1.0000000000000003e-01  9.9995742668771079e-02  9.9992515071632065e-02  9.9992527253834243e-02  9.9990812167184320e-02  9.9988400611020475e-02  9.9987915117984216e-02  9.9986507183762618e-02  9.9982989827072058e-02  9.9983609473510704e-02  9.9981860547132470e-02  9.9977137696205004e-02  9.9979010618152120e-02  9.9977240420146662e-02  9.9970187283715400e-02  9.9973217371970291e-02  9.9969662323282721e-02  9.9960617732022236e-02  9.9964749383762735e-02  9.9964362571393350e-02  9.9944187169462698e-02  9.9975146334269446e-02  9.9935080296473855e-02  9