<?xml version="1.0"?>
<VTKFile type="UnstructuredGrid"  version="0.1"  >
<UnstructuredGrid>
<Piece  NumberOfPoints="1933" NumberOfCells="3640">
<Points>
<DataArray  type="Float64"  NumberOfComponents="3"  format="ascii">0.4752982720863724 0.001164324567675741 0  5.475298309491168 0.001101046886899865 0  5.475393297681298 7.501101182525994 0  0.4753932128670214 7.501164376764013 0  10.47529834884623 0.001037636109928877 0  10.47539345751464 7.501037803485505 0  15.47529846103335 0.0009740060988210439 0  15.47539373499959 7.500974184497495 0  20.47529872902315 0.0009101342886243631 0  20.47539417320467 7.50091031565347 0  25.47529923376522 0.000846037143954289 0  25.47539481621547 7.500846219038139 0  30.47530005025343 0.0007817561164298902 0  30.47539570820373 7.500781938690021 0  35.47530124772266 0.0007173495738672247 0  35.47539689275691 7.500717534188239 0  40.47530289142458 0.0006528884757692097 0  40.47539841270717 7.500653077081514 0  45.47530504490165 0.000588454539368811 0  45.47540031033448 7.500588649414159 0  50.47530777232226 0.0005241401694215881 0  50.47540262775822 7.500524343832876 0  55.47531114072816 0.0004600497556564298 0  55.47540540736168 7.500460264973123 0  60.47531522216115 0.0003963021676381894 0  60.47540869211479 7.500396531998737 0  65.47532009568647 0.000333034448034409 0  65.47541252566603 7.500333282315162 0  70.47532584932216 0.0002704068556114417 0  70.47541695206202 7.500270676611765 0  75.47533258187029 0.000208609566183534 0  75.47542201490403 7.5002089055324 0  80.47534040458177 0.0001478715309022368 0  80.47542775566575 7.500148198445793 0  85.47534944249635 8.847225079911946e-05 0  85.47543421077901 7.500088835011651 0  90.47535983510454 3.075760266922417e-05 0  90.47544140688942 7.500031160545094 0  95.47537173564974 -2.483858245802648e-05 0  95.47544935341638 7.499975606605235 0  100.4753853077303 -7.776461619123012e-05 0  100.4754580311892 7.499922718811398 0  105.4754007166485 -0.0001273087984010787 0  105.4754673754753 7.499873194646153 0  110.4754181105588 -0.0001725389729283988 0  110.4754772513239 7.499827934890912 0  115.4754375818798 -0.0002122144898954502 0  115.4754874191864 7.499788113121345 0  120.4754590904032 -0.0002446563576314035 0  120.4754974902661 7.499755267611266 0  125.4754823118346 -0.0002675544468849803 0  125.4755068766498 7.499731417101783 0  130.4755063405114 -0.0002776825839489282 0  130.475514757097 7.499719191616471 0  135.475529105346 -0.0002704902944335405 0  135.4755201199396 7.499721942627817 0  140.4755462160592 -0.0002395797745152545 0  140.4755220441288 7.499743741435472 0  145.4755486497326 -0.0001763380191647796 0  145.4755206256911 7.499789117347523 0  150.4755179198806 -7.142035052511274e-05 0  150.4755196143144 7.499862702280033 0  160.4755282581481 1.0391391887833e-18 0  165.4753658789513 -0.0002268740140382054 0  165.4755003327167 7.499738670143485 0  160.4755475675229 7.499918810662053 0  170.4752777785261 -0.0004191845718428924 0  170.4754523585415 7.499563419841682 0  175.4752293513806 -0.0005865289850215326 0  175.4754130242468 7.499403886260056 0  180.4752030009709 -0.0007344265585253456 0  180.4753832653042 7.499260042153608 0  185.4751892919565 -0.0008671040493839329 0  185.4753617117984 7.499129602829123 0  190.475182990124 -0.0009878776703485569 0  190.4753465933997 7.499010110724821 0  195.475181107075 -0.001099301555656208 0  195.4753363221642 7.498899442037646 0  200.4751818872857 -0.001203320177079632 0  200.4753296265983 7.498795881085734 0  205.4751842688727 -0.001301412415459707 0  205.4753255364917 7.498698074336028 0  210.4751875904395 -0.001394710446887189 0  210.4753233272677 7.498604959716306 0  215.4751914283648 -0.001484090637625117 0  215.4753224622266 7.498515700828579 0  220.4751955044026 -0.001570240439548377 0  220.4753225442811 7.498429633486715 0  225.4751996318683 -0.001653706840426045 0  225.4753232788616 7.498346224563948 0  230.4752036834296 -0.001734931354960688 0  230.4753244465007 7.498265041017643 0  235.4752075712821 -0.001814275427853793 0  235.4753258829302 7.49818572672719 0  240.475211234608 -0.001892039065336845 0  240.4753274647343 7.498107985134004 0  245.4752146314545 -0.001968474681834313 0  245.4753290990205 7.498031566131764 0  250.4752177333745 -0.002043797544121648 0  250.4753307159741 7.497956256060546 0  255.4752205218712 -0.002118193770258057 0  255.4753322634902 7.49788186997833 0  260.4752229860674 -0.002191826544178568 0  260.4753337033052 7.497808245621802 0  265.4752251212743 -0.002264840997189038 0  265.4753350082335 7.497735238646632 0  270.4752269282541 -0.002337368051769403 0  270.475336160233 7.497662718874502 0  275.4752284130946 -0.002409527394148058 0  275.4753371490803 7.497590567388757 0  280.4752295876662 -0.002481429613862836 0  280.4753379715111 7.497518674430553 0  285.4752304706834 -0.002553177389116208 0  285.4753386306888 7.497446938171966 0  290.4752310893707 -0.002624865356959424 0  290.4753391358503 7.497375264602346 0  295.4752314817003 -0.002696577901557945 0  295.4753395020208 7.497303568981945 0  300.4752316988246 -0.002768383361004447 0  300.475339749698 7.497231779609298 0  305.4752318066261 -0.002840321786606545 0  305.4753399047532 7.497159844997768 0  310.4752318833288 -0.002912380849187294 0  310.4753399997844 7.497087745886447 0  5.475487834456015 15.00110150463354 0  0.4754877386680053 15.00116450771366 0  10.4754880034967 15.00103819415604 0  15.47548828434392 15.00097458853594 0  20.47548870444029 15.00091071173748 0  25.47548928707175 15.00084660218479 0  30.47549005412453 15.00078231146129 0  35.47549102688784 15.00071790237914 0  40.47549222604756 15.00065344766192 0  45.47549367136579 15.0005890295847 0  50.47549538121616 15.00052474060913 0  55.47549737198976 15.00046068498713 0  60.4754996573137 15.00039698133762 0  65.47550224698469 15.00033376626503 0  70.47550514548995 15.00027119917022 0  75.47550834996416 15.00020946849915 0  80.47551184740148 15.00014879978255 0  85.47551561092733 15.00008946594267 0  90.4755195949422 15.00003180047495 0  95.47552372903829 14.9999762142286 0  100.4755279108147 14.999923216546 0  105.4755319982901 14.99987344132448 0  110.4755358037471 14.99982767780733 0  115.4755390931153 14.99978690390421 0  120.4755415991056 14.99975231520249 0  125.4755430633902 14.99972533284412 0  130.4755433341511 14.99970755288415 0  135.4755425598607 14.99970055853112 0  140.4755415311937 14.99970543360222 0  145.4755422006468 14.99972163242213 0  150.4755482422447 14.99974433941906 0  165.4755749998843 14.9996438397062 0  160.4755818288087 14.99977122825688 0  170.4755582007643 14.99950621722148 0  175.4755377034688 14.9993695832777 0  180.4755176488369 14.99923923670652 0  185.4754999701692 14.99911675531004 0  190.4754852865691 14.99900201027221 0  195.4754735578181 14.99889422260384 0  200.475464460361 14.99879244666774 0  205.4754575822963 14.99869577136661 0  210.4754525160025 14.9986033911993 0  215.4754488967017 14.99851462054218 0  220.4754464140892 14.99842888528649 0  225.4754448115269 14.99834570716397 0  230.4754438802022 14.998264687266 0  235.475443451886 14.99818549121324 0  240.4754433918938 14.99810783665046 0  245.4754435929015 14.99803148301321 0  250.4754439697776 14.99795622326213 0  255.4754444553775 14.99788187723227 0  260.4754449971881 14.99780828628127 0  265.4754455546558 14.99773530897899 0  270.4754460970842 14.99766281764913 0  275.4754466019481 14.99759069563555 0  280.4754470535355 14.99751883522621 0  285.47544744183 14.99744713621848 0  290.4754477615776 14.99737550514052 0  295.4754480116176 14.99730385511034 0  300.4754481946703 14.99723210611466 0  305.4754483181822 14.99716018483868 0  310.4754483973448 14.99708802134876 0  5.475581847519128 22.50110217726135 0  0.4755817521774003 22.50116499111065 0  10.47558199178698 22.50103893483083 0  15.47558221434992 22.50097533417761 0  20.47558253250587 22.50091143536597 0  25.47558295677063 22.50084729741233 0  30.47558349401006 22.50078298277604 0  35.47558414890113 22.50071855943751 0  40.4755849243269 22.50065410205936 0  45.47558582113844 22.50058969304436 0  50.47558683753721 22.50052542390296 0  55.47558796819406 22.50046139714503 0  60.47558920314604 22.50039772882647 0  65.47559052646297 22.5003345518645 0  70.47559191466244 22.50027202024345 0  75.47559333486011 22.50021031425701 0  80.47559474267676 22.50014964694642 0  85.47559608000707 22.50009027188761 0  90.47559727290449 22.50003249241334 0  95.47559823010519 22.49997667217271 0  100.4755988431547 22.49992324651818 0  105.4755989898151 22.49987273337928 0  110.475598543508 22.49982574068919 0  115.4755973930624 22.49978296452142 0  120.4755954788838 22.49974516698346 0  125.475592853315 22.49971311432668 0  130.4755897727011 22.49968744213976 0  135.4755868224387 22.49966839500835 0  140.4755850550668 22.49965536577577 0  145.4755860679174 22.49964615461105 0  150.4755918337705 22.49963597537503 0  165.47563286769 22.49953821027524 0  160.4756210370183 22.49963316011101 0  170.4756351856163 22.49943016299701 0  175.4756308206999 22.49931667050076 0  180.4756226808316 22.49920293633772 0  185.4756130023478 22.49909190317748 0  190.475603224406 22.49898491466602 0  195.4755941528388 22.49888236177846 0  200.4755861662812 22.49878413198294 0  205.4755793823119 22.49868987917232 0  210.4755737720032 22.49859917254291 0  215.475569232534 22.49851157287906 0  220.47556563054 22.49842666809816 0  225.4755628265638 22.49834408704885 0  230.4755606879032 22.4982635023002 0  235.4755590946224 22.49818462775855 0  240.4755579416926 22.49810721417765 0  245.4755571390554 22.49803104410001 0  250.4755566106458 22.49795592695669 0  255.4755562929809 22.49788169462865 0  260.4755561336107 22.49780819756615 0  265.475556089617 22.4977353014639 0  270.4755561262086 22.49766288445242 0  275.4755562154498 22.49759083475198 0  280.4755563351261 22.49751904872971 0  285.4755564677458 22.4974474292788 0  290.4755565997298 22.49737588437895 0  295.47555672088 22.49730432554524 0  300.4755
[...]
<PointData  Scalars="p"> 
<DataArray  type="Float64"  Name="p"  format="ascii">1.0000000000000001e-01  1.0000000000000003e-01  1.0000212144251408e-01  1.0000000000000003e-01  1.0000000000000003e-01  1.0000133932935641e-01  1.0000000000000003e-01  1.0000202691670633e-01  1.0000000000000003e-01  1.0000187659678579e-01  1.0000000000000003e-01  1.0000227958696334e-01  1.0000000000000003e-01  1.0000375325219316e-01  1.0000000000000003e-01  1.0000382323289236e-01  1.0000000000000003e-01  1.0000482791306300e-01  1.0000000000000003e-01  1.0000656358343236e-01  1.0000000000000003e-01  1.0000528808109492e-01  1.0000000000000003e-01  1.0001250799435210e-01  1.0000000000000003e-01  1.0001387403007171e-01  1.0000000000000003e-01  1.0001712488898948e-01  1.0000000000000003e-01  1.0001904625348748e-01  1.0000000000000003e-01  1.0002517822466581e-01  1.0000000000000003e-01  1.0002712246491162e-01  1.0000000000000003e-01  1.0003239562613578e-01  1.0000000000000003e-01  1.0004018024460382e-01  1.0000000000000003e-01  1.0004314891461297e-01  1.0000000000000003e-01  1.0005244797349408e-01  1.0000000000000003e-01  1.0005860023984071e-01  1.0000000000000003e-01  1.0006944210327380e-01  1.0000000000000003e-01  1.0007007288648780e-01  1.0000000000000003e-01  1.0009484184505973e-01  1.0000000000000003e-01  1.0007750922447634e-01  1.0000000000000003e-01  1.0012681600573810e-01  1.0000000000000003e-01  1.0007739227364465e-01  1.0000000000000003e-01  1.0016845836751592e-01  1.0000000000000003e-01  1.0006550930695005e-01  1.0000000000000001e-01  1.0023417349200897e-01  1.0000000000000001e-01  1.0000000000000003e-01  9.9863377973057901e-02  9.9659074227604366e-02  1.0000000000000003e-01  9.9984608204456940e-02  1.0000000000000003e-01  9.9896338649271749e-02  1.0000000000000003e-01  9.9948965592818462e-02  1.0000000000000003e-01  9.9935863232509400e-02  1.0000000000000003e-01  9.9950097699551488e-02  1.0000000000000003e-01  9.9946677353938473e-02  1.0000000000000003e-01  9.9958833969750749e-02  1.0000000000000003e-01  9.9958425393442255e-02  1.0000000000000003e-01  9.9963364056046639e-02  1.0000000000000003e-01  9.9967334864777491e-02  1.0000000000000003e-01  9.9970137945285628e-02  1.0000000000000003e-01  9.9972200907077965e-02  1.0000000000000003e-01  9.9975593906096644e-02  1.0000000000000003e-01  9.9977140178987400e-02  1.0000000000000003e-01  9.9978781082472781e-02  1.0000000000000003e-01  9.9980754979818662e-02  1.0000000000000003e-01  9.9981920576325253e-02  1.0000000000000003e-01  9.9982879107831074e-02  1.0000000000000003e-01  9.9984199384281935e-02  1.0000000000000003e-01  9.9984813305512843e-02  1.0000000000000003e-01  9.9985658627347498e-02  1.0000000000000003e-01  9.9986073408465576e-02  1.0000000000000003e-01  9.9987129351494244e-02  1.0000000000000003e-01  9.9986566567674254e-02  1.0000000000000003e-01  9.9988719450559399e-02  1.0000000000000003e-01  9.9986211581909290e-02  1.0000000000000003e-01  9.9991281506367768e-02  1.0000000000000003e-01  9.9983206968276950e-02  1.0000000000000001e-01  1.0000000000000003e-01  1.0000471642164459e-01  1.0000000000000003e-01  1.0000398339373522e-01  1.0000416009846258e-01  1.0000471477978981e-01  1.0000664577393213e-01  1.0000634488216606e-01  1.0000693624478836e-01  1.0000996461052612e-01  1.0000817774393050e-01  1.0000968148553402e-01  1.0001070704881526e-01  1.0001958526226414e-01  1.0001488244459639e-01  1.0002301427740480e-01  1.0001870386939035e-01  1.0002310947506676e-01  1.0002937451454483e-01  1.0002846253686090e-01  1.0003228526796838e-01  1.0004266596199864e-01  1.0003817683284182e-01  1.0004916358705465e-01  1.0004968806648477e-01  1.0006155115103078e-01  1.0004569063943847e-01  1.0009120213424090e-01  1.0001935650505102e-01  1.0014850255507368e-01  9.9950996064851194e-02  1.0023637017400652e-01  1.0016453788706961e-01  9.9517460421270520e-02  9.9825472382502167e-02  9.9981955967067077e-02  9.9953799275935326e-02  9.9963165820206326e-02  9.9947811815111309e-02  9.9972195079674503e-02  9.9961661754456060e-02  9.9967079912599358e-02  9.9972876309741027e-02  9.9973708226524419e-02  9.9974372425525232e-02  9.9979781741353330e-02  9.9980074309239164e-02  9.9981167029988771e-02  9.9984190961074554e-02  9.9984872862064658e-02  9.9985610720229032e-02  9.9987639866381789e-02  9.9988335782293825e-02  9.9988943895879770e-02  9.9990490613349789e-02  9.9990882367322342e-02  9.9991997945741276e-02  9.9992223604111724e-02  9.9994196126454965e-02  9.9992427871300610e-02  9.9997254326972471e-02  9.9991419602636744e-02  1.0000000000000003e-01  1.0000755540485178e-01  1.0000000000000003e-01  1.0000445900190257e-01  1.0000639139092038e-01  1.0000822523487812e-01  1.0000810910359373e-01  1.0000877545957083e-01  1.0001305085679851e-01  1.0001186776152866e-01  1.0001265553371935e-01  1.0001696444855825e-01  1.0001842510418553e-01  1.0001245349802350e-01  1.0003611115466757e-01  1.0002460289040443e-01  1.0003045339867521e-01  1.0003896021357510e-01  1.0003527403948670e-01  1.0004133059148641e-01  1.0005439559824528e-01  1.0005116186852631e-01  1.0005778607649400e-01  1.0007667743757909e-01  1.0006490582551220e-01  1.0008858380658948e-01  1.0007895229757610e-01  1.0011179121471284e-01  1.0006033489293753e-01  1.0017909068026913e-01  9.9963255407567064e-02  1.0036776712852334e-01  1.0007560739883085e-01  9.9613588089393176e-02  9.9771133830404743e-02  9.9959763197979293e-02  9.9938302782414445e-02  9.9903162591222130e-02  9.9964348261612768e-02  9.9930032714676431e-02  9.9942829890085211e-02  9.9954000812640567e-02  9.9953835874008967e-02  9.9953888423336107e-02  9.9964912177380752e-02  9.9964188774291515e-02  9.9966109855439786e-02  9.9972173287794008e-02  9.9972922808707163e-02  9.9973900190017839e-02  9.9977963243913698e-02  9.9978699779240635e-02  9.9979728471609269e-02  9.9982286941521753e-02  9.9983315794416786e-02  9.9984038163106942e-02  9.9986264757445625e-02  9.9986477162223378e-02  9.9988600833660277e-02  9.9987862194268626e-02  9.9992344895438234e-02  9.9986401907904768e-02  1.0000000000000003e-01  1.0000941419166591e-01  1.0000000000000003e-01  1.0000573255703260e-01  1.0001021513243472e-01  1.0000931405887500e-01  1.0001018809643444e-01  1.0001487695647808e-01  1.0001377819368519e-01  1.0001487941559600e-01  1.0002071389455154e-01  1.0001850016846224e-01  1.0001884374776517e-01  1.0003176728426455e-01  1.0001639386224306e-01  1.0003914448516289e-01  1.0003968063603974e-01  1.0003703184379029e-01  1.0003836581730671e-01  1.0005413683443488e-01  1.0004534933750897e-01  1.0005542051220594e-01  1.0006849587920387e-01  1.0006610849373296e-01  1.0006741865690454e-01  1.0009791326038481e-01  1.0006304267451602e-01  1.0012152227927575e-01  1.0004657009828977e-01  1.0018486275842084e-01  9.9938960847215652e-02  1.0038672662213508e-01  1.0005689141519408e-01  9.9505663264661176e-02  9.9861814460288661e-02  9.9975071852482930e-02  9.9821574267528412e-02  1.0000504832858099e-01  9.9909781106726728e-02  9.9940841435717173e-02  9.9947631164410702e-02  9.9949340704197823e-02  9.9944256773986898e-02  9.9962217333377568e-02  9.9958255509341634e-02  9.9960429828414382e-02  9.9968674370197172e-02  9.9969265312319866e-02  9.9970048464163935e-02  9.9975779740343787e-02  9.9976299294068705e-02  9.9977281936632190e-02  9.9980960736175281e-02  9.9981797338513506e-02  9.9983018205917817e-02  9.9985286455671368e-02  9.9986836921603178e-02  9.9987222141558418e-02  9.9990402395226177e-02  9.9989158176961149e-02  9.9994290001243574e-02  9.9989159768032937e-02  1.0000000000000003e-01  1.0001131221365667e-01  1.0000000000000003e-01  1.0000807029545086e-01  1.0001098353928392e-01  1.0001056112957962e-01  1.0001573677103018e-01  1.0001450277064598e-01  1.0001601718444250e-01  1.0002269586042101e-01  1.0002030333568467e-01  1.0002098569855143e-01  1.0003234188456785e-01  1.0002528568595206e-01  1.0003271309686351e-01  1.0003058898758156e-01  1.0004888435573549e-01  1.0004091765896607e-01  1.0005937773839163e-01  1.0004725514561251e-01  1.0005533352680356e-01  1.0007447185606025e-01  1.0006252065399399e-01  1.0007716366289017e-01  1.0008972433277089e-01  1.0009258980877335e-01  1.0008008674144289e-01  1.0013986832256451e-01  1.0004823421884515e-01  1.0020974326559792e-01  9.9932603031114231e-02  1.0044414068445559e-01  1.0014893475677239e-01  9.9451485111817131e-02  9.9804021953050714e-02  9.9914824715479134e-02  9.9920151429265885e-02  9.9889136936124792e-02  9.9928027189630744e-02  9.9933880147206514e-02  9.9941203034286649e-02  9.9921971139072016e-02  9.9954453569130686e-02  9.9944260986564074e-02  9.9947407031058658e-02  9.9959401606451503e-02  9.9959267170951827e-02  9.9959460366041988e-02  9.9968565250609528e-02  9.9968701853511283e-02  9.9969676415031725e-02  9.9975034307998367e-02  9.9975943015380306e-02  9.9976863212008674e-02  9.9980696492104337e-02  9.9981609470626717e-02  9.9983293089227460e-02  9.9985186612130794e-02  9.9987671545703247e-02  9.9987003477232772e-02  9.9992489586874400e-02  9.9987202015273821e-02  1.0000000000000003e-01  1.0001353558794060e-01  1.0000000000000003e-01  1.0000840566703691e-01  1.0001234535976170e-01  1.0001502758791023e-01  1.0001546599458558e-01  1.0001621918872332e-01  1.0002298618614995e-01  1.0002150277085768e-01  1.0002219234513465e-01  1.0003182957209487e-01  1.0002823841533200e-01  1.0003149677651847e-01  1.0004067198601595e-01  1.0003966022812283e-01  1.0002510949318787e-01  1.0007249258938992e-01  1.0004649458340784e-01  1.0005719845631349e-01  1.0007281449852468e-01  1.0006199322857452e-01  1.0006832372345070e-01  1.0009751685426506e-01  1.0007345773736530e-01  1.0010096578657343e-01  1.0009679909448027e-01  1.0012882025616561e-01  1.0005287964784258e-01  1.0022893159131983e-01  9.9907529638044293e-02  1.0048811236324434e-01  1.0011456687019664e-01  9.9492231586871260e-02  9.9755606097941082e-02  9.9997834758628265e-02  9.9878236329617801e-02  9.9901025572197086e-02  9.9893292122363961e-02  9.9960893752384247e-02  9.9895256756217049e-02  9.9959614516742373e-02  9.9931296796074445e-02  9.9938405305618525e-02  9.9953267429356660e-02  9.9953063956441490e-02  9.9951052962417603e-02  9.9964211452976265e-02  9.9963079306208347e-02  9.9964069292775265e-02  9.9971766303796950e-02  9.9972261518676123e-02  9.9972957099763324e-02  9.9978073821798519e-02  9.9979118076878995e-02  9.9980074698885688e-02  9.9984003381354755e-02  9.9984600564975171e-02  9.9987367234866495e-02  9.9987592834769504e-02  9.9992783948415667e-02  9.9988041625029569e-02  1.0000000000000003e-01  1.0001473451664186e-01  1.0000000000000003e-01  1.0000904086261299e-01  1.0001622306495353e-01  1.0001470732276110e-01  1.0001665365138822e-01  1.0002251683731637e-01  1.0002176611170915e-01  1.0002246342026476e-01  1.0003195597808122e-01  1.0002821761374828e-01  1.0003096233748007e-01  1.0004336506336273e-01  1.0003850816393159e-01  1.0003618726683924e-01  1.0006022837581756e-01  1.0002935546444683e-01  1.0006934441277587e-01  1.0007408304975132e-01  1.0006319336892598e-01  1.0006828286132703e-01  1.0009292769073219e-01  1.0007830689806256e-01  1.0008365122223618e-01  1.0012434822905873e-01  1.0008013169332942e-01  1.0013941167016407e-01  1.0007409394707090e-01  1.0021942240466349e-01  9.9913100771596819e-02  1.0052449328114185e-01  1.0009105335365251e-01  9.9443311789277886e-02  9.9812170895570235e-02  9.9959120993000999e-02  9.9844891767559688e-02  9.9940382106415510e-02  9.9910744356249526e-02  9.9860830865611108e-02  9.9968064169224699e-02  9.9915759874325716e-02  9.9931318245191914e-02  9.9942153261877470e-02  9.9945925402935190e-02  9.9939276776854907e-02  9.9958365696107887e-02  9.9955519752156802e-02  9.9955969405422770e-02  9.9965901601948626e-02  9.9966703776663210e-02  9.9967054205408606e-02  9.9973937300988816e-02  9.9974603776891241e-02  9.9975818829500643e-02  9.9980027668729987e-02  9.9981768354475031e-02  9.9982606848401837e-02  9.9986827040356524e-02  9.9986368207922116e-02  9.9991758846788417e-02  9.9987388206636260e-02  1.0000000000000003e-01  1.0001591834012179e-01  1.0000000000000003e-01  1.0001108481692449e-01  1.0001611070728278e-01  1.0001537300868968e-01  1.0002189136461194e-01  1.0002098981514015e-01  1.0002237107346548e-01  1.0003096336469909e-01  1.0002803552616388e-01  1.0002941296991485e-01  1.0004240753244718e-01  1.0003768227555582e-01  1.0003871731854182e-01  1.0005687650982394e-01  1.0004144195502822e-01  1.0005400699056241e-01  1.0005096706439877e-01  1.0007746904430302e-01  1.0006467800036997e-01  1.0009723299813530e-01  1.0006964659177438e-01  1.0008689884183564e-01  1.0010833651998083e-01  1.0009994544141142e-01  1.0008737178248540e-01  1.0016426718345245e-01  1.0005153027209687e-01  1.0023068318385230e-01  9.9924253502974944e-02  1.0052683909633969e-01  1.0014963162826403e-01  9.9394160099482792e-02  9.9777471543562049e-02  9.9928869026128589e-02  9.9891295058940816e-02  9.9926114732036234e-02  9.9871798900739051e-02  9.9938569451065856e-02  9.9882994651582721e-02  9.9940165101582518e-02  9.9927880935707120e-02  9.9946950032713158e-02  9.9924729816432745e-02  9.9955216648134976e-02  9.9948133737561923e-02  9.9948919120532456e-02  9.9961424174689353e-02  9.9961502332939586e-02  9.9960822964799231e-02  9.9970559179572344e-02  9.9970970362970049e-02  9.9971609768041453e-02  9.9977585026058732e-02  9.9978531311596355e-02  9.9980123547620939e-02  9.9983454632679658e-02  9.9986189304281520e-02  9.9985846827136265e-02  9.9992069536817843e-02  9.9987592643392187e-02  1.0000000000000003e-01  1.0001750511599321e-01  1.0000000000000003e-01  1.0001087578806429e-01  1.0001661353278314e-01  1.0001921896519009e-01  1.0002075112131538e-01  1.0002115568339359e-01  1.0002935537624967e-01  1.0002770358984299e-01  1.0002846434719373e-01  1.0003931284075440e-01  1.0003662784993023e-01  1.0003773421862343e-01  1.0005414637623999e-01  1.0004480846123001e-01  1.0004874953641087e-01  1.0006385611010929e-01  1.0005941709655337e-01  1.0003776336488129e-01  1.0011043709422929e-01  1.0006962903135749e-01  1.0008222164158039e-01  1.0011333530516631e-01  1.0008081061073799e-01  1.0010625068840609e-01  1.0011845629679465e-01  1.0013351840827392e-01  1.0006009221335213e-01  1.0025642147747452e-01  9.9900826525131409e-02  1.0054189018340268e-01  1.0014194036683677e-01  9.9414612220022819e-02  9.9742400050434332e-02  9.9975327793282651e-02  9.9869586172724928e-02  9.9889781008511355e-02  9.9918522540102278e-02  9.9914596799666688e-02  9.9897671077715494e-02  9.9901824996119118e-02  9.9958152999921737e-02  9.9907003204088629e-02  9.9956358464320341e-02  9.9938121034323146e-02  9.9941568233973127e-02  9.9955569818525644e-02  9.9956745271422079e-02  9.9953879444668645e-02  9.9966250072099791e-02  9.9965922264797169e-02  9.9966612321556944e-02  9.9974276194132225e-02  9.9975346251289787e-02  9.9975886516216889e-02  9.9981467493504519e-02  9.9982154594966954e-02  9.9984860429160202e-02  9.9986214431275977e-02  9.9991472154094929e-02  9.9987225455588566e-02  1.0000000000000003e-01  1.0001814704863758e-01  1.0000000000000003e-01  1.0001099996440638e-01  1.0001971700884738e-01  1.0001819507482572e-01  1.0002081702682281e-01  1.0002698122127643e-01  1.0002671674901800e-01  1.0002745203902876e-01  1.0003743409016963e-01  1.0003436361141188e-01  1.0003565650769591e-01  1.0005097731802769e-01  1.0004442983063118e-01  1.0004592970165553e-01  1.0006453401759167e-01  1.0005529149879180e-01  1.0005041401477770e-01  1.0008871180820285e-01  1.0003874199853034e-01  1.0009797053231682e-01  1.0010603481532862e-01  1.0008812825931880e-01  1.0008666444599024e-01  1.0014042131755665e-01  1.0008054190906206e-01  1.0014042614392632e-01  1.0009304125139577e-01  1.0022205311117947e-01  9.9908372108959670e-02  1.0056852684411935e-01  1.0012277461166273e-01  9.9388606704548674e-02  9.9775614455374625e-02  9.9962852697840957e-02  9.9836784373528623e-02  9.9931542779786539e-02  9.9900291785779013e-02  9.9894752360992309e-02  9.9921897173646329e-02  9.9929183281513401e-02  9.9877086241356883e-02  9.9969085717977496e-02  9.9925860859765486e-02  9.9940168958267586e-02  9.9947111888935333e-02  9.9953447779453447e-02  9.9946258036046801e-02  9.9963112164948673e-02  9.9961728131599079e-02  9.9961109177070337e-02  9.9970509175237948e-02  9.9971921910703115e-02  9.9972317427839907e-02  9.9978625346483191e-02  9.9980171854555058e-02  9.9980856712288430e-02  9.9986015212031668e-02  9.9985777548490348e-02  9.9991101313706962e-02  9.9987540365483171e-02  1.0000000000000003e-01  1.0001869227178803e-01  1.0000000000000003e-01  1.0001239038082606e-01  1.0001896938707446e-01  1.0001788031999494e-01  1.0002497993587903e-01  1.0002450586126167e-01  1.0002606692065855e-01  1.0003456748393087e-01  1.0003272423609934e-01  1.0003310599863124e-01  1.0004677560064348e-01  1.0004202941057884e-01  1.0004327643053962e-01  1.0006101901651077e-01  1.0005202894635121e-01  1.0005217000915559e-01  1.0007931412229241e-01  1.0005502513238422e-01  1.0007111585599070e-01  1.0007190517931575e-01  1.0010001325650057e-01  1.0008805759197810e-01  1.0012814580324078e-01  1.0009646471469706e-01  1.0009025772582406e-01  1.0017639026349096e-01  1.0005213128664217e-01  1.0022408112929196e-01  9.9946320635383765e-02  1.0052887617174935e-01  1.0016414491987062e-01  9.9338983223311708e-02  9.9765546808263425e-02  9.9935934363507173e-02  9.9871860961334560e-02  9.9920266036433544e-02  9.9872984245059693e-02  9.9924255231652187e-02  9.9919317750085210e-02  9.9899936634773701e-02  9.9938872332969400e-02  9.9903175523051280e-02  9.9949031173732453e-02  9.9936386010669148e-02  9.9955113708627655e-02  9.9935881630546342e-02  9.9960746047414464e-02  9.9956641525930423e-02  9.9956337430044270e-02  9.9967311432138176e-02  9.9967929854522602e-02  9.9967108682929837e-02  9.9976172450739711e-02  9.9976935345771858e-02  9.9978145361008269e-02  9.9982730052439822e-02  9.9985346953454179e-02  9.9984946837574792e-02  9.9991572572930620e-02  9.9987431918098987e-02  1.0000000000000003e-01  1.0001976516331093e-01  1.0000000000000003e-01  1.0001194838215687e-01  1.0001883005503602e-01  1.0002082633620266e-01  1.0002328969032601e-01  1.0002366187042024e-01  1.0003179054434151e-01  1.0003089144641550e-01  1.0003129587794946e-01  1.0004222493837818e-01  1.0003994154096964e-01  1.0004024698068720e-01  1.0005606393081766e-01  1.0004982315173253e-01  1.0004927141477753e-01  1.0007292989138648e-01  1.0005776301287067e-01  1.0006225152337768e-01  1.0008447501364517e-01  1.0007590866623321e-01  1.0004346628891665e-01  1.0015014638157584e-01  1.0007965138292789e-01  1.0011113816207944e-01  1.0013063503602056e-01  1.0012480764065387e-01  1.0005871027229334e-01  1.0026428729509718e-01  9.9904676240074972e-02  1.0052406869812615e-01  1.0018093881386771e-01  9.9341515003742914e-02  9.9731225512641963e-02  9.9968900563162696e-02  9.9866862957185859e-02  9.9893264639352011e-02  9.9904043006003973e-02  9.9919138558181866e-02  9.9891533115215411e-02  9.9934248965936223e-02  9.9926360901764044e-02  9.9920261712057923e-02  9.9914756373166033e-02  9.9967993676470898e-02  9.9923370431454245e-02  9.9963153659214224e-02  9.9949849190548001e-02  9.9952210290371171e-02  9.9963437708067177e-02  9.9965578114660711e-02  9.9962835373459388e-02  9.9972928372785375e-02  9.9973605229426776e-02  9.9974301927100023e-02  9.9981244619757284e-02  9.9982110446721381e-02  9.9984194367884902e-02  9.9986466669193280e-02  9.9991354677895536e-02  9.9987446229379356e-02  1.0000000000000003e-01  1.0001980512407421e-01  1.0000000000000003e-01  1.0001151188776647e-01  1.0002084104790891e-01  1.0001919531691955e-01  1.0002230080847406e-01  1.0002781120320475e-01  1.0002844093088005e-01  1.0002904892006012e-01  1.0003844915245615e-01  1.0003630985330550e-01  1.0003720255804836e-01  1.0005105362603549e-01  1.0004645902903656e-01  1.0004550334389391e-01  1.0006583048689027e-01  1.0005614850418203e-01  1.0005566631788608e-01  1.0008280946996985e-01  1.0006718879340562e-01  1.0005980001688368e-01  1.0011273420710182e-01  1.0004428862647707e-01  1.0011399603115599e-01  1