<?xml version="1.0"?>
<VTKFile type="UnstructuredGrid"  version="0.1"  >
<UnstructuredGrid>
<Piece  NumberOfPoints="1933" NumberOfCells="3640">
<Points>
<DataArray  type="Float64"  NumberOfComponents="3"  format="ascii">0.294028334070358 -0.001339559103942423 0  5.294028363177084 -0.001306121836110562 0  5.293978199425146 7.498693947641525 0  0.2939781594181177 7.498660492929512 0  10.29402841248718 -0.001272737331786218 0  10.29397826566869 7.49872733479098 0  15.29402851014181 -0.001239402461830689 0  15.29397836861808 7.498760667808679 0  20.29402868007593 -0.001206095755596385 0  20.29397851678591 7.498793971693156 0  25.2940289403901 -0.001172786277654245 0  25.29397871674537 7.498827278563974 0  30.29402930384292 -0.001139437793346071 0  30.29397897280232 7.498860624981263 0  35.29402977879691 -0.001106010611116686 0  35.29397928674713 7.498894050647107 0  40.29403037007197 -0.001072462177374956 0  40.29397965767891 7.498927598017374 0  45.29403107955063 -0.001038746950615342 0  45.29398008182086 7.498961312503775 0  50.294031906512 -0.001004815815575422 0  50.29398055225118 7.498995243082412 0  55.29403284770153 -0.0009706151553791778 0  55.29398105848558 7.499029443220673 0  60.29403389714216 -0.0009360856149797198 0  60.29398158585352 7.499063972099226 0  65.2940350456706 -0.0009011605315050539 0  65.29398211459944 7.499098896154512 0  70.29403628015024 -0.0008657639587979018 0  70.29398261862477 7.499134291008695 0  75.2940375822722 -0.0008298081628073201 0  75.29398306375154 7.49917024389635 0  80.29403892678516 -0.0007931904012246717 0  80.29398340534266 7.499206856747394 0  85.29404027889743 -0.000755788713411265 0  85.29398358504612 7.499244250147644 0  90.29404159041677 -0.0007174563203631002 0  90.29398352634178 7.499282568476556 0  95.29404279391088 -0.0006780140486652392 0  95.29398312845524 7.499321986613448 0  100.294043793651 -0.0006372399198949033 0  100.2939822580834 7.499362718692471 0  105.2940444511944 -0.0005948546565676816 0  105.29398073829 7.499405029421664 0  110.2940445617951 -0.0005505013273136013 0  110.293978334015 7.499449248321205 0  115.2940438147799 -0.0005037167304489452 0  115.2939747342369 7.499495786548729 0  120.2940417253543 -0.0004538916561163762 0  120.2939695326812 7.499545153990412 0  125.2940375147248 -0.0004002177891412206 0  125.2939622138252 7.499597969305811 0  130.2940298956321 -0.0003416235671495476 0  130.2939521625197 7.499654944021918 0  135.2940166832963 -0.0002767185398589613 0  135.2939387417343 7.499716796529791 0  140.2939940817162 -0.0002038242075703408 0  140.2939215403853 7.499784001799201 0  145.2939553583401 -0.0001213734589014329 0  145.2939010184006 7.499856205529266 0  150.2938883195172 -2.975205292509529e-05 0  150.2938800615757 7.499931141490456 0  160.2938926261462 1.348849739536152e-18 0  165.293876153922 -4.881204851303118e-05 0  165.2938900841742 7.499939999653739 0  160.2938905897292 7.499973475202963 0  170.2938770655622 -7.654832445389814e-05 0  170.2938892583005 7.499918076940062 0  175.293885341191 -8.981384394908916e-05 0  175.293890229966 7.499907440060273 0  180.2938963523088 -9.260914746318051e-05 0  180.29389294941 7.499905952691044 0  185.2939079300644 -8.768670643673862e-05 0  185.2938968905753 7.499911558097005 0  190.2939190823401 -7.700439101362684e-05 0  190.2939015311165 7.499922606898826 0  195.2939293893471 -6.197106386775643e-05 0  195.293906468422 7.499937840635838 0  200.293938709037 -4.361078650800708e-05 0  200.2939114239755 7.499956312154051 0  205.293947031403 -2.267704954571559e-05 0  205.2939162182817 7.499977308348153 0  210.2939544060946 2.679419653229924e-07 0  210.2939207432022 7.500000288627499 0  215.2939609065762 2.479845919811766e-05 0  215.2939249392881 7.500024839035023 0  220.2939666126255 5.058729425921096e-05 0  220.2939287791464 7.500050638892726 0  225.2939716020654 7.737928237949623e-05 0  225.2939322558701 7.500077436732078 0  230.2939759471525 0.0001049726195834992 0  230.2939353752464 7.500105032889724 0  235.2939797133017 0.0001332054977216742 0  235.2939381506246 7.500133266830498 0  240.293982958967 0.0001619464006859284 0  240.2939405996037 7.5001620078205 0  245.293985736093 0.0001910869549164952 0  245.293942741944 7.500191147988642 0  250.293988090826 0.0002205365916342696 0  250.2939445982998 7.500220597110355 0  255.2939900643533 0.000250218520889039 0  255.2939461895068 7.500250278654218 0  260.2939916937947 0.0002800666819739826 0  260.2939475362317 7.500280126777484 0  265.2939930131395 0.0003100234504247657 0  265.2939486588763 7.500310084061449 0  270.2939940542123 0.0003400379690092036 0  270.2939495776478 7.500340099857395 0  275.2939948477036 0.0003700650440154415 0  275.2939503127211 7.500370129180537 0  280.2939954242496 0.0004000646219391028 0  280.293950884457 7.500400132151807 0  285.2939958155748 0.0004300019490008507 0  285.2939513136056 7.500430074053775 0  290.2939960556078 0.000459848633416468 0  290.2939516214423 7.500459926142756 0  295.2939961813995 0.0004895849976500096 0  295.2939518297871 7.500489667445792 0  300.2939962333643 0.0005192043385925358 0  300.2939519609027 7.500519287861724 0  305.2939962538009 0.0005487199576557111 0  305.2939520374672 7.500548792965597 0  310.2939962813754 0.0005781756704838601 0  310.2939520833754 7.500578211050745 0  5.293927911039427 14.99869409365533 0  0.2939278715252168 14.99866061908536 0  10.29392796473086 14.99872747222785 0  15.2939280387244 14.99876078819868 0  20.29392813504268 14.99879407432602 0  25.29392825358437 14.99882736524177 0  30.29392839259388 14.99886069786179 0  35.29392854854572 14.99889411140825 0  40.29392871581693 14.99892764755701 0  45.29392888626914 14.99896135082787 0  50.29392904876062 14.99899526922395 0  55.29392918856652 14.99902945511023 0  60.29392928667136 14.99906396633387 0  65.29392931889291 14.99909886760903 0  70.29392925479115 14.99913423220919 0  75.29392905632173 14.9991701440292 0  80.29392867619482 14.9992067000945 0  85.29392805593169 14.99924401359934 0  90.29392712366324 14.9992822175388 0  95.29392579184325 14.99932146892847 0  100.2939239552899 14.99936195342461 0  105.2939214904408 14.99940388975012 0  110.2939182575403 14.99944753247629 0  115.2939141089403 14.99949316999757 0  120.2939089090776 14.99954111123325 0  125.293902575272 14.99959164845264 0  130.2938951531134 14.9996449727311 0  135.2938869440082 14.99970100039503 0  140.2938786987737 14.99975904121769 0  145.2938718601281 14.99981720104494 0  150.2938687228652 14.99987134500369 0  165.2938837619925 14.99990968171589 0  160.2938814804051 14.99992065094761 0  170.2938833178637 14.99990144373824 0  175.2938821732741 14.99989845151391 0  180.2938813714306 14.99990115382782 0  185.2938812646865 14.99990905082532 0  190.2938818628177 14.99992135554503 0  195.2938830391572 14.99993727833625 0  200.2938846328367 14.99995612665698 0  205.2938864933016 14.99997732639867 0  210.2938884959406 15.00000041345639 0  215.2938905444657 15.00002501637107 0  220.2938925679319 15.00005083833885 0  225.2938945161396 15.00007764146441 0  230.293896355058 15.00010523390069 0  235.2938980628908 15.00013345967778 0  240.293899626917 15.0001621907749 0  245.2939010410589 15.00019132097371 0  250.2939023040635 15.00022076109775 0  255.2939034181652 15.00025043532436 0  260.2939043881182 15.00028027833436 0  265.2939052205034 15.00031023312961 0  270.2939059232344 15.00034024940391 0  275.2939065051995 15.00037028239816 0  280.2939069759975 15.00040029220792 0  285.2939073457517 15.00043024354161 0  290.2939076249961 15.00046010594072 0  295.2939078247317 15.00048985445521 0  300.2939079568203 15.00051947067963 0  305.2939080351242 15.00054894381885 0  310.2939080781074 15.00057827090793 0  5.293877570487737 22.49869435329068 0  0.2938775338553894 22.49866089864036 0  10.29387760911284 22.49872769669708 0  15.2938776508661 22.49876097268621 0  20.29387769422781 22.4987942196672 0  25.29387773579822 22.49882747432769 0  30.29387777070151 22.49886077356706 0  35.29387779261043 22.49889415551897 0  40.2938777935381 22.49892766022212 0  45.2938777635043 22.49896133022065 0  50.29387769013563 22.49899521122238 0  55.29387755822162 22.49902935286965 0  60.29387734923754 22.49906380964807 0  65.29387704084414 22.49909864194648 0  70.2938766063843 22.49913391727353 0  75.29387601442637 22.49916971162462 0  80.29387522844263 22.49920611096638 0  85.2938742067895 22.49924321275193 0  90.29387290326845 22.4992811272782 0  95.29387126872963 22.49931997850901 0  100.2938692544512 22.49935990365345 0  105.2938668184186 22.4994010502143 0  110.2938639361476 22.49944356825279 0  115.2938606183026 22.49948759405205 0  120.2938569378462 22.49953321895903 0  125.293853069317 22.49958043380731 0  130.2938493408517 22.49962903534514 0  135.2938462934045 22.4996784785376 0  140.2938447272429 22.4997276639463 0  145.2938456878985 22.49977468062404 0  150.2938503008121 22.49981663283704 0  165.2938638421321 22.49987502532763 0  160.2938612128728 22.4998704752511 0  170.2938639959644 22.49987881419952 0  175.2938627224705 22.49988422832538 0  180.2938609059481 22.49989245929725 0  185.2938591154096 22.49990387487673 0  190.2938576441839 22.49991837817529 0  195.2938566009136 22.49993565883956 0  200.2938559883013 22.49995533769041 0  205.2938557566797 22.49997703958348 0  210.2938558362271 22.50000042499863 0  215.2938561545679 22.50002520007008 0  220.293856645373 22.50005111631155 0  225.2938572518107 22.50007796601106 0  230.2938579272441 22.50010557628221 0  235.293858634592 22.50013380315744 0  240.293859345137 22.50016252629107 0  245.2938600371967 22.5001916444418 0  250.2938606948546 22.50022107172517 0  255.2938613068429 22.50025073455672 0  260.2938618655834 22.50028056918949 0  265.2938623663963 22.50031051975448 0  270.2938628068441 22.5003405367273 0  275.2938631862025 22.50037057575776 0  280.2938635050457 22.50040059680721 0  285.2938637649585 22.5004305635326 0  290.2938639684177 22.50046044282685 0  295.2938641189401 22.50049020435143 0  3
[...]
<PointData  Scalars="p"> 
<DataArray  type="Float64"  Name="p"  format="ascii">1.0000000000000001e-01  1.0000000000000003e-01  9.9997412514853182e-02  1.0000000000000003e-01  1.0000000000000003e-01  9.9996295486739523e-02  1.0000000000000003e-01  9.9994408438821264e-02  1.0000000000000003e-01  9.9993141580078437e-02  1.0000000000000003e-01  9.9991724089248793e-02  1.0000000000000003e-01  9.9989897372068315e-02  1.0000000000000003e-01  9.9988716066750596e-02  1.0000000000000003e-01  9.9987460606469264e-02  1.0000000000000003e-01  9.9985446059151106e-02  1.0000000000000003e-01  9.9984201604885123e-02  1.0000000000000003e-01  9.9981005944780432e-02  1.0000000000000003e-01  9.9977624084478259e-02  1.0000000000000003e-01  9.9975112794811305e-02  1.0000000000000003e-01  9.9972657039024082e-02  1.0000000000000003e-01  9.9969069788367892e-02  1.0000000000000003e-01  9.9967288413690833e-02  1.0000000000000003e-01  9.9965120419763201e-02  1.0000000000000003e-01  9.9961603577790784e-02  1.0000000000000003e-01  9.9960972590467878e-02  1.0000000000000003e-01  9.9958422595336618e-02  1.0000000000000003e-01  9.9957169824227005e-02  1.0000000000000003e-01  9.9954809544308132e-02  1.0000000000000003e-01  9.9957331072836567e-02  1.0000000000000003e-01  9.9949964856614115e-02  1.0000000000000003e-01  9.9960017938994464e-02  1.0000000000000003e-01  9.9944218332865292e-02  1.0000000000000003e-01  9.9966248187096249e-02  1.0000000000000003e-01  9.9934706291737604e-02  1.0000000000000003e-01  9.9976142294006934e-02  1.0000000000000001e-01  9.9915575490499606e-02  1.0000000000000001e-01  1.0000000000000003e-01  1.0010158784536624e-01  1.0017172969413637e-01  1.0000000000000003e-01  1.0004470273636486e-01  1.0000000000000003e-01  1.0008289015733512e-01  1.0000000000000003e-01  1.0006557204455593e-01  1.0000000000000003e-01  1.0007245430314131e-01  1.0000000000000003e-01  1.0006839872209580e-01  1.0000000000000003e-01  1.0007238129423256e-01  1.0000000000000003e-01  1.0006903380668847e-01  1.0000000000000003e-01  1.0007042128035522e-01  1.0000000000000003e-01  1.0006981364778894e-01  1.0000000000000003e-01  1.0006909662528972e-01  1.0000000000000003e-01  1.0006850279488316e-01  1.0000000000000003e-01  1.0006823567659093e-01  1.0000000000000003e-01  1.0006712202450767e-01  1.0000000000000003e-01  1.0006656718471751e-01  1.0000000000000003e-01  1.0006593245392600e-01  1.0000000000000003e-01  1.0006510683134109e-01  1.0000000000000003e-01  1.0006432763697067e-01  1.0000000000000003e-01  1.0006393189296689e-01  1.0000000000000003e-01  1.0006280719542604e-01  1.0000000000000003e-01  1.0006277694383023e-01  1.0000000000000003e-01  1.0006120043538133e-01  1.0000000000000003e-01  1.0006225964982936e-01  1.0000000000000003e-01  1.0005872334692054e-01  1.0000000000000003e-01  1.0006341577012622e-01  1.0000000000000003e-01  1.0005399831756319e-01  1.0000000000000003e-01  1.0006847518965994e-01  1.0000000000000003e-01  1.0004323508589212e-01  1.0000000000000003e-01  1.0008675070742899e-01  1.0000000000000001e-01  1.0000000000000003e-01  9.9996495985562442e-02  1.0000000000000003e-01  9.9996101504856313e-02  9.9995752930889734e-02  9.9995209095084234e-02  9.9994087618733116e-02  9.9994071916599411e-02  9.9994002672740542e-02  9.9992525087240269e-02  9.9992970681778287e-02  9.9992559533464490e-02  9.9990135449366593e-02  9.9987724067888820e-02  9.9987104315190686e-02  9.9983591516531897e-02  9.9984670135772932e-02  9.9984099929516845e-02  9.9981259103896061e-02  9.9982604637743569e-02  9.9982762037160167e-02  9.9979121920385189e-02  9.9982653439057850e-02  9.9980613089424936e-02  9.9981728541196732e-02  9.9978819860869983e-02  9.9988146059798153e-02  9.9970320370968022e-02  1.0000099085884945e-01  9.9950031810932899e-02  1.0002751207137292e-01  9.9913573332415115e-02  9.9940078729507248e-02  1.0028778624429496e-01  1.0006802326194568e-01  1.0001674479752060e-01  1.0002315329969032e-01  1.0001881227915346e-01  1.0002951893410582e-01  1.0002087294540887e-01  1.0002606670326288e-01  1.0002646240128592e-01  1.0002533206001044e-01  1.0002561939056390e-01  1.0002661661567391e-01  1.0002506729460466e-01  1.0002515437872887e-01  1.0002528101925988e-01  1.0002430848025030e-01  1.0002417806543214e-01  1.0002408984546698e-01  1.0002358106199652e-01  1.0002313947960673e-01  1.0002352318720677e-01  1.0002226975988587e-01  1.0002348262002998e-01  1.0002110133760585e-01  1.0002472591584419e-01  1.0001768926315260e-01  1.0003016038591642e-01  1.0000842831450114e-01  1.0004205970230490e-01  1.0000000000000003e-01  9.9995190317952856e-02  1.0000000000000003e-01  9.9996346053134524e-02  9.9994409284213992e-02  9.9993155290033595e-02  9.9992628875141681e-02  9.9992562871476301e-02  9.9990323819788701e-02  9.9990747819697287e-02  9.9990967517759211e-02  9.9988061968105266e-02  9.9987782638442671e-02  9.9987765540606621e-02  9.9979481223643682e-02  9.9980213926703504e-02  9.9979042964642759e-02  9.9973901795330555e-02  9.9976381714468682e-02  9.9975826528304626e-02  9.9970774175553709e-02  9.9973829354826849e-02  9.9974711286918289e-02  9.9967950895222785e-02  9.9976026070007620e-02  9.9970196121751259e-02  9.9976426817401265e-02  9.9964927726657285e-02  9.9990765142833990e-02  9.9940064145091212e-02  1.0003081148425695e-01  9.9862456323754151e-02  9.9930005475505984e-02  1.0030352189124701e-01  1.0014084512951535e-01  1.0003382482573030e-01  1.0003579247356741e-01  1.0006059104427655e-01  1.0003504025527009e-01  1.0004950611624346e-01  1.0004962694033029e-01  1.0004706381704093e-01  1.0004816526701500e-01  1.0005093470804781e-01  1.0004771346433007e-01  1.0004852625841557e-01  1.0004903813365283e-01  1.0004715877957725e-01  1.0004695753431331e-01  1.0004719147095663e-01  1.0004577499254763e-01  1.0004568682904003e-01  1.0004542216033394e-01  1.0004495479388811e-01  1.0004402272679870e-01  1.0004516180507854e-01  1.0004242202581150e-01  1.0004587269621010e-01  1.0003982133395432e-01  1.0004964751218727e-01  1.0003097228985704e-01  1.0006655595313757e-01  1.0000000000000003e-01  9.9994457401552772e-02  1.0000000000000003e-01  9.9996267223124449e-02  9.9993678621529802e-02  9.9993672252510671e-02  9.9993675665171852e-02  9.9991502564312953e-02  9.9992168876541748e-02  9.9992860741634937e-02  9.9990207166414088e-02  9.9991441326380368e-02  9.9991935583718383e-02  9.9986517247573931e-02  9.9989012432725830e-02  9.9984520099487259e-02  9.9978842568180973e-02  9.9980999745776983e-02  9.9981702238423606e-02  9.9975611396713696e-02  9.9980814676941435e-02  9.9980453378503684e-02  9.9976019169939923e-02  9.9979732522518738e-02  9.9984286000986786e-02  9.9972533914493095e-02  9.9991342166165759e-02  9.9969576330255980e-02  1.0000375412075339e-01  9.9943049519799751e-02  1.0005147476740965e-01  9.9851655216645269e-02  9.9914501874282996e-02  1.0036343361938294e-01  1.0010214657162758e-01  1.0000233138757419e-01  1.0008038795689372e-01  1.0000172793581340e-01  1.0003634372178763e-01  1.0003106826704129e-01  1.0003024627523681e-01  1.0003055855347563e-01  1.0003682333951062e-01  1.0003150185420351e-01  1.0003390451421496e-01  1.0003512917745072e-01  1.0003284687047038e-01  1.0003294942198873e-01  1.0003358884483537e-01  1.0003184131421854e-01  1.0003170509454785e-01  1.0003208747676158e-01  1.0003076675774003e-01  1.0003112495505578e-01  1.0003045731112525e-01  1.0003115469057862e-01  1.0002878629093874e-01  1.0003293081601214e-01  1.0002542861087392e-01  1.0003769092671416e-01  1.0001741713721106e-01  1.0005031235349461e-01  1.0000000000000003e-01  9.9993697982101268e-02  1.0000000000000003e-01  9.9995715861003115e-02  9.9993785817304240e-02  9.9994371288439951e-02  9.9991468854816370e-02  9.9992240963688847e-02  9.9992432322151881e-02  9.9989761579376682e-02  9.9991244643582791e-02  9.9992221156318270e-02  9.9987579282756520e-02  9.9989720541456523e-02  9.9989070526646365e-02  9.9984382265952562e-02  9.9981878786680217e-02  9.9981714279094233e-02  9.9973998813723097e-02  9.9979142080140929e-02  9.9980120505393677e-02  9.9972221003050601e-02  9.9980413088211179e-02  9.9979144749822044e-02  9.9976009585809447e-02  9.9977489084238438e-02  9.9990303896878560e-02  9.9963399852014079e-02  1.0000954111040278e-01  9.9936333811474057e-02  1.0006275148006866e-01  9.9824045357450444e-02  9.9859187496589188e-02  1.0041900169095833e-01  1.0012106800049859e-01  1.0002622401362425e-01  1.0005893600688445e-01  1.0004254961294469e-01  1.0003706752238802e-01  1.0003626618331735e-01  1.0003164534936687e-01  1.0004591131333537e-01  1.0003551918210160e-01  1.0004048912877959e-01  1.0004275098010221e-01  1.0003967667774495e-01  1.0004016125975489e-01  1.0004186287541864e-01  1.0003907099434751e-01  1.0003918950495848e-01  1.0003961866456797e-01  1.0003809496357843e-01  1.0003777435080721e-01  1.0003844748976339e-01  1.0003679177471485e-01  1.0003792431643951e-01  1.0003609622861841e-01  1.0003890553074647e-01  1.0003316418218987e-01  1.0004360303062723e-01  1.0002459312979693e-01  1.0005848674810101e-01  1.0000000000000003e-01  9.9992779758970321e-02  1.0000000000000003e-01  9.9995843566909132e-02  9.9994068631540714e-02  9.9993004400627750e-02  9.9992733881555884e-02  9.9993105805253418e-02  9.9990304124099649e-02  9.9991363818513396e-02  9.9992829900519858e-02  9.9988849773854471e-02  9.9990808016214530e-02  9.9991729692565604e-02  9.9986115410712048e-02  9.9988273668456099e-02  9.9991215155877680e-02  9.9976550609304396e-02  9.9981615396218956e-02  9.9981502668159278e-02  9.9973248692367261e-02  9.9980687556170303e-02  9.9983463371902406e-02  9.9971867397031913e-02  9.9986383693272660e-02  9.9980164290291038e-02  9.9985667260601291e-02  9.9971387098033548e-02  1.0001636033738152e-01  9.9927447521023199e-02  1.0008435197070870e-01  9.9799996475720965e-02  9.9846004340190503e-02  1.0042079219117390e-01  1.0014440594333475e-01  9.9981690873842899e-02  1.0005668527640943e-01  1.0004433277956454e-01  1.0004839831191623e-01  1.0001220022323257e-01  1.0004621898019762e-01  1.0002290028303155e-01  1.0003431502188527e-01  1.0003671928392585e-01  1.0003314167462442e-01  1.0003385941146024e-01  1.0003747269489618e-01  1.0003348670532475e-01  1.0003422184991746e-01  1.0003531313639395e-01  1.0003281821752261e-01  1.0003290850375415e-01  1.0003328018754727e-01  1.0003220706380032e-01  1.0003155104807401e-01  1.0003311604739552e-01  1.0003021850162448e-01  1.0003402411585124e-01  1.0002792808897931e-01  1.0003838115654223e-01  1.0001999461255549e-01  1.0005186646741573e-01  1.0000000000000003e-01  9.9992266175090258e-02  1.0000000000000003e-01  9.9996075280117516e-02  9.9992637400450224e-02  9.9993731827081350e-02  9.9993467573488148e-02  9.9991119012019722e-02  9.9991319687525573e-02  9.9992790061696479e-02  9.9988779438507688e-02  9.9990867114083087e-02  9.9992313806695446e-02  9.9986481950620015e-02  9.9989371291628090e-02  9.9991836926658723e-02  9.9982742688505100e-02  9.9989857176793095e-02  9.9983829586810249e-02  9.9973261741657743e-02  9.9980275932861448e-02  9.9981552845531840e-02  9.9972272545691132e-02  9.9981052391444322e-02  9.9986867838594687e-02  9.9969126841679093e-02  9.9995233893275678e-02  9.9971150125454072e-02  1.0000962399992663e-01  9.9930542367101083e-02  1.0009524251417468e-01  9.9771351446549209e-02  9.9848268491207134e-02  1.0044913596321133e-01  1.0012503605362283e-01  9.9981400212679913e-02  1.0007339478678917e-01  1.0002423185088498e-01  1.0004456663822719e-01  1.0005768419891499e-01  1.0001785442619592e-01  1.0003643136561151e-01  1.0003540817333585e-01  1.0003441862255417e-01  1.0003356449505647e-01  1.0004006861649006e-01  1.0003451290506277e-01  1.0003620180965775e-01  1.0003797925038786e-01  1.0003520461722577e-01  1.0003508823010929e-01  1.0003612842710317e-01  1.0003385648805256e-01  1.0003421710769386e-01  1.0003406033564129e-01  1.0003408647729999e-01  1.0003229787175044e-01  1.0003587903926146e-01  1.0002970899765869e-01  1.0003999335124590e-01  1.0002222184997751e-01  1.0005374168431259e-01  1.0000000000000003e-01  9.9991902492593737e-02  1.0000000000000003e-01  9.9995318950243078e-02  9.9992905129346651e-02  9.9994360160809301e-02  9.9991629672480153e-02  9.9992333977322642e-02  9.9993081365887318e-02  9.9989349240456327e-02  9.9991087181148186e-02  9.9992551034505703e-02  9.9987205220437830e-02  9.9989901323318961e-02  9.9991963996250044e-02  9.9984451840130315e-02  9.9990328424322011e-02  9.9990873335461986e-02  9.9983734711221434e-02  9.9982251272061312e-02  9.9983703026373646e-02  9.9969993505883245e-02  9.9982642471105346e-02  9.9982492861252381e-02  9.9974496032090313e-02  9.9980663920704302e-02  9.9997426244489651e-02  9.9958576729830897e-02  1.0002270842860631e-01  9.9927213258159245e-02  1.0009784452997803e-01  9.9757273046140640e-02  9.9815142485585748e-02  1.0048134416234383e-01  1.0013205877003861e-01  9.9990137218628025e-02  1.0005012909725866e-01  1.0001643037935969e-01  1.0005568156833426e-01  1.0003346969356375e-01  1.0004675110031000e-01  1.0002548332324478e-01  1.0003405147156724e-01  1.0002540293619769e-01  1.0003902617463391e-01  1.0002987287063407e-01  1.0003321533331812e-01  1.0003587313754976e-01  1.0003262316202742e-01  1.0003285143756425e-01  1.0003473458912787e-01  1.0003197312645851e-01  1.0003177519905637e-01  1.0003286441059847e-01  1.0003062313234082e-01  1.0003178365878392e-01  1.0003037818445128e-01  1.0003292816646027e-01  1.0002747750190588e-01  1.0003765402447773e-01  1.0002009932600944e-01  1.0005055094644759e-01  1.0000000000000003e-01  9.9991224957528893e-02  1.0000000000000003e-01  9.9995495035381382e-02  9.9993268240966923e-02  9.9992875142150245e-02  9.9992373967925707e-02  9.9993687510681287e-02  9.9990249659384481e-02  9.9991427888213052e-02  9.9992748403114284e-02  9.9988149189713812e-02  9.9989798244677158e-02  9.9992052728402780e-02  9.9985045073325465e-02  9.9989411371781467e-02  9.9992333607194811e-02  9.9983754082645232e-02  9.9989185783745160e-02  9.9994716717755269e-02  9.9972560343612515e-02  9.9981730370708871e-02  9.9983934410942471e-02  9.9967682139220457e-02  9.9986781502688610e-02  9.9982143863874301e-02  9.9981393586918182e-02  9.9971268547465644e-02  1.0002513247573809e-01  9.9910630412619827e-02  1.0011573221384402e-01  9.9740389955798273e-02  9.9806883126173515e-02  1.0048033427368740e-01  1.0014924677076084e-01  9.9968033687486468e-02  1.0005127107410659e-01  1.0002864395796397e-01  1.0003531585568316e-01  1.0003241838677937e-01  1.0005122580013166e-01  1.0004402598050839e-01  1.0001786006825927e-01  1.0004212997341901e-01  1.0002521504550856e-01  1.0003281163746726e-01  1.0003531231969109e-01  1.0003213501085224e-01  1.0003210377491840e-01  1.0003565049595732e-01  1.0003193613167208e-01  1.0003251021429206e-01  1.0003347034007197e-01  1.0003151177239741e-01  1.0003088603782204e-01  1.0003260814467425e-01  1.0002963648850030e-01  1.0003292704887241e-01  1.0002800323111156e-01  1.0003706649354713e-01  1.0002059572834260e-01  1.0005025522050573e-01  1.0000000000000003e-01  9.9990974983879113e-02  1.0000000000000003e-01  9.9995750572870926e-02  9.9991917766505733e-02  9.9993388331930166e-02  9.9993285806194793e-02  9.9991186083079095e-02  9.9991663992332142e-02  9.9993184992979281e-02  9.9989056040800550e-02  9.9990323175375886e-02  9.9992403680681255e-02  9.9985557920480597e-02  9.9988772657058522e-02  9.9992166897648463e-02  9.9983646038220214e-02  9.9989438795878349e-02  9.9994679961973698e-02  9.9980383821900706e-02  9.9993510057461807e-02  9.9985428415565222e-02  9.9970082414523709e-02  9.9980825875957774e-02  9.9988126717358919e-02  9.9963873338935555e-02  9.9996858840232711e-02  9.9972672791199785e-02  1.0000768062671039e-01  9.9922900609569890e-02  1.0012205319403282e-01  9.9713437123508705e-02  9.9810343895025327e-02  1.0048843183221427e-01  1.0013623074504528e-01  9.9964925403169272e-02  1.0006371785208353e-01  1.0000944742374944e-01  1.0003280061339144e-01  1.0003795646328714e-01  1.0003680315735503e-01  1.0003594746394670e-01  1.0005320387400247e-01  1.0001657484156525e-01  1.0003305419463901e-01  1.0003039258788518e-01  1.0003071150104728e-01  1.0002883767874977e-01  1.0003456618172700e-01  1.0002990047201622e-01  1.0003089771918719e-01  1.0003290267108821e-01  1.0003025901924313e-01  1.0003042237430118e-01  1.0003080585449976e-01  1.0003006810120182e-01  1.0002842629126750e-01  1.0003196689330864e-01  1.0002615457161979e-01  1.0003550855025099e-01  1.0001968682809899e-01  1.0004801387725833e-01  1.0000000000000003e-01  9.9990806030370777e-02  1.0000000000000003e-01  9.9995085844235915e-02  9.9992132938553954e-02  9.9994061918997679e-02  9.9991337992996546e-02  9.9992191475229655e-02  9.9993075276962703e-02  9.9989930107202321e-02  9.9990978971597450e-02  9.9992956387781204e-02  9.9986844153618859e-02  9.9989000306526812e-02  9.9991482930373313e-02  9.9983752450559543e-02  9.9988792379530275e-02  9.9993183775326427e-02  9.9982085538194460e-02  9.9991724127303325e-02  9.9994163749890147e-02  9.9981932234268961e-02  9.9984349555402335e-02  9.9984906278649130e-02  9.9968144330972439e-02  9.9980870296604699e-02  9.9997552114202096e-02  9.9951454049538827e-02  1.0002409042725242e-01  9.9924989625198843e-02  1.0010412637054986e-01  9.9720651059058169e-02  9.9794055255694972e-02  1.0050005716565835e-01  1.0013679680251066e-01  9.9973806768048637e-02  1.0004993083029427e-01  1.0000786441402820e-01  1.0004321140494923e-01  1.0002361049644930e-01  1.0003113729408301e-01  1.0004410834773464e-01  1.0003712669640549e-01  1.0004250728820439e-01  1.0002447788885151e-01  1.0003192073483717e-01  1.0002395844405519e-01  1.0003488049697681e-01  1.0002768054570316e-01  1.0002986690862631e-01  1.0003225830091861e-01  1.0002973975856327e-01  1.0002961574558988e-01  1.0003177783154725e-01  1.0002885899980961e-01  1.0002976417989523e-01  1.0002886645338567e-01  1.0003054506001172e-01  1.0002580324158337e-01  1.0003497989751606e-01  1.0001924169336592e-01  1.0004683384997166e-01  1.0000000000000003e-01  9.9990316623219347e-02  1.0000000000000003e-01  9.9995192053502990e-02  9.9992510323550568e-02  9.9992605123567668e-02  9.9991862558127018e-02  9.9993357408455927e-02  9.9990288614924067e-02  9.9991228772793830e-02  9.9993092586241603e-02  9.9988420983137566e-02  9.9989629149212653e-02  9.9991752221973804e-02  9.9984625513513073e-02  9.9987591887639546e-02  9.9992156593213005e-02  9.9982316093087553e-02  9.9989409848518632e-02  9.9994605748568083e-02  9.9981942662963799e-02  9.9990515381948045e-02  1.0000063078982925e-01  9.9966520553167917e-02  9.9986994649842523e-02  9.9982489004334679e-02  9.9972759250701662e-02  9.9972432855420026e-02  1.0002505936431402e-01  9.9901428729446018e-02  1.0012061677024504e-01  9.9722508086956874e-02  9.9790226615722261e-02  1.0048457503423039e-01  1.0014624403597647e-01  9.9960715473276826e-02  1.0004824913693354e-01  1.0001749604001497e-01  1.0003062607121198e-01  1.0002031710814797e-01  1.0003941877920910e-01  1.0002878269851485e-01  1.0003425343749832e-01  1.0004350177204670e-01  1.0004150957605575e-01  1.0001644385855417e-01  1.0003654163312151e-01  1.0002280461108765e-01  1.0002855162302163e-01  1.0003047488004577e-01  1.0002812826754287e-01  1.0002791822980035e-01  1.0003082776742700e-01  1.0002836479476314e-01  1.0002820324865452e-01  1.0003011129664968e-01  1.0002686216461833e-01  1.0002956232380401e-01  1.0002547210588512e-01  1.0003314352367265e-01  1.0001857054099945e-01  1.0004503114742171e-01  1.0000000000000003e-01  9.9990116434671136e-02  1.0000000000000003e-01  9.9995376498896574e-02  9.9991269480543474e-02  9.9992895511512650e-02  9.9992565208459450e-02  9.9990956219755109e-02  9.9991112223295556e-02  9.9992782525943055e-02  9.9989072561323195e-02  9.9990209665543547e-02  9.9992147131849188e-02  9.9985936347553317e-02  9.9987501280796975e-02  9.9991321776982528e-02  9.9982404525982616e-02  9.9987185038095824e-02  9.9993420113905704e-02  9.9980908097704435e-02  9.9989845676023620e-02  9.9997861905604474e-02  9.9977565830921100e-02  9.9995926407682373e-02  9.9991041812524384e-02  9