<?xml version="1.0"?>
<VTKFile type="UnstructuredGrid"  version="0.1"  >
<UnstructuredGrid>
<Piece  NumberOfPoints="1933" NumberOfCells="3640">
<Points>
<DataArray  type="Float64"  NumberOfComponents="3"  format="ascii">-0.2935493740962513 -0.003025092920832315 0  4.706450670994188 -0.002938575118317159 0  4.706320854248092 7.497061516586807 0  -0.2936791962995677 7.496974992658893 0  9.706450755512231 -0.002852116587424989 0  9.706320931263718 7.497147969528432 0  14.70645091109188 -0.002765681721144044 0  14.70632104096793 7.497234396972005 0  19.70645115690271 -0.002679220266889316 0  19.70632118556784 7.497320851856427 0  24.70645150126404 -0.002592676572298182 0  24.70632136310985 7.497407390267551 0  29.70645194399413 -0.002505993050987261 0  29.70632156716228 7.497494069556302 0  34.70645247824848 -0.002419111067414931 0  34.70632178656746 7.497580947968435 0  39.70645309163476 -0.002331970618716196 0  39.70632200516626 7.497668085116322 0  44.70645376666722 -0.002244509430738567 0  44.70632220137873 7.497755542911702 0  49.70645448066364 -0.002156661736749233 0  49.70632234755214 7.497843386772056 0  54.70645520515475 -0.002068356835509634 0  54.70632240900478 7.497931687030729 0  59.70645590482656 -0.0019795174332795 0  59.70632234269515 7.498020520551436 0  64.70645653596301 -0.001890057716712558 0  64.70632209542397 7.498109972595521 0  69.70645704428966 -0.001799881057050392 0  69.70632160144895 7.498200139028672 0  74.70645736204686 -0.001708877196236702 0  74.70632077933904 7.498291128991726 0  79.70645740400155 -0.001616918701108108 0  79.7063195278277 7.498383068204673 0  84.70645706194513 -0.001523856380873627 0  84.70631772033552 7.498476103125214 0  89.70645619693509 -0.001429513231318754 0  89.70631519771209 7.498570406242079 0  94.70645462808739 -0.001333676279011166 0  94.70631175861246 7.498666182833306 0  99.70645211590849 -0.001236085432044124 0  99.70630714679712 7.498763679517746 0  104.7064483367592 -0.001136418094400155 0  104.7063010346122 7.498863194766091 0  109.7064428425079 -0.00103426791341562 0  109.7062930021961 7.498965090955896 0  114.7064349948763 -0.0009291158096611294 0  114.706282513102 7.49906980597583 0  119.7064238556458 -0.0008202920487001304 0  119.7062688901858 7.499177858528466 0  124.7064079986364 -0.0007069314708880246 0  124.7062513033777 7.499289832432323 0  129.706385181372 -0.0005879354624955495 0  129.706228798681 7.49940630578153 0  134.7063517631285 -0.0004619891054795133 0  134.706200436451 7.499527650012396 0  139.7063016622429 -0.0003277866321658466 0  139.7061656887775 7.49965354455134 0  144.7062244698458 -0.0001849510502410487 0  144.7061254157366 7.499781927122246 0  149.7061019721898 -3.731708321853496e-05 0  149.7060841028413 7.499907064040698 0  159.7061073738535 1.490942775804467e-18 0  164.7061276639452 -2.366330351934221e-05 0  164.7061124639961 7.499965461544385 0  159.7060979433995 7.499975025345677 0  169.7061584194591 -1.696158932764842e-05 0  169.7061267221021 7.499977982763834 0  174.7061909808717 1.047794200711872e-05 0  174.7061417434259 7.500008096464526 0  179.7062218154113 5.253930064097695e-05 0  179.7061571063845 7.500051453015407 0  184.7062496433739 0.0001051017302303442 0  184.7061722071139 7.500104656874427 0  189.7062741772348 0.0001653210031779603 0  189.7061865806772 7.500165195248909 0  194.7062955487021 0.0002312013955049104 0  194.7061999416284 7.500231232604071 0  199.706314046906 0.000301320148526291 0  199.7062121494496 7.500301425885374 0  204.7063300008212 0.0003746462698804142 0  204.7062231635986 7.500374784436081 0  209.706343728924 0.0004504203351159613 0  209.7062330063355 7.500450569489019 0  214.7063555199479 0.0005280740320983215 0  214.7062417361355 7.500528223415916 0  219.7063656276991 0.0006071756561727036 0  219.7062494300537 7.50060732008618 0  224.7063742719268 0.0006873926368569849 0  224.7062561725967 7.500687529859989 0  229.7063816415479 0.0007684653463631696 0  229.7062620490225 7.500768594661258 0  234.7063878985525 0.0008501884785198587 0  234.7062671415328 7.500850310012321 0  239.7063931818727 0.000932397588549118 0  239.7062715273097 7.500932511918739 0  244.7063976109564 0.001014959215600006 0  244.7062752777051 7.501015067177008 0  249.7064012889685 0.001097763544702784 0  249.7062784581383 7.501097866138408 0  254.7064043056555 0.001180718913906037 0  254.706281128428 7.501180817274203 0  259.7064067399162 0.001263747706366001 0  259.7062833433688 7.501263843101269 0  264.706408662162 0.001346783331295535 0  264.7062851534489 7.501346877180207 0  269.7064101365137 0.001429768121964689 0  269.7062866056294 7.501429862013583 0  274.7064112229071 0.001512652085015933 0  274.7062877441174 7.501512747768023 0  279.7064119791167 0.001595392540944865 0  279.7062886110842 7.501595491832996 0  284.7064124626891 0.001677954817422754 0  284.7062892472556 7.501678059320703 0  289.7064127326221 0.001760314311879915 0  289.7062896923032 7.501760424709794 0  294.7064128504537 0.001842460437702104 0  294.7062899849841 7.501842574935598 0  299.7064128799212 0.001924403181916209 0  299.7062901630433 7.501924514312341 0  304.7064128834738 0.002006183025910066 0  304.706290263202 7.502006271714265 0  309.7064129120172 0.00208788380704717 0  309.7062903223093 7.50208791060316 0  4.706190944216026 14.99706169653076 0  -0.2938091016048663 14.99697519850966 0  9.706190993132106 14.99714810905521 0  14.70619104410135 14.99723449821621 0  19.70619109174719 14.99732092079536 0  24.70619112792129 14.99740743228542 0  29.70619114170102 14.99749408816735 0  34.70619111889064 14.99758094463469 0  39.70619104137635 14.99766805936012 0  44.70619088640873 14.99775549242171 0  49.70619062579259 14.99784330739027 0  54.70619022493707 14.99793157256907 0  59.70618964171209 14.99802036239349 0  64.70618882506159 14.99810975901665 0  69.70618771332339 14.99819985412119 0  74.70618623222194 14.99829075100592 0  79.70618429251591 14.99838256699111 0  84.70618178734264 14.99847543615874 0  89.70617858940639 14.99856951236868 0  94.70617454837834 14.99866497231825 0  99.70616948927871 14.9987620180485 0  104.7061632133599 14.99886087756352 0  109.7061555042903 14.99896180079007 0  114.7061461446123 14.99906504537267 0  119.7061349508417 14.99917084176397 0  124.7061218404473 14.99927931813996 0  129.7061069496355 14.99939035069464 0  134.7060908239851 14.99950328204811 0  139.7060746936885 14.99961642195653 0  144.7060607920752 14.99972622506632 0  149.7060525057096 14.99982606072852 0  164.7060765107186 14.99993542755535 0  159.706069319115 14.99991642447914 0  169.7060813664071 14.99996321320917 0  174.7060859879473 15.00000121931141 0  179.7060911221762 15.0000485961436 0  184.7060968457016 15.00010381408756 0  189.7061029783813 15.0001653313112 0  194.7061092822097 15.00023181535873 0  199.706115543041 15.00030218404796 0  204.7061215960373 15.00037558219764 0  209.7061273267701 15.00045134141324 0  214.706132663426 15.00052894052621 0  219.706137567048 15.00060797214698 0  224.7061420225895 15.00068811610333 0  229.7061460316467 15.00076911893942 0  234.7061496069356 15.00085077828314 0  239.7061527682572 15.00093293096734 0  244.7061555396474 15.0010154439959 0  249.7061579474222 15.00109820765902 0  254.706160018876 15.00118113028172 0  259.7061617814485 15.00126413423609 0  264.706163262212 15.00134715295845 0  269.7061644875778 15.00143012880214 0  274.7061654831377 15.00151301162665 0  279.7061662735854 15.00159575807995 0  284.7061668827166 15.00167833157294 0  289.7061673335153 15.00176070296293 0  294.706167648492 15.00184285193716 0  299.7061678505459 15.00192476897982 0  304.706167964965 15.0020064575544 0  309.7061680236199 15.00208793566446 0  4.706061109606962 22.49706198226056 0  -0.2939389306239197 22.49697558856159 0  9.706061136964507 22.49714830180482 0  14.70606114357682 22.49723461020169 0  19.7060611204349 22.4973209631156 0  24.70606105712701 22.49740741307888 0  29.70606094156943 22.49749401182124 0  34.70606075955229 22.49758081161401 0  39.70606049418515 22.49766786622995 0  44.70606012530778 22.49775523180224 0  49.70605962889631 22.49784296769747 0  54.70605897646765 22.49793113744124 0  59.70605813448997 22.49801980970413 0  64.70605706381836 22.49810905934002 0  69.70605571920299 22.49819896845012 0  74.70605404897043 22.49828962741693 0  79.70605199504529 22.49838113579486 0  84.70604949360605 22.49847360284191 0  89.70604647684436 22.49856714729701 0  94.70604287657267 22.49866189569704 0  99.70603863081912 22.49875797799999 0  104.7060336951002 22.49885551841048 0  109.7060280607474 22.49895461789654 0  114.7060217833919 22.49905532271654 0  119.7060150251079 22.4991575701364 0  124.7060081129421 22.49926109852914 0  129.7060016127901 22.4993653053989 0  134.7059964074723 22.49946903774649 0  139.7059937462678 22.49957031614648 0  144.7059951948996 22.49966605564742 0  149.7060023648583 22.49975202282342 0  164.7060187252144 22.49990012424165 0  159.7060168455693 22.49986035535903 0  169.7060186249339 22.49994252767298 0  174.7060177628428 22.4999899117507 0  179.706016990926 22.50004299184655 0  184.7060167344682 22.50010155127484 0  189.7060171201666 22.50016495850666 0  194.7060181084505 22.50023246376176 0  199.7060195853345 22.50030334341447 0  204.7060214161315 22.50037695827663 0  209.706023472942 22.50045276845799 0  214.7060256464205 22.50053032861651 0  219.7060278489876 22.50060927579872 0  224.7060300138402 22.50068931567052 0  229.7060320922077 22.50077020963683 0  234.7060340501399 22.50085176373222 0  239.7060358654408 22.50093381942579 0  244.7060375249996 22.50101624618087 0  249.7060390225787 22.50109893551348 0  254.7060403570427 22.50118179629142 0  259.7060415309523 22.50126475104824 0  264.7060425494753 22.50134773312856 0  269.7060434195377 22.50143068452303 0  274.7060441491866 22.50151355428192 0  279.7060447471359 22.5015962974156 0  284.7060452225226 22.50167887418576 0  289.7060455849416 22.50176124965258 0  294.7060458449171 22.5018433932468 0  299.706046015037
[...]
<PointData  Scalars="p"> 
<DataArray  type="Float64"  Name="p"  format="ascii">1.0000000000000001e-01  1.0000000000000003e-01  9.9996279278873029e-02  1.0000000000000003e-01  1.0000000000000003e-01  9.9996371129576073e-02  1.0000000000000003e-01  9.9994517264446803e-02  1.0000000000000003e-01  9.9993884678045944e-02  1.0000000000000003e-01  9.9992605693688327e-02  1.0000000000000003e-01  9.9990003016079618e-02  1.0000000000000003e-01  9.9989203036838323e-02  1.0000000000000003e-01  9.9987422551165314e-02  1.0000000000000003e-01  9.9984441781398314e-02  1.0000000000000003e-01  9.9984948267136720e-02  1.0000000000000003e-01  9.9975753144831050e-02  1.0000000000000003e-01  9.9972296652193982e-02  1.0000000000000003e-01  9.9967493664779555e-02  1.0000000000000003e-01  9.9964054487966303e-02  1.0000000000000003e-01  9.9955705168148751e-02  1.0000000000000003e-01  9.9952660007700214e-02  1.0000000000000003e-01  9.9946046886582318e-02  1.0000000000000003e-01  9.9936088409980917e-02  1.0000000000000003e-01  9.9932729816628527e-02  1.0000000000000003e-01  9.9921854727483689e-02  1.0000000000000003e-01  9.9914927828967187e-02  1.0000000000000003e-01  9.9902627382482442e-02  1.0000000000000003e-01  9.9903554854382196e-02  1.0000000000000003e-01  9.9874233184358591e-02  1.0000000000000003e-01  9.9897778880378554e-02  1.0000000000000003e-01  9.9838707638628163e-02  1.0000000000000003e-01  9.9901746191349797e-02  1.0000000000000003e-01  9.9791186343044874e-02  1.0000000000000003e-01  9.9919744517200079e-02  1.0000000000000001e-01  9.9713647120109106e-02  1.0000000000000001e-01  1.0000000000000003e-01  1.0019940810953906e-01  1.0044706533311915e-01  1.0000000000000003e-01  1.0004302068757784e-01  1.0000000000000003e-01  1.0015489170116031e-01  1.0000000000000003e-01  1.0009156168478577e-01  1.0000000000000003e-01  1.0010891765084159e-01  1.0000000000000003e-01  1.0009217671614314e-01  1.0000000000000003e-01  1.0009805864274295e-01  1.0000000000000003e-01  1.0008383321951678e-01  1.0000000000000003e-01  1.0008509940800447e-01  1.0000000000000003e-01  1.0007978531111843e-01  1.0000000000000003e-01  1.0007537145204316e-01  1.0000000000000003e-01  1.0007220141451778e-01  1.0000000000000003e-01  1.0006997343832549e-01  1.0000000000000003e-01  1.0006589221552331e-01  1.0000000000000003e-01  1.0006400306561800e-01  1.0000000000000003e-01  1.0006196991589598e-01  1.0000000000000003e-01  1.0005948578909163e-01  1.0000000000000003e-01  1.0005783863304477e-01  1.0000000000000003e-01  1.0005663554496327e-01  1.0000000000000003e-01  1.0005462016232776e-01  1.0000000000000003e-01  1.0005398756762338e-01  1.0000000000000003e-01  1.0005216786633005e-01  1.0000000000000003e-01  1.0005240777962432e-01  1.0000000000000003e-01  1.0004916614022392e-01  1.0000000000000003e-01  1.0005262920572375e-01  1.0000000000000003e-01  1.0004465562077057e-01  1.0000000000000003e-01  1.0005611130510100e-01  1.0000000000000003e-01  1.0003544106548908e-01  1.0000000000000003e-01  1.0007041160495946e-01  1.0000000000000001e-01  1.0000000000000003e-01  9.9993117698953471e-02  1.0000000000000003e-01  9.9993607023388872e-02  9.9993214922180482e-02  9.9992324211688743e-02  9.9989700008319776e-02  9.9989991306504739e-02  9.9989357287666156e-02  9.9985415575677000e-02  9.9987478049664319e-02  9.9985720347798956e-02  9.9983196280312034e-02  9.9972827599797573e-02  9.9977147432377886e-02  9.9966844170940247e-02  9.9971821531015984e-02  9.9967063670210840e-02  9.9959042379651322e-02  9.9960786326464143e-02  9.9957060959962638e-02  9.9944429951497243e-02  9.9951102088266672e-02  9.9938854465163138e-02  9.9939018710255415e-02  9.9925358540599279e-02  9.9946982844328236e-02  9.9890454416603686e-02  9.9981255135528913e-02  9.9820615829676482e-02  1.0006600578891058e-01  9.9710216250484485e-02  9.9798424711164818e-02  1.0066041601797196e-01  1.0021656827163698e-01  1.0002839338346696e-01  1.0006051024998619e-01  1.0004846088347819e-01  1.0007043238893187e-01  1.0004070550859805e-01  1.0005444881007919e-01  1.0004927532581413e-01  1.0004278038751757e-01  1.0004212603722350e-01  1.0004207823997308e-01  1.0003571141937266e-01  1.0003547266343922e-01  1.0003445825890024e-01  1.0003083329770251e-01  1.0003007079723375e-01  1.0002927844575106e-01  1.0002693488268856e-01  1.0002596604195182e-01  1.0002559510993021e-01  1.0002327370702219e-01  1.0002363159715766e-01  1.0002104421622265e-01  1.0002305883705441e-01  1.0001673713176361e-01  1.0002621350193583e-01  1.0000795497941097e-01  1.0003457649280829e-01  1.0000000000000003e-01  9.9989471557959828e-02  1.0000000000000003e-01  9.9993282537126096e-02  9.9990153175606111e-02  9.9987544224575731e-02  9.9987335096443822e-02  9.9986628146434303e-02  9.9980968677481477e-02  9.9982414049147650e-02  9.9981762356348050e-02  9.9975657335510407e-02  9.9974024283391055e-02  9.9979985556654327e-02  9.9951206752101243e-02  9.9963168126597279e-02  9.9956594194155049e-02  9.9944909146681388e-02  9.9950128647040198e-02  9.9943729182681060e-02  9.9927540618261035e-02  9.9932663298603924e-02  9.9926584311746211e-02  9.9903513718460055e-02  9.9920276850639325e-02  9.9892996015721935e-02  9.9906477230022009e-02  9.9866532526967006e-02  9.9933956891359990e-02  9.9783866656063314e-02  1.0005578501409554e-01  9.9547228135064975e-02  9.9881123869328625e-02  1.0057402309979280e-01  1.0031591922811080e-01  1.0006114109781242e-01  1.0008381880418814e-01  1.0013428618155447e-01  1.0005730884995288e-01  1.0010056493720774e-01  1.0008784269388961e-01  1.0007508772066941e-01  1.0007593333560877e-01  1.0007759257160401e-01  1.0006457803079548e-01  1.0006580374029937e-01  1.0006419909134687e-01  1.0005697419774988e-01  1.0005610027144403e-01  1.0005526752671277e-01  1.0005032907259724e-01  1.0004953803889219e-01  1.0004834579126862e-01  1.0004549850461827e-01  1.0004389355679155e-01  1.0004387523741684e-01  1.0003995527205377e-01  1.0004187563689006e-01  1.0003601176521260e-01  1.0004282373703496e-01  1.0002679832621927e-01  1.0005473474258030e-01  1.0000000000000003e-01  9.9987159653805113e-02  1.0000000000000003e-01  9.9991960240663827e-02  9.9985877582149219e-02  9.9986774863555325e-02  9.9985903103186682e-02  9.9979870902511411e-02  9.9981381657293381e-02  9.9980708335690699e-02  9.9973233438793260e-02  9.9976210258609297e-02  9.9976172478001946e-02  9.9959899448660641e-02  9.9976815497056518e-02  9.9951288194991592e-02  9.9947242038567113e-02  9.9951224792129589e-02  9.9950325362348727e-02  9.9930788926923447e-02  9.9942793128429533e-02  9.9932498936446040e-02  9.9916681764193382e-02  9.9921365165244705e-02  9.9922869443404366e-02  9.9885110407011840e-02  9.9931606135661918e-02  9.9859674936576423e-02  9.9955748736711786e-02  9.9779940418494611e-02  1.0009285050530972e-01  9.9521593648608034e-02  9.9890254423482705e-02  1.0071898347218958e-01  1.0020132298136378e-01  1.0002636679310709e-01  1.0022810979217851e-01  9.9996020132824007e-02  1.0011268112401134e-01  1.0007836086777878e-01  1.0007106315009458e-01  1.0006954647141193e-01  1.0007850249202954e-01  1.0005725308767707e-01  1.0006269977713876e-01  1.0006128244710052e-01  1.0005162740782136e-01  1.0005109977226866e-01  1.0005071185572788e-01  1.0004390057643142e-01  1.0004329679223889e-01  1.0004255051692239e-01  1.0003805547592541e-01  1.0003744024415644e-01  1.0003580673037264e-01  1.0003396954063540e-01  1.0003095520334025e-01  1.0003313161245841e-01  1.0002531442791017e-01  1.0003413767988174e-01  1.0001647510647997e-01  1.0004193709325705e-01  1.0000000000000003e-01  9.9984792157908425e-02  1.0000000000000003e-01  9.9989281562407759e-02  9.9985175374404475e-02  9.9985959895736248e-02  9.9978990147606611e-02  9.9980701523944074e-02  9.9979305611352265e-02  9.9970975894323078e-02  9.9974285343645955e-02  9.9974206870801288e-02  9.9959981116275673e-02  9.9968361195841682e-02  9.9960532387899814e-02  9.9959758084780262e-02  9.9939915477091260e-02  9.9947780668116923e-02  9.9924550957855920e-02  9.9939853358619782e-02  9.9932380141726590e-02  9.9908358093967711e-02  9.9925373562047642e-02  9.9909947005752481e-02  9.9895447038338567e-02  9.9893497256827085e-02  9.9913920810593707e-02  9.9837509976616196e-02  9.9957662291140448e-02  9.9750909247551603e-02  1.0010617730268233e-01  9.9447115395939298e-02  9.9764020735689782e-02  1.0080751364406962e-01  1.0027081142041878e-01  1.0010138047196621e-01  1.0011627643401032e-01  1.0013715977644197e-01  1.0009488351571083e-01  1.0008853500095154e-01  1.0007835602338383e-01  1.0010640525674407e-01  1.0006750009343908e-01  1.0008076415221098e-01  1.0007901616778901e-01  1.0006512163337221e-01  1.0006555545416879e-01  1.0006641400897853e-01  1.0005558366466819e-01  1.0005552022012244e-01  1.0005481093291071e-01  1.0004851136864851e-01  1.0004740445302425e-01  1.0004690031809453e-01  1.0004204372515332e-01  1.0004183070787238e-01  1.0003901718495804e-01  1.0003886003346855e-01  1.0003282648043778e-01  1.0003994654031866e-01  1.0002271085687649e-01  1.0004894725592602e-01  1.0000000000000003e-01  9.9982001109129678e-02  1.0000000000000003e-01  9.9989025095891110e-02  9.9983988374166541e-02  9.9980648313469131e-02  9.9980042798756677e-02  9.9979519768789105e-02  9.9971020773290106e-02  9.9973159357441138e-02  9.9973376304424835e-02  9.9961278515747029e-02  9.9966080337049734e-02  9.9963392073064553e-02  9.9950746053571737e-02  9.9953092377679298e-02  9.9969461742988791e-02  9.9913013139826284e-02  9.9942142165781928e-02  9.9931369274702933e-02  9.9910650243682009e-02  9.9926070574357456e-02  9.9921456164012712e-02  9.9885094182808165e-02  9.9918126696824539e-02  9.9886775207843378e-02  9.9894341047858465e-02  9.9853495676824236e-02  9.9957232340754404e-02  9.9726226820287311e-02  1.0014460255875289e-01  9.9388279646574526e-02  9.9790236550969025e-02  1.0076788137219292e-01  1.0033365353122428e-01  9.9990846355167293e-02  1.0015680007008053e-01  1.0012637445427762e-01  1.0013662113943458e-01  1.0004664722158940e-01  1.0013330973638197e-01  1.0005454016907483e-01  1.0008991237962064e-01  1.0008429002889788e-01  1.0006721688620236e-01  1.0006786374884323e-01  1.0007210802720151e-01  1.0005648611370985e-01  1.0005807247686324e-01  1.0005775698829603e-01  1.0004851804450664e-01  1.0004807853817947e-01  1.0004761269078674e-01  1.0004183277241253e-01  1.0004038298762860e-01  1.0004039364792089e-01  1.0003467408433245e-01  1.0003642901455299e-01  1.0002989451447182e-01  1.0003612970397027e-01  1.0001957427173551e-01  1.0004401581960148e-01  1.0000000000000003e-01  9.9980484668928907e-02  1.0000000000000003e-01  9.9988533141002936e-02  9.9979225811580905e-02  9.9981418179662787e-02  9.9979308721917973e-02  9.9971993707521120e-02  9.9972868627259848e-02  9.9973080474411863e-02  9.9961108530602527e-02  9.9966137519300308e-02  9.9964287392571252e-02  9.9948279317723959e-02  9.9954922570345731e-02  9.9958768076209667e-02  9.9929104946175615e-02  9.9964376022256718e-02  9.9920661499820485e-02  9.9909389325697248e-02  9.9924615629931920e-02  9.9920316009254051e-02  9.9889933516052715e-02  9.9909982433724176e-02  9.9908232961542137e-02  9.9856568726589295e-02  9.9916922855651277e-02  9.9842758168216555e-02  9.9931852988680556e-02  9.9737649455892002e-02  1.0014576414458103e-01  9.9334190868028263e-02  9.9815146512569397e-02  1.0083432469839385e-01  1.0026511967231863e-01  1.0002937896624414e-01  1.0020047305661284e-01  1.0007459479313177e-01  1.0011680141358296e-01  1.0017482088956499e-01  1.0004297247402465e-01  1.0010675730556211e-01  1.0009056693813340e-01  1.0007912049519339e-01  1.0007482017496161e-01  1.0008548876288693e-01  1.0006296627984541e-01  1.0006685586756119e-01  1.0006750482916724e-01  1.0005585785862826e-01  1.0005498359935992e-01  1.0005527607368377e-01  1.0004698884048620e-01  1.0004654516875519e-01  1.0004523321247073e-01  1.0004104057389299e-01  1.0003819433204800e-01  1.0003956925419553e-01  1.0003153550150291e-01  1.0003835081079490e-01  1.0002197599684497e-01  1.0004582829175458e-01  1.0000000000000003e-01  9.9979076019209065e-02  1.0000000000000003e-01  9.9986021591667487e-02  9.9979503640208564e-02  9.9981140953188982e-02  9.9972934701187094e-02  9.9974271725952163e-02  9.9973352720605480e-02  9.9962453290023803e-02  9.9966455540704449e-02  9.9965983268583691e-02  9.9949683827196906e-02  9.9956075868450053e-02  9.9956316263894202e-02  9.9933512980219699e-02  9.9952580553595544e-02  9.9940352988951153e-02  9.9938979287313962e-02  9.9911560834644350e-02  9.9925249427725835e-02  9.9884219190220988e-02  9.9919625248633695e-02  9.9902281292555684e-02  9.9875898684478007e-02  9.9888103904801490e-02  9.9911038555270393e-02  9.9810128941846890e-02  9.9962505715130170e-02  9.9724331138346792e-02  1.0013621889790503e-01  9.9323142591979177e-02  9.9736092715204352e-02  1.0090338837060760e-01  1.0030416023576733e-01  1.0006503030566009e-01  1.0013969147713175e-01  1.0008403975363198e-01  1.0016261669100873e-01  1.0008211800050743e-01  1.0014590018346343e-01  1.0007558619710778e-01  1.0009316596831860e-01  1.0006875133822490e-01  1.0009939148564337e-01  1.0006324767468089e-01  1.0007239608982273e-01  1.0007325344223603e-01  1.0005873987383614e-01  1.0005880263255812e-01  1.0006064591311019e-01  1.0004920302323939e-01  1.0004866935795693e-01  1.0004870315040428e-01  1.0004134267852806e-01  1.0004111360576116e-01  1.0003865265711995e-01  1.0003689767609361e-01  1.0003079401280503e-01  1.0003742633876710e-01  1.0002035345401510e-01  1.0004365176099947e-01  1.0000000000000003e-01  9.9977070387900019e-02  1.0000000000000003e-01  9.9986339459542453e-02  9.9979225328907129e-02  9.9976376896501795e-02  9.9974535015056501e-02  9.9974942647691772e-02  9.9964617728997021e-02  9.9966997953996106e-02  9.9967053829295771e-02  9.9953362011387145e-02  9.9957066481485529e-02  9.9957354090364117e-02  9.9936609666531478e-02  9.9948646884812087e-02  9.9946512773955651e-02  9.9926102079072696e-02  9.9933899318376193e-02  9.9958972455978609e-02  9.9872601625044993e-02  9.9919078549577212e-02  9.9907849203548380e-02  9.9866687983438646e-02  9.9911019796707759e-02  9.9882714006213513e-02  9.9870042036138487e-02  9.9848723989168664e-02  9.9955443307466113e-02  9.9688340133253645e-02  1.0017070496692225e-01  9.9297654519670320e-02  9.9738675907695154e-02  1.0088231845406101e-01  1.0034985616701046e-01  1.0000491067074112e-01  1.0016210595476714e-01  1.0012792207013491e-01  1.0010330700662295e-01  1.0010544013993622e-01  1.0013399059259034e-01  1.0012538616241115e-01  1.0005288680116968e-01  1.0011903636714194e-01  1.0005922731385442e-01  1.0008215935671380e-01  1.0008025781619717e-01  1.0006429265910795e-01  1.0006309764152879e-01  1.0006815557981708e-01  1.0005348941546216e-01  1.0005417185590079e-01  1.0005407518695444e-01  1.0004520085797822e-01  1.0004374391819744e-01  1.0004426802256827e-01  1.0003685037942966e-01  1.0003819701935217e-01  1.0003244785429352e-01  1.0003669565169573e-01  1.0002125766277499e-01  1.0004383620264889e-01  1.0000000000000003e-01  9.9976273930890161e-02  1.0000000000000003e-01  9.9986373284052202e-02  9.9975286966059757e-02  9.9977718018989581e-02  9.9975032869835306e-02  9.9967570643775330e-02  9.9968130615044906e-02  9.9968335827572474e-02  9.9955801265134647e-02  9.9959655165828415e-02  9.9959648673843535e-02  9.9940095709382740e-02  9.9948630548739592e-02  9.9949229348600899e-02  9.9925357197640050e-02  9.9938180940131557e-02  9.9946298907866632e-02  9.9899163147721640e-02  9.9957247349728676e-02  9.9893023847446041e-02  9.9875471550320560e-02  9.9900020630829811e-02  9.9905997935866672e-02  9.9837247665164872e-02  9.9917517544703821e-02  9.9842684858155756e-02  9.9911705029621045e-02  9.9730293866710423e-02  1.0016706865012250e-01  9.9254353391024383e-02  9.9759977934367972e-02  1.0091333238325892e-01  1.0030859958616108e-01  1.0001546329227663e-01  1.0020260082422679e-01  1.0007429664695212e-01  1.0011998261742201e-01  1.0012870760533955e-01  1.0010085108311874e-01  1.0009303537029836e-01  1.0015579701318764e-01  1.0004116028643106e-01  1.0009456940648605e-01  1.0007861652146424e-01  1.0007187089771694e-01  1.0006437657311130e-01  1.0007510684458977e-01  1.0005536923260612e-01  1.0005736940117817e-01  1.0005922756155006e-01  1.0004819372257136e-01  1.0004688177265597e-01  1.0004672321832481e-01  1.0003995937293679e-01  1.0003739799253446e-01  1.0003890147616606e-01  1.0003015052036938e-01  1.0003616961414376e-01  1.0002106675231068e-01  1.0004213601584110e-01  1.0000000000000003e-01  9.9975624295243024e-02  1.0000000000000003e-01  9.9984571929255986e-02  9.9976167610419775e-02  9.9978449246223192e-02  9.9969665787252818e-02  9.9970667502100333e-02  9.9969652995744993e-02  9.9959208090894022e-02  9.9961699801537643e-02  9.9962540725735322e-02  9.9945092554022244e-02  9.9951171659952209e-02  9.9951459712036603e-02  9.9928937960635303e-02  9.9941043724582304e-02  9.9943617806486612e-02  9.9909612496423897e-02  9.9939860125233052e-02  9.9925278335212767e-02  9.9916926593938693e-02  9.9890313613921422e-02  9.9902613771397406e-02  9.9852162625288482e-02  9.9891711949614229e-02  9.9908231139273662e-02  9.9793602127631956e-02  9.9962760587111857e-02  9.9729557282130385e-02  1.0011803837804642e-01  9.9298461841611813e-02  9.9708539801075441e-02  1.0097014414994804e-01  1.0031901735654630e-01  1.0004786991085927e-01  1.0015900461881820e-01  1.0008459415357061e-01  1.0015372471895757e-01  1.0009033896534744e-01  1.0009992828449965e-01  1.0012732577485413e-01  1.0008407592489761e-01  1.0012309668434469e-01  1.0006609896760940e-01  1.0008334419381983e-01  1.0005969512687198e-01  1.0008567756824498e-01  1.0005636345092361e-01  1.0006181893683969e-01  1.0006360107208549e-01  1.0005107062080706e-01  1.0005037536987073e-01  1.0005253283000254e-01  1.0004166507722204e-01  1.0004146148975540e-01  1.0003969656169193e-01  1.0003614941866364e-01  1.0003060161655411e-01  1.0003667360259276e-01  1.0002032040191496e-01  1.0004151515360131e-01  1.0000000000000003e-01  9.9974248891188805e-02  1.0000000000000003e-01  9.9985079600790075e-02  9.9976540315016363e-02  9.9974602637694546e-02  9.9971680320660880e-02  9.9972232383197218e-02  9.9962206610436130e-02  9.9963686930510220e-02  9.9964434927079432e-02  9.9950617873682049e-02  9.9953648196207959e-02  9.9954655592972674e-02  9.9934432787028363e-02  9.9942507371498915e-02  9.9945881353853502e-02  9.9916139222274478e-02  9.9935691409818950e-02  9.9934415604578372e-02  9.9904363236122840e-02  9.9918229717716592e-02  9.9956925489321946e-02  9.9829158537807439e-02  9.9912310164996340e-02  9.9878039715006084e-02  9.9852525860589819e-02  9.9858154218563297e-02  9.9956781948047940e-02  9.9674783895551441e-02  1.0016987951531167e-01  9.9304415103353777e-02  9.9689376978495489e-02  1.0095804833398209e-01  1.0035917784654053e-01  1.0000681352005585e-01  1.0016296269990080e-01  1.0011754807133399e-01  1.0011488872932411e-01  1.0009341948692801e-01  1.0013283128453809e-01  1.0008354226602752e-01  1.0009481081562834e-01  1.0010662607674783e-01  1.0011089982367714e-01  1.0004217097456089e-01  1.0009921538416544e-01  1.0005094242520225e-01  1.0006779838999176e-01  1.0006662600891074e-01  1.0005394842205401e-01  1.0005167795277363e-01  1.0005621896193301e-01  1.0004460384616004e-01  1.0004382694963562e-01  1.0004430950220963e-01  1.0003535863244978e-01  1.0003616159238010e-01  1.0003154954862328e-01  1.0003401881863293e-01  1.0002012347374541e-01  1.0004038667914435e-01  1.0000000000000003e-01  9.9974085229759202e-02  1.0000000000000003e-01  9.9985630169788717e-02  9.9973762259993687e-02  9.9976413193980776e-02  9.9973103686546771e-02  9.9966598622512198e-02  9.9966065377594546e-02  9.9966490131360289e-02  9.9954796406513821e-02  9.9957638668000531e-02  9.9957943985931538e-02  9.9940253387876044e-02  9.9945815487492026e-02  9.9949133326008424e-02  9.9923293367263813e-02  9.9935930578969046e-02  9.9940267720822373e-02  9.9905389255238078e-02  9.9926535189760385e-02  9.9938880194409982e-02  9.9873398582928943e-02  9.9953194462564815e-02  9.9880468639824041e-02  9