<?xml version="1.0"?>
<VTKFile type="UnstructuredGrid"  version="0.1"  >
<UnstructuredGrid>
<Piece  NumberOfPoints="1933" NumberOfCells="3640">
<Points>
<DataArray  type="Float64"  NumberOfComponents="3"  format="ascii">0.2940217523226765 -0.001112161633700183 0  5.294021767819431 -0.001079751133926801 0  5.293973137032797 7.498920280385199 0  0.2939731198565615 7.498887868176874 0  10.29402179766232 -0.001047361378084828 0  10.29397316336395 7.498952667905681 0  15.29402185293413 -0.001014978844942984 0  15.29397320084671 7.49898504764668 0  20.29402194009097 -0.0009825850367290198 0  20.29397324999611 7.49901743899966 0  25.29402206161356 -0.0009501596857980795 0  25.29397330977367 7.499049862353269 0  30.29402221686178 -0.0009176819367348302 0  30.29397337746408 7.499082338459784 0  35.29402240271855 -0.0008851306345824132 0  35.29397344857653 7.499114888322558 0  40.29402261396092 -0.0008524842045476144 0  40.293973516733 7.499147533366972 0  45.29402284338696 -0.0008197203396441192 0  45.29397357350224 7.49918029576067 0  50.29402308173714 -0.0007868155904524007 0  50.29397360814805 7.499213198816991 0  55.29402331743534 -0.0007537448918419006 0  55.2939736072673 7.499246267455821 0  60.29402353615571 -0.0007204810305550926 0  60.29397355429293 7.499279528719534 0  65.29402372020242 -0.0006869940390477878 0  65.2939734288305 7.499313012356842 0  70.29402384766459 -0.0006532504868469366 0  70.29397320578707 7.499346751498606 0  75.2940238912837 -0.0006192126261705342 0  75.29397285423379 7.499380783460226 0  80.29402381692789 -0.0005848373301245257 0  80.29397233592128 7.499415150716509 0  85.29402358150973 -0.0005500747359949345 0  85.29397160333875 7.499449902107727 0  90.29402313008538 -0.0005148664691929932 0  90.29397059716734 7.499485094347444 0  95.29402239171253 -0.0004791432710167193 0  95.29396924294153 7.499520793907609 0  100.2940212733663 -0.0004428217824525034 0  100.2939674466931 7.499557079336844 0  105.2940196507285 -0.0004058001500769073 0  105.293965089359 7.499594043982675 0  110.2940173538069 -0.0003679520436075505 0  110.2939620198546 7.499631798842547 0  115.2940141437929 -0.0003291186953698429 0  115.2939580471434 7.499670474654024 0  120.2940096747636 -0.0002890989467501256 0  120.2939529327672 7.499710220897813 0  125.2940034287286 -0.0002476387183663629 0  125.2939463880266 7.499751196171101 0  130.2939946032502 -0.0002044256844760139 0  130.2939380861258 7.499793537413404 0  135.2939819140939 -0.000159107264153392 0  135.2939277127562 7.499837280807595 0  140.2939632454087 -0.0001113843920064518 0  140.293915105872 7.499882177719765 0  145.2939350267821 -6.13322182237469e-05 0  145.2939005900386 7.499927295164424 0  150.2938911199759 -1.040525244051075e-05 0  150.2938857176644 7.499970217975183 0  160.2938926261462 5.325872843631418e-19 0  165.2939026398142 -4.035224771110678e-06 0  165.2938941280858 7.499992559858137 0  160.293888110741 7.499991300654527 0  170.2939149970508 2.373287665661283e-06 0  170.29389991592 7.500000909447239 0  175.293927225118 1.562870511612847e-05 0  175.293905805186 7.500014986842668 0  180.2939384279825 3.362136462369203e-05 0  180.2939116502739 7.500033355654248 0  185.2939483502605 5.498539536999967e-05 0  185.293917266185 7.500054897443615 0  190.2939569977333 7.879720097656118e-05 0  190.2939225223759 7.500078793418662 0  195.2939644749982 0.0001044158172408434 0  195.2939273477682 7.500104450794129 0  200.2939709153944 0.0001313869426173183 0  200.2939317159479 7.500131438394752 0  205.2939764516891 0.000159382242160019 0  205.2939356295907 7.500159439246781 0  210.293981204923 0.0001881600157793621 0  210.2939391085328 7.500188217306195 0  215.2939852812229 0.0002175392533892033 0  215.2939421816507 7.500217594400572 0  220.2939887719549 0.0002473822202127091 0  220.2939448816947 7.500247434223609 0  225.2939917551344 0.0002775825520411481 0  225.2939472421671 7.500277631129053 0  230.2939942971861 0.0003080569621300018 0  230.2939492955422 7.50030810218836 0  235.2939964546749 0.0003387393550109925 0  235.2939510723344 7.500338781482553 0  240.2939982758739 0.0003695765741875124 0  240.293952600694 7.500369615941573 0  245.2939998021406 0.0004005252815901222 0  245.2939539063186 7.500400562271815 0  250.2940010691102 0.0004315496388864737 0  250.2939550125539 7.500431584663293 0  255.294002107741 0.0004626195723399492 0  255.293955940603 7.500462653068896 0  260.2940029452374 0.0004937094774773302 0  260.2939567097929 7.500493741917095 0  265.294003605887 0.000524797272221656 0  265.2939573378693 7.500524829168678 0  270.2940041118326 0.0005558637471222856 0  270.2939578412989 7.500555895665338 0  275.2940044838072 0.0005868921959008217 0  275.293958235558 7.500586924749357 0  280.2940047418355 0.0006178683445252923 0  280.2939585353967 7.50061790216298 0  285.2940049058976 0.0006487806378767326 0  285.2939587550486 7.500648816266548 0  290.2940049965009 0.0006796209951551949 0  290.2939589083712 7.50067965864725 0  295.2940050350333 0.0007103862113592165 0  295.2939590088925 7.500710425223421 0  300.2940050436143 0.0007410802513004944 0  300.2939590697727 7.500741117975554 0  305.2940050438314 0.0007717176795742824 0  305.2939591037945 7.500771747446552 0  310.2940050531138 0.0008023280342068775 0  310.2939591237489 7.500802336206743 0  5.293924475176548 14.99892034285339 0  0.2939244597855859 14.99888794123895 0  10.29392449126351 14.99895271520506 0  15.29392450745602 14.99898508081122 0  20.29392452164288 14.99901746024493 0  25.29392453070834 14.9990498735784 0  30.2939245305085 14.99908234083759 0  35.29392451568138 14.99911488225699 0  40.2939244794105 14.99914751854294 0  45.29392441316502 14.99918027118453 0  50.29392430640967 14.99921316281072 0  55.29392414626708 14.99924621758874 0  60.29392391711491 14.99927946166279 0  65.29392360010198 14.99931292363834 0  70.29392317256848 14.99934663511964 0  75.29392260736145 14.99938063130927 0  80.29392187204482 14.99941495167342 0  85.29392092802503 14.99944964066252 0  90.2939197296525 14.99948474844496 0  95.29391822343771 14.99952033154369 0  100.293916347665 14.99955645312816 0  105.2939140329416 14.99959318244698 0  110.2939112046637 14.99963059237529 0  115.2939077891064 14.99966875309799 0  120.2939037259727 14.99970771822302 0  125.2938989917975 14.99974749660724 0  130.2938936403244 14.99978799823625 0  135.2938878665432 14.99982893526243 0  140.2938820965852 14.99986965130486 0  145.2938770858156 14.99990885175969 0  150.2938739478622 14.99994424262465 0  165.293879354339 14.99998413787564 0  160.2938769516175 14.99997461911518 0  170.293881243878 14.99999695812942 0  175.2938831447541 15.00001330014533 0  180.293885231244 15.00003278380565 0  185.2938874930641 15.00005485816975 0  190.2938898548165 15.00007899475063 0  195.2938922329803 15.00010474770548 0  200.2938945576193 15.00013176014251 0  205.2938967776722 15.00015975260914 0  210.2938988596042 15.00018850793407 0  215.2939007839698 15.0002178573339 0  220.2939025418047 15.00024766906554 0  225.2939041315377 15.00027783959823 0  230.2939055565838 15.00030828688988 0  235.2939068235663 15.00033894530552 0  240.2939079410513 15.0003697617791 0  245.2939089186716 15.00040069290676 0  250.2939097665442 15.00043170273805 0  255.2939104948926 15.00046276109569 0  260.2939111138154 15.00049384230374 0  265.293911633153 15.00052492424131 0  270.2939120624197 15.00055598766879 0  275.2939124107733 15.00058701579638 0  280.2939126870078 15.00061799408356 0  285.2939128995682 15.0006489102715 0  290.2939130565902 15.00067975465616 0  295.2939131660281 15.0007105206005 0  300.2939132359622 15.00074120524711 0  305.2939132752964 15.00077181030835 0  310.2939132952187 15.00080234265877 0  5.293875843948907 22.49892044167217 0  0.2938758305662487 22.4988880790817 0  10.29387585244942 22.49895277968369 0  15.29387585310582 22.49898511558293 0  20.29387584260726 22.49901746931966 0  25.29387581716286 22.49904985977165 0  30.29387577238615 22.49908230553971 0  35.29387570312446 22.49911482540097 0  40.29387560326064 22.49914743862678 0  45.29387546550763 22.49918016526126 0  50.29387528120644 22.49921302639831 0  55.29387504012818 22.49924604446715 0  60.29387473028363 22.49927924352588 0  65.29387433774862 22.49931264955656 0  70.29387384652348 22.49934629074681 0  75.29387323846387 22.49938019773261 0  80.2938724933443 22.49941440375381 0  85.29387158915881 22.49944894463793 0  90.29387050282452 22.49948385846171 0  95.29386921154581 22.49951918463189 0  100.2938676952296 22.49955496194382 0  105.2938659405209 22.49959122488059 0  110.2938639472491 22.4996279969454 0  115.2938617382877 22.4996652791083 0  120.293859373917 22.49970303045192 0  125.2938569714188 22.49974113690336 0  130.2938547292258 22.49977936304771 0  135.293852951349 22.49981728305728 0  140.2938520604438 22.49985419407819 0  145.2938525754634 22.49988903944837 0  150.2938550156513 22.49992043335645 0  165.2938574416877 22.4999741853489 0  160.2938573567839 22.49995830341828 0  170.2938571266974 22.49999136324208 0  175.2938567433568 22.50001044537752 0  180.2938565055816 22.50003155378651 0  185.2938565051928 22.50005454840143 0  190.2938567514545 22.50007918113215 0  195.2938572105801 22.50010518247124 0  200.2938578324309 22.50013230197163 0  205.2938585654601 22.50016032300239 0  210.2938593637971 22.50018906494604 0  215.2938601897844 22.5002183800535 0  220.2938610141663 22.50024814854519 0  225.2938618152167 22.50027827358922 0  230.2938625775012 22.50030867680593 0  235.2938632906231 22.50033929448576 0  240.2938639480998 22.50037007450834 0  245.2938645464235 22.5004009738758 0  250.2938650843015 22.50043195675854 0  255.2938655620607 22.50046299295786 0  260.2938659811809 22.50049405670698 0  265.2938663439391 22.50052512574749 0  270.2938666531337 22.50055618063417 0  275.2938669118826 22.50058720423142 0  280.2938671234788 22.50061818137166 0  285.2938672913215 22.50064909864387 0  290.2938674189403 22.5006799442671 0  295.2938675101705 22.50071070797086 
[...]
<PointData  Scalars="p"> 
<DataArray  type="Float64"  Name="p"  format="ascii">1.0000000000000001e-01  1.0000000000000003e-01  9.9997412531739452e-02  1.0000000000000003e-01  1.0000000000000003e-01  9.9996295429556514e-02  1.0000000000000003e-01  9.9994408324654435e-02  1.0000000000000003e-01  9.9993141412169237e-02  1.0000000000000003e-01  9.9991723879529232e-02  1.0000000000000003e-01  9.9989897105030812e-02  1.0000000000000003e-01  9.9988715761994112e-02  1.0000000000000003e-01  9.9987460269768097e-02  1.0000000000000003e-01  9.9985445673542298e-02  1.0000000000000003e-01  9.9984201196443953e-02  1.0000000000000003e-01  9.9981005506115134e-02  1.0000000000000003e-01  9.9977623603863836e-02  1.0000000000000003e-01  9.9975112301886535e-02  1.0000000000000003e-01  9.9972656534448839e-02  1.0000000000000003e-01  9.9969069241201441e-02  1.0000000000000003e-01  9.9967287870675964e-02  1.0000000000000003e-01  9.9965119870946403e-02  1.0000000000000003e-01  9.9961602983090286e-02  1.0000000000000003e-01  9.9960972018046018e-02  1.0000000000000003e-01  9.9958422002677488e-02  1.0000000000000003e-01  9.9957169209470065e-02  1.0000000000000003e-01  9.9954808912592882e-02  1.0000000000000003e-01  9.9957330483133558e-02  1.0000000000000003e-01  9.9949964134315908e-02  1.0000000000000003e-01  9.9960017376264809e-02  1.0000000000000003e-01  9.9944217511830802e-02  1.0000000000000003e-01  9.9966247696907734e-02  1.0000000000000003e-01  9.9934705310755087e-02  1.0000000000000003e-01  9.9976141985928732e-02  1.0000000000000001e-01  9.9915574305573907e-02  1.0000000000000001e-01  1.0000000000000003e-01  1.0010158894788465e-01  1.0017173257096620e-01  1.0000000000000003e-01  1.0004470293927868e-01  1.0000000000000003e-01  1.0008289123279174e-01  1.0000000000000003e-01  1.0006557269878504e-01  1.0000000000000003e-01  1.0007245516232761e-01  1.0000000000000003e-01  1.0006839952770213e-01  1.0000000000000003e-01  1.0007238216189171e-01  1.0000000000000003e-01  1.0006903463014546e-01  1.0000000000000003e-01  1.0007042216029495e-01  1.0000000000000003e-01  1.0006981450428003e-01  1.0000000000000003e-01  1.0006909749208949e-01  1.0000000000000003e-01  1.0006850367075504e-01  1.0000000000000003e-01  1.0006823654789720e-01  1.0000000000000003e-01  1.0006712289433824e-01  1.0000000000000003e-01  1.0006656806093374e-01  1.0000000000000003e-01  1.0006593332164217e-01  1.0000000000000003e-01  1.0006510769814983e-01  1.0000000000000003e-01  1.0006432850158510e-01  1.0000000000000003e-01  1.0006393275293447e-01  1.0000000000000003e-01  1.0006280804604546e-01  1.0000000000000003e-01  1.0006277779917611e-01  1.0000000000000003e-01  1.0006120126928007e-01  1.0000000000000003e-01  1.0006226050241594e-01  1.0000000000000003e-01  1.0005872415277028e-01  1.0000000000000003e-01  1.0006341664269357e-01  1.0000000000000003e-01  1.0005399906112285e-01  1.0000000000000003e-01  1.0006847613610295e-01  1.0000000000000003e-01  1.0004323568346231e-01  1.0000000000000003e-01  1.0008675190661592e-01  1.0000000000000001e-01  1.0000000000000003e-01  9.9996496091318221e-02  1.0000000000000003e-01  9.9996101518216349e-02  9.9995752939321600e-02  9.9995209088763928e-02  9.9994087575892190e-02  9.9994071862854583e-02  9.9994002614472235e-02  9.9992524985677733e-02  9.9992970583001342e-02  9.9992559435089834e-02  9.9990135301942368e-02  9.9987723919263333e-02  9.9987104183432832e-02  9.9983591316838760e-02  9.9984669972616819e-02  9.9984099769591273e-02  9.9981258871188861e-02  9.9982604448429352e-02  9.9982761856950583e-02  9.9979121640689186e-02  9.9982653238433195e-02  9.9980612850076672e-02  9.9981728271467507e-02  9.9978819563668567e-02  9.9988145896282035e-02  9.9970319917938852e-02  1.0000099087005009e-01  9.9950031156685423e-02  1.0002751245707672e-01  9.9913572393801192e-02  9.9940077270218100e-02  1.0028779044405356e-01  1.0006802474015657e-01  1.0001674489438141e-01  1.0002315366524556e-01  1.0001881262845917e-01  1.0002951937038199e-01  1.0002087322508488e-01  1.0002606712095434e-01  1.0002646274006199e-01  1.0002533239925178e-01  1.0002561975365960e-01  1.0002661695551167e-01  1.0002506762729044e-01  1.0002515473143249e-01  1.0002528135245489e-01  1.0002430881455018e-01  1.0002417840944249e-01  1.0002409017656147e-01  1.0002358139577940e-01  1.0002313981346653e-01  1.0002352351960421e-01  1.0002227007981436e-01  1.0002348295944059e-01  1.0002110163933495e-01  1.0002472627043668e-01  1.0001768951850003e-01  1.0003016081405249e-01  1.0000842843788078e-01  1.0004206029302887e-01  1.0000000000000003e-01  9.9995190491022526e-02  1.0000000000000003e-01  9.9996346084670729e-02  9.9994409334759143e-02  9.9993155263870037e-02  9.9992628831520575e-02  9.9992562816704100e-02  9.9990323703116266e-02  9.9990747691041312e-02  9.9990967395527180e-02  9.9988061768902181e-02  9.9987782446131185e-02  9.9987765371883808e-02  9.9979480931238457e-02  9.9980213689772307e-02  9.9979042742099636e-02  9.9973901452221209e-02  9.9976381448574916e-02  9.9975826271963344e-02  9.9970773781699232e-02  9.9973829052535129e-02  9.9974711008943451e-02  9.9967950429817889e-02  9.9976025782244973e-02  9.9970195728076042e-02  9.9976426460151271e-02  9.9964927228093040e-02  9.9990765032375098e-02  9.9940063299002471e-02  1.0003081188287898e-01  9.9862454602699102e-02  9.9930004577766365e-02  1.0030352601589515e-01  1.0014084712755376e-01  1.0003382508577906e-01  1.0003579307600380e-01  1.0006059183483784e-01  1.0003504062238304e-01  1.0004950687857123e-01  1.0004962751524159e-01  1.0004706439950327e-01  1.0004816591605373e-01  1.0005093531289505e-01  1.0004771405077383e-01  1.0004852689956148e-01  1.0004903873303099e-01  1.0004715938454625e-01  1.0004695816500037e-01  1.0004719207919660e-01  1.0004577560423103e-01  1.0004568745721815e-01  1.0004542277019791e-01  1.0004495541183027e-01  1.0004402334074218e-01  1.0004516242746510e-01  1.0004242261683861e-01  1.0004587333984323e-01  1.0003982188865991e-01  1.0004964820900578e-01  1.0003097272368808e-01  1.0006655688690326e-01  1.0000000000000003e-01  9.9994457640837350e-02  1.0000000000000003e-01  9.9996267294377397e-02  9.9993678710187106e-02  9.9993672284937746e-02  9.9993675712062052e-02  9.9991502546609032e-02  9.9992168853010155e-02  9.9992860736666148e-02  9.9990207082648663e-02  9.9991441254100394e-02  9.9991935542535881e-02  9.9986517095281932e-02  9.9989012336810429e-02  9.9984520003072841e-02  9.9978842356961917e-02  9.9980999607618026e-02  9.9981702133289593e-02  9.9975611122408728e-02  9.9980814529063294e-02  9.9980453229208358e-02  9.9976018861458238e-02  9.9979732313999134e-02  9.9984285870850426e-02  9.9972533478013395e-02  9.9991342097684149e-02  9.9969575891372203e-02  1.0000375414767486e-01  9.9943048712112362e-02  1.0005147545263252e-01  9.9851653336607893e-02  9.9914500304922521e-02  1.0036343968880365e-01  1.0010214800210966e-01  1.0000233157647172e-01  1.0008038924140836e-01  1.0000172778511858e-01  1.0003634447361154e-01  1.0003106860771067e-01  1.0003024668219961e-01  1.0003055902141793e-01  1.0003682376743479e-01  1.0003150222510940e-01  1.0003390497810373e-01  1.0003512957085609e-01  1.0003284726936673e-01  1.0003294986020282e-01  1.0003358924932486e-01  1.0003184172498766e-01  1.0003170553011836e-01  1.0003208789347123e-01  1.0003076717700586e-01  1.0003112539446769e-01  1.0003045772764960e-01  1.0003115512851526e-01  1.0002878670229988e-01  1.0003293127928527e-01  1.0002542897274626e-01  1.0003769146450071e-01  1.0001741738581493e-01  1.0005031307037120e-01  1.0000000000000003e-01  9.9993698287601601e-02  1.0000000000000003e-01  9.9995715946383484e-02  9.9993785953885250e-02  9.9994371368836973e-02  9.9991468896922037e-02  9.9992240979567007e-02  9.9992432357055488e-02  9.9989761531616456e-02  9.9991244609339128e-02  9.9992221147118115e-02  9.9987579162236190e-02  9.9989720465743948e-02  9.9989070479219386e-02  9.9984382091307167e-02  9.9981878654630596e-02  9.9981714202683883e-02  9.9973998550931920e-02  9.9979141945756092e-02  9.9980120405480183e-02  9.9972220668406497e-02  9.9980412950388356e-02  9.9979144582531917e-02  9.9976009259615223e-02  9.9977488813766266e-02  9.9990303869878561e-02  9.9963399208530229e-02  1.0000954133775490e-01  9.9936332820260182e-02  1.0006275238266352e-01  9.9824042903718935e-02  9.9859184768936002e-02  1.0041900862516756e-01  1.0012107028901321e-01  1.0002622429956658e-01  1.0005893670966352e-01  1.0004255051687845e-01  1.0003706791595102e-01  1.0003626666900504e-01  1.0003164586678234e-01  1.0004591186723383e-01  1.0003551958734554e-01  1.0004048970396744e-01  1.0004275144330592e-01  1.0003967714662702e-01  1.0004016178559789e-01  1.0004186335307796e-01  1.0003907147670266e-01  1.0003919002935720e-01  1.0003961915530771e-01  1.0003809546739605e-01  1.0003777487432643e-01  1.0003844800063430e-01  1.0003679228316001e-01  1.0003792485308501e-01  1.0003609672746887e-01  1.0003890607994710e-01  1.0003316465401332e-01  1.0004360364726549e-01  1.0002459347933769e-01  1.0005848758308165e-01  1.0000000000000003e-01  9.9992780117014735e-02  1.0000000000000003e-01  9.9995843678959528e-02  9.9994068831013361e-02  9.9993004488724765e-02  9.9992733973491635e-02  9.9993105896941020e-02  9.9990304148300194e-02  9.9991363839024128e-02  9.9992829960825411e-02  9.9988849731118060e-02  9.9990807998345019e-02  9.9991729724064171e-02  9.9986115301368084e-02  9.9988273619869089e-02  9.9991215188214813e-02  9.9976550391263311e-02  9.9981615337095930e-02  9.9981502648999562e-02  9.9973248429840678e-02  9.9980687472797439e-02  9.9983463353122803e-02  9.9971867025368033e-02  9.9986383660460573e-02  9.9980164111069997e-02  9.9985667071909756e-02  9.9971386652927624e-02  1.0001636075891000e-01  9.9927446193019201e-02  1.0008435343347195e-01  9.9799993380455074e-02  9.9846001629416606e-02  1.0042079984708023e-01  1.0014440833236579e-01  9.9981690433061390e-02  1.0005668653571259e-01  1.0004433328261300e-01  1.0004839906702979e-01  1.0001220051748773e-01  1.0004621959510368e-01  1.0002290051650958e-01  1.0003431560526514e-01  1.0003671965557370e-01  1.0003314206432520e-01  1.0003385988014593e-01  1.0003747309186765e-01  1.0003348709695467e-01  1.0003422230986675e-01  1.0003531354041433e-01  1.0003281863595824e-01  1.0003290896136331e-01  1.0003328061144443e-01  1.0003220750493816e-01  1.0003155150083873e-01  1.0003311650020767e-01  1.0003021893066026e-01  1.0003402460740664e-01  1.0002792848353703e-01  1.0003838170741136e-01  1.0001999490280608e-01  1.0005186721495195e-01  1.0000000000000003e-01  9.9992266587217396e-02  1.0000000000000003e-01  9.9996075427685821e-02  9.9992637618190119e-02  9.9993731950482723e-02  9.9993467733835245e-02  9.9991119082198501e-02  9.9991319755543318e-02  9.9992790161450004e-02  9.9988779443780693e-02  9.9990867131597744e-02  9.9992313887977677e-02  9.9986481886019260e-02  9.9989371276684377e-02  9.9991836995156833e-02  9.9982742545971781e-02  9.9989857169069052e-02  9.9983829601487634e-02  9.9973261515218542e-02  9.9980275897300894e-02  9.9981552853334293e-02  9.9972272260109046e-02  9.9981052313332555e-02  9.9986867891793341e-02  9.9969126360777580e-02  9.9995234029790436e-02  9.9971149701496329e-02  1.0000962427185911e-01  9.9930541070395812e-02  1.0009524442862242e-01  9.9771347394497362e-02  9.9848264899540934e-02  1.0044914507005338e-01  1.0012503837401869e-01  9.9981400171539531e-02  1.0007339591429316e-01  1.0002423219530715e-01  1.0004456750702123e-01  1.0005768501462556e-01  1.0001785457280536e-01  1.0003643206606061e-01  1.0003540852015311e-01  1.0003441906036738e-01  1.0003356499083384e-01  1.0004006904381925e-01  1.0003451330494186e-01  1.0003620230620607e-01  1.0003797966508327e-01  1.0003520505081606e-01  1.0003508871187480e-01  1.0003612886890439e-01  1.0003385694085008e-01  1.0003421759717893e-01  1.0003406079132282e-01  1.0003408695812736e-01  1.0003229834216315e-01  1.0003587954348744e-01  1.0002970942462711e-01  1.0003999393056323e-01  1.0002222216891843e-01  1.0005374246161981e-01  1.0000000000000003e-01  9.9991902959282619e-02  1.0000000000000003e-01  9.9995319107181069e-02  9.9992905389934952e-02  9.9994360341114169e-02  9.9991629828903902e-02  9.9992334093412211e-02  9.9993081515375462e-02  9.9989349298005112e-02  9.9991087249005378e-02  9.9992551154844095e-02  9.9987205213929384e-02  9.9989901360438130e-02  9.9991964106597234e-02  9.9984451759987963e-02  9.9990328451655716e-02  9.9990873431193394e-02  9.9983734579009678e-02  9.9982251248077886e-02  9.9983703118274911e-02  9.9969993235629065e-02  9.9982642507476807e-02  9.9982492888202476e-02  9.9974495769512256e-02  9.9980663793971553e-02  9.9997426520581675e-02  9.9958575923874596e-02  1.0002270915212792e-01  9.9927211830592513e-02  1.0009784664995773e-01  9.9757268372820118e-02  9.9815138346721066e-02  1.0048135345303701e-01  1.0013206181653717e-01  9.9990136676548075e-02  1.0005013007641564e-01  1.0001643098257984e-01  1.0005568236523629e-01  1.0003347010370019e-01  1.0004675207856926e-01  1.0002548350317025e-01  1.0003405196619362e-01  1.0002540336810284e-01  1.0003902661299199e-01  1.0002987321817819e-01  1.0003321582723873e-01  1.0003587351071810e-01  1.0003262356047814e-01  1.0003285189370334e-01  1.0003473498834302e-01  1.0003197354317682e-01  1.0003177565533497e-01  1.0003286483532797e-01  1.0003062356336870e-01  1.0003178412766696e-01  1.0003037860680107e-01  1.0003292864331452e-01  1.0002747790842968e-01  1.0003765456459160e-01  1.0002009962058772e-01  1.0005055168307880e-01  1.0000000000000003e-01  9.9991225465766539e-02  1.0000000000000003e-01  9.9995495214479868e-02  9.9993268560607709e-02  9.9992875323883276e-02  9.9992374165223039e-02  9.9993687700905914e-02  9.9990249784022101e-02  9.9991427992490001e-02  9.9992748564179140e-02  9.9988149238967136e-02  9.9989798310193861e-02  9.9992052876807014e-02  9.9985045059594060e-02  9.9989411417197943e-02  9.9992333754911955e-02  9.9983753993644578e-02  9.9989185822767557e-02  9.9994716891795454e-02  9.9972560114429024e-02  9.9981730410453509e-02  9.9983934562126370e-02  9.9967681796089558e-02  9.9986781643334091e-02  9.9982143845633115e-02  9.9981393464749199e-02  9.9971268111423234e-02  1.0002513342875535e-01  9.9910628391973663e-02  1.0011573512680202e-01  9.9740384488127665e-02  9.9806879173848090e-02  1.0048034418453314e-01  1.0014924944763855e-01  9.9968032960736405e-02  1.0005127251965976e-01  1.0002864424908546e-01  1.0003531650793197e-01  1.0003241920346295e-01  1.0005122636123412e-01  1.0004402668196063e-01  1.0001786043600712e-01  1.0004213048307423e-01  1.0002521534127082e-01  1.0003281220026634e-01  1.0003531267545317e-01  1.0003213541642243e-01  1.0003210424835482e-01  1.0003565089188818e-01  1.0003193653962418e-01  1.0003251068580341e-01  1.0003347075145549e-01  1.0003151220909640e-01  1.0003088649941425e-01  1.0003260858936032e-01  1.0002963691990123e-01  1.0003292754053938e-01  1.0002800363099093e-01  1.0003706703407425e-01  1.0002059603472638e-01  1.0005025595188430e-01  1.0000000000000003e-01  9.9990975535006715e-02  1.0000000000000003e-01  9.9995750783786488e-02  9.9991918100619873e-02  9.9993388544555722e-02  9.9993286072970367e-02  9.9991186256136705e-02  9.9991664158183641e-02  9.9993185191862913e-02  9.9989056145482064e-02  9.9990323276681767e-02  9.9992403865346802e-02  9.9985557958100782e-02  9.9988772728671432e-02  9.9992167091152134e-02  9.9983646007011068e-02  9.9989438854857088e-02  9.9994680176289152e-02  9.9980383686316815e-02  9.9993510173931974e-02  9.9985428562056028e-02  9.9970082193281878e-02  9.9980825931349340e-02  9.9988126987047940e-02  9.9963872836717038e-02  9.9996859242556940e-02  9.9972672439943427e-02  1.0000768119565502e-01  9.9922898839788568e-02  1.0012205667593300e-01  9.9713430386226792e-02  9.9810338999073114e-02  1.0048844257435537e-01  1.0013623363571027e-01  9.9964925034238275e-02  1.0006371884142044e-01  1.0000944763425124e-01  1.0003280163330340e-01  1.0003795690854084e-01  1.0003680379206692e-01  1.0003594817040343e-01  1.0005320458218453e-01  1.0001657501612581e-01  1.0003305484849324e-01  1.0003039287426917e-01  1.0003071193096499e-01  1.0002883814279277e-01  1.0003456656786039e-01  1.0002990086034554e-01  1.0003089818745918e-01  1.0003290306003713e-01  1.0003025943196756e-01  1.0003042283280707e-01  1.0003080626278028e-01  1.0003006853776139e-01  1.0002842672762929e-01  1.0003196734766917e-01  1.0002615495980853e-01  1.0003550907856196e-01  1.0001968711608575e-01  1.0004801457966553e-01  1.0000000000000003e-01  9.9990806625372200e-02  1.0000000000000003e-01  9.9995086063260130e-02  9.9992133307755512e-02  9.9994062185410182e-02  9.9991338258321932e-02  9.9992191684924264e-02  9.9993075527160052e-02  9.9989930268384430e-02  9.9990979125970339e-02  9.9992956598415436e-02  9.9986844246550827e-02  9.9989000415062410e-02  9.9991483141765009e-02  9.9983752477285581e-02  9.9988792476551402e-02  9.9993184007142036e-02  9.9982085479583219e-02  9.9991724236913798e-02  9.9994164001509164e-02  9.9981932087640418e-02  9.9984349665545716e-02  9.9984906486048769e-02  9.9968144099002218e-02  9.9980870317051440e-02  9.9997552662165368e-02  9.9951453076635069e-02  1.0002409164509139e-01  9.9924987829407896e-02  1.0010412973218852e-01  9.9720643951666799e-02  9.9794050541130580e-02  1.0050006712080738e-01  1.0013680023969307e-01  9.9973805657998058e-02  1.0004993194193668e-01  1.0000786498214805e-01  1.0004321197842654e-01  1.0002361098696287e-01  1.0003113814590563e-01  1.0004410888123755e-01  1.0003712721494287e-01  1.0004250817023655e-01  1.0002447805932498e-01  1.0003192124115320e-01  1.0002395888228635e-01  1.0003488090812870e-01  1.0002768092275166e-01  1.0002986739879131e-01  1.0003225867573200e-01  1.0002974017314908e-01  1.0002961620154824e-01  1.0003177823665542e-01  1.0002885941640505e-01  1.0002976463982523e-01  1.0002886685579732e-01  1.0003054551406032e-01  1.0002580363838469e-01  1.0003498040267868e-01  1.0001924198138562e-01  1.0004683453720253e-01  1.0000000000000003e-01  9.9990317250939834e-02  1.0000000000000003e-01  9.9995192289830934e-02  9.9992510744710036e-02  9.9992605393479692e-02  9.9991862857052596e-02  9.9993357691943813e-02  9.9990288848224293e-02  9.9991228973022192e-02  9.9993092842741466e-02  9.9988421138476932e-02  9.9989629292834586e-02  9.9991752459511307e-02  9.9984625605845076e-02  9.9987591998736733e-02  9.9992156851526057e-02  9.9982316116962691e-02  9.9989409960276415e-02  9.9994606034717284e-02  9.9981942597763024e-02  9.9990515503761937e-02  1.0000063117394704e-01  9.9966520224571823e-02  9.9986994937090817e-02  9.9982489154370038e-02  9.9972759171442896e-02  9.9972432516973006e-02  1.0002506083006640e-01  9.9901426090431802e-02  1.0012062109281070e-01  9.9722500404543210e-02  9.9790222410079621e-02  1.0048458547866505e-01  1.0014624658404685e-01  9.9960714617212829e-02  1.0004825067150525e-01  1.0001749595984578e-01  1.0003062677452129e-01  1.0002031787022160e-01  1.0003941926480786e-01  1.0002878323852703e-01  1.0003425426265693e-01  1.0004350220432949e-01  1.0004151028062168e-01  1.0001644422412923e-01  1.0003654209289296e-01  1.0002280494101455e-01  1.0002855216347653e-01  1.0003047522826432e-01  1.0002812868296299e-01  1.0002791869382992e-01  1.0003082815497269e-01  1.0002836520601278e-01  1.0002820369641280e-01  1.0003011170429556e-01  1.0002686256756514e-01  1.0002956278333673e-01  1.0002547247269873e-01  1.0003314401519477e-01  1.0001857082570852e-01  1.0004503180470817e-01  1.0000000000000003e-01  9.9990117095618516e-02  1.0000000000000003e-01  9.9995376761863111e-02  9.9991269915986572e-02  9.9992895806873663e-02  9.9992565571031117e-02  9.9990956494850083e-02  9.9991112490815520e-02  9.9992782818287065e-02  9.9989072780130833e-02  9.9990209859562515e-02  9.9992147403948531e-02  9.9985936494945721e-02  9.9987501423043385e-02  9.9991322055575732e-02  9.9982404613282949e-02  9.9987185156642081e-02  9.9993420440526851e-02  9.9980908097807700e-02  9.9989845809674183e-02  9.9997862281620359e-02  9.9977565708338823e-02  9.9995926610732075e-02  9.9991042235752753e-02  9