<?xml version="1.0"?>
<VTKFile type="UnstructuredGrid"  version="0.1"  >
<UnstructuredGrid>
<Piece  NumberOfPoints="1933" NumberOfCells="3640">
<Points>
<DataArray  type="Float64"  NumberOfComponents="3"  format="ascii">0.4754577948028688 0.0002936944398557423 0  5.475457811688506 0.0002736814338333115 0  5.475487857580459 7.500273739856892 0  0.4754878214739209 7.500293719209055 0  10.4754578315435 0.0002536120055135892 0  10.47548792509613 7.500253682787758 0  15.47545788442915 0.0002334537566475786 0  15.47548804138542 7.500233528510866 0  20.4754580045304 0.0002132005179622254 0  20.47548822374911 7.500213276054328 0  25.47545822459108 0.000192862042648443 0  25.47548848963549 7.50019293743758 0  30.4754585744522 0.0001724582008405336 0  30.47548885623988 7.500172533549301 0  35.47545908121159 0.0001520156942731632 0  35.47548934021219 7.500152091551305 0  40.47545976997486 0.0001315663282060653 0  40.47548995756315 7.500131643459314 0  45.47546066476743 0.0001111463053782835 0  45.47549072371141 7.500111225581914 0  50.47546178943908 9.079623609474768e-05 0  50.47549165359415 7.500090878600225 0  55.47546316850242 7.056169913779498e-05 0  55.47549276177355 7.500070648162319 0  60.47546482789423 5.049428248415846e-05 0  60.47549406248308 7.500050585939081 0  65.47546679566209 3.065310315354664e-05 0  65.47549556955749 7.500030751148315 0  70.47546910257424 1.110686654757413e-05 0  70.47549729618483 7.500011212608593 0  75.47547178264126 -8.063411217003585e-06 0  75.47549925439687 7.499992051441362 0  80.47547487350506 -2.676081784512183e-05 0  80.47550145418087 7.499973364608402 0  85.47547841660949 -4.486779232200681e-05 0  85.47550390204096 7.499955269559643 0  90.47548245697158 -6.223975123598375e-05 0  90.47550659875841 7.49993791038578 0  95.47548704222545 -7.869641465302888e-05 0  95.47550953598834 7.499921466032833 0  100.4754922203094 -9.400980742991789e-05 0  100.475512691185 7.499906161353068 0  105.4754980346215 -0.0001078873794890718 0  105.4755160201795 7.499892282041468 0  110.4755045144167 -0.0001199478676996758 0  110.475519446599 7.499880194803763 0  115.4755116561988 -0.0001296862750702454 0  115.4755228474101 7.499870374297298 0  120.4755193879446 -0.0001364225194143077 0  120.4755260346338 7.499863438111758 0  125.4755275003744 -0.0001392258696915425 0  125.4755287358837 7.499860189400092 0  130.4755355145539 -0.0001368048410429111 0  130.4755305834907 7.499861661621652 0  135.4755424256795 -0.0001273530182582345 0  135.4755311397444 7.499869146892092 0  140.4755462038162 -0.0001083600210731476 0  140.4755300284812 7.499884162132631 0  145.475542807607 -7.650204464311312e-05 0  145.4755273461317 7.499908270198477 0  150.475524166908 -2.8263854752672e-05 0  150.4755247901257 7.499942748510972 0  160.4755282581476 1.32826898086345e-18 0  165.4754659345477 -8.918181394229116e-05 0  165.4755169355348 7.499896749572438 0  160.4755346187995 7.499966107821186 0  170.4754329893236 -0.0001632175331503624 0  170.4754988261083 7.499829786639796 0  175.475415522881 -0.0002266019993307006 0  175.4754841044692 7.499769581031262 0  180.4754065535281 -0.0002818076930254581 0  180.4754731320515 7.499716005601683 0  185.4754023728553 -0.0003306586462828528 0  185.4754653507491 7.499668048050654 0  190.4754009416623 -0.0003745588330178359 0  190.4754600515523 7.499624656641055 0  195.4754011066222 -0.0004145792468509169 0  195.4754566042005 7.499584934712299 0  200.4754021975177 -0.0004515311546975785 0  200.475454507597 7.499548162952006 0  205.4754038140877 -0.0004860299428244832 0  205.4754533818468 7.49951377608514 0  210.4754057107634 -0.0005185461059580413 0  210.4754529450507 7.499481331531666 0  215.4754077330338 -0.0005494436288980164 0  215.4754529897899 7.499450481169978 0  220.4754097815203 -0.0005790080014298033 0  220.4754533636944 7.499420948718044 0  225.475411791186 -0.0006074664152394414 0  225.4754539546105 7.499392512455626 0  230.4754137189844 -0.0006350023127795801 0  230.4754546796999 7.499364992276707 0  235.4754155363204 -0.0006617659352217411 0  235.4754554775645 7.499338240032662 0  240.4754172243256 -0.0006878820537149369 0  240.475456302598 7.499312132305549 0  245.475418770836 -0.0007134557134236076 0  245.4754571209386 7.499286564955912 0  250.4754201684237 -0.0007385765648629897 0  250.4754579075675 7.499261448964817 0  255.4754214131211 -0.0007633221789220836 0  255.4754586442336 7.49923670722568 0  260.4754225036073 -0.0007877606181473962 0  260.4754593179654 7.499212272042236 0  265.4754234407442 -0.0008119524492173824 0  265.475459920023 7.499188083164012 0  270.4754242273714 -0.0008359523161085024 0  270.475460445176 7.499164086248421 0  275.4754248683506 -0.00085981013883643 0  275.4754608912131 7.499140231687304 0  280.475425370828 -0.0008835719478555327 0  280.4754612586401 7.499116473782484 0  285.475425744741 -0.000907280295943867 0  285.4754615504899 7.499092770307926 0  290.4754260035481 -0.0009309740874366447 0  290.4754617722017 7.49906908256376 0  295.4754261651597 -0.0009546874945436828 0  295.4754619315075 7.499045376118072 0  300.4754262528806 -0.0009784473295173931 0  300.475462038299 7.49902162255205 0  305.4754262958493 -0.001002267697241835 0  305.4754621045795 7.498997802664442 0  310.4754263275961 -0.001026139797731201 0  310.4754621450488 7.498973911728545 0  5.475517718134032 15.00027387760933 0  0.4755176779055516 15.00029378205202 0  10.47551778780406 15.00025384564998 0  15.47551790227543 15.00023369448999 0  20.47551807222116 15.00021343688914 0  25.47551830648269 15.00019309135866 0  30.47551861316593 15.00017268169706 0  35.47551899993122 15.00015223624173 0  40.4755194739536 15.00013178736512 0  45.47552004175466 15.00011137135804 0  50.47552070897365 15.000091028714 0  55.47552148008147 15.00007080480167 0  60.47552235801256 15.00005075092471 0  65.47552334367458 15.00003092579449 0  70.47552443528355 15.00001139747298 0  75.47552562746601 14.99999224588026 0  80.47552691005669 14.99997356600137 0  85.47552826652182 14.9999554719723 0  90.47552967194527 14.99993810227 0  95.47553109056197 14.9999216262646 0  100.4755324729338 14.99990625238232 0  105.4755337531241 14.99989223800851 0  110.4755348467332 14.99987990088431 0  115.4755356516469 14.99986963082311 0  120.4755360551044 14.99986189850759 0  125.4755359536451 14.99985725379563 0  130.4755352969792 14.99985629725154 0  135.4755341723958 14.999859591592 0  140.4755329495819 14.99986744658748 0  145.4755324933027 14.99987944153572 0  150.4755343763672 14.99989336265204 0  165.4755436976988 14.99985886236839 0  160.475546246942 14.99990711841726 0  170.4755372734704 14.999807042149 0  175.4755294230252 14.99975601927336 0  180.4755217795488 14.99970782980986 0  185.4755150967245 14.99966303220574 0  190.4755096065695 14.999621516792 0  195.4755052822338 14.99958292797579 0  200.4755019877614 14.99954685479015 0  205.4754995549901 14.9995129083979 0  210.4754978195867 14.99948074816376 0  215.4754966357013 14.99945008567135 0  220.4754958800839 14.9994206801919 0  225.4754954514048 14.99939233158812 0  230.4754952676902 14.99936487314082 0  235.4754952632866 14.99933816520215 0  240.4754953859608 14.99931208989275 0  245.4754955943797 14.99928654678646 0  250.4754958560188 14.99926144943857 0  255.4754961454731 14.99923672260141 0  260.4754964431124 14.99921229999146 0  265.4754967340193 14.99918812249929 0  270.4754970071539 14.99916413676318 0  275.4754972546884 14.9991402940552 0  280.4754974714684 14.9991165494531 0  285.4754976545764 14.99909286129412 0  290.4754978029646 14.9990691909186 0  295.4754979172073 14.9990455026969 0  300.4754979994561 14.99902176424841 0  305.4754980538693 14.9989979464899 0  310.4754980880073 14.99897402240082 0  5.475547373692754 22.50027416119377 0  0.4755473339325073 22.50029399575506 0  10.47554743236805 22.50025415119045 0  15.47554752132118 22.50023399730228 0  20.47554764702383 22.5002137266475 0  25.47554781315226 22.50019336580463 0  30.47554802182444 22.50017294271353 0  35.47554827416165 22.50015248755987 0  40.47554857042048 22.50013203327127 0  45.47554890987149 22.50011161596395 0  50.47554929052859 22.50009127550964 0  55.47554970877565 22.50007105630836 0  60.47555015890789 22.50005100831792 0  65.47555063258764 22.50003118838199 0  70.47555111820832 22.50001166190085 0  75.47555160016874 22.49999250489547 0  80.47555205807457 22.49997380651833 0  85.47555246592511 22.49995567205454 0  90.47555279140889 22.49993822642144 0  95.47555299554979 22.49992161808627 0  100.4755530331368 22.49990602313395 0  105.4755528546702 22.49989164885013 0  110.4755524110057 22.49987873549799 0  115.4755516624913 22.49986755373772 0  120.4755505951034 22.49985839301904 0  125.4755492466547 22.49985153280035 0  130.4755477458015 22.49984718311817 0  135.4755463635609 22.49984537381041 0  140.4755455676938 22.49984576460629 0  145.4755460478146 22.49984735104757 0  150.4755486340158 22.49984809444831 0  165.4755631399068 22.49981664371776 0  160.4755587610348 22.49985164485806 0  170.4755638343397 22.49977677727715 0  175.4755619613041 22.49973506188252 0  180.4755586623551 22.49969352433938 0  185.4755548120308 22.49965329091232 0  190.4755509681062 22.49961485463245 0  195.475547437837 22.49957833501771 0  200.475544360696 22.4995436574793 0  205.475541774629 22.49951066024329 0  210.4755396614257 22.49947915266339 0  215.4755379752576 22.4994489446107 0  220.4755366595547 22.49941985977638 0  225.4755356564064 22.49939174048233 0  230.4755349114025 22.49936444826032 0  235.4755343758139 22.49933786249568 0  240.4755340072832 22.49931187832807 0  245.4755337697294 22.49928640439907 0  250.4755336328686 22.49926136071796 0  255.4755335715874 22.49923667675395 0  260.4755335652767 22.49921228978367 0  265.4755335971976 22.49918814348637 0  270.475533653896 22.49916418676687 0  275.4755337246779 22.49914037278151 0  280.4755338011433 22.49911665814123 0  285.4755338767851 22.49909300225628 0  290.4755339466724 22.49906936676124 0  295.4755340072684 22.499045
[...]
<PointData  Scalars="p"> 
<DataArray  type="Float64"  Name="p"  format="ascii">1.0000000000000001e-01  1.0000000000000003e-01  9.9999711938072111e-02  1.0000000000000003e-01  1.0000000000000003e-01  9.9998538291086667e-02  1.0000000000000003e-01  9.9997796988227736e-02  1.0000000000000003e-01  9.9996921200763547e-02  1.0000000000000003e-01  9.9996294270757236e-02  1.0000000000000003e-01  9.9996076038858267e-02  1.0000000000000003e-01  9.9995389314518165e-02  1.0000000000000003e-01  9.9995234379168699e-02  1.0000000000000003e-01  9.9995062015847791e-02  1.0000000000000003e-01  9.9993504905256034e-02  1.0000000000000003e-01  9.9995991636640108e-02  1.0000000000000003e-01  9.9994745948312688e-02  1.0000000000000003e-01  9.9995203027634094e-02  1.0000000000000003e-01  9.9994872948365926e-02  1.0000000000000003e-01  9.9996445463683525e-02  1.0000000000000003e-01  9.9996546387445540e-02  1.0000000000000003e-01  9.9998465478926504e-02  1.0000000000000003e-01  1.0000110296661847e-01  1.0000000000000003e-01  1.0000254795519660e-01  1.0000000000000003e-01  1.0000671910565354e-01  1.0000000000000003e-01  1.0000974698234592e-01  1.0000000000000003e-01  1.0001498908639456e-01  1.0000000000000003e-01  1.0001693735026015e-01  1.0000000000000003e-01  1.0002769259558281e-01  1.0000000000000003e-01  1.0002319382861141e-01  1.0000000000000003e-01  1.0004390238791701e-01  1.0000000000000003e-01  1.0002697182260169e-01  1.0000000000000003e-01  1.0006376014182773e-01  1.0000000000000003e-01  1.0002574258220188e-01  1.0000000000000001e-01  1.0009255104464702e-01  1.0000000000000001e-01  1.0000000000000003e-01  9.9978348166343781e-02  9.9895434833092780e-02  1.0000000000000003e-01  1.0001811526482571e-01  1.0000000000000003e-01  9.9987163110306698e-02  1.0000000000000003e-01  1.0000898503649772e-01  1.0000000000000003e-01  1.0000514087718253e-01  1.0000000000000003e-01  1.0001143165769989e-01  1.0000000000000003e-01  1.0001177915300080e-01  1.0000000000000003e-01  1.0001722349940807e-01  1.0000000000000003e-01  1.0001782842011159e-01  1.0000000000000003e-01  1.0002050515664594e-01  1.0000000000000003e-01  1.0002251610986493e-01  1.0000000000000003e-01  1.0002388145195444e-01  1.0000000000000003e-01  1.0002499134819975e-01  1.0000000000000003e-01  1.0002640006318285e-01  1.0000000000000003e-01  1.0002701277380546e-01  1.0000000000000003e-01  1.0002763462689525e-01  1.0000000000000003e-01  1.0002834430218749e-01  1.0000000000000003e-01  1.0002858309456863e-01  1.0000000000000003e-01  1.0002893092106109e-01  1.0000000000000003e-01  1.0002905179636468e-01  1.0000000000000003e-01  1.0002941251639134e-01  1.0000000000000003e-01  1.0002896061923060e-01  1.0000000000000003e-01  1.0002987160206077e-01  1.0000000000000003e-01  1.0002833864601875e-01  1.0000000000000003e-01  1.0003089091122647e-01  1.0000000000000003e-01  1.0002640114406952e-01  1.0000000000000003e-01  1.0003379841189626e-01  1.0000000000000003e-01  1.0002133251040136e-01  1.0000000000000003e-01  1.0004323636433711e-01  1.0000000000000001e-01  1.0000000000000003e-01  1.0000074917427204e-01  1.0000000000000003e-01  1.0000005236124464e-01  9.9999946175207730e-02  9.9999952906240447e-02  1.0000045309806209e-01  1.0000025752827005e-01  1.0000058025776697e-01  1.0000153848854353e-01  1.0000070977806076e-01  1.0000138502691942e-01  1.0000052072764266e-01  1.0000451683081442e-01  1.0000122796721339e-01  1.0000408207590462e-01  1.0000208528915085e-01  1.0000445557062537e-01  1.0000657146280124e-01  1.0000683981762776e-01  1.0000929964959715e-01  1.0001346500369197e-01  1.0001287370555885e-01  1.0001840278542345e-01  1.0001941584726769e-01  1.0002495037701351e-01  1.0002091207933478e-01  1.0003802216027402e-01  1.0001257529531289e-01  1.0006089713007242e-01  9.9986717156810623e-02  1.0009266933169809e-01  1.0006465623387603e-01  9.9879642663689844e-02  9.9934178160015055e-02  9.9999197639205506e-02  9.9985756942013532e-02  9.9988862603368034e-02  9.9985990477165693e-02  9.9995716678522778e-02  9.9992416471746476e-02  9.9996009643273723e-02  9.9998893442152570e-02  9.9999585046194550e-02  1.0000061186272208e-01  1.0000299746287133e-01  1.0000323200037713e-01  1.0000398560444328e-01  1.0000525342480236e-01  1.0000559418669973e-01  1.0000599567558723e-01  1.0000693529240674e-01  1.0000709242279901e-01  1.0000770538567533e-01  1.0000788662374234e-01  1.0000887828960470e-01  1.0000809601479810e-01  1.0001047557116276e-01  1.0000734572035958e-01  1.0001396044707116e-01  1.0000351213881245e-01  1.0002069143662544e-01  1.0000000000000003e-01  1.0000169668576120e-01  1.0000000000000003e-01  1.0000049743350925e-01  1.0000049474530830e-01  1.0000085297764717e-01  1.0000045597641788e-01  1.0000082708727501e-01  1.0000208534358355e-01  1.0000161641253633e-01  1.0000223916304432e-01  1.0000310622569450e-01  1.0000383635351583e-01  1.0000013595846272e-01  1.0000963529275204e-01  1.0000297698853253e-01  1.0000586889931389e-01  1.0000794845821775e-01  1.0000720358597025e-01  1.0001060361887780e-01  1.0001555479219680e-01  1.0001544532594936e-01  1.0002008428613576e-01  1.0002758063348845e-01  1.0002529710885234e-01  1.0003632759738934e-01  1.0003422504393487e-01  1.0004741433494509e-01  1.0003158150202240e-01  1.0007364006238793e-01  9.9996333710204305e-02  1.0014228433652647e-01  1.0000346746662794e-01  9.9948780464904088e-02  9.9945602840999015e-02  9.9996038710967045e-02  9.9983991051674340e-02  9.9977599957534344e-02  9.9999623556220926e-02  9.9987355449173851e-02  9.9995339281307161e-02  1.0000065923852988e-01  1.0000123774827974e-01  1.0000298187107538e-01  1.0000780411821505e-01  1.0000785914801812e-01  1.0000936279931691e-01  1.0001194869940669e-01  1.0001228740098736e-01  1.0001303603571846e-01  1.0001467168878023e-01  1.0001507229642323e-01  1.0001554447054552e-01  1.0001683681389614e-01  1.0001689654868408e-01  1.0001804696012553e-01  1.0001772975232397e-01  1.0001999360338984e-01  1.0001756610788298e-01  1.0002318249023878e-01  1.0001441094745575e-01  1.0003272990080624e-01  1.0000000000000003e-01  1.0000239244356687e-01  1.0000000000000003e-01  1.0000123578898036e-01  1.0000240610616325e-01  1.0000184540114269e-01  1.0000238775779495e-01  1.0000394226295034e-01  1.0000367519738411e-01  1.0000478346069698e-01  1.0000674894863140e-01  1.0000614385987491e-01  1.0000666186315915e-01  1.0001129930302483e-01  1.0000334170351101e-01  1.0001462423906211e-01  1.0001144690189542e-01  1.0001114352613268e-01  1.0001240238826861e-01  1.0001838387269064e-01  1.0001616979123712e-01  1.0002217061738058e-01  1.0002751001853488e-01  1.0002833056565046e-01  1.0003195446032917e-01  1.0004353657642974e-01  1.0003361094513104e-01  1.0005630072554265e-01  1.0003110056330645e-01  1.0007905224008697e-01  9.9994089632529870e-02  1.0014732384128645e-01  9.9982318751503721e-02  9.9919107596148860e-02  9.9977730781107860e-02  9.9986035573460336e-02  9.9939411794657831e-02  1.0000418975649941e-01  9.9966704950072524e-02  9.9982640943560422e-02  9.9986329336027205e-02  9.9987578435096522e-02  9.9988308323534739e-02  9.9996119722914389e-02  9.9995155796703705e-02  9.9997256524698278e-02  1.0000094137358302e-01  1.0000136973859038e-01  1.0000224893902511e-01  1.0000471100153986e-01  1.0000494775628244e-01  1.0000579136603320e-01  1.0000724869869120e-01  1.0000798700543373e-01  1.0000832887737647e-01  1.0001016168800736e-01  1.0000965608099931e-01  1.0001245557649802e-01  1.0000978439159669e-01  1.0001659390097831e-01  1.0000723555667632e-01  1.0002439525333121e-01  1.0000000000000003e-01  1.0000309607004569e-01  1.0000000000000003e-01  1.0000233967374056e-01  1.0000294728159753e-01  1.0000304815319622e-01  1.0000445277416449e-01  1.0000416749544203e-01  1.0000522178439804e-01  1.0000769834335846e-01  1.0000713661826649e-01  1.0000816201985646e-01  1.0001231080632345e-01  1.0000927402042768e-01  1.0001346228769079e-01  1.0000925238957468e-01  1.0001901093359369e-01  1.0001398683177774e-01  1.0002062582745115e-01  1.0001631382001760e-01  1.0002191096562783e-01  1.0002885556323073e-01  1.0002653366760954e-01  1.0003479942507368e-01  1.0004062322147672e-01  1.0004330985804284e-01  1.0004350272911582e-01  1.0006382002306986e-01  1.0003570644961743e-01  1.0009027797127351e-01  9.9997128755408587e-02  1.0016574309126464e-01  1.0000501894324595e-01  9.9919969459662597e-02  9.9953707044407938e-02  9.9963567806014883e-02  9.9987078832252566e-02  9.9957782047506633e-02  9.9978429433701041e-02  9.9981551886135805e-02  9.9983221186391150e-02  9.9980152205372708e-02  9.9993804809269962e-02  9.9990576609563564e-02  9.9993918908945392e-02  9.9999431948831943e-02  9.9999648053255091e-02  1.0000081910738118e-01  1.0000472071658804e-01  1.0000487815540220e-01  1.0000574568525217e-01  1.0000811530691345e-01  1.0000847859637427e-01  1.0000946329747533e-01  1.0001080904531742e-01  1.0001207312134094e-01  1.0001198377558997e-01  1.0001489022118219e-01  1.0001287753457416e-01  1.0001891616632548e-01  1.0001055788964908e-01  1.0002823738581837e-01  1.0000000000000003e-01  1.0000390257386448e-01  1.0000000000000003e-01  1.0000262588913574e-01  1.0000396370955898e-01  1.0000496347291221e-01  1.0000506733383262e-01  1.0000576280223361e-01  1.0000821301832720e-01  1.0000795140461971e-01  1.0000928383532853e-01  1.0001277938819540e-01  1.0001177066748247e-01  1.0001435406159480e-01  1.0001655414018139e-01  1.0001726296587750e-01  1.0001008975138986e-01  1.0003030684859658e-01  1.0001737216567919e-01  1.0002391735817766e-01  1.0002846605303969e-01  1.0002637704149948e-01  1.0003200497523285e-01  1.0004287847459657e-01  1.0003698277004937e-01  1.0005013933969921e-01  1.0005096362706152e-01  1.0006192928006362e-01  1.0004279173765544e-01  1.0009664234923604e-01  9.9994983927226735e-02  1.0017805417105635e-01  9.9975628926779123e-02  9.9946262582036621e-02  9.9938209502380193e-02  9.9987348821800326e-02  9.9959782369367867e-02  9.9966232427881135e-02  9.9963966195406526e-02  9.9983373117000299e-02  9.9963832546396653e-02  9.9989196094766558e-02  9.9978748884232388e-02  9.9984628174959470e-02  9.9991602451400804e-02  9.9991919799882700e-02  9.9992910105120986e-02  9.9998579054231346e-02  9.9998333335989939e-02  9.9999619610662505e-02  1.0000283465240868e-01  1.0000319626145347e-01  1.0000385584431004e-01  1.0000635486899918e-01  1.0000659463152456e-01  1.0000815302996749e-01  1.0000879022906586e-01  1.0001151118212923e-01  1.0000945343988026e-01  1.0001605316414411e-01  1.0000789779200181e-01  1.0002466475623106e-01  1.0000000000000003e-01  1.0000432609532527e-01  1.0000000000000003e-01  1.0000316166573087e-01  1.0000547543509462e-01  1.0000521519241046e-01  1.0000625481070155e-01  1.0000842654177400e-01  1.0000808681483983e-01  1.0000942664414331e-01  1.0001281396565456e-01  1.0001179425816503e-01  1.0001438473659166e-01  1.0001844479508307e-01  1.0001722936389244e-01  1.0001731935196782e-01  1.0002655494690246e-01  1.0001187447905285e-01  1.0003286060589069e-01  1.0002925790707679e-01  1.0002686391214415e-01  1.0003079878780385e-01  1.0004029230918744e-01  1.0003668447060272e-01  1.0004358136926329e-01  1.0005776631166653e-01  1.0004657682495223e-01  1.0006832803025352e-01  1.0005173720868429e-01  1.0009267896101826e-01  1.0000515807899503e-01  1.0018283155004394e-01  9.9962495789280695e-02  9.9933547773319253e-02  9.9961199353756053e-02  9.9963241816048459e-02  9.9949502349291494e-02  9.9978133957165954e-02  9.9972383741542784e-02  9.9949642733494076e-02  9.9991300245452761e-02  9.9970454969331990e-02  9.9979438282484595e-02  9.9985523255600353e-02  9.9987326039181562e-02  9.9987236804277346e-02  9.9995600794006198e-02  9.9994885253816071e-02  9.9996261724865435e-02  1.0000068529613655e-01  1.0000110878569918e-01  1.0000196822552065e-01  1.0000481801434027e-01  1.0000545256764001e-01  1.0000610656970660e-01  1.0000872385754948e-01  1.0000869406296900e-01  1.0001142550187343e-01  1.0001022031905572e-01  1.0001629272715164e-01  1.0000864079360222e-01  1.0002541990723000e-01  1.0000000000000003e-01  1.0000483291939379e-01  1.0000000000000003e-01  1.0000395730553331e-01  1.0000557151227299e-01  1.0000601496301087e-01  1.0000835559213256e-01  1.0000823385653483e-01  1.0000954951886613e-01  1.0001255264499846e-01  1.0001181762732329e-01  1.0001357377990182e-01  1.0001829995453282e-01  1.0001704646558542e-01  1.0001896117586920e-01  1.0002553987795429e-01  1.0001963427246921e-01  1.0002773588033798e-01  1.0002144560911483e-01  1.0003690583866673e-01  1.0002989963804418e-01  1.0004154396888718e-01  1.0003231483471815e-01  1.0004288419923467e-01  1.0005118873069445e-01  1.0004981687985520e-01  1.0005240594249717e-01  1.0007591557073592e-01  1.0004588079305367e-01  1.0009757998391337e-01  1.0001365714319617e-01  1.0017558002535491e-01  9.9978226232045136e-02  9.9923080577675391e-02  9.9944094088634403e-02  9.9949945518916686e-02  9.9963803705844484e-02  9.9964493915009722e-02  9.9955184242936090e-02  9.9982723348205779e-02  9.9956583623891399e-02  9.9978772318012527e-02  9.9976476201633940e-02  9.9982915552152080e-02  9.9977602479890348e-02  9.9990787347528087e-02  9.9988475050617420e-02  9.9990603085398574e-02  9.9996323020322464e-02  9.9996512029810539e-02  9.9997255984481476e-02  1.0000156653001305e-01  1.0000169803335038e-01  1.0000276633524642e-01  1.0000507398505473e-01  1.0000637585012510e-01  1.0000649120188557e-01  1.0001012581329717e-01  1.0000844705798248e-01  1.0001452477370470e-01  1.0000752105466854e-01  1.0002357429812914e-01  1.0000000000000003e-01  1.0000539475795030e-01  1.0000000000000003e-01  1.0000393697532819e-01  1.0000610670651516e-01  1.0000747378547820e-01  1.0000811100949104e-01  1.0000917296867151e-01  1.0001211536870805e-01  1.0001182294719843e-01  1.0001310942951719e-01  1.0001697084763567e-01  1.0001633099709564e-01  1.0001840832940338e-01  1.0002421930124966e-01  1.0002114765426588e-01  1.0002538938341117e-01  1.0002942205478617e-01  1.0003003608491962e-01  1.0002007415507011e-01  1.0005128909276331e-01  1.0003174004231841e-01  1.0004088414712985e-01  1.0005006644270487e-01  1.0004177201404693e-01  1.0005462788742728e-01  1.0006170500745080e-01  1.0006475816056727e-01  1.0005267025966570e-01  1.0010323442851009e-01  1.0001023663881456e-01  1.0017444551109789e-01  9.9968365098408937e-02  9.9935102267885378e-02  9.9933043491163512e-02  9.9964999118274681e-02  9.9951091958129609e-02  9.9949587697412662e-02  9.9971475542509264e-02  9.9967256908570210e-02  9.9968420359352633e-02  9.9966538158950194e-02  9.9985177837411524e-02  9.9968565596795789e-02  9.9988614864861380e-02  9.9982037732410295e-02  9.9985713774516649e-02  9.9992403582841852e-02  9.9993110178718300e-02  9.9993531010364067e-02  9.9998880892363251e-02  9.9999032675990182e-02  1.0000005248328046e-01  1.0000357849468539e-01  1.0000385280606801e-01  1.0000525098208776e-01  1.0000686352996498e-01  1.0000932166551252e-01  1.0000795076686152e-01  1.0001438891753700e-01  1.0000745866196524e-01  1.0002316463545256e-01  1.0000000000000003e-01  1.0000563696949348e-01  1.0000000000000003e-01  1.0000417165939368e-01  1.0000718986100400e-01  1.0000715824561140e-01  1.0000871533792444e-01  1.0001122686818582e-01  1.0001135893651811e-01  1.0001275352856211e-01  1.0001637018808493e-01  1.0001525606742828e-01  1.0001734108603925e-01  1.0002257774104985e-01  1.0002051870818283e-01  1.0002354363557300e-01  1.0002977397688062e-01  1.0002764285076149e-01  1.0002786843889339e-01  1.0004269885349022e-01  1.0001993302102401e-01  1.0005153880863384e-01  1.0004703794167770e-01  1.0004261299427239e-01  1.0004622088415162e-01  1.0006445074947164e-01  1.0004783397353009e-01  1.0006989443579055e-01  1.0006224432728754e-01  1.0008957923073329e-01  1.0001880713678801e-01  1.0017424460924915e-01  9.9958658009291018e-02  9.9924037100869958e-02  9.9945529664110605e-02  9.9955366387201178e-02  9.9938513147407412e-02  9.9963535130264333e-02  9.9958652984223795e-02  9.9958415871240547e-02  9.9974480117203585e-02  9.9978453029592643e-02  9.9956920636412774e-02  9.9991141174366430e-02  9.9974610876479908e-02  9.9981808816712009e-02  9.9986296996063873e-02  9.9989053982075513e-02  9.9988150938614975e-02  9.9995683770692581e-02  9.9995444222947275e-02  9.9996300863308574e-02  1.0000047642614246e-01  1.0000145010604558e-01  1.0000193151153741e-01  1.0000537396668312e-01  1.0000531481304425e-01  1.0000792622218516e-01  1.0000752200345980e-01  1.0001315605351647e-01  1.0000666778083452e-01  1.0002197407207462e-01  1.0000000000000003e-01  1.0000586949348594e-01  1.0000000000000003e-01  1.0000462003357585e-01  1.0000686085380085e-01  1.0000738006902149e-01  1.0001008396667460e-01  1.0001031857199939e-01  1.0001182964882191e-01  1.0001513882275773e-01  1.0001464814297641e-01  1.0001610638468809e-01  1.0002077603325188e-01  1.0001917583668478e-01  1.0002148107249617e-01  1.0002766742510023e-01  1.0002522702345414e-01  1.0002802858028183e-01  1.0003794305847243e-01  1.0002889095375858e-01  1.0004034224349631e-01  1.0003327066834980e-01  1.0005213400518502e-01  1.0004509126676261e-01  1.0005950356750473e-01  1.0004779249488235e-01  1.0005426637546118e-01  1.0007900306082412e-01  1.0004710621131760e-01  1.0009212266568313e-01  1.0003117803808956e-01  1.0015419837165400e-01  9.9974159266510987e-02  9.9900558639491807e-02  9.9939656857917031e-02  9.9944219543969939e-02  9.9951672780749734e-02  9.9955586075361785e-02  9.9948211209143836e-02  9.9967784540192631e-02  9.9969383385153446e-02  9.9965421895897799e-02  9.9985171045461438e-02  9.9966433468919910e-02  9.9983630739855431e-02  9.9980415927304653e-02  9.9987068370059648e-02  9.9981932610988464e-02  9.9992849833676511e-02  9.9991663743091749e-02  9.9992953771046125e-02  9.9998179475472668e-02  9.9998484659323969e-02  9.9999313336012266e-02  1.0000311097254241e-01  1.0000414160027149e-01  1.0000433452476030e-01  1.0000820536162522e-01  1.0000689184633169e-01  1.0001231598968992e-01  1.0000668396540580e-01  1.0002117777846475e-01  1.0000000000000003e-01  1.0000623002258741e-01  1.0000000000000003e-01  1.0000441252902416e-01  1.0000700800575177e-01  1.0000830017673284e-01  1.0000936365212161e-01  1.0001051763601117e-01  1.0001364424412712e-01  1.0001366978857332e-01  1.0001507181070116e-01  1.0001893827705162e-01  1.0001827405521037e-01  1.0001977521409065e-01  1.0002514477224293e-01  1.0002312173316126e-01  1.0002560225033383e-01  1.0003414020273621e-01  1.0002915216883891e-01  1.0003513745067769e-01  1.0004104408490137e-01  1.0004104891384548e-01  1.0002725354329035e-01  1.0007209462621046e-01  1.0004118672406237e-01  1.0005786018953719e-01  1.0006389365053293e-01  1.0006009298271155e-01  1.0005177084244105e-01  1.0010240427959652e-01  1.0001563696273415e-01  1.0015237229587644e-01  9.9982167794948187e-02  9.9892562081549091e-02  9.9924286231345374e-02  9.9956504376617711e-02  9.9947543229759725e-02  9.9944851885564581e-02  9.9959629938928277e-02  9.9962585694900352e-02  9.9957330615279574e-02  9.9977157260114927e-02  9.9975661885758182e-02  9.9977608468611479e-02  9.9972975034570907e-02  9.9990384517158346e-02  9.9975227332406075e-02  9.9991324756073113e-02  9.9986653260458566e-02  9.9989301156322305e-02  9.9994789792198752e-02  9.9995982263040212e-02  9.9996085336802404e-02  1.0000080095092982e-01  1.0000111900591160e-01  1.0000272872769000e-01  1.0000501136945156e-01  1.0000721500005751e-01  1.0000597493584280e-01  1.0001212041344967e-01  1.0000613450055193e-01  1.0002007252950902e-01  1.0000000000000003e-01  1.0000613100332159e-01  1.0000000000000003e-01  1.0000425679483302e-01  1.0000748379853104e-01  1.0000747173429490e-01  1.0000918684876851e-01  1.0001159764250418e-01  1.0001208332354174e-01  1.0001349149530418e-01  1.0001700756513224e-01  1.0001638844593594e-01  1.0001813773233342e-01  1.0002285858101098e-01  1.0002098664970049e-01  1.0002275754254913e-01  1.0002980752460661e-01  1.0002677918150137e-01  1.0003033505111955e-01  1.0003937521416865e-01  1.0003524623101455e-01  1.0003563518509218e-01  1.0005580166882910e-01  1.0002485398356435e-01  1.0006491071356960e-01  1