<?xml version="1.0"?>
<VTKFile type="UnstructuredGrid"  version="0.1"  >
<UnstructuredGrid>
<Piece  NumberOfPoints="1933" NumberOfCells="3640">
<Points>
<DataArray  type="Float64"  NumberOfComponents="3"  format="ascii">-0.4754239531684544 -0.001261654923376335 0  4.524576089542372 -0.001238077125300543 0  4.524540728862563 7.498762033762342 0  -0.4754593365503837 7.49873841804907 0  9.524576156162219 -0.001214588814747507 0  9.52454084065163 7.49878553185149 0  14.52457629438686 -0.00119120455830415 0  14.52454102000122 7.498808916293206 0  19.52457654957825 -0.001167904193047771 0  19.52454128592375 7.498832214032351 0  24.52457695990896 -0.001144648345476859 0  24.52454165541472 7.498855467008911 0  29.5245775561241 -0.001121386241533005 0  29.52454214288653 7.498878726923527 0  34.52457836270359 -0.001098059546511258 0  34.5245427597503 7.498902052381358 0  39.52457939925073 -0.001074603958328549 0  39.52454351418776 7.498925507698973 0  44.52458068169955 -0.001050949432724835 0  44.52454441099306 7.498949162844257 0  49.52458222322154 -0.001027019496838828 0  49.52454545135714 7.498973094187088 0  54.52458403481263 -0.001002729870744091 0  54.52454663248844 7.498997385895977 0  59.52458612555918 -0.000977986469520944 0  59.52454794697365 7.499022131929293 0  64.52458850257227 -0.0009526827541051793 0  64.5245493817723 7.499047438658025 0  69.52459117053694 -0.0009266963098373615 0  69.52455091671638 7.499073428235563 0  74.52459413077634 -0.0008998844376534771 0  74.52455252233636 7.499100242911308 0  79.52459737963483 -0.0008720784260362537 0  79.52455415675969 7.499128050582686 0  84.5246009058519 -0.0008430760111314286 0  84.52455576132769 7.49915705200372 0  89.52460468635479 -0.0008126312993897312 0  89.52455725442243 7.499187490230269 0  94.52460867949401 -0.0007804410809604705 0  94.52455852280411 7.499219663087805 0  99.52461281400676 -0.0007461259443420966 0  99.52455940953814 7.499253939687836 0  104.5246169706766 -0.0007092038350814946 0  104.5245596973774 7.499290782241629 0  109.5246209511985 -0.0006690525945696286 0  109.5245590864746 7.499330774455554 0  114.5246244242174 -0.000624856521895344 0  114.5245571659673 7.499374657209226 0  119.5246268299292 -0.0005755302951890004 0  119.5245533814279 7.499423369963147 0  124.524627208444 -0.0005196126173817712 0  124.5245470069891 7.49947809003319 0  129.5246238863503 -0.0004551251591274365 0  129.524537147786 7.499540246358221 0  134.524613897278 -0.0003794114110595786 0  134.5245228376399 7.499611449567837 0  139.5245918988982 -0.0002890462412446403 0  139.5245033856633 7.499693210876707 0  144.5245481196687 -0.0001802041470214648 0  144.5244793262123 7.499786224075605 0  149.5244643403281 -5.113278261827381e-05 0  149.524454809042 7.499889085425722 0  159.5244717418526 9.074157252008957e-19 0  164.5244158281842 -0.0001084852719289058 0  164.5244633131159 7.499870855469355 0  159.5244744298447 7.499951774940665 0  169.5243969903913 -0.0001850263855592237 0  169.5244517180591 7.499804784792239 0  174.5243957678918 -0.0002391475285645435 0  174.5244441517499 7.499755469839469 0  179.524402761944 -0.0002766773285619073 0  179.5244407640793 7.499720382839441 0  184.5244132868378 -0.000301761809244652 0  184.5244406361339 7.499696605212904 0  189.5244249874822 -0.0003174319631905384 0  189.5244427612128 7.499681655691868 0  194.5244366908347 -0.0003259108258665433 0  194.5244463121057 7.499673583586301 0  199.5244478308285 -0.0003288356033968515 0  199.5244506773921 7.499670893411571 0  204.5244581547342 -0.0003274223187194932 0  204.5244554292481 7.499672444893102 0  209.5244675713352 -0.0003225848775016882 0  209.5244602787532 7.499677365401699 0  214.5244760716733 -0.0003150195455529783 0  214.5244650363987 7.499684981577467 0  219.5244836873575 -0.0003052644284589231 0  219.5244695817202 7.499694768278125 0  224.5244904685317 -0.0002937414092702244 0  224.5244738413575 7.499706311119598 0  229.5244964722544 -0.0002807859424275234 0  229.524477773717 7.499719279093272 0  234.5245017564585 -0.0002666684632846571 0  234.5244813584509 7.499733404473438 0  239.5245063769445 -0.0002516099815392567 0  239.5244845893236 7.499748467955579 0  244.5245103860529 -0.0002357936004996632 0  244.5244874694293 7.499764287552681 0  249.5245138322805 -0.0002193731428913419 0  249.5244900080224 7.49978071021191 0  254.5245167604588 -0.0002024796846015653 0  254.5244922184708 7.499797605427681 0  259.5245192122727 -0.0001852265386116689 0  259.5244941169768 7.499814860350538 0  264.5245212270393 -0.0001677130487829025 0  264.5244957218431 7.499832376054251 0  269.5245228426774 -0.0001500274160035006 0  269.5244970531191 7.499850064747617 0  274.5245240968841 -0.0001322486637448995 0  274.5244981324993 7.499867847821338 0  279.5245250285059 -0.0001144477350880433 0  279.5244989833839 7.49988565471778 0  284.5245256791077 -9.668757581039549e-05 0  284.5244996310009 7.4999034227171 0  289.5245260946433 -7.902186798730559e-05 0  289.5245001024845 7.499921097856576 0  294.5245263270195 -6.149179432603474e-05 0  294.5245004268377 7.49993863734923 0  299.5245264348972 -4.411978469926977e-05 0  299.524500634737 7.499956014037163 0  304.5245264822786 -2.689861694325259e-05 0  304.5245007584875 7.499973223583866 0  309.5245265314845 -9.773883213352527e-06 0  309.5245008332533 7.499990295340361 0  4.524505127804611 14.99876227306661 0  -0.4754949393517385 14.99873859390633 0  9.524505226912577 14.99878577566852 0  14.52450537321998 14.99880914317768 0  19.52450557486418 14.99883241872895 0  24.52450583665081 14.99885565063854 0  29.52450616118821 14.99887889261709 0  34.52450654892682 14.99890220340006 0  39.52450699778031 14.99892564665494 0  44.52450750257513 14.99894929137625 0  49.52450805438661 14.9989732127844 0  54.52450863974045 14.99899749371267 0  59.52450923962338 14.99902222648877 0  64.52450982823461 14.99904751535522 0  69.52451037139545 14.99907347951453 0  74.52451082453402 14.99910025692995 0  79.52451113016029 14.99912800905446 0  84.52451121477372 14.9991569266961 0  89.52451098520926 14.99918723723942 0  94.52451032459464 14.999219213391 0  99.52450908841239 14.99925318342258 0  104.5245071018382 14.99928954237796 0  109.5245041607336 14.99932876256466 0  114.5245000408765 14.99937139923727 0  119.5244945236878 14.99941808253734 0  124.5244874524739 14.99946947742924 0  129.524478841098 14.99952617613432 0  134.5244690648564 14.99958845715077 0  139.5244591619875 14.99965579370507 0  144.5244512341916 14.99972590677588 0  149.5244487661517 14.99979295300809 0  164.5244739856319 14.99981385624419 0  159.5244724887747 14.99985620941055 0  169.5244699453784 14.99977233274271 0  174.5244642068557 14.99973715249469 0  179.5244589331835 14.99971003387589 0  184.524454978029 14.99969074936645 0  189.5244524975422 14.99967835176638 0  194.5244513387401 14.99967174330219 0  199.5244512438283 14.99966990130677 0  204.5244519464296 14.99967194890684 0  209.5244532109695 14.99967716152023 0  214.5244548443189 14.99968494997456 0  219.5244566950337 14.99969483767481 0  224.5244586478583 14.99970643868299 0  229.5244606170909 14.99971943895836 0  234.524462540369 14.99973358110012 0  239.5244643733991 14.99974865223268 0  244.5244660857275 14.99976447448688 0  249.5244676574527 14.99978089754839 0  254.5244690767188 14.99979779282823 0  259.5244703378341 14.99981504890944 0  264.5244714398615 14.99983256801294 0  269.5244723855711 14.99985026330582 0  274.5244731806495 14.99986805694144 0  279.524473833084 14.99988587877878 0  284.5244743527045 14.99990366577397 0  289.5244747508406 14.99992136206017 0  294.5244750402449 14.99993891970288 0  299.5244752355098 14.99995629997215 0  304.5244753545904 14.99997347455525 0  309.5244754225216 14.99999042510078 0  4.524469355513203 22.4987627185568 0  -0.4755307081792741 22.49873902271834 0  9.524469431783729 22.49878619464871 0  14.52446952809152 22.49880951688315 0  19.5244696462636 22.49883274259579 0  24.52446978451588 22.49885592684292 0  29.52446993858427 22.49887912561547 0  34.5244701020594 22.49890239748294 0  39.52447026622374 22.49892580463453 0  44.52447041960788 22.49894941381875 0  49.52447054738666 22.49897329741915 0  54.52447063066634 22.49899753477695 0  59.52447064568182 22.49902221381954 0  64.5244705629129 22.49904743303764 0  69.52447034613768 22.49907330384623 0  74.52446995147309 22.49909995335833 0  79.52446932651313 22.49912752757225 0  84.52446840977228 22.49915619491229 0  89.52446713081456 22.4991861499301 0  94.52446541171521 22.49921761671891 0  99.52446317091422 22.49925085111616 0  104.5244603311365 22.49928613992105 0  109.5244568339013 22.49932379387679 0  114.5244526641929 22.49936412870044 0  119.524447889865 22.49940742449787 0  124.5244427206 22.49945384801187 0  129.5244375889569 22.499503314367 0  134.5244332476065 22.49955525733921 0  139.5244308555254 22.49960827769085 0  144.52443198147 22.4996596728094 0  149.5244383769837 22.49970499782106 0  164.5244650988499 22.49974929401353 0  159.5244589189527 22.49976607179659 0  169.5244661404278 22.49972858693475 0  174.5244639341412 22.49970850304328 0  179.5244601897117 22.49969162751633 0  184.5244560889593 22.49967906211739 0  189.524452307792 22.49967100099331 0  194.5244491612156 22.49966717210566 0  199.5244467425549 22.49966710832627 0  204.5244450239362 22.49967029390894 0  209.524443920064 22.49967623529548 0  214.5244433253905 22.49968449024961 0  219.5244431341078 22.49969467567554 0  224.5244432498109 22.49970646541199 0  229.5244435892911 22.49971958393551 0  234.5244440832012 22.49973379892425 0  239.5244446751832 22.49974891404791 0  244.5244453203558 22.49976476253575 0  249.5244459836319 22.49978120167896 0  254.5244466381062 22.49979810824522 0  259.5244472635976 22.49981537471537 0  264.5244478453936 22.49983290623553 0  269.5244483731743 22.49985061818566 0  274.5244488401145 22.4998684342787 0  279.5244492421475 22.49988628511142 0  284.5244495774117 22.4999041070782 0  289.5244498459341 22.49992184150983 0  294.524450
[...]
<PointData  Scalars="p"> 
<DataArray  type="Float64"  Name="p"  format="ascii">1.0000000000000001e-01  1.0000000000000003e-01  1.0000028806844592e-01  1.0000000000000003e-01  1.0000000000000003e-01  1.0000146188516863e-01  1.0000000000000003e-01  1.0000220322406136e-01  1.0000000000000003e-01  1.0000307916669403e-01  1.0000000000000003e-01  1.0000370623729217e-01  1.0000000000000003e-01  1.0000392441710024e-01  1.0000000000000003e-01  1.0000461135450736e-01  1.0000000000000003e-01  1.0000476641102793e-01  1.0000000000000003e-01  1.0000493875523797e-01  1.0000000000000003e-01  1.0000649646079954e-01  1.0000000000000003e-01  1.0000400913504540e-01  1.0000000000000003e-01  1.0000525503986044e-01  1.0000000000000003e-01  1.0000479800188189e-01  1.0000000000000003e-01  1.0000512841275110e-01  1.0000000000000003e-01  1.0000355553049758e-01  1.0000000000000003e-01  1.0000345510115982e-01  1.0000000000000003e-01  1.0000153602264157e-01  1.0000000000000003e-01  9.9998898271031131e-02  1.0000000000000003e-01  9.9997453705838832e-02  1.0000000000000003e-01  9.9993282590545615e-02  1.0000000000000003e-01  9.9990254370114953e-02  1.0000000000000003e-01  9.9985012689813801e-02  1.0000000000000003e-01  9.9983064459635035e-02  1.0000000000000003e-01  9.9972308878489208e-02  1.0000000000000003e-01  9.9976807951388996e-02  1.0000000000000003e-01  9.9956099704772455e-02  1.0000000000000003e-01  9.9973029422506854e-02  1.0000000000000003e-01  9.9936242463546529e-02  1.0000000000000003e-01  9.9974258511311545e-02  1.0000000000000001e-01  9.9907452537787628e-02  1.0000000000000001e-01  1.0000000000000003e-01  1.0002165288831168e-01  1.0010457891439312e-01  1.0000000000000003e-01  9.9981883046646583e-02  1.0000000000000003e-01  1.0001283821719804e-01  1.0000000000000003e-01  9.9991014939856779e-02  1.0000000000000003e-01  9.9994859814691930e-02  1.0000000000000003e-01  9.9988568731115682e-02  1.0000000000000003e-01  9.9988221593718632e-02  1.0000000000000003e-01  9.9982777127409300e-02  1.0000000000000003e-01  9.9982172326842894e-02  1.0000000000000003e-01  9.9979495640784413e-02  1.0000000000000003e-01  9.9977484743411671e-02  1.0000000000000003e-01  9.9976119392663515e-02  1.0000000000000003e-01  9.9975009561386566e-02  1.0000000000000003e-01  9.9973600856461425e-02  1.0000000000000003e-01  9.9972988148971750e-02  1.0000000000000003e-01  9.9972366326436496e-02  1.0000000000000003e-01  9.9971656661903371e-02  1.0000000000000003e-01  9.9971417862262643e-02  1.0000000000000003e-01  9.9971070057579464e-02  1.0000000000000003e-01  9.9970949178543669e-02  1.0000000000000003e-01  9.9970588462678450e-02  1.0000000000000003e-01  9.9971040350402537e-02  1.0000000000000003e-01  9.9970129391859341e-02  1.0000000000000003e-01  9.9971662293453833e-02  1.0000000000000003e-01  9.9969110105807987e-02  1.0000000000000003e-01  9.9973599724548556e-02  1.0000000000000003e-01  9.9966202675463342e-02  1.0000000000000003e-01  9.9978668175931221e-02  1.0000000000000003e-01  9.9956764987796001e-02  1.0000000000000001e-01  1.0000000000000003e-01  9.9999250680127966e-02  1.0000000000000003e-01  9.9999947513452966e-02  1.0000005377603896e-01  1.0000004710840614e-01  9.9999546694809233e-02  9.9999742444203898e-02  9.9999419792086014e-02  9.9998461172557049e-02  9.9999290317344544e-02  9.9998615060885795e-02  9.9999479427824930e-02  9.9995482441727832e-02  9.9998772409325545e-02  9.9995917199036458e-02  9.9997914981663827e-02  9.9995544500309633e-02  9.9993427844402932e-02  9.9993160244898641e-02  9.9990700379815667e-02  9.9986533976740927e-02  9.9987126250689382e-02  9.9981597016713095e-02  9.9980582988130423e-02  9.9975049244867747e-02  9.9979087686912618e-02  9.9961976468761843e-02  9.9987424294086677e-02  9.9939102865340843e-02  1.0001328126607835e-01  9.9907331948491995e-02  9.9935335535830824e-02  1.0012038143552282e-01  1.0006582791602070e-01  1.0000080279666144e-01  1.0001424474672653e-01  1.0001113865059051e-01  1.0001401140902359e-01  1.0000428465075405e-01  1.0000758503440983e-01  1.0000399181243408e-01  1.0000110797239767e-01  1.0000041624913607e-01  9.9999389485520757e-02  9.9997003796079106e-02  9.9996769167037897e-02  9.9996015571512317e-02  9.9994747695062031e-02  9.9994406840109504e-02  9.9994005339118910e-02  9.9993065664417027e-02  9.9992908450849322e-02  9.9992295465425790e-02  9.9992114156423909e-02  9.9991122445493158e-02  9.9991904641145574e-02  9.9989525090857262e-02  9.9992654770545905e-02  9.9986040190820274e-02  9.9996488102633938e-02  9.9979309274375552e-02  1.0000000000000003e-01  9.9998302964904848e-02  1.0000000000000003e-01  9.9999502419930969e-02  9.9999505214069598e-02  9.9999146709539313e-02  9.9999543942349584e-02  9.9999172974455805e-02  9.9997914197854823e-02  9.9998383530584614e-02  9.9997760957982226e-02  9.9996893372720955e-02  9.9996163413019035e-02  9.9999865277087055e-02  9.9990362739804203e-02  9.9997023399679419e-02  9.9994131170119113e-02  9.9992050546288222e-02  9.9992796606407655e-02  9.9989396593623422e-02  9.9984443672371318e-02  9.9984554774998721e-02  9.9979915678053741e-02  9.9972417414639164e-02  9.9974702756906578e-02  9.9963671968825649e-02  9.9965773022081303e-02  9.9952584855889828e-02  9.9968418564909164e-02  9.9926357451838213e-02  1.0000366662840282e-01  9.9857715917865283e-02  9.9996523518050620e-02  1.0005124669571493e-01  1.0005440713202851e-01  1.0000396228207449e-01  1.0001601108135076e-01  1.0002240350567917e-01  1.0000037837087021e-01  1.0001264718319096e-01  1.0000466321078483e-01  9.9999343158051993e-02  9.9998764405299700e-02  9.9997020448851212e-02  9.9992198055884010e-02  9.9992142850394414e-02  9.9990639229002920e-02  9.9988053240902805e-02  9.9987714369793854e-02  9.9986965750600190e-02  9.9985330002993880e-02  9.9984929258029445e-02  9.9984457051433426e-02  9.9983164626081492e-02  9.9983104761384084e-02  9.9981954318593844e-02  9.9982271403208214e-02  9.9980007514070462e-02  9.9982434840190162e-02  9.9976818540636211e-02  9.9985589691852117e-02  9.9967271229713883e-02  1.0000000000000003e-01  9.9997607117005824e-02  1.0000000000000003e-01  9.9998764037720983e-02  9.9997593368538612e-02  9.9998154293645045e-02  9.9997612075811440e-02  9.9996056973928965e-02  9.9996324413891446e-02  9.9995216299405054e-02  9.9993250000624340e-02  9.9993855679239477e-02  9.9993338064551407e-02  9.9988698808659945e-02  9.9996659231297455e-02  9.9985374024238932e-02  9.9988551505070633e-02  9.9988855795040937e-02  9.9987597358019625e-02  9.9981613632132857e-02  9.9983829691423609e-02  9.9977828531116822e-02  9.9972486944392910e-02  9.9971668349110712e-02  9.9968044396253314e-02  9.9956459618887397e-02  9.9966387841944851e-02  9.9943697144685220e-02  9.9968896611198607e-02  9.9920944818599020e-02  1.0000591108756578e-01  9.9852670868326276e-02  1.0001767222845219e-01  1.0008092465366472e-01  1.0002227913366395e-01  1.0001396473909654e-01  1.0006059570641963e-01  9.9995811689566158e-02  1.0003329897706696e-01  1.0001736231270394e-01  1.0001367398684841e-01  1.0001242434568795e-01  1.0001169479680193e-01  1.0000388304084035e-01  1.0000484674688613e-01  1.0000274607817883e-01  9.9999061066222306e-02  9.9998632422614059e-02  9.9997753245566937e-02  9.9995291039160467e-02  9.9995054081323517e-02  9.9994210435838005e-02  9.9992752969048207e-02  9.9992014493295991e-02  9.9991672538354864e-02  9.9989839624943400e-02  9.9990345046773163e-02  9.9987545529270139e-02  9.9990216473752405e-02  9.9983407048618536e-02  9.9992764946849735e-02  9.9975605691098771e-02  1.0000000000000003e-01  9.9996903407977886e-02  1.0000000000000003e-01  9.9997659876524397e-02  9.9997052268621309e-02  9.9996951554692404e-02  9.9995546417831732e-02  9.9995832027027984e-02  9.9994777883956068e-02  9.9992300418837651e-02  9.9992862787958506e-02  9.9991837685066157e-02  9.9987687300634273e-02  9.9990725586266302e-02  9.9986536743305016e-02  9.9990747126930984e-02  9.9980986611242204e-02  9.9986012839249516e-02  9.9979371006396284e-02  9.9983685616865520e-02  9.9978088038139748e-02  9.9971140781969295e-02  9.9973465194693870e-02  9.9965199033538593e-02  9.9959372370902036e-02  9.9956688104051769e-02  9.9956495679648441e-02  9.9936174270680675e-02  9.9964292632790080e-02  9.9909717670334811e-02  1.0000287071911745e-01  9.9834249734293459e-02  9.9994970090461530e-02  1.0008006858564961e-01  1.0004630456688536e-01  1.0003643458498161e-01  1.0001292768252759e-01  1.0004222250271666e-01  1.0002157488667196e-01  1.0001845253601266e-01  1.0001678230710526e-01  1.0001985208675458e-01  1.0000619876572205e-01  1.0000942676491224e-01  1.0000608450727275e-01  1.0000057125330204e-01  1.0000035480969444e-01  9.9999183802278652e-02  9.9995281962775323e-02  9.9995124249839598e-02  9.9994256700710452e-02  9.9991886918317840e-02  9.9991523384407296e-02  9.9990538627397471e-02  9.9989192704905278e-02  9.9987928453604671e-02  9.9988017663453541e-02  9.9985111127321794e-02  9.9987123547631604e-02  9.9981084983038038e-02  9.9989442785777954e-02  9.9971763747826098e-02  1.0000000000000003e-01  9.9996096718106872e-02  1.0000000000000003e-01  9.9997373717172142e-02  9.9996035866787028e-02  9.9995035666702023e-02  9.9994932031367473e-02  9.9994236785246077e-02  9.9991785662214214e-02  9.9992047767187689e-02  9.9990715642870404e-02  9.9987218721449542e-02  9.9988228364388212e-02  9.9985645025393338e-02  9.9983443595848015e-02  9.9982735390259855e-02  9.9989911543318127e-02  9.9969687546853467e-02  9.9982627049707687e-02  9.9976081089529406e-02  9.9971529779455295e-02  9.9973621453089162e-02  9.9967993404612182e-02  9.9957115841163249e-02  9.9963015355414811e-02  9.9949857859831709e-02  9.9949030537317629e-02  9.9938066871467654e-02  9.9957207110679444e-02  9.9903348264828731e-02  1.0000501887008126e-01  9.9821934543877403e-02  1.0002435856997532e-01  1.0005377989448364e-01  1.0006180548853259e-01  1.0001265286490940e-01  1.0004022479762058e-01  1.0003377313321948e-01  1.0003604080657591e-01  1.0001663018025489e-01  1.0003617328498399e-01  1.0001080808868457e-01  1.0002125534366044e-01  1.0001537603007674e-01  1.0000840153314551e-01  1.0000808359695376e-01  1.0000709344778404e-01  1.0000142425128877e-01  1.0000166955596525e-01  1.0000038326190776e-01  9.9997168023268260e-02  9.9996806083623574e-02  9.9996146461057256e-02  9.9993647248306491e-02  9.9993407209149912e-02  9.9991848733851391e-02  9.9991211313856701e-02  9.9988490214132739e-02  9.9990547708311575e-02  9.9983948017772661e-02  9.9992102872681510e-02  9.9975336356719166e-02  1.0000000000000003e-01  9.9995673162164608e-02  1.0000000000000003e-01  9.9996837965714638e-02  9.9994523664633406e-02  9.9994784131722025e-02  9.9993744644803095e-02  9.9991572114047370e-02  9.9991912284278631e-02  9.9990572703845745e-02  9.9987184073273921e-02  9.9988204652824805e-02  9.9985614333691103e-02  9.9981552480061103e-02  9.9982769050267845e-02  9.9982680047700390e-02  9.9973440729627855e-02  9.9988126545671088e-02  9.9967135473776086e-02  9.9970737692210085e-02  9.9973133985396201e-02  9.9969199479226015e-02  9.9959701651778032e-02  9.9963313253294286e-02  9.9956416037089643e-02  9.9942226020809238e-02  9.9953420702440995e-02  9.9931667149802311e-02  9.9948257348863007e-02  9.9907313288580268e-02  9.9994845890138753e-02  9.9817149587609094e-02  1.0003749213215805e-01  1.0006649838729052e-01  1.0003881734539635e-01  1.0003675974048269e-01  1.0005050715276181e-01  1.0002187188162517e-01  1.0002762251050552e-01  1.0005036466612559e-01  1.0000870463501949e-01  1.0002955026290779e-01  1.0002056675380780e-01  1.0001448175997978e-01  1.0001267804877503e-01  1.0001276761694809e-01  1.0000440319954586e-01  1.0000511824867003e-01  1.0000374185755609e-01  9.9999318012064395e-02  9.9998894057389917e-02  9.9998034610737377e-02  9.9995184584603852e-02  9.9994549717939918e-02  9.9993895612095235e-02  9.9991278134150346e-02  9.9991307623642708e-02  9.9988576112471583e-02  9.9989780982919788e-02  9.9983708563875950e-02  9.9991359982687850e-02  9.9974581316582517e-02  1.0000000000000003e-01  9.9995166297123808e-02  1.0000000000000003e-01  9.9996042061046952e-02  9.9994427732153571e-02  9.9993984454224971e-02  9.9991643129281368e-02  9.9991765171370539e-02  9.9990449713351859e-02  9.9987445442764430e-02  9.9988181153324460e-02  9.9986425287705988e-02  9.9981697261726274e-02  9.9982951894100544e-02  9.9981037633593894e-02  9.9974456115966587e-02  9.9980364518008777e-02  9.9972261721238159e-02  9.9978552349563668e-02  9.9963089226694141e-02  9.9970098601768129e-02  9.9958449085291723e-02  9.9967683096338356e-02  9.9957112646708812e-02  9.9948803561272212e-02  9.9950179348429161e-02  9.9947591048584042e-02  9.9924073690433088e-02  9.9954117828192843e-02  9.9902410540447170e-02  9.9986343768729599e-02  9.9824399863272129e-02  1.0002176096632465e-01  1.0007697243894266e-01  1.0005592338288301e-01  1.0005005789208768e-01  1.0003620692730472e-01  1.0003551147019939e-01  1.0004482408949822e-01  1.0001728360404742e-01  1.0004342343796464e-01  1.0002123303446839e-01  1.0002353011181166e-01  1.0001708905343994e-01  1.0002240296379086e-01  1.0000921738342540e-01  1.0001152912416175e-01  1.0000940113184983e-01  1.0000368089769163e-01  1.0000349138186687e-01  1.0000274742716837e-01  9.9998436551076486e-02  9.9998304645797120e-02  9.9997236283016586e-02  9.9994928382533918e-02  9.9993626209309794e-02  9.9993510694501644e-02  9.9989875915499307e-02  9.9991554294451793e-02  9.9985476616232846e-02  9.9992479762684383e-02  9.9976426958087353e-02  1.0000000000000003e-01  9.9994604319848135e-02  1.0000000000000003e-01  9.9996062473376238e-02  9.9993892622694813e-02  9.9992525078760969e-02  9.9991887997153153e-02  9.9990826254865925e-02  9.9987882799278685e-02  9.9988175702811807e-02  9.9986889610164914e-02  9.9983026592483717e-02  9.9983667235660142e-02  9.9981590358296832e-02  9.9975776924132925e-02  9.9978850392310359e-02  9.9974608717279312e-02  9.9970573568155280e-02  9.9969960722495033e-02  9.9979926970210464e-02  9.9948700984924727e-02  9.9968257654040354e-02  9.9959112440029183e-02  9.9949925158146644e-02  9.9958224929253631e-02  9.9945367723989986e-02  9.9938285626015033e-02  9.9935235691052990e-02  9.9947328302554095e-02  9.9896748781197892e-02  9.9989770217342511e-02  9.9825529852549236e-02  1.0003161867625099e-01  1.0006495780792329e-01  1.0006697757234256e-01  1.0003500524617924e-01  1.0004891845128849e-01  1.0005041989520852e-01  1.0002853346964059e-01  1.0003274970268630e-01  1.0003158753308597e-01  1.0003346987336756e-01  1.0001482701574693e-01  1.0003144104437664e-01  1.0001139063196690e-01  1.0001796725187018e-01  1.0001429119970100e-01  1.0000760113523606e-01  1.0000689374112069e-01  1.0000647301905945e-01  1.0000112286039321e-01  1.0000097051588287e-01  9.9999950620836872e-02  9.9996424357409366e-02  9.9996149615586408e-02  9.9994751370411930e-02  9.9993138528626471e-02  9.9990680138300064e-02  9.9992050753792111e-02  9.9985612577653649e-02  9.9992542213232338e-02  9.9976836709052858e-02  1.0000000000000003e-01  9.9994362104096318e-02  1.0000000000000003e-01  9.9995827835130946e-02  9.9992809030706911e-02  9.9992840828288965e-02  9.9991283824727911e-02  9.9988771444859140e-02  9.9988639701709792e-02  9.9987245379093037e-02  9.9983627324893048e-02  9.9984742225421891e-02  9.9982657546540732e-02  9.9977418662024309e-02  9.9979479052843295e-02  9.9976454580896407e-02  9.9970221269880949e-02  9.9972354207661721e-02  9.9972130118971061e-02  9.9957293562606603e-02  9.9980067717904547e-02  9.9948454490475153e-02  9.9952953865102417e-02  9.9957382803147865e-02  9.9953775667266528e-02  9.9935537690429191e-02  9.9952162938297687e-02  9.9930098296809974e-02  9.9937747476528935e-02  9.9910408189546260e-02  9.9981201191202129e-02  9.9825720171739754e-02  1.0004132562004325e-01  1.0007602649490936e-01  1.0005449479936319e-01  1.0004463632917748e-01  1.0006149991916358e-01  1.0003647360353501e-01  1.0004135551898996e-01  1.0004159245127343e-01  1.0002552856620488e-01  1.0002155363940395e-01  1.0004308767307946e-01  1.0000886474330009e-01  1.0002539509486348e-01  1.0001819680955057e-01  1.0001370865828832e-01  1.0001095050877645e-01  1.0001185381881821e-01  1.0000432054381680e-01  1.0000455944401561e-01  1.0000370286839956e-01  9.9999526959397733e-02  9.9998552715448039e-02  9.9998071240272685e-02  9.9994628517267967e-02  9.9994687262270357e-02  9.9992075767420210e-02  9.9992479610200927e-02  9.9986845473604091e-02  9.9993333168851173e-02  9.9978027324293228e-02  1.0000000000000003e-01  9.9994129593064404e-02  1.0000000000000003e-01  9.9995379251360941e-02  9.9993138205178120e-02  9.9992619150927733e-02  9.9989914541734989e-02  9.9989680149694796e-02  9.9988169259367293e-02  9.9984858899919329e-02  9.9985350110463278e-02  9.9983892268832558e-02  9.9979220708863711e-02  9.9980821919895060e-02  9.9978517123733332e-02  9.9972328036188163e-02  9.9974770174014641e-02  9.9971969318296397e-02  9.9962050372930489e-02  9.9971106709612345e-02  9.9959653789275016e-02  9.9966724919756417e-02  9.9947858474752377e-02  9.9954904946898002e-02  9.9940485063297946e-02  9.9952202998700501e-02  9.9945729584929768e-02  9.9920981382992602e-02  9.9952892893919412e-02  9.9907863180310211e-02  9.9968824679838364e-02  9.9845767598767635e-02  1.0002582436178933e-01  1.0009951316907778e-01  1.0006036716566603e-01  1.0005578491930892e-01  1.0004834247642014e-01  1.0004442138867392e-01  1.0005179944054295e-01  1.0003222494456876e-01  1.0003062432783194e-01  1.0003458640518113e-01  1.0001483704779481e-01  1.0003357382344191e-01  1.0001637524090444e-01  1.0001959082937119e-01  1.0001293659820341e-01  1.0001807300629148e-01  1.0000715514435526e-01  1.0000834050604980e-01  1.0000705047989177e-01  1.0000182443704368e-01  1.0000151869167484e-01  1.0000068995494242e-01  9.9996891912146585e-02  9.9995860865252223e-02  9.9995667780227032e-02  9.9991796732874033e-02  9.9993109781654377e-02  9.9987685666930518e-02  9.9993317041623286e-02  9.9978823670549818e-02  1.0000000000000003e-01  9.9993768966405674e-02  1.0000000000000003e-01  9.9995586829445815e-02  9.9992991159642511e-02  9.9991698558826017e-02  9.9990635122545218e-02  9.9989481323524337e-02  9.9986353698782671e-02  9.9986328481743311e-02  9.9984926822287074e-02  9.9981058777405221e-02  9.9981723640651457e-02  9.9980223051176181e-02  9.9974851069585577e-02  9.9976875366311710e-02  9.9974395604353963e-02  9.9965853893051779e-02  9.9970844569775619e-02  9.9964859439002018e-02  9.9958948873918319e-02  9.9958946018105066e-02  9.9972747353963956e-02  9.9927889916336152e-02  9.9958809761405656e-02  9.9942133292213728e-02  9.9936094158952424e-02  9.9939899334497304e-02  9.9948228311994916e-02  9.9897571055240816e-02  9.9984375239489956e-02  9.9847588977047347e-02  1.0001781003186416e-01  1.0010751951655705e-01  1.0007574175491445e-01  1.0004350198032096e-01  1.0005247053499834e-01  1.0005515764063251e-01  1.0004038238587266e-01  1.0003742250830290e-01  1.0004267903999484e-01  1.0002285173888704e-01  1.0002434538333879e-01  1.0002239934366511e-01  1.0002703326695042e-01  1.0000962056703799e-01  1.0002477926873522e-01  1.0000868084171588e-01  1.0001335165044144e-01  1.0001070368589605e-01  1.0000521478125361e-01  1.0000402145499826e-01  1.0000391841465170e-01  9.9999202535434914e-02  9.9998883859040849e-02  9.9997273996020694e-02  9.9994991030581182e-02  9.9992787036334616e-02  9.9994026837422756e-02  9.9987881295785633e-02  9.9993866515637395e-02  9.9979928973378290e-02  1.0000000000000003e-01  9.9993868054428919e-02  1.0000000000000003e-01  9.9995742666848714e-02  9.9992515065994617e-02  9.9992527249334384e-02  9.9990812164235263e-02  9.9988400604094849e-02  9.9987915111554027e-02  9.9986507181632073e-02  9.9982989816971526e-02  9.9983609464948289e-02  9.9981860545277274e-02  9.9977137682271303e-02  9.9979010607711111e-02  9.9977240419614061e-02  9.9970187265173427e-02  9.9973217358926475e-02  9.9969662326608852e-02  9.9960617709286853e-02  9.9964749371805772e-02  9.9964362575774943e-02  9.9944187138483076e-02  9.9975146312955551e-02  9.9935080310520286e-02  9