<?xml version="1.0"?>
<VTKFile type="UnstructuredGrid"  version="0.1"  >
<UnstructuredGrid>
<Piece  NumberOfPoints="1933" NumberOfCells="3640">
<Points>
<DataArray  type="Float64"  NumberOfComponents="3"  format="ascii">0.475449729358571 0.0005732982249761331 0  5.475449729481722 0.0005520304079262804 0  5.475481648739343 7.500552042094001 0  0.4754816407455664 7.500573295626644 0  10.47544972536837 0.000530745578203481 0  10.47548166711836 7.500530763615423 0  15.47544972608458 0.0005094241336483269 0  15.47548170281815 7.50050944498544 0  20.47544974430108 0.0004880562505549244 0  20.47548176329484 7.500488078335236 0  25.47544979353476 0.000466638555934799 0  25.47548185662655 7.500466661249324 0  30.4754498871329 0.0004451719942089045 0  30.47548199136497 7.500445195162951 0  35.47545003806135 0.0004236604548487094 0  35.47548217642667 7.500423684225984 0  40.47545025906182 0.0004021099246806372 0  40.47548242107835 7.500402134571976 0  45.47545056297499 0.0003805280114884654 0  45.47548273500676 7.500380553902716 0  50.47545096313738 0.0003589237380674519 0  50.47548312845072 7.500358951315506 0  55.47545147381478 0.000337307543711677 0  55.47548361237561 7.500337337324049 0  60.4754521106632 0.0003156914583232033 0  60.47548419867582 7.500315724045323 0  65.47545289122228 0.0002940894364245521 0  65.47548490039406 7.500294125543833 0  70.47545383545373 0.0002725178573148195 0  70.47548573194932 7.500272558341867 0  75.47545496634423 0.0002509962163058304 0  75.47548670936449 7.500251042122377 0  80.47545631059526 0.0002295480534235385 0  80.47548785047937 7.500229600671855 0  85.47545789942765 0.0002082021940073833 0  85.47548917512989 7.500208263137815 0  90.47545976953302 0.0001869944157977029 0  90.475490705255 7.500187065713646 0  95.47546196420632 0.0001659697181639189 0  95.47549246487412 7.500166053919187 0  100.4754645346892 0.0001451854658362813 0  100.4754944798347 7.500145285729162 0  105.4754675417332 0.0001247158374521476 0  105.4754967771732 7.500124835928283 0  110.4754710573278 0.0001046582738574573 0  110.4754993838433 7.500104802263197 0  115.4754751663735 8.51430750137498e-05 0  115.4755023244527 7.500085314246094 0  120.4754799676954 6.634809139860999e-05 0  120.4755056175265 7.500066545870224 0  125.4754855729055 4.852189259268284e-05 0  125.4755092698028 7.500048734024299 0  130.4754920996336 3.202147368368694e-05 0  130.4755132684656 7.500032204926268 0  135.4754996512387 1.737578833343399e-05 0  135.4755175729688 7.500017410951934 0  140.4755082653695 5.397286497032047e-06 0  140.4755221136611 7.500004978255733 0  145.4755177921206 -2.611807510458937e-06 0  145.4755268204621 7.499995757138787 0  150.4755276136603 -4.452334861206527e-06 0  150.4755317499636 7.499990841100623 0  160.4755282581476 6.60875322354235e-19 0  165.4754985407712 -3.406453866011539e-05 0  165.4755219140609 7.499961447141224 0  160.4755315662163 7.499988048425617 0  170.475479688355 -6.606772015652078e-05 0  170.475511947677 7.499931750415938 0  175.4754670908686 -9.680231077667219e-05 0  175.4755032812891 7.499901971007584 0  180.475458360888 -0.000126413790871898 0  180.4754961582578 7.499872842909565 0  185.4754521453368 -0.0001550197466680929 0  185.4754904402469 7.499844508499741 0  190.4754476333932 -0.0001827512793070771 0  190.4754859005045 7.499816938222669 0  195.4754443172625 -0.0002097343223651745 0  195.4754823168593 7.499790054664559 0  200.4754418657596 -0.0002360789268114982 0  200.4754794985396 7.499763773535657 0  205.475440054413 -0.0002618772269324839 0  205.4754772899003 7.499738017089646 0  210.4754387255705 -0.0002872052601329472 0  210.4754755665825 7.499712717561547 0  215.47543776496 -0.0003121258254253059 0  215.4754742299035 7.499687817018681 0  220.4754370874954 -0.0003366912189664839 0  220.4754732015383 7.499663266093126 0  225.4754366284005 -0.0003609454957123441 0  225.4754724190871 7.49963902253512 0  230.4754363374698 -0.0003849262320625499 0  230.4754718325725 7.499615049910419 0  235.4754361752321 -0.0004086658695064134 0  235.4754714017362 7.499591316520125 0  240.4754361103012 -0.0004321927366059709 0  240.475471093969 7.499567794532222 0  245.4754361174932 -0.0004555318344956037 0  245.4754708827257 7.499544459287324 0  250.4754361764524 -0.000478705452547997 0  250.4754707463078 7.499521288738674 0  255.4754362706292 -0.0005017336640183477 0  255.4754706669233 7.499498262991739 0  260.4754363865052 -0.0005246347382970696 0  260.4754706299572 7.499475363915561 0  265.4754365130078 -0.0005474254966318702 0  265.4754706234057 7.499452574804502 0  270.4754366410642 -0.0005701216308429361 0  270.4754706374393 7.499429880074347 0  275.4754367632862 -0.0005927379983341265 0  275.4754706640674 7.499407264982102 0  280.4754368737628 -0.0006152888996506039 0  280.4754706968929 7.499384715364729 0  285.4754369679807 -0.0006377883337773996 0  285.4754707309327 7.499362217401101 0  290.4754370428828 -0.0006602502049083026 0  290.4754707624982 7.499339757415797 0  295.4754370971057 -0.0006826884087524875 0  295.4754707891181 7.499317321768552 0  300.4754371314392 -0.0007051166243608486 0  300.4754708094833 7.499294896913346 0  305.4754371495333 -0.0007275473974130077 0  305.4754708234192 7.49927246976722 0  310.4754371587809 -0.0007499894948363179 0  310.4754708319614 7.499250028564962 0  5.475513497824074 15.00055207700022 0  0.4755134873001846 15.00057329311135 0  10.47551352119563 15.00053081551302 0  15.47551356450797 15.00050950358078 0  20.47551363334482 15.00048813896917 0  25.47551373283589 15.00046672227231 0  30.4755138681459 15.00044525650298 0  35.4755140446729 15.00042374663072 0  40.47551426812063 15.00040219922061 0  45.47551454452513 15.00038062221905 0  50.47551488026905 15.00035902489082 0  55.47551528209378 15.00033741790043 0  60.47551575710607 15.00031581353327 0  65.47551631277055 15.00029422605978 0  70.47551695687373 15.00027267225716 0  75.47551769744146 15.00025117211663 0  80.47551854258336 15.0002297497808 0  85.47551950023231 15.00020843477696 0  90.47552057773389 15.00018726363984 0  95.47552178122972 15.00016628205334 0  100.4755231147682 15.00014554768592 0  105.4755245790722 15.00012513394717 0  110.4755261699183 15.00010513494071 0  115.4755278761653 15.00008567189671 0  120.4755296776823 15.00006690124129 0  125.4755315438912 15.00004902397452 0  130.4755334345541 15.00003229463747 0  135.4755353060253 15.0000170245509 0  140.4755371284524 15.00000356497897 0  145.4755389207433 14.99999223288564 0  150.4755408021143 14.99998307985672 0  165.4755382686298 14.99995051048782 0  160.4755406680142 14.99997354401133 0  170.4755347176918 14.99992461568705 0  175.4755306167761 14.99989739710119 0  180.4755265294663 14.99986987032466 0  185.4755227630318 14.99984253075509 0  190.4755194446156 14.99981558674276 0  195.4755166004543 14.99978910578114 0  200.4755142065074 14.99976308997305 0  205.4755122170726 14.99973751311073 0  210.4755105799215 14.99971233846158 0  215.4755092437913 14.99968752704597 0  220.4755081617268 14.99966304128015 0  225.4755072922593 14.99963884639421 0  230.4755065995117 14.99961491081081 0  235.4755060528171 14.99959120606187 0  240.475505626149 14.99956770651921 0  245.475505297517 14.99954438906643 0  250.4755050483962 14.99952123276783 0  255.4755048632196 14.99949821855502 0  260.4755047289387 14.99947532893668 0  265.4755046346518 14.99945254772986 0  270.4755045712926 14.99942985980946 0  275.4755045313676 14.99940725087222 0  280.4755045087352 14.99938470721405 0  285.4755044984137 14.99936221552141 0  290.4755044964063 14.99933976268016 0  295.4755044995392 14.99931733560161 0  300.4755045053109 14.99929492104356 0  305.4755045117798 14.99927250531963 0  310.475504517552 14.99925007352332 0  5.475545243838358 22.50055216262902 0  0.475545232708146 22.50057333238585 0  10.47554526542065 22.5005309241055 0  15.47554530377298 22.50050962208503 0  20.47554536316104 22.50048826096828 0  25.47554544677841 22.50046684541533 0  30.47554555734396 22.50044538084599 0  35.47554569742319 22.50042387362355 0  40.47554586957236 22.50040233111671 0  45.47554607637499 22.50038076175016 0  50.47554632041462 22.50035917510224 0  55.47554660420417 22.50033758208043 0  60.47554693008017 22.50031599519366 0  65.47554730005939 22.500294428939 0  70.47554771564926 22.50027290032154 0  75.47554817759918 22.50025142953474 0  80.47554868557596 22.50023004083557 0  85.4755492377451 22.50020876366038 0  90.4755498302422 22.50018763403715 0  95.47555045652457 22.50016669635832 0  100.4755511066149 22.50014600557726 0  105.475551766287 22.50012562986836 0  110.4755524163239 22.50010565371612 0  115.4755530321079 22.50008618121987 0  120.4755535840194 22.50006733901089 0  125.4755540394249 22.50004927738612 0  130.47555436738 22.5000321667314 0  135.4755545473298 22.50001618350998 0  140.4755545823456 22.50000147543377 0  145.4755545140187 22.49998808932645 0  150.4755544264172 22.49997584473153 0  165.4755552515716 22.49993869821879 0  160.4755540045578 22.49995974565294 0  170.4755553689304 22.49991531807622 0  175.4755545916544 22.4998904329194 0  180.4755532361418 22.49986475301564 0  185.4755515895443 22.49983877947533 0  190.475549859961 22.49981281913755 0  195.4755481793107 22.49978704172491 0  200.4755466220055 22.49976153104274 0  205.4755452236646 22.49973632038009 0  210.4755439955484 22.49971141464267 0  215.4755429345564 22.49968680352359 0  220.4755420297477 22.49966246911287 0  225.4755412664202 22.49963839019384 0  230.4755406285703 22.49961454460999 0  235.4755401003141 22.49959091052303 0  240.4755396666638 22.49956746704044 0  245.47553931391 22.49954419448709 0  250.4755390297709 22.49952107447778 0  255.4755388034062 22.49949808987948 0  260.4755386253576 22.49947522471381 0  265.4755384874513 22.49945246402732 0  270.4755383826796 22.49942979374581 0  275.4755383050785 22.49940720052115 0  280.4755382495968 22.49938467157558 0  285.4755382119617 22.49936219454426 0  290.4755381885396 22.49933975731032 0  295.4755381761868 22.49
[...]
<PointData  Scalars="p"> 
<DataArray  type="Float64"  Name="p"  format="ascii">1.0000000000000001e-01  1.0000000000000003e-01  9.9999712267891186e-02  1.0000000000000003e-01  1.0000000000000003e-01  9.9998537756422257e-02  1.0000000000000003e-01  9.9997795852652213e-02  1.0000000000000003e-01  9.9996919478213209e-02  1.0000000000000003e-01  9.9996292079951490e-02  1.0000000000000003e-01  9.9996073271649347e-02  1.0000000000000003e-01  9.9995386143741385e-02  1.0000000000000003e-01  9.9995230823953368e-02  1.0000000000000003e-01  9.9995057984533731e-02  1.0000000000000003e-01  9.9993500602341440e-02  1.0000000000000003e-01  9.9995986879197488e-02  1.0000000000000003e-01  9.9994740766406617e-02  1.0000000000000003e-01  9.9995197597999602e-02  1.0000000000000003e-01  9.9994867296940237e-02  1.0000000000000003e-01  9.9996439400562118e-02  1.0000000000000003e-01  9.9996540266795206e-02  1.0000000000000003e-01  9.9998459224934111e-02  1.0000000000000003e-01  1.0000109632725709e-01  1.0000000000000003e-01  1.0000254147794535e-01  1.0000000000000003e-01  1.0000671237750418e-01  1.0000000000000003e-01  1.0000974021377870e-01  1.0000000000000003e-01  1.0001498205867378e-01  1.0000000000000003e-01  1.0001693088339213e-01  1.0000000000000003e-01  1.0002768485431168e-01  1.0000000000000003e-01  1.0002318789123554e-01  1.0000000000000003e-01  1.0004389378030977e-01  1.0000000000000003e-01  1.0002696682650628e-01  1.0000000000000003e-01  1.0006375006557311e-01  1.0000000000000003e-01  1.0002573916854458e-01  1.0000000000000001e-01  1.0009253814241906e-01  1.0000000000000001e-01  1.0000000000000003e-01  9.9978392248602915e-02  9.9895481039326675e-02  1.0000000000000003e-01  1.0001814194230779e-01  1.0000000000000003e-01  9.9987199408590313e-02  1.0000000000000003e-01  1.0000901702819545e-01  1.0000000000000003e-01  1.0000517443243687e-01  1.0000000000000003e-01  1.0001146383783134e-01  1.0000000000000003e-01  1.0001181211370398e-01  1.0000000000000003e-01  1.0001725544388697e-01  1.0000000000000003e-01  1.0001786049875158e-01  1.0000000000000003e-01  1.0002053685089027e-01  1.0000000000000003e-01  1.0002254751925314e-01  1.0000000000000003e-01  1.0002391256174531e-01  1.0000000000000003e-01  1.0002502222805174e-01  1.0000000000000003e-01  1.0002643057401056e-01  1.0000000000000003e-01  1.0002704302525353e-01  1.0000000000000003e-01  1.0002766455827908e-01  1.0000000000000003e-01  1.0002837392932709e-01  1.0000000000000003e-01  1.0002861236110532e-01  1.0000000000000003e-01  1.0002895996218784e-01  1.0000000000000003e-01  1.0002908034358687e-01  1.0000000000000003e-01  1.0002944101065467e-01  1.0000000000000003e-01  1.0002898834879814e-01  1.0000000000000003e-01  1.0002989977700925e-01  1.0000000000000003e-01  1.0002836518592916e-01  1.0000000000000003e-01  1.0003091949777307e-01  1.0000000000000003e-01  1.0002642547121496e-01  1.0000000000000003e-01  1.0003382917982473e-01  1.0000000000000003e-01  1.0002135193322235e-01  1.0000000000000003e-01  1.0004327524822013e-01  1.0000000000000001e-01  1.0000000000000003e-01  1.0000075061803682e-01  1.0000000000000003e-01  1.0000005272550315e-01  9.9999946502987075e-02  9.9999953041188361e-02  1.0000045289201621e-01  1.0000025719204463e-01  1.0000057979283829e-01  1.0000153763452732e-01  1.0000070887988509e-01  1.0000138398631529e-01  1.0000051926976014e-01  1.0000451511470003e-01  1.0000122627685055e-01  1.0000407979620850e-01  1.0000208324828687e-01  1.0000445342600575e-01  1.0000656882095836e-01  1.0000683746560646e-01  1.0000929732614960e-01  1.0001346196813371e-01  1.0001287136018350e-01  1.0001839995252124e-01  1.0001941313636954e-01  1.0002494701908546e-01  1.0002091041363351e-01  1.0003801698141143e-01  1.0001257575447318e-01  1.0006088853747712e-01  9.9986722165430794e-02  1.0009265484894776e-01  1.0006465359177211e-01  9.9879727164061363e-02  9.9934198597088075e-02  9.9999209607406478e-02  9.9985769866677551e-02  9.9988873412436494e-02  9.9986003793370457e-02  9.9995727540588650e-02  9.9992428222717936e-02  9.9996021143806998e-02  9.9998904672823144e-02  9.9999596233302998e-02  1.0000062318246777e-01  1.0000300855216507e-01  1.0000324316641311e-01  1.0000399679770745e-01  1.0000526452214771e-01  1.0000560531801848e-01  1.0000600675608612e-01  1.0000694634693316e-01  1.0000710331106409e-01  1.0000771640678889e-01  1.0000789714812194e-01  1.0000888932011991e-01  1.0000810590026873e-01  1.0001048704408320e-01  1.0000735395583508e-01  1.0001397417273943e-01  1.0000351605371142e-01  1.0002071033533065e-01  1.0000000000000003e-01  1.0000169900877731e-01  1.0000000000000003e-01  1.0000049800982150e-01  1.0000049559117506e-01  1.0000085302531365e-01  1.0000045585981057e-01  1.0000082673904830e-01  1.0000208446582369e-01  1.0000161536207330e-01  1.0000223799436234e-01  1.0000310440019582e-01  1.0000383440678878e-01  1.0000013403471501e-01  1.0000963212887105e-01  1.0000297417634345e-01  1.0000586594434871e-01  1.0000794461958362e-01  1.0000720027419735e-01  1.0001060021529037e-01  1.0001555048298216e-01  1.0001544165543973e-01  1.0002008075235433e-01  1.0002757569796109e-01  1.0002529374071435e-01  1.0003632287404286e-01  1.0003422141542929e-01  1.0004740823149326e-01  1.0003158056621456e-01  1.0007362900238299e-01  9.9996340251916366e-02  1.0014226019563367e-01  1.0000345980837194e-01  9.9948885324375902e-02  9.9945650546520381e-02  9.9996061350591692e-02  9.9984010857226344e-02  9.9977627037875647e-02  9.9999643677946712e-02  9.9987378278771813e-02  9.9995361530303056e-02  1.0000068078006365e-01  1.0000125919802666e-01  1.0000300366706077e-01  1.0000782528247035e-01  1.0000788051894174e-01  1.0000938420249887e-01  1.0001196991378107e-01  1.0001230866149102e-01  1.0001305733610985e-01  1.0001469279863368e-01  1.0001509344603658e-01  1.0001556543454863e-01  1.0001685776673967e-01  1.0001691706040849e-01  1.0001806786467468e-01  1.0001774943840602e-01  1.0002001472303899e-01  1.0001758436947304e-01  1.0002320505328186e-01  1.0001442501774864e-01  1.0003275979167331e-01  1.0000000000000003e-01  1.0000239558518832e-01  1.0000000000000003e-01  1.0000123680267804e-01  1.0000240749309629e-01  1.0000184617328658e-01  1.0000238859787836e-01  1.0000394255077567e-01  1.0000367541014087e-01  1.0000478368098699e-01  1.0000674852421933e-01  1.0000614344224668e-01  1.0000666145580674e-01  1.0001129790235298e-01  1.0000334072776831e-01  1.0001462270543983e-01  1.0001144455450935e-01  1.0001114159953432e-01  1.0001240055098970e-01  1.0001838083399936e-01  1.0001616773893668e-01  1.0002216834972322e-01  1.0002750682906199e-01  1.0002832796649468e-01  1.0003195259267315e-01  1.0004353201057721e-01  1.0003361009162583e-01  1.0005629503753781e-01  1.0003110176999375e-01  1.0007904090572810e-01  9.9994100661525379e-02  1.0014729521920765e-01  9.9982298257293267e-02  9.9919245630876272e-02  9.9977773238508136e-02  9.9986045315971259e-02  9.9939440214134007e-02  1.0000419987368042e-01  9.9966722044448023e-02  9.9982655908193455e-02  9.9986343968622757e-02  9.9987592379520207e-02  9.9988323262569276e-02  9.9996133460753645e-02  9.9995170038159928e-02  9.9997270878144431e-02  1.0000095554061909e-01  1.0000138412211962e-01  1.0000226352242608e-01  1.0000472552954821e-01  1.0000496241151219e-01  1.0000580617210789e-01  1.0000726330987515e-01  1.0000800183688761e-01  1.0000834331386750e-01  1.0001017654691796e-01  1.0000966979460492e-01  1.0001247097472327e-01  1.0000979634782678e-01  1.0001661118035883e-01  1.0000724359254141e-01  1.0002441788150462e-01  1.0000000000000003e-01  1.0000309998751326e-01  1.0000000000000003e-01  1.0000234091353580e-01  1.0000294924544574e-01  1.0000304935956847e-01  1.0000445376733164e-01  1.0000416818576500e-01  1.0000522253459450e-01  1.0000769840796270e-01  1.0000713676076727e-01  1.0000816215543068e-01  1.0001231000017879e-01  1.0000927345599807e-01  1.0001346156766612e-01  1.0000925080414153e-01  1.0001900918795764e-01  1.0001398529981764e-01  1.0002062290446510e-01  1.0001631184558056e-01  1.0002190905376310e-01  1.0002885204528766e-01  1.0002653172063780e-01  1.0003479692467308e-01  1.0004062001876052e-01  1.0004330655335608e-01  1.0004350197902895e-01  1.0006381294082708e-01  1.0003570940402653e-01  1.0009026470926675e-01  9.9997142926874449e-02  1.0016570739145668e-01  1.0000497623188294e-01  9.9920138004276918e-02  9.9953760599609365e-02  9.9963584664121682e-02  9.9987106883807852e-02  9.9957802823641737e-02  9.9978447839621065e-02  9.9981570806058434e-02  9.9983237410949929e-02  9.9980171070440785e-02  9.9993821138939204e-02  9.9990593777558909e-02  9.9993936150416227e-02  9.9999448848512071e-02  9.9999665152161132e-02  1.0000083657685301e-01  1.0000473802044178e-01  1.0000489575858323e-01  1.0000576344367022e-01  1.0000813308296354e-01  1.0000849638485747e-01  1.0000948129584507e-01  1.0001082660476232e-01  1.0001209114257005e-01  1.0001200079300199e-01  1.0001490848274698e-01  1.0001289304815100e-01  1.0001893611521284e-01  1.0001056919411695e-01  1.0002826366782386e-01  1.0000000000000003e-01  1.0000390712556878e-01  1.0000000000000003e-01  1.0000262744397835e-01  1.0000396630158774e-01  1.0000496489205112e-01  1.0000506888031886e-01  1.0000576419744965e-01  1.0000821389683998e-01  1.0000795224057196e-01  1.0000928481241339e-01  1.0001277956206148e-01  1.0001177096435580e-01  1.0001435442351987e-01  1.0001655341093944e-01  1.0001726249685106e-01  1.0001008975607691e-01  1.0003030452685766e-01  1.0001737108494821e-01  1.0002391619675792e-01  1.0002846331298015e-01  1.0002637559595161e-01  1.0003200388256718e-01  1.0004287484603294e-01  1.0003698202031287e-01  1.0005013665538230e-01  1.0005096219981531e-01  1.0006192384706798e-01  1.0004279649830701e-01  1.0009662644958367e-01  9.9995003915118202e-02  1.0017801122880311e-01  9.9975573840848403e-02  9.9946445164785000e-02  9.9938272422335425e-02  9.9987352965549670e-02  9.9959811533839260e-02  9.9966252179201465e-02  9.9963987728423964e-02  9.9983384345018425e-02  9.9963851012954560e-02  9.9989208801801926e-02  9.9978763647566499e-02  9.9984642580186855e-02  9.9991616387644783e-02  9.9991933810970643e-02  9.9992924727288532e-02  9.9998593297541738e-02  9.9998348035354095e-02  9.9999634632401704e-02  1.0000284963431370e-01  1.0000321156901049e-01  1.0000387122798250e-01  1.0000637036776315e-01  1.0000660988896572e-01  1.0000816879883793e-01  1.0000880484799722e-01  1.0001152733689984e-01  1.0000946660558319e-01  1.0001607086395153e-01  1.0000790706175802e-01  1.0002468803989634e-01  1.0000000000000003e-01  1.0000433126316106e-01  1.0000000000000003e-01  1.0000316355729892e-01  1.0000547833514686e-01  1.0000521701965188e-01  1.0000625695559563e-01  1.0000842788455964e-01  1.0000808821409267e-01  1.0000942810425674e-01  1.0001281471571849e-01  1.0001179508688496e-01  1.0001438580857139e-01  1.0001844471825420e-01  1.0001722957858247e-01  1.0001731989279039e-01  1.0002655377193473e-01  1.0001187447767013e-01  1.0003285988516343e-01  1.0002925558326102e-01  1.0002686295630901e-01  1.0003079786079698e-01  1.0004028952801808e-01  1.0003668314661186e-01  1.0004358104127463e-01  1.0005776175660488e-01  1.0004657798185593e-01  1.0006832257950758e-01  1.0005174135143240e-01  1.0009266327500144e-01  1.0000518211521685e-01  1.0018278004519407e-01  9.9962433062774900e-02  9.9933744703289876e-02  9.9961261850423533e-02  9.9963244316023020e-02  9.9949537154059701e-02  9.9978151736186391e-02  9.9972405846725371e-02  9.9949664609973024e-02  9.9991313039969526e-02  9.9970471696521387e-02  9.9979453080187478e-02  9.9985538199291082e-02  9.9987340331305810e-02  9.9987252087341286e-02  9.9995615273031455e-02  9.9994900335661982e-02  9.9996277121152069e-02  1.0000070070316169e-01  1.0000112451497320e-01  1.0000198432477324e-01  1.0000483400595304e-01  1.0000546891821448e-01  1.0000612270932907e-01  1.0000874035043279e-01  1.0000870967698137e-01  1.0001144242944104e-01  1.0001023443786797e-01  1.0001631117212897e-01  1.0000865104752840e-01  1.0002544400368106e-01  1.0000000000000003e-01  1.0000483866003149e-01  1.0000000000000003e-01  1.0000395934916975e-01  1.0000557489941581e-01  1.0000601728542491e-01  1.0000835784750103e-01  1.0000823570692764e-01  1.0000955154874804e-01  1.0001255396073974e-01  1.0001181904366312e-01  1.0001357540514175e-01  1.0001830058533154e-01  1.0001704741372211e-01  1.0001896238390147e-01  1.0002553960952550e-01  1.0001963481858166e-01  1.0002773642149276e-01  1.0002144478991400e-01  1.0003690516277630e-01  1.0002989960798535e-01  1.0004154132439509e-01  1.0003231465085109e-01  1.0004288345137501e-01  1.0005118650159370e-01  1.0004981513800425e-01  1.0005240798557123e-01  1.0007590771191860e-01  1.0004588869622290e-01  1.0009756296157393e-01  1.0001368381534534e-01  1.0017552283735551e-01  9.9978153288338631e-02  9.9923282561733953e-02  9.9944159817388911e-02  9.9949946010469401e-02  9.9963834793798778e-02  9.9964509547135677e-02  9.9955209515032367e-02  9.9982740752594362e-02  9.9956603226252300e-02  9.9978784690046840e-02  9.9976491531552525e-02  9.9982927859871507e-02  9.9977617010249931e-02  9.9990800149510756e-02  9.9988488640652448e-02  9.9990616907736460e-02  9.9996336811728898e-02  9.9996526168364644e-02  9.9997270574125413e-02  1.0000158116985393e-01  1.0000171290628666e-01  1.0000278157481846e-01  1.0000508889691777e-01  1.0000639131394340e-01  1.0000650577130335e-01  1.0001014162528858e-01  1.0000846021205648e-01  1.0001454209844093e-01  1.0000753041118901e-01  1.0002359691224691e-01  1.0000000000000003e-01  1.0000540095470636e-01  1.0000000000000003e-01  1.0000393926822411e-01  1.0000611063270916e-01  1.0000747622066689e-01  1.0000811372999983e-01  1.0000917540455270e-01  1.0001211733374310e-01  1.0001182475503254e-01  1.0001311154752271e-01  1.0001697208843946e-01  1.0001633238265795e-01  1.0001841006584482e-01  1.0002421982370953e-01  1.0002114864192807e-01  1.0002539075382491e-01  1.0002942174333354e-01  1.0003003657924676e-01  1.0002007553706642e-01  1.0005128694944548e-01  1.0003174002470604e-01  1.0004088453339648e-01  1.0005006340738645e-01  1.0004177291004696e-01  1.0005462668579646e-01  1.0006170455280446e-01  1.0006475328040430e-01  1.0005267963373048e-01  1.0010321343089340e-01  1.0001026977463343e-01  1.0017438147132102e-01  9.9968291255530181e-02  9.9935300347843592e-02  9.9933109771397841e-02  9.9964994348189909e-02  9.9951123801320096e-02  9.9949604262465117e-02  9.9971498302721326e-02  9.9967275939114100e-02  9.9968440705730049e-02  9.9966556399167114e-02  9.9985189245894890e-02  9.9968581542348209e-02  9.9988627005796110e-02  9.9982051497208749e-02  9.9985727206491889e-02  9.9992417029044878e-02  9.9993123777463194e-02  9.9993545259403696e-02  9.9998894993604093e-02  9.9999047294065946e-02  1.0000006731913852e-01  1.0000359350196796e-01  1.0000386773970089e-01  1.0000526643777836e-01  1.0000687804588984e-01  1.0000933748077664e-01  1.0000796402860025e-01  1.0001440608495840e-01  1.0000746823778889e-01  1.0002318703601809e-01  1.0000000000000003e-01  1.0000564361395087e-01  1.0000000000000003e-01  1.0000417423427480e-01  1.0000719401299217e-01  1.0000716103897653e-01  1.0000871863133291e-01  1.0001122928567560e-01  1.0001136137412044e-01  1.0001275603944647e-01  1.0001637198839339e-01  1.0001525790449622e-01  1.0001734331344563e-01  1.0002257883821036e-01  1.0002052011378500e-01  1.0002354565961441e-01  1.0002977436431476e-01  1.0002764392889456e-01  1.0002787034074068e-01  1.0004269806531869e-01  1.0001993452393547e-01  1.0005153926222339e-01  1.0004703615307313e-01  1.0004261308557548e-01  1.0004622244656691e-01  1.0006444649528407e-01  1.0004783757601199e-01  1.0006988988530398e-01  1.0006225139675380e-01  1.0008956036641056e-01  1.0001884435133714e-01  1.0017417132008893e-01  9.9958583639764162e-02  9.9924228523805281e-02  9.9945592406641678e-02  9.9955360909730770e-02  9.9938544162669257e-02  9.9963547655089552e-02  9.9958675515169057e-02  9.9958434659741996e-02  9.9974499926288166e-02  9.9978470064622210e-02  9.9956939320149624e-02  9.9991151589069627e-02  9.9974625305069800e-02  9.9981820970807114e-02  9.9986309960098038e-02  9.9989066424027398e-02  9.9988164241757563e-02  9.9995696719388683e-02  9.9995457717402411e-02  9.9996314730072686e-02  1.0000049030285327e-01  1.0000146440392077e-01  1.0000194576304448e-01  1.0000538857995621e-01  1.0000532870549686e-01  1.0000794133995718e-01  1.0000753459638030e-01  1.0001317249191817e-01  1.0000667687046901e-01  1.0002199542701250e-01  1.0000000000000003e-01  1.0000587656245882e-01  1.0000000000000003e-01  1.0000462272617083e-01  1.0000686540153841e-01  1.0000738331287609e-01  1.0001008736103573e-01  1.0001032141343530e-01  1.0001183273650147e-01  1.0001514115884638e-01  1.0001465049251425e-01  1.0001610897384813e-01  1.0002077772411325e-01  1.0001917768804990e-01  1.0002148343416256e-01  1.0002766841601730e-01  1.0002522866064764e-01  1.0002803088510946e-01  1.0003794325219491e-01  1.0002889255664377e-01  1.0004034425483037e-01  1.0003327028092089e-01  1.0005213481476699e-01  1.0004509233007536e-01  1.0005950190010576e-01  1.0004779236880419e-01  1.0005427058713272e-01  1.0007899462856355e-01  1.0004711816200619e-01  1.0009210344469974e-01  1.0003121473597978e-01  1.0015412280359437e-01  9.9974088576917045e-02  9.9900734239107586e-02  9.9939717938278938e-02  9.9944212160413215e-02  9.9951700917222913e-02  9.9955598107286020e-02  9.9948232865765166e-02  9.9967801414122634e-02  9.9969402774745753e-02  9.9965440714103154e-02  9.9985187896393934e-02  9.9966450564055218e-02  9.9983641734112658e-02  9.9980429847317684e-02  9.9987079903671366e-02  9.9981945822986432e-02  9.9992862035646210e-02  9.9991676661622966e-02  9.9992966868088298e-02  9.9998192778506426e-02  9.9998498147455706e-02  9.9999327311343852e-02  1.0000312469149539e-01  1.0000415587962747e-01  1.0000434810927919e-01  1.0000822002297612e-01  1.0000690421624001e-01  1.0001233198734243e-01  1.0000669290359734e-01  1.0002119853411702e-01  1.0000000000000003e-01  1.0000623742214260e-01  1.0000000000000003e-01  1.0000441541679067e-01  1.0000701301018895e-01  1.0000830353026118e-01  1.0000936744259642e-01  1.0001052105874636e-01  1.0001364730478446e-01  1.0001367258648421e-01  1.0001507489885857e-01  1.0001894055546753e-01  1.0001827631046344e-01  1.0001977795396154e-01  1.0002514640027690e-01  1.0002312362047980e-01  1.0002560494059538e-01  1.0003414122248667e-01  1.0002915403735005e-01  1.0003514014296477e-01  1.0004104441675139e-01  1.0004105053856895e-01  1.0002725701192446e-01  1.0007209215969194e-01  1.0004118927157940e-01  1.0005786060833882e-01  1.0006389385011284e-01  1.0006008954874847e-01  1.0005178392789738e-01  1.0010237986055447e-01  1.0001568048643192e-01  1.0015229286475687e-01  9.9982104940422534e-02  9.9892722829143174e-02  9.9924340145162313e-02  9.9956496762102789e-02  9.9947570465786228e-02  9.9944861472918006e-02  9.9959649229564657e-02  9.9962601550051905e-02  9.9957349345463076e-02  9.9977174282303183e-02  9.9975679848360366e-02  9.9977624784394564e-02  9.9972991424847127e-02  9.9990394648833941e-02  9.9975241188940481e-02  9.9991335853616886e-02  9.9986665801474903e-02  9.9989313341197442e-02  9.9994802248164996e-02  9.9995994886863115e-02  9.9996098356112881e-02  1.0000081405702557e-01  1.0000113216420652e-01  1.0000274238957116e-01  1.0000502426482268e-01  1.0000722905148050e-01  1.0000598679329382e-01  1.0001213567690422e-01  1.0000614307600719e-01  1.0002009237385850e-01  1.0000000000000003e-01  1.0000613873365524e-01  1.0000000000000003e-01  1.0000425991545109e-01  1.0000748900079093e-01  1.0000747539389512e-01  1.0000919116806442e-01  1.0001160109738569e-01  1.0001208680709592e-01  1.0001349498172558e-01  1.0001701047090986e-01  1.0001639120622248e-01  1.0001814088138514e-01  1.0002286074485993e-01  1.0002098890600572e-01  1.0002276055106001e-01  1.0002980912000453e-01  1.0002678121798780e-01  1.0003033831383080e-01  1.0003937618194862e-01  1.0003524838827554e-01  1.0003563869145406e-01  1.0005580153216372e-01  1.0002485679743006e-01  1.0006491368395577e-01  1