<?xml version="1.0"?>
<VTKFile type="UnstructuredGrid"  version="0.1"  >
<UnstructuredGrid>
<Piece  NumberOfPoints="1933" NumberOfCells="3640">
<Points>
<DataArray  type="Float64"  NumberOfComponents="3"  format="ascii">0.4752851035455623 0.001619199039095286 0  5.475285113690247 0.001553865148163239 0  5.475383171823206 7.501553924810799 0  0.4753831327107462 7.501619206728899 0  10.47528511407113 0.001488462199909677 0  10.47538325179361 7.501488543839347 0  15.4752851414539 0.00142292483931452 0  15.47538339830971 7.501423015623218 0  20.47528524385211 0.001357224554964775 0  20.47538363844533 7.501357319038818 0  25.47528547097597 0.001291356475532293 0  25.47538400106273 7.501291452708439 0  30.47528587102251 0.00122533129398106 0  30.47538451629162 7.501225429054491 0  35.47528649026759 0.001159170304886931 0  35.47538521515693 7.501159270258434 0  40.47528737387777 0.001092902510185295 0  40.47538612953697 7.501093005807878 0  45.47528856722653 0.001026563158140946 0  45.47538729240257 7.50102667125894 0  50.47529011740568 0.0009601933219213926 0  50.4753887382447 7.500960307932708 0  55.47529207481378 0.000893840287871793 0  55.47539050360903 7.500893963369574 0  60.47529449479583 0.0008275586421030568 0  60.47539262767264 7.500827692456742 0  65.47529743935262 0.0007614120367648973 0  65.47539515280658 7.500761559224048 0  70.47530097895434 0.0006954756994175232 0  70.47539812506926 7.500695639378198 0  75.47530519450491 0.0006298398335372695 0  75.47540159456001 7.500630023724542 0  80.47531017949498 0.0005646141596972493 0  80.47540561552931 7.500564822721496 0  85.47531604237513 0.0004999339834034867 0  85.47541024609139 7.500500172537636 0  90.47532290913425 0.0004359683730450049 0  90.47541554729497 7.5004362431563 0  95.47533092599839 0.0003729313307793899 0  95.47542158117834 7.500373249322097 0  100.4753402619773 0.000311097306903263 0  100.4754284072408 7.500311465483777 0  105.4753511106264 0.0002508231543520138 0  105.4754360764968 7.500251246404018 0  110.4753636896137 0.000192579828267151 0  110.4754446219474 7.500193055820803 0  115.4753782350945 0.0001369991118729821 0  115.4754540440144 7.500137506473368 0  120.475394984614 8.494389581563264e-05 0  120.4754642895361 7.50008541583124 0  125.4754141355004 3.761583903709716e-05 0  125.4754752242492 7.500037882522403 0  130.4754357517573 -3.277357438559209e-06 0  130.4754866036269 7.49999638741577 0  135.4754595634334 -3.526095904456572e-05 0  135.4754980614609 7.499962917603314 0  140.4754845406311 -5.469603764854684e-05 0  140.4755091748032 7.499940097243098 0  145.4755079848586 -5.625415521660626e-05 0  145.4755197689916 7.499931298411781 0  150.475523520625 -3.272843765526921e-05 0  150.4755309269731 7.499940855533068 0  160.4755282581476 1.084008164123325e-18 0  165.4754188491422 -0.0001373260572075717 0  165.4755084208231 7.499843784622975 0  160.4755426102572 7.49995445905969 0  170.4753536392993 -0.0002613510841243145 0  170.4754736741492 7.499729075796755 0  175.4753131166987 -0.0003756568982225551 0  175.475444175168 7.499618967761563 0  180.4752871495346 -0.0004819814512667758 0  180.4754206675642 7.499514833111451 0  185.4752701293506 -0.0005817784947840579 0  185.4754024635416 7.499416263724478 0  190.4752588177203 -0.0006762957892961438 0  190.4753885763953 7.499322463192109 0  195.4752512750158 -0.0007665517180111268 0  195.4753780812644 7.499232639044947 0  200.4752462964885 -0.0008533512545823014 0  200.4753702108725 7.499146107546038 0  205.4752431058009 -0.0009373229785839901 0  205.4753643593579 7.499062307416769 0  210.4752411843387 -0.001018958060504318 0  210.4753600581006 7.498980785672439 0  215.4752401738038 -0.001098643430638402 0  215.4753569470525 7.498901177480639 0  220.4752398191264 -0.00117668759477082 0  220.4753547494146 7.498823187396425 0  225.475239934005 -0.001253339939040588 0  225.4753532514374 7.498746573936185 0  230.4752403794411 -0.001328804942895719 0  230.4753522870272 7.49867113752619 0  235.4752410499309 -0.001403252624769443 0  235.4753517262459 7.498596711277882 0  240.4752418642927 -0.001476826270750381 0  240.4753514667801 7.498523153960304 0  245.4752427593994 -0.001549648223387332 0  245.475351427612 7.498450344622209 0  250.4752436857798 -0.001621824287710507 0  250.475351544308 7.498378178433075 0  255.4752446044795 -0.001693447148545993 0  255.4753517655002 7.498306563419812 0  260.4752454847886 -0.001764599076604632 0  260.4753520502437 7.498235417861898 0  265.4752463026174 -0.001835354117705674 0  265.4753523660391 7.498164668174391 0  270.4752470393601 -0.001905779898101642 0  270.4753526873656 7.498094247160174 0  275.4752476811919 -0.001975939128545915 0  275.4753529946003 7.498024092557102 0  280.4752482187569 -0.002045890839096975 0  280.4753532732582 7.497954145849282 0  285.4752486472828 -0.002115691310208642 0  285.4753535134698 7.497884351364559 0  290.4752489671502 -0.002185394556697116 0  290.475353709636 7.497814655754095 0  295.4752491850048 -0.00225505201764309 0  295.4753538601959 7.49774500806053 0  300.4752493154078 -0.002324710695662814 0  300.4753539674441 7.497675360745044 0  305.4752493828163 -0.002394408116640063 0  305.4753540374589 7.497605672255647 0  310.4752494229825 -0.002464160508353973 0  310.4753540806297 7.497535911883515 0  5.47548096566329 15.00155407976476 0  0.4754809181628732 15.00161923142545 0  10.47548105945738 15.00148875417419 0  15.47548122466839 15.00142324515073 0  20.47548148047139 15.00135755228752 0  25.47548184412324 15.00129168488885 0  30.47548233273352 15.00122566075784 0  35.47548296391827 15.00115950473106 0  40.47548375597617 15.00109324759283 0  45.47548472788418 15.00102692555664 0  50.47548589922861 15.00096058033566 0  55.47548729009541 15.0008942597861 0  60.47548892089763 15.00082801912084 0  65.47549081209409 15.00076192272671 0  70.47549298373173 15.00069604666602 0  75.47549545472808 15.00063048200004 0  80.47549824178397 15.000565339141 0  85.47550135779433 15.00050075352361 0  90.47550480959761 15.00043689299039 0  95.47550859489846 15.00037396740616 0  100.4755126982259 15.0003122411413 0  105.4755170859357 15.00025204914751 0  110.4755217006116 15.00019381728068 0  115.4755264560256 15.00013808703901 0  120.4755312354185 15.00008554339963 0  125.4755358988898 15.00003704069861 0  130.4755403109289 14.99999361284052 0  135.4755444071785 14.99995643472917 0  140.4755483289498 14.99992665793731 0  145.4755526540468 14.99990493598313 0  150.4755586941795 14.99989013516539 0  165.4755661867464 14.99979274410389 0  160.4755727728793 14.99987915775249 0  170.475554055395 14.99969723607375 0  175.475539649422 14.99959926822628 0  180.4755253717689 14.99950248177721 0  185.475512430456 14.99940835245165 0  190.475501274249 14.99931726843277 0  195.4754919492403 14.99922913837317 0  200.4754843137532 14.99914368794852 0  205.4754781548871 14.99906059537931 0  210.4754732471838 14.99897954903381 0  215.4754693795558 14.99890026864039 0  220.475466365666 14.99882251021175 0  225.475464046137 14.99874606420849 0  230.4754622870499 14.99867075133166 0  235.4754609770162 14.99859641787144 0  240.475460023927 14.99852293138201 0  245.4754593518802 14.99845017692771 0  250.4754588984841 14.99837805392126 0  255.4754586125743 14.99830647348856 0  260.4754584523247 14.99823535627384 0  265.4754583837025 14.99816463060171 0  270.4754583792118 14.99809423092918 0  275.4754584168679 14.99802409653905 0  280.4754584793475 14.99795417044716 0  285.4754585532784 14.99788439851649 0  290.4754586286107 14.99781472878418 0  295.4754586980903 14.997745110994 0  300.4754587568727 14.99767549622836 0  305.4754588024892 14.99760583618653 0  310.4754588355783 14.99753608061279 0  5.475578401369392 22.50155443069648 0  0.4755783525686705 22.50161943133024 0  10.47557848535059 22.50148917480745 0  15.47557862568627 22.50142369130151 0  20.47557883609175 22.50135800332399 0  25.47557912630033 22.50129213427116 0  30.47557950415609 22.50122611000505 0  35.47557997668472 22.50115995979274 0  40.47558055050843 22.50109371676195 0  45.47558123186405 22.50102741831525 0  50.47558202638126 22.50096110673521 0  55.47558293869379 22.50089483010515 0  60.4755839719087 22.50082864362591 0  65.47558512692544 22.50076261140099 0  70.4755864015751 22.50069680877291 0  75.47558778954713 22.50063132531641 0  80.47558927906519 22.50056626861965 0  85.47559085129735 22.50050176900804 0  90.47559247852629 22.50043798537515 0  95.4755941221938 22.50037511225798 0  100.4755957310992 22.50031338818455 0  105.4755972403208 22.5002531050499 0  110.4755985719018 22.50019461767809 0  115.4755996390859 22.50013835152697 0  120.4756003569097 22.50008480419007 0  125.4756006631985 22.50003453212605 0  130.4756005548887 22.49998810662516 0  135.4756001434935 22.49994601072303 0  140.4755997263355 22.49990843047669 0  145.4755998476019 22.49987487467778 0  150.4756012676961 22.49984357708948 0  165.4756200712418 22.49973652069108 0  160.4756133288016 22.49980880761935 0  170.4756214520834 22.49965524997828 0  175.4756188680134 22.49956909155562 0  180.4756138861163 22.49948111002077 0  185.4756077883283 22.49939323249478 0  190.4756014456766 22.49930650029305 0  195.4755953791431 22.49922138612967 0  200.4755898616934 22.49913803496683 0  205.4755850071594 22.49905641774279 0  210.4755808345265 22.49897642147045 0  215.4755773104201 22.49889789917438 0  220.4755743756286 22.49882069618953 0  225.4755719609115 22.49874466312721 0  230.4755699959769 22.49866966157121 0  235.4755684142605 22.49859556594493 0  240.4755671552062 22.49852226345303 0  245.4755661651066 22.49844965312542 0  250.4755653971453 22.49837764450302 0  255.475564811031 22.49830615623848 0  260.4755643724303 22.49823511474263 0  265.4755640523389 22.49816445293162 0  270.475563826438 22.49809410909441 0  275.4755636744768 22.4980240258806 0  280.4755635796798 22.49795414939958 0  285.4755635281851 22.49788442840883 0  290.4755635085166 22.49781481354022 0  295.4755635111159 22.49774525644507 0  300.4755635279
[...]
<PointData  Scalars="p"> 
<DataArray  type="Float64"  Name="p"  format="ascii">1.0000000000000001e-01  1.0000000000000003e-01  1.0000212144976353e-01  1.0000000000000003e-01  1.0000000000000003e-01  1.0000133933962542e-01  1.0000000000000003e-01  1.0000202693534729e-01  1.0000000000000003e-01  1.0000187661942744e-01  1.0000000000000003e-01  1.0000227961252559e-01  1.0000000000000003e-01  1.0000375328701880e-01  1.0000000000000003e-01  1.0000382327176061e-01  1.0000000000000003e-01  1.0000482795433947e-01  1.0000000000000003e-01  1.0000656363867301e-01  1.0000000000000003e-01  1.0000528814025791e-01  1.0000000000000003e-01  1.0001250804762180e-01  1.0000000000000003e-01  1.0001387409962863e-01  1.0000000000000003e-01  1.0001712495587584e-01  1.0000000000000003e-01  1.0001904632086960e-01  1.0000000000000003e-01  1.0002517830378072e-01  1.0000000000000003e-01  1.0002712254006177e-01  1.0000000000000003e-01  1.0003239569187236e-01  1.0000000000000003e-01  1.0004018032244338e-01  1.0000000000000003e-01  1.0004314897140434e-01  1.0000000000000003e-01  1.0005244802359327e-01  1.0000000000000003e-01  1.0005860027529431e-01  1.0000000000000003e-01  1.0006944213444596e-01  1.0000000000000003e-01  1.0007007286060617e-01  1.0000000000000003e-01  1.0009484186485759e-01  1.0000000000000003e-01  1.0007750912690054e-01  1.0000000000000003e-01  1.0012681600329897e-01  1.0000000000000003e-01  1.0007739210133787e-01  1.0000000000000003e-01  1.0016845826389038e-01  1.0000000000000003e-01  1.0006550899705541e-01  1.0000000000000001e-01  1.0023417283622861e-01  1.0000000000000001e-01  1.0000000000000003e-01  9.9863376473790400e-02  9.9659073833995235e-02  1.0000000000000003e-01  9.9984607311615431e-02  1.0000000000000003e-01  9.9896337075966082e-02  1.0000000000000003e-01  9.9948964219972070e-02  1.0000000000000003e-01  9.9935861731786299e-02  1.0000000000000003e-01  9.9950096212744810e-02  1.0000000000000003e-01  9.9946675798462101e-02  1.0000000000000003e-01  9.9958832489158697e-02  1.0000000000000003e-01  9.9958423873484331e-02  1.0000000000000003e-01  9.9963362562222685e-02  1.0000000000000003e-01  9.9967333401764447e-02  1.0000000000000003e-01  9.9970136495150533e-02  1.0000000000000003e-01  9.9972199476384901e-02  1.0000000000000003e-01  9.9975592512350941e-02  1.0000000000000003e-01  9.9977138802505056e-02  1.0000000000000003e-01  9.9978779731655268e-02  1.0000000000000003e-01  9.9980753659122429e-02  1.0000000000000003e-01  9.9981919279277964e-02  1.0000000000000003e-01  9.9982877830786063e-02  1.0000000000000003e-01  9.9984198140966707e-02  1.0000000000000003e-01  9.9984812071979234e-02  1.0000000000000003e-01  9.9985657434095890e-02  1.0000000000000003e-01  9.9986072205490439e-02  1.0000000000000003e-01  9.9987128223105043e-02  1.0000000000000003e-01  9.9986565359135651e-02  1.0000000000000003e-01  9.9988718426161013e-02  1.0000000000000003e-01  9.9986210290084421e-02  1.0000000000000003e-01  9.9991280692519044e-02  1.0000000000000003e-01  9.9983205336841088e-02  1.0000000000000001e-01  1.0000000000000003e-01  1.0000471642999235e-01  1.0000000000000003e-01  1.0000398340592301e-01  1.0000416011236422e-01  1.0000471479212135e-01  1.0000664579717136e-01  1.0000634490417333e-01  1.0000693626233165e-01  1.0000996464460062e-01  1.0000817777679102e-01  1.0000968151269111e-01  1.0001070709813462e-01  1.0001958529266623e-01  1.0001488247474706e-01  1.0002301433108159e-01  1.0001870391464883e-01  1.0002310950662115e-01  1.0002937457550995e-01  1.0002846258154607e-01  1.0003228529268977e-01  1.0004266602488363e-01  1.0003817685931267e-01  1.0004916362527004e-01  1.0004968809759630e-01  1.0006155121401659e-01  1.0004569062359449e-01  1.0009120222149188e-01  1.0001935644854446e-01  1.0014850239690931e-01  9.9950996193267763e-02  1.0023636869118251e-01  1.0016453815017419e-01  9.9517460765894183e-02  9.9825471656243212e-02  9.9981955359067939e-02  9.9953798822441889e-02  9.9963165277594482e-02  9.9947811165948475e-02  9.9972194648850154e-02  9.9961661195969304e-02  9.9967079382408799e-02  9.9972875836754835e-02  9.9973707727087399e-02  9.9974371922567057e-02  9.9979781283636313e-02  9.9980073834459726e-02  9.9981166558811896e-02  9.9984190517277041e-02  9.9984872412034687e-02  9.9985610275798262e-02  9.9987639437411471e-02  9.9988335357409086e-02  9.9988943466513561e-02  9.9990490211007463e-02  9.9990881940578841e-02  9.9991997565144514e-02  9.9992223157268717e-02  9.9994195810368294e-02  9.9992427320460639e-02  9.9997254181596246e-02  9.9991418819999220e-02  1.0000000000000003e-01  1.0000755541961256e-01  1.0000000000000003e-01  1.0000445901529734e-01  1.0000639140587685e-01  1.0000822526328333e-01  1.0000810913383071e-01  1.0000877548247797e-01  1.0001305090324404e-01  1.0001186780442890e-01  1.0001265556765682e-01  1.0001696451768829e-01  1.0001842516229287e-01  1.0001245354796887e-01  1.0003611122616682e-01  1.0002460296010990e-01  1.0003045344473287e-01  1.0003896031448795e-01  1.0003527411268889e-01  1.0004133064196971e-01  1.0005439569634862e-01  1.0005116193876372e-01  1.0005778610492068e-01  1.0007667753705718e-01  1.0006490584405946e-01  1.0008858386698567e-01  1.0007895228433221e-01  1.0011179128995008e-01  1.0006033474265606e-01  1.0017909067754767e-01  9.9963255283425576e-02  1.0036776619570308e-01  1.0007560640911647e-01  9.9613589254594403e-02  9.9771132446729249e-02  9.9959762728206794e-02  9.9938301771130819e-02  9.9903161346406852e-02  9.9964347522363758e-02  9.9930031611310907e-02  9.9942828869030831e-02  9.9953999903024227e-02  9.9953834891255353e-02  9.9953887427632199e-02  9.9964911278144192e-02  9.9964187826282719e-02  9.9966108913244672e-02  9.9972172399883347e-02  9.9972921903677875e-02  9.9973899289440601e-02  9.9977962382853544e-02  9.9978698909738734e-02  9.9979727613757730e-02  9.9982286101546622e-02  9.9983314968013132e-02  9.9984037320527436e-02  9.9986263971827763e-02  9.9986476311909891e-02  9.9988600098859529e-02  9.9987861278494433e-02  9.9992344325543672e-02  9.9986400668920755e-02  1.0000000000000003e-01  1.0000941420957686e-01  1.0000000000000003e-01  1.0000573256891088e-01  1.0001021515981931e-01  1.0000931408566538e-01  1.0001018811671784e-01  1.0001487699894511e-01  1.0001377823349630e-01  1.0001487944215252e-01  1.0002071395509024e-01  1.0001850022192996e-01  1.0001884378361915e-01  1.0003176736328348e-01  1.0001639393779493e-01  1.0003914450786851e-01  1.0003968073454543e-01  1.0003703191317009e-01  1.0003836586413228e-01  1.0005413694552241e-01  1.0004534941173662e-01  1.0005542056147136e-01  1.0006849598263585e-01  1.0006610858200922e-01  1.0006741867672124e-01  1.0009791341007268e-01  1.0006304266885285e-01  1.0012152241013587e-01  1.0004657004029130e-01  1.0018486279572104e-01  9.9938960839307409e-02  1.0038672587859659e-01  1.0005689061803912e-01  9.9505663032151789e-02  9.9861814255849307e-02  9.9975071175165520e-02  9.9821573214028417e-02  1.0000504801764849e-01  9.9909780197674450e-02  9.9940840699484404e-02  9.9947630564387296e-02  9.9949340017261828e-02  9.9944256046866728e-02  9.9962216763091361e-02  9.9958254846471084e-02  9.9960429170787554e-02  9.9968673784318340e-02  9.9969264689377266e-02  9.9970047839032170e-02  9.9975779162742667e-02  9.9976298698310387e-02  9.9977281339942381e-02  9.9980960174327643e-02  9.9981796759997438e-02  9.9983017644754868e-02  9.9985285888442299e-02  9.9986836394826167e-02  9.9987221541725652e-02  9.9990401938305162e-02  9.9989157491599506e-02  9.9994289690968671e-02  9.9989158844522336e-02  1.0000000000000003e-01  1.0001131223399524e-01  1.0000000000000003e-01  1.0000807031562249e-01  1.0001098356746731e-01  1.0001056114909021e-01  1.0001573681347062e-01  1.0001450280951696e-01  1.0001601721192134e-01  1.0002269592145643e-01  1.0002030338981757e-01  1.0002098573364733e-01  1.0003234196508970e-01  1.0002528575547193e-01  1.0003271313851941e-01  1.0003058911043364e-01  1.0004888440994078e-01  1.0004091770792221e-01  1.0005937785668670e-01  1.0004725523815673e-01  1.0005533357371164e-01  1.0007447199726385e-01  1.0006252073602119e-01  1.0007716373021226e-01  1.0008972443964974e-01  1.0009258994006379e-01  1.0008008671590186e-01  1.0013986854737411e-01  1.0004823406149858e-01  1.0020974349412493e-01  9.9932602785150274e-02  1.0044414041108261e-01  1.0014893501665767e-01  9.9451484392923228e-02  9.9804020793891821e-02  9.9914823609689299e-02  9.9920151011285208e-02  9.9889135999925577e-02  9.9928026208414608e-02  9.9933879407556173e-02  9.9941202207779370e-02  9.9921970165625873e-02  9.9954452889742099e-02  9.9944260145784350e-02  9.9947406196100458e-02  9.9959400882552854e-02  9.9959266388975593e-02  9.9959459571456952e-02  9.9968564534083773e-02  9.9968701100831198e-02  9.9969675662566176e-02  9.9975033600146090e-02  9.9975942295846498e-02  9.9976862487244786e-02  9.9980695809740325e-02  9.9981608760863525e-02  9.9983292419627529e-02  9.9985185899341272e-02  9.9987670937733059e-02  9.9987002682318291e-02  9.9992489142693930e-02  9.9987200946130866e-02  1.0000000000000003e-01  1.0001353561564372e-01  1.0000000000000003e-01  1.0000840568697761e-01  1.0001234538137643e-01  1.0001502762589534e-01  1.0001546603284038e-01  1.0001621921170327e-01  1.0002298624315237e-01  1.0002150282176923e-01  1.0002219237517833e-01  1.0003182965146844e-01  1.0002823847764303e-01  1.0003149680769799e-01  1.0004067209200293e-01  1.0003966030581592e-01  1.0002510955694009e-01  1.0007249268229948e-01  1.0004649467329066e-01  1.0005719849164794e-01  1.0007281464536878e-01  1.0006199332990807e-01  1.0006832376293590e-01  1.0009751702471988e-01  1.0007345781621217e-01  1.0010096588440459e-01  1.0009679916462505e-01  1.0012882046142525e-01  1.0005287948710997e-01  1.0022893193677929e-01  9.9907529237395015e-02  1.0048811257241207e-01  1.0011456660247023e-01  9.9492231358694561e-02  9.9755604717038412e-02  9.9997834603027802e-02  9.9878235432561094e-02  9.9901024654529297e-02  9.9893291619646080e-02  9.9960893036384418e-02  9.9895255752625770e-02  9.9959614026725610e-02  9.9931295997174222e-02  9.9938404547655804e-02  9.9953266829147167e-02  9.9953063268028039e-02  9.9951052244732830e-02  9.9964210856026511e-02  9.9963078645057976e-02  9.9964068624876862e-02  9.9971765705870075e-02  9.9972260886846659e-02  9.9972956469536467e-02  9.9978073228010014e-02  9.9979117480402627e-02  9.9980074081892648e-02  9.9984002829900817e-02  9.9984599940422761e-02  9.9987366728679833e-02  9.9987592146105309e-02  9.9992783592989701e-02  9.9988040692382929e-02  1.0000000000000003e-01  1.0001473454819641e-01  1.0000000000000003e-01  1.0000904087833912e-01  1.0001622310340322e-01  1.0001470735747724e-01  1.0001665367782286e-01  1.0002251689025254e-01  1.0002176616112031e-01  1.0002246344843145e-01  1.0003195605388826e-01  1.0002821767924287e-01  1.0003096236853685e-01  1.0004336515916071e-01  1.0003850823905408e-01  1.0003618730997511e-01  1.0006022849877666e-01  1.0002935558843309e-01  1.0006934440976668e-01  1.0007408319997510e-01  1.0006319345846633e-01  1.0006828291145775e-01  1.0009292784808091e-01  1.0007830702531163e-01  1.0008365124562749e-01  1.0012434844037857e-01  1.0008013172557605e-01  1.0013941184079113e-01  1.0007409384756924e-01  1.0021942278755155e-01  9.9913100231221824e-02  1.0052449390185847e-01  1.0009105298518016e-01  9.9443310875830457e-02  9.9812170201306727e-02  9.9959120270943058e-02  9.9844890590982047e-02  9.9940381698122277e-02  9.9910743596250573e-02  9.9860829865650175e-02  9.9968063682432606e-02  9.9915758968217153e-02  9.9931317434991201e-02  9.9942152605580314e-02  9.9945924670913039e-02  9.9939275984953654e-02  9.9958365074926989e-02  9.9955519037578058e-02  9.9955968683561339e-02  9.9965900967769569e-02  9.9966703100766496e-02  9.9967053519983515e-02  9.9973936677508618e-02  9.9974603123180170e-02  9.9975818187650792e-02  9.9980027042150060e-02  9.9981767752680278e-02  9.9982606191501386e-02  9.9986826506248933e-02  9.9986367489877950e-02  9.9991758452847718e-02  9.9987387250745755e-02  1.0000000000000003e-01  1.0001591837413087e-01  1.0000000000000003e-01  1.0001108484198322e-01  1.0001611074459313e-01  1.0001537303304550e-01  1.0002189141543373e-01  1.0002098986195064e-01  1.0002237110218547e-01  1.0003096343324809e-01  1.0002803558748645e-01  1.0002941300312121e-01  1.0004240762462939e-01  1.0003768234793743e-01  1.0003871735059847e-01  1.0005687662639767e-01  1.0004144205088213e-01  1.0005400702315614e-01  1.0005096725014860e-01  1.0007746909463204e-01  1.0006467803367153e-01  1.0009723316067626e-01  1.0006964669907452e-01  1.0008689889162675e-01  1.0010833668193302e-01  1.0009994560020768e-01  1.0008737175271942e-01  1.0016426746178257e-01  1.0005153014716398e-01  1.0023068354683626e-01  9.9924252975680625e-02  1.0052683995816492e-01  1.0014963192260441e-01  9.9394158968578006e-02  9.9777470370909102e-02  9.9928868162246290e-02  9.9891294550397650e-02  9.9926114007876612e-02  9.9871797914748053e-02  9.9938569086132120e-02  9.9882993874555265e-02  9.9940164306840842e-02  9.9927880298432983e-02  9.9946949377382771e-02  9.9924728997917420e-02  9.9955216106075495e-02  9.9948133056628252e-02  9.9948918425756691e-02  9.9961423598965329e-02  9.9961501698564714e-02  9.9960822311576103e-02  9.9970558606835416e-02  9.9970969756651873e-02  9.9971609149647325e-02  9.9977584468208147e-02  9.9978530716570757e-02  9.9980122987803469e-02  9.9983454042834527e-02  9.9986188809921994e-02  9.9985846161113140e-02  9.9992069189548269e-02  9.9987591759683039e-02  1.0000000000000003e-01  1.0001750515789717e-01  1.0000000000000003e-01  1.0001087581247385e-01  1.0001661356268597e-01  1.0001921900889943e-01  1.0002075116812656e-01  1.0002115571082834e-01  1.0002935544201261e-01  1.0002770364813873e-01  1.0002846437768970e-01  1.0003931292902593e-01  1.0003662792256747e-01  1.0003773424969666e-01  1.0005414648801567e-01  1.0004480854750164e-01  1.0004874956383691e-01  1.0006385626227705e-01  1.0005941719063408e-01  1.0003776343824056e-01  1.0011043720742839e-01  1.0006962914440960e-01  1.0008222164836925e-01  1.0011333551331179e-01  1.0008081070998695e-01  1.0010625075231297e-01  1.0011845641983161e-01  1.0013351863545046e-01  1.0006009202031091e-01  1.0025642195361155e-01  9.9900825963831402e-02  1.0054189113700036e-01  1.0014194025535128e-01  9.9414611646574155e-02  9.9742398715223488e-02  9.9975327542871778e-02  9.9869585284921125e-02  9.9889780058482827e-02  9.9918522091579920e-02  9.9914596094453398e-02  9.9897670262570293e-02  9.9901824480080878e-02  9.9958152355928004e-02  9.9907002296063765e-02  9.9956357980326246e-02  9.9938120312108150e-02  9.9941567521683386e-02  9.9955569255343157e-02  9.9956744634901604e-02  9.9953878769946117e-02  9.9966249515840169e-02  9.9965921648546618e-02  9.9966611698103114e-02  9.9974275632377055e-02  9.9975345671028490e-02  9.9975885914323992e-02  9.9981466964651267e-02  9.9982153998786252e-02  9.9984859931043682e-02  9.9986213788406553e-02  9.9991471799093373e-02  9.9987224590351226e-02  1.0000000000000003e-01  1.0001814709436438e-01  1.0000000000000003e-01  1.0001099998470152e-01  1.0001971705577885e-01  1.0001819511549200e-01  1.0002081705937096e-01  1.0002698128098315e-01  1.0002671680636147e-01  1.0002745207186953e-01  1.0003743417225751e-01  1.0003436368318008e-01  1.0003565654015786e-01  1.0005097742371098e-01  1.0004442991757689e-01  1.0004592973243015e-01  1.0006453415134224e-01  1.0005529159443449e-01  1.0005041405115268e-01  1.0008871196752051e-01  1.0003874215307260e-01  1.0009797049773979e-01  1.0010603500138211e-01  1.0008812837866421e-01  1.0008666444491036e-01  1.0014042155580301e-01  1.0008054197751680e-01  1.0014042625055267e-01  1.0009304123640092e-01  1.0022205353039340e-01  9.9908371497225035e-02  1.0056852795194288e-01  1.0012277427071711e-01  9.9388605913932684e-02  9.9775613710780711e-02  9.9962852125515436e-02  9.9836783319402544e-02  9.9931542408456864e-02  9.9900291060504465e-02  9.9894751510791732e-02  9.9921896742825367e-02  9.9929182708572123e-02  9.9877085415164046e-02  9.9969085300722516e-02  9.9925860117192719e-02  9.9940168283818964e-02  9.9947111336615685e-02  9.9953447179540633e-02  9.9946257369840294e-02  9.9963111651109604e-02  9.9961727542102072e-02  9.9961108570495699e-02  9.9970508654511181e-02  9.9971921347190226e-02  9.9972316865188635e-02  9.9978624818669606e-02  9.9980171338074006e-02  9.9980856144328584e-02  9.9986014762851169e-02  9.9985776936064155e-02  9.9991100982294176e-02  9.9987539556491728e-02  1.0000000000000003e-01  1.0001869231973651e-01  1.0000000000000003e-01  1.0001239040993549e-01  1.0001896943344067e-01  1.0001788034996636e-01  1.0002497999310997e-01  1.0002450591457893e-01  1.0002606695630600e-01  1.0003456755904669e-01  1.0003272430637355e-01  1.0003310603535912e-01  1.0004677569805664e-01  1.0004202949366292e-01  1.0004327646536845e-01  1.0006101914505475e-01  1.0005202904296327e-01  1.0005217003735196e-01  1.0007931427457017e-01  1.0005502525137150e-01  1.0007111586585776e-01  1.0007190541745044e-01  1.0010001331166728e-01  1.0008805760830405e-01  1.0012814599067993e-01  1.0009646487448100e-01  1.0009025766435280e-01  1.0017639056276213e-01  1.0005213123631963e-01  1.0022408140093853e-01  9.9946320243790507e-02  1.0052887720656449e-01  1.0016414500461909e-01  9.9338982283059485e-02  9.9765545858763030e-02  9.9935933593106402e-02  9.9871860449263161e-02  9.9920265402589234e-02  9.9872983345178148e-02  9.9924254831620415e-02  9.9919317128760385e-02  9.9899935852607064e-02  9.9938871976040358e-02  9.9903174882839951e-02  9.9949030502460276e-02  9.9936385443734607e-02  9.9955113153699565e-02  9.9935880924287984e-02  9.9960745572179682e-02  9.9956640943747135e-02  9.9956336826984529e-02  9.9967310931429229e-02  9.9967929310687875e-02  9.9967108112303513e-02  9.9976171961805332e-02  9.9976934811086673e-02  9.9978144849738534e-02  9.9982729532485076e-02  9.9985346507511147e-02  9.9984946245414680e-02  9.9991572259253383e-02  9.9987431142109590e-02  1.0000000000000003e-01  1.0001976521819202e-01  1.0000000000000003e-01  1.0001194841108414e-01  1.0001883009461864e-01  1.0002082638482547e-01  1.0002328974428648e-01  1.0002366190487358e-01  1.0003179061541786e-01  1.0003089151294467e-01  1.0003129591601499e-01  1.0004222503257541e-01  1.0003994162240216e-01  1.0004024701517610e-01  1.0005606404984688e-01  1.0004982325045009e-01  1.0004927144738113e-01  1.0007293003977252e-01  1.0005776312118049e-01  1.0006225153640574e-01  1.0008447520394248e-01  1.0007590878173742e-01  1.0004346632418963e-01  1.0015014655743865e-01  1.0007965149124308e-01  1.0011113816168581e-01  1.0013063522510171e-01  1.0012480784946383e-01  1.0005871008237169e-01  1.0026428775437086e-01  9.9904675862955108e-02  1.0052406952812398e-01  1.0018093868898915e-01  9.9341514568162093e-02  9.9731224399132332e-02  9.9968900269343380e-02  9.9866862258642414e-02  9.9893263824833670e-02  9.9904042592009315e-02  9.9919137977914740e-02  9.9891532320142223e-02  9.9934248594948094e-02  9.9926360340268819e-02  9.9920261075365321e-02  9.9914755924854659e-02  9.9967993167611346e-02  9.9923369682437146e-02  9.9963153253536483e-02  9.9949848604066679e-02  9.9952209702532435e-02  9.9963437243528422e-02  9.9965577594491151e-02  9.9962834819112029e-02  9.9972927910928738e-02  9.9973604732390586e-02  9.9974301404343491e-02  9.9981244178694237e-02  9.9982109939520183e-02  9.9984193939921417e-02  9.9986466129460563e-02  9.9991354378301603e-02  9.9987445499706479e-02  1.0000000000000003e-01  1.0001980518201106e-01  1.0000000000000003e-01  1.0001151191293736e-01  1.0002084110266969e-01  1.0001919536314519e-01  1.0002230084945242e-01  1.0002781126709895e-01  1.0002844099520271e-01  1.0002904896066697e-01  1.0003844923969994e-01  1.0003630993372868e-01  1.0003720259941115e-01  1.0005105373574021e-01  1.0004645912374137e-01  1.0004550338186530e-01  1.0006583062688110e-01  1.0005614861769428e-01  1.0005566634101599e-01  1.0008280964012679e-01  1.0006718890713526e-01  1.0005980003082332e-01  1.0011273440813794e-01  1.0004428879243087e-01  1.0011399594933677e-01  1