<?xml version="1.0"?>
<VTKFile type="UnstructuredGrid"  version="0.1"  >
<UnstructuredGrid>
<Piece  NumberOfPoints="1933" NumberOfCells="3640">
<Points>
<DataArray  type="Float64"  NumberOfComponents="3"  format="ascii">-0.2935599407407963 -0.002618017905420534 0  4.70644007932084 -0.002532975821692557 0  4.706312462624048 7.497467045890388 0  -0.2936875458056789 7.497382026860241 0  9.706440128124033 -0.002447933856814103 0  9.706312465940025 7.497552073180277 0  14.70644020578922 -0.002362836946431338 0  14.70631245466571 7.497637160887999 0  19.70644029913342 -0.002277640118994619 0  19.70631241617417 7.497722351794856 0  24.70644038752298 -0.002192307260693412 0  24.70631233437454 7.497807680476999 0  29.70644044590628 -0.002106809059744316 0  29.70631218977327 7.497893175214204 0  34.70644044610004 -0.00202112101063396 0  34.70631195950203 7.497978859819508 0  39.7064403570144 -0.001935221766834488 0  39.70631161716026 7.49806475515125 0  44.70644014422133 -0.0018490918862154 0  44.70631113242816 7.498150880269793 0  49.7064397690859 -0.001762712929656754 0  49.70631047044403 7.498237253269168 0  54.70643918756189 -0.0016760668557493 0  54.70630959094645 7.49832389182914 0  59.70643834867667 -0.0015891356615397 0  59.70630844717224 7.498410813527208 0  64.70643719267522 -0.001501901234182344 0  64.70630698448693 7.498498035935817 0  69.70643564874626 -0.001414345395007062 0  69.70630513870591 7.498585576512365 0  74.70643363220445 -0.001326450134524484 0  74.70630283404495 7.498673452268455 0  79.70643104093689 -0.001238198055309787 0  79.70629998061574 7.498761679177846 0  84.70642775083184 -0.0011495730625535 0  84.70629647136096 7.498850271243339 0  89.70642360976333 -0.001060561375464226 0  89.70629217830121 7.498939239079336 0  94.70641842947964 -0.0009711529891811003 0  94.70628694796315 7.499028587755895 0  99.70641197437114 -0.0008813438228850049 0  99.70628059589036 7.499118313446425 0  104.7064039454742 -0.0007911390032022095 0  104.7062729002743 7.499208398035675 0  109.7063939570188 -0.0007005581811664007 0  109.7062635950979 7.49929880010063 0  114.7063815010442 -0.0006096447553913802 0  114.7062523640263 7.499389439225372 0  119.7063658925571 -0.0005184830346455895 0  119.7062388381177 7.499480167761599 0  124.7063461825329 -0.0004272322488090644 0  124.706222604275 7.49957071854828 0  129.7063210174489 -0.0003361974907343329 0  129.7062032390635 7.499660606137295 0  134.7062884102935 -0.0002459836066574232 0  134.7061803972444 7.499748937707515 0  139.7062453681236 -0.0001578385805590431 0  139.706154010534 7.499834048295523 0  144.7061873001322 -7.443172449798953e-05 0  144.7061246919157 7.499912791928994 0  149.7061071419824 -1.601642809868502e-06 0  149.7060944739752 7.499979131873888 0  159.7061073738538 5.615881526628765e-19 0  164.7061769044026 5.949711001751276e-05 0  164.7061199198566 7.500063093449873 0  159.706093227098 7.500008507524284 0  169.7062290306467 0.0001296050148168254 0  169.7061465438218 7.500131787607471 0  174.7062690806394 0.0002063808303011708 0  174.7061707787208 7.500207888407778 0  179.7063004250653 0.0002872149337693029 0  179.706192024618 7.500288295677647 0  184.7063253231719 0.0003705424423295663 0  184.7062103111368 7.500371331726948 0  189.7063453349907 0.0004554230077427055 0  189.7062259000221 7.500456010003757 0  194.7063615649174 0.0005412743582271214 0  194.7062391204466 7.500541719599689 0  199.7063748143223 0.0006277227673236526 0  199.706250299329 7.500628067276284 0  204.7063856788595 0.0007145203050674143 0  204.7062597340984 7.500714791905624 0  209.7063946112656 0.0008014980653824105 0  209.7062676846651 7.500801715795461 0  214.7064019625189 0.0008885387663694063 0  214.7062743737403 7.500888715855126 0  219.706408009357 0.000975560015605484 0  219.706279990406 7.500975705842611 0  224.7064129731075 0.001062503644790149 0  224.7062846946106 7.50106262501466 0  229.7064170328992 0.001149328637107899 0  229.7062886215894 7.50114943060882 0  234.7064203351749 0.001236006273721339 0  234.7062918858323 7.501236092704946 0  239.7064230007137 0.001322516712092376 0  239.7062945845069 7.501322590622057 0  244.7064251299452 0.001408846529544142 0  244.7062968003548 7.50140891034604 0  249.7064268070658 0.001494986947507826 0  249.7062986041277 7.501495042679074 0  254.7064281033021 0.001580932560253286 0  254.706300056634 7.501580981918776 0  259.7064290795547 0.00166668046069538 0  259.7063012104601 7.501666724948963 0  264.7064297885876 0.001752229703650811 0  264.7063021114196 7.501752270674182 0  269.7064302768741 0.001837581084379421 0  269.7063027997692 7.501837619767691 0  274.70643058617 0.001922737243954674 0  274.7063033112154 7.501922774733677 0  279.7064307548409 0.002007703147171646 0  279.7063036777246 7.502007740312701 0  284.7064308189192 0.002092487014888741 0  284.7063039281298 7.502092524284786 0  289.7064308127817 0.002177101826824266 0  289.70630408853 7.502177138743383 0  294.7064307691961 0.002261567522054246 0  294.7063041824807 7.502261601914826 0  299.706430718253 0.002345913939123063 0  299.7063042310174 7.50234594056136 0  304.7064306842643 0.002430184102852845 0  304.7063042526722 7.502430192920518 0  309.7064306789657 0.002514435759489321 0  309.7063042638658 7.502514412142043 0  4.706184925870266 14.99746707164384 0  -0.2938150754118446 14.99738213516657 0  9.706184905237427 14.99755204609012 0  14.70618484917795 14.9976371007403 0  19.70618474461701 14.99772227002652 0  24.70618457777271 14.99780758267857 0  29.7061843332381 14.99789306308886 0  34.70618399334205 14.99797873247225 0  39.70618353767036 14.99806460985138 0  44.70618294263818 14.99815071284028 0  49.70618218104347 14.9982370582133 0  54.70618122156157 14.99832366225956 0  59.70618002816187 14.99841054092468 0  64.70617855944221 14.9984977097326 0  69.70617676788966 14.99858518346335 0  74.70617459909258 14.99867297553532 0  79.70617199095619 14.99876109700045 0  84.7061688730185 14.99884955499667 0  89.70616516604323 14.99893835040013 0  94.70616078219737 14.99902747425006 0  99.70615562634214 14.99911690223493 0  104.7061495993233 14.99920658604823 0  109.7061426047026 14.99929643961472 0  114.7061345611912 14.99938631685247 0  119.7061254241351 14.99947597550297 0  124.706115220537 14.99956501838727 0  129.7061041024372 14.99965279943983 0  134.7060924206091 14.99973827919089 0  139.7060808086877 14.99981982205357 0  144.7060702352739 14.99989497824067 0  149.7060619114324 14.99996050139205 0  164.7060681950603 15.00007341681355 0  159.7060607200259 15.00001619528891 0  169.7060773927437 15.00014043163964 0  174.7060876775216 15.00021450615816 0  179.7060981896005 15.00029325921786 0  184.7061083318454 15.00037506073012 0  189.7061177642718 15.0004588412325 0  194.7061263272183 15.00054389956675 0  199.7061339738684 15.00062977079751 0  204.7061407229584 15.00071614203311 0  209.7061466283404 15.00080279958486 0  214.7061517603328 15.00088959565197 0  219.7061561947327 15.00097642702909 0  224.7061600066162 15.00106322123917 0  229.7061632670504 15.00114992730641 0  234.7061660415399 15.00123650948077 0  239.7061683894796 15.00132294288306 0  244.706170364177 15.00140921043346 0  249.7061720131775 15.00149530066495 0  254.7061733787378 15.00158120616966 0  259.7061744983513 15.00166692251915 0  264.7061754052744 15.00175244756006 0  269.7061761290201 15.00183778102835 0  274.7061766958063 15.00192292445516 0  279.7061771289553 15.00200788135782 0  284.7061774492634 15.00209265772298 0  289.7061776753771 15.00217726279131 0  294.7061778242617 15.00226171014451 0  299.7061779119081 15.00234601908139 0  304.7061779545252 15.00243021629906 0  309.7061779706325 15.00251433815283 0  4.706057618578214 22.49746706025791 0  -0.2939423787091077 22.49738226405736 0  9.70605759016806 22.49755194281812 0  14.70605752054594 22.49763693539563 0  19.70605739733553 22.49772205965429 0  24.70605720935 22.49780733531619 0  29.70605694535673 22.49789278039013 0  34.70605659325908 22.49797841146538 0  39.70605613955726 22.49806424402124 0  44.70605556899489 22.49815029269315 0  49.70605486432893 22.49823657144214 0  54.7060540061882 22.49832309358421 0  59.70605297301294 22.49840987163973 0  64.70605174109232 22.49849691695683 0  69.70605028474394 22.49858423904592 0  74.70604857671225 22.49867184453192 0  79.70604658890538 22.49875973558336 0  84.70604429364947 22.49884790760421 0  89.70604166572106 22.49893634586342 0  94.70603868552747 22.49902502057029 0  99.7060353439457 22.49911387965615 0  104.7060316494858 22.49920283816511 0  109.7060276385828 22.4992917626676 0  114.706023389823 22.49938044851221 0  119.7060190425582 22.49946858718619 0  124.7060148191932 22.49955572109376 0  129.7060110476905 22.4996411851218 0  134.7060081754592 22.49972404190934 0  139.7060067570905 22.49980303843513 0  144.7060073887115 22.49987666020246 0  149.7060105647034 22.49994345536419 0  164.7060063894993 22.50008374179295 0  159.7060092241383 22.50002269683473 0  169.7060054216291 22.50015123104526 0  174.7060062058951 22.50022422702443 0  179.706008356824 22.50030147355104 0  184.7060114177754 22.5003818148226 0  189.7060149895264 22.50046433728207 0  194.7060187681854 22.5005483638384 0  199.7060225411527 22.50063340633231 0  204.7060261695258 22.50071911655006 0  209.7060295691358 22.50080524673303 0  214.7060326944434 22.500891620407 0  219.7060355261646 22.50097811160133 0  224.7060380622582 22.50106463024293 0  229.706040311575 22.5011511119073 0  234.7060422894861 22.50123751059321 0  239.7060440149271 22.50132379359043 0  244.7060455084353 22.50140993780521 0  249.7060467908707 22.5014959271146 0  254.7060478826023 22.5015817504602 0  259.7060488030086 22.50166740048737 0  264.7060495701898 22.50175287259822 0  269.7060502008219 22.50183816433033 0  274.7060507101181 22.50192327499989 0  279.7060511118809 22.5020082055634 0  284.7060514186579 22.5020929586555 0  289.7060516420433 22.50217753875218 0  294.7060517932034 22.50226195238614 0  299.7060518837487 22.50234620830759 0 
[...]
<PointData  Scalars="p"> 
<DataArray  type="Float64"  Name="p"  format="ascii">1.0000000000000001e-01  1.0000000000000003e-01  9.9996237268188959e-02  1.0000000000000003e-01  1.0000000000000003e-01  9.9996313834272654e-02  1.0000000000000003e-01  9.9994434301614935e-02  1.0000000000000003e-01  9.9993784885145182e-02  1.0000000000000003e-01  9.9992486666731897e-02  1.0000000000000003e-01  9.9989859268361181e-02  1.0000000000000003e-01  9.9989042083270502e-02  1.0000000000000003e-01  9.9987241109065650e-02  1.0000000000000003e-01  9.9984228810905462e-02  1.0000000000000003e-01  9.9984715296508445e-02  1.0000000000000003e-01  9.9975473956718991e-02  1.0000000000000003e-01  9.9971969892835882e-02  1.0000000000000003e-01  9.9967125815626362e-02  1.0000000000000003e-01  9.9963645641558796e-02  1.0000000000000003e-01  9.9955241431962730e-02  1.0000000000000003e-01  9.9952168966961782e-02  1.0000000000000003e-01  9.9945525873686950e-02  1.0000000000000003e-01  9.9935524507308957e-02  1.0000000000000003e-01  9.9932164895971898e-02  1.0000000000000003e-01  9.9921262497365437e-02  1.0000000000000003e-01  9.9914330539820517e-02  1.0000000000000003e-01  9.9902003638702025e-02  1.0000000000000003e-01  9.9902975511386369e-02  1.0000000000000003e-01  9.9873551506838257e-02  1.0000000000000003e-01  9.9897244651958608e-02  1.0000000000000003e-01  9.9837944535179066e-02  1.0000000000000003e-01  9.9901295176643534e-02  1.0000000000000003e-01  9.9790291540933246e-02  1.0000000000000003e-01  9.9919425291794359e-02  1.0000000000000001e-01  9.9712507534649969e-02  1.0000000000000001e-01  1.0000000000000003e-01  1.0020151676166927e-01  1.0044938420480361e-01  1.0000000000000003e-01  1.0004421802840129e-01  1.0000000000000003e-01  1.0015660857447603e-01  1.0000000000000003e-01  1.0009306073711036e-01  1.0000000000000003e-01  1.0011050614399052e-01  1.0000000000000003e-01  1.0009370359016494e-01  1.0000000000000003e-01  1.0009965172452366e-01  1.0000000000000003e-01  1.0008538401092093e-01  1.0000000000000003e-01  1.0008667390089279e-01  1.0000000000000003e-01  1.0008136159061094e-01  1.0000000000000003e-01  1.0007694429709474e-01  1.0000000000000003e-01  1.0007377073325650e-01  1.0000000000000003e-01  1.0007154542693888e-01  1.0000000000000003e-01  1.0006745124611122e-01  1.0000000000000003e-01  1.0006555529595124e-01  1.0000000000000003e-01  1.0006351375303019e-01  1.0000000000000003e-01  1.0006101739564295e-01  1.0000000000000003e-01  1.0005935587573862e-01  1.0000000000000003e-01  1.0005814742656671e-01  1.0000000000000003e-01  1.0005611001107881e-01  1.0000000000000003e-01  1.0005548019168548e-01  1.0000000000000003e-01  1.0005362599764851e-01  1.0000000000000003e-01  1.0005389553473185e-01  1.0000000000000003e-01  1.0005057163686519e-01  1.0000000000000003e-01  1.0005415095510188e-01  1.0000000000000003e-01  1.0004595269763825e-01  1.0000000000000003e-01  1.0005775976283143e-01  1.0000000000000003e-01  1.0003648190403462e-01  1.0000000000000003e-01  1.0007250349623700e-01  1.0000000000000001e-01  1.0000000000000003e-01  9.9993056452227919e-02  1.0000000000000003e-01  9.9993540778880161e-02  9.9993143947111493e-02  9.9992245158870507e-02  9.9989608032506921e-02  9.9989900934477668e-02  9.9989265724161447e-02  9.9985302817869826e-02  9.9987369016043978e-02  9.9985600690675469e-02  9.9983044530298659e-02  9.9972643579640127e-02  9.9976951941363967e-02  9.9966592129753604e-02  9.9971578200879874e-02  9.9966807106072891e-02  9.9958752190451597e-02  9.9960521137681724e-02  9.9956806299635506e-02  9.9944138335413726e-02  9.9950868471060231e-02  9.9938595144036121e-02  9.9938782419642352e-02  9.9925072166702669e-02  9.9946827523011289e-02  9.9890025471815844e-02  9.9981269675974108e-02  9.9819876683901784e-02  1.0006638936668133e-01  9.9708983856248448e-02  9.9798054608573453e-02  1.0066452397394805e-01  1.0021753879329810e-01  1.0002889055814460e-01  1.0006105207925693e-01  1.0004890028552710e-01  1.0007104361751969e-01  1.0004119012764627e-01  1.0005499834379294e-01  1.0004984656442989e-01  1.0004334198912468e-01  1.0004269422097586e-01  1.0004267171460927e-01  1.0003628669932096e-01  1.0003604853337049e-01  1.0003503850374391e-01  1.0003139687124589e-01  1.0003062873791417e-01  1.0002983256966141e-01  1.0002747997152205e-01  1.0002649948223910e-01  1.0002613851588595e-01  1.0002379077271371e-01  1.0002418029421010e-01  1.0002153847642484e-01  1.0002364506236981e-01  1.0001715622841631e-01  1.0002693662181449e-01  1.0000815538848677e-01  1.0003559113408649e-01  1.0000000000000003e-01  9.9989388174652083e-02  1.0000000000000003e-01  9.9993219400553460e-02  9.9990057704887628e-02  9.9987432900897552e-02  9.9987219365166760e-02  9.9986512427906959e-02  9.9980825616236613e-02  9.9982277983936191e-02  9.9981624413616008e-02  9.9975477155093265e-02  9.9973835888660545e-02  9.9979792877658888e-02  9.9950900543593138e-02  9.9962870317444608e-02  9.9956263412601748e-02  9.9944503518149944e-02  9.9949753834407462e-02  9.9943349393702030e-02  9.9927107899402082e-02  9.9932287185049082e-02  9.9926232056655073e-02  9.9903085495477703e-02  9.9919965754253701e-02  9.9892597803003941e-02  9.9906168524175956e-02  9.9866036204480924e-02  9.9933831881289015e-02  9.9782972146010063e-02  1.0005624447627613e-01  9.9545225099539517e-02  9.9880546368261866e-02  1.0057857474882909e-01  1.0031823761287109e-01  1.0006210124821763e-01  1.0008465383551257e-01  1.0013555700938186e-01  1.0005819813790739e-01  1.0010162257640032e-01  1.0008893213540344e-01  1.0007614539798870e-01  1.0007700534964643e-01  1.0007872710904517e-01  1.0006567518161479e-01  1.0006691392285411e-01  1.0006532739905537e-01  1.0005807600299454e-01  1.0005719404038485e-01  1.0005636507439952e-01  1.0005140028651620e-01  1.0005060334031705e-01  1.0004940365894291e-01  1.0004655085179592e-01  1.0004492443651869e-01  1.0004493697663829e-01  1.0004095763365127e-01  1.0004296585331869e-01  1.0003696015138644e-01  1.0004401490352428e-01  1.0002754090045031e-01  1.0005634093708737e-01  1.0000000000000003e-01  9.9987065428997018e-02  1.0000000000000003e-01  9.9991895581559492e-02  9.9985773135810169e-02  9.9986670478808395e-02  9.9985799481576640e-02  9.9979741369127184e-02  9.9981266710761185e-02  9.9980603295607789e-02  9.9973094391280062e-02  9.9976086648753390e-02  9.9976049483210733e-02  9.9959698254471402e-02  9.9976646355106488e-02  9.9951050371189176e-02  9.9946929651600971e-02  9.9950928403238493e-02  9.9950028837734975e-02  9.9930414561362008e-02  9.9942500645974958e-02  9.9932213435770120e-02  9.9916360204632612e-02  9.9921109415245152e-02  9.9922681461988197e-02  9.9884767326055626e-02  9.9931515707480573e-02  9.9859254741640757e-02  9.9955810400706252e-02  9.9779091320068264e-02  1.0009360418672320e-01  9.9519393207181200e-02  9.9889360399002300e-02  1.0072438686534960e-01  1.0020311075486203e-01  1.0002663067464788e-01  1.0022946526658498e-01  9.9996343686609840e-02  1.0011340190431009e-01  1.0007904633769174e-01  1.0007173241403222e-01  1.0007020553329858e-01  1.0007928101452833e-01  1.0005796716431875e-01  1.0006344999197200e-01  1.0006206938869862e-01  1.0005238597658955e-01  1.0005185696396231e-01  1.0005148213933364e-01  1.0004464122377492e-01  1.0004402628379236e-01  1.0004328471475218e-01  1.0003876276371931e-01  1.0003815318324037e-01  1.0003650395287697e-01  1.0003469078217260e-01  1.0003162271562488e-01  1.0003390484952202e-01  1.0002591326879960e-01  1.0003503837727419e-01  1.0001688927503707e-01  1.0004315285496763e-01  1.0000000000000003e-01  9.9984688369567240e-02  1.0000000000000003e-01  9.9989212753355622e-02  9.9985076834007938e-02  9.9985868776028525e-02  9.9978859672076079e-02  9.9980586796405188e-02  9.9979196131591883e-02  9.9970835884109099e-02  9.9974170530084325e-02  9.9974103682492807e-02  9.9959814552626050e-02  9.9968220654296641e-02  9.9960368262122276e-02  9.9959528835839154e-02  9.9939649714627488e-02  9.9947510241192083e-02  9.9924167114840465e-02  9.9939536543034543e-02  9.9932074369624382e-02  9.9907966653614386e-02  9.9925111768829455e-02  9.9909683971541596e-02  9.9895161905050531e-02  9.9893241233800875e-02  9.9913825757457359e-02  9.9837041904981508e-02  9.9957812565166088e-02  9.9749998640623505e-02  1.0010708821905621e-01  9.9444559501644325e-02  9.9762298632812510e-02  1.0081378476282522e-01  1.0027284810779960e-01  1.0010211620140000e-01  1.0011745034663380e-01  1.0013801016121573e-01  1.0009570683749992e-01  1.0008936157794615e-01  1.0007906778516670e-01  1.0010735365938070e-01  1.0006831356204926e-01  1.0008164443176745e-01  1.0007995919951655e-01  1.0006603159746523e-01  1.0006647131241672e-01  1.0006736706661813e-01  1.0005649568562680e-01  1.0005642655660851e-01  1.0005572241377825e-01  1.0004939502394232e-01  1.0004827339239683e-01  1.0004778204074813e-01  1.0004289284266803e-01  1.0004270812767228e-01  1.0003985431752621e-01  1.0003977485851841e-01  1.0003360765501454e-01  1.0004098728071556e-01  1.0002329706368443e-01  1.0005036151933441e-01  1.0000000000000003e-01  9.9981888115134976e-02  1.0000000000000003e-01  9.9988962834048595e-02  9.9983898933254031e-02  9.9980545991903244e-02  9.9979939453361671e-02  9.9979421043017172e-02  9.9970890324124623e-02  9.9973050614708223e-02  9.9973289881186631e-02  9.9961144124450008e-02  9.9965977479717916e-02  9.9963293863383304e-02  9.9950567187838568e-02  9.9952931284740559e-02  9.9969330535933765e-02  9.9912686226953373e-02  9.9941892980311725e-02  9.9931100474520820e-02  9.9910276208597715e-02  9.9925803776792790e-02  9.9921235997632710e-02  9.9884747585903252e-02  9.9917991797170619e-02  9.9886565992704263e-02  9.9894206902682234e-02  9.9853170190036047e-02  9.9957476820815391e-02  9.9725256446214730e-02  1.0014578894184022e-01  9.9385474287258982e-02  9.9788214396714259e-02  1.0077411438167221e-01  1.0033603616115384e-01  9.9990888612938450e-02  1.0015786035763448e-01  1.0012724223329723e-01  1.0013753573537351e-01  1.0004702386766046e-01  1.0013419885438325e-01  1.0005510867402688e-01  1.0009061962856435e-01  1.0008507161438858e-01  1.0006796167516172e-01  1.0006861788250979e-01  1.0007293799987178e-01  1.0005726314157778e-01  1.0005885330621683e-01  1.0005856059370345e-01  1.0004927929384048e-01  1.0004883223119145e-01  1.0004836829698878e-01  1.0004257135712560e-01  1.0004110130212493e-01  1.0004115031363943e-01  1.0003537057670613e-01  1.0003722223756764e-01  1.0003054593270444e-01  1.0003704462520251e-01  1.0002004814834552e-01  1.0004527211381299e-01  1.0000000000000003e-01  9.9980369362286381e-02  1.0000000000000003e-01  9.9988478160627503e-02  9.9979124455984933e-02  9.9981335771544680e-02  9.9979223150818836e-02  9.9971879492536941e-02  9.9972762221281736e-02  9.9972996898994984e-02  9.9960977758792854e-02  9.9966043958052628e-02  9.9964214601608314e-02  9.9948131829607156e-02  9.9954810422787144e-02  9.9958673333080908e-02  9.9928876305285547e-02  9.9964243878427159e-02  9.9920442183860939e-02  9.9909046650695402e-02  9.9924359677002181e-02  9.9920070904987085e-02  9.9889577592199158e-02  9.9909764116310668e-02  9.9908098489127864e-02  9.9856229071823358e-02  9.9916925361089773e-02  9.9842449293162230e-02  9.9932017879388643e-02  9.9736786267714539e-02  1.0014704880309458e-01  9.9331148163306293e-02  9.9813234889958594e-02  1.0084087584105879e-01  1.0026719363560072e-01  1.0002934210121364e-01  1.0020182544565114e-01  1.0007523703868777e-01  1.0011763485425383e-01  1.0017585156030175e-01  1.0004347814976891e-01  1.0010749562486400e-01  1.0009132496687385e-01  1.0007987695918329e-01  1.0007556001658835e-01  1.0008635433094987e-01  1.0006376325649316e-01  1.0006767382771871e-01  1.0006836222079461e-01  1.0005667394627260e-01  1.0005578860595821e-01  1.0005609924630940e-01  1.0004777063339858e-01  1.0004732798706327e-01  1.0004600882894563e-01  1.0004182658595386e-01  1.0003893791109837e-01  1.0004040453389788e-01  1.0003223114767817e-01  1.0003930329186113e-01  1.0002250250722060e-01  1.0004713227148213e-01  1.0000000000000003e-01  9.9978960781711784e-02  1.0000000000000003e-01  9.9985960637223995e-02  9.9979413804281700e-02  9.9981073569425608e-02  9.9972834582417611e-02  9.9974185988259134e-02  9.9973278706547486e-02  9.9962332373296353e-02  9.9966366848931981e-02  9.9965916746746625e-02  9.9949553916470035e-02  9.9955990124784969e-02  9.9956251981119959e-02  9.9933341352217236e-02  9.9952480712276831e-02  9.9940238355886529e-02  9.9938775558328766e-02  9.9911344762468823e-02  9.9925062978439644e-02  9.9883847908463635e-02  9.9919426866827601e-02  9.9902077399609213e-02  9.9875608289830525e-02  9.9887918832490388e-02  9.9911060064953497e-02  9.9809675369715009e-02  9.9962844562640429e-02  9.9723467900532520e-02  1.0013749781196490e-01  9.9320078962416083e-02  9.9733691700408036e-02  1.0091047755752915e-01  1.0030624604303029e-01  1.0006514105775283e-01  1.0014066312133485e-01  1.0008447487284945e-01  1.0016365922976778e-01  1.0008279896210819e-01  1.0014671650044950e-01  1.0007616894978918e-01  1.0009388300994064e-01  1.0006932899293841e-01  1.0010019603354009e-01  1.0006393736834174e-01  1.0007312998682837e-01  1.0007404962240610e-01  1.0005949320914788e-01  1.0005955177130477e-01  1.0006142875433401e-01  1.0004994327258201e-01  1.0004939604917132e-01  1.0004945062118743e-01  1.0004204792171326e-01  1.0004184410066615e-01  1.0003934933323412e-01  1.0003766792528350e-01  1.0003143543272193e-01  1.0003832236096669e-01  1.0002083020875688e-01  1.0004488126628945e-01  1.0000000000000003e-01  9.9976951491666882e-02  1.0000000000000003e-01  9.9986284383204185e-02  9.9979144616717586e-02  9.9976295527785794e-02  9.9974454075913516e-02  9.9974881639676674e-02  9.9964514752806211e-02  9.9966916746830156e-02  9.9966989681032320e-02  9.9953242584485721e-02  9.9956979483698985e-02  9.9957297944132203e-02  9.9936462943023108e-02  9.9948560092250227e-02  9.9946447657755996e-02  9.9925915742123367e-02  9.9933777385650749e-02  9.9958920798329964e-02  9.9872268340189738e-02  9.9918894129420247e-02  9.9907674095985721e-02  9.9866305712655257e-02  9.9910892608946741e-02  9.9882528566283976e-02  9.9869850052570000e-02  9.9848436844065636e-02  9.9955791070723221e-02  9.9687298362677604e-02  1.0017217361399072e-01  9.9294509596091068e-02  9.9736095591641663e-02  1.0088944273326424e-01  1.0035225837895424e-01  1.0000469267582819e-01  1.0016301491739116e-01  1.0012856210815596e-01  1.0010404708017288e-01  1.0010609767758642e-01  1.0013491932515881e-01  1.0012620389136478e-01  1.0005334415278663e-01  1.0011987735198451e-01  1.0005983791195722e-01  1.0008286686184503e-01  1.0008103316577516e-01  1.0006503100272481e-01  1.0006382948991313e-01  1.0006895424138298e-01  1.0005423209735381e-01  1.0005491478922916e-01  1.0005483576489151e-01  1.0004593304011386e-01  1.0004445586007292e-01  1.0004501909885406e-01  1.0003754187360606e-01  1.0003896944094003e-01  1.0003310332614036e-01  1.0003758322159438e-01  1.0002174719128580e-01  1.0004506147936285e-01  1.0000000000000003e-01  9.9976157330066803e-02  1.0000000000000003e-01  9.9986322330465352e-02  9.9975191182261239e-02  9.9977647502527162e-02  9.9974966570474832e-02  9.9967480866571506e-02  9.9968054880253898e-02  9.9968280447546687e-02  9.9955693248297103e-02  9.9959569637640522e-02  9.9959592118174345e-02  9.9939952870742602e-02  9.9948538194216938e-02  9.9949174870944762e-02  9.9925187332021242e-02  9.9938084374071492e-02  9.9946255551490254e-02  9.9898922784911318e-02  9.9957197988446295e-02  9.9892864071091186e-02  9.9875142068994727e-02  9.9899824739478810e-02  9.9905880818268900e-02  9.9836817036867531e-02  9.9917517835130726e-02  9.9842379659780545e-02  9.9911816125658762e-02  9.9729414976404154e-02  1.0016857006161910e-01  9.9250962562087791e-02  9.9757482615075665e-02  1.0092059913025869e-01  1.0031082613717701e-01  1.0001514676724153e-01  1.0020373140312561e-01  1.0007462554569796e-01  1.0012060889481264e-01  1.0012946335029314e-01  1.0010160076024362e-01  1.0009371024707327e-01  1.0015674593284028e-01  1.0004162997542687e-01  1.0009526088791171e-01  1.0007930062233798e-01  1.0007256458699149e-01  1.0006503816114955e-01  1.0007587195598065e-01  1.0005607055350867e-01  1.0005807664440250e-01  1.0005997344766425e-01  1.0004889689197882e-01  1.0004758493679969e-01  1.0004743205925695e-01  1.0004066696454973e-01  1.0003806405980148e-01  1.0003965485675814e-01  1.0003077180303983e-01  1.0003702301627677e-01  1.0002153639447212e-01  1.0004331162692665e-01  1.0000000000000003e-01  9.9975510486289762e-02  1.0000000000000003e-01  9.9984511641167256e-02  9.9976076338651992e-02  9.9978385822461102e-02  9.9969573261479025e-02  9.9970593553572407e-02  9.9969594622730307e-02  9.9959110589766864e-02  9.9961621399958275e-02  9.9962486335315445e-02  9.9944957599064271e-02  9.9951073388302725e-02  9.9951389915053382e-02  9.9928765788663332e-02  9.9940943285830239e-02  9.9943564393208839e-02  9.9909406620082714e-02  9.9939784152576747e-02  9.9925215297077569e-02  9.9916719406298579e-02  9.9890155046781018e-02  9.9902472254536051e-02  9.9851793389542601e-02  9.9891501766628962e-02  9.9908209128076991e-02  9.9792994690034845e-02  9.9963069888077891e-02  9.9728654441938916e-02  1.0011929333692970e-01  9.9295193399277823e-02  9.9705779156643984e-02  1.0097767211073840e-01  1.0032124811651959e-01  1.0004774642738032e-01  1.0015993901821191e-01  1.0008485373658023e-01  1.0015452970312759e-01  1.0009086828554575e-01  1.0010055174261920e-01  1.0012819034217431e-01  1.0008481460242818e-01  1.0012388354267671e-01  1.0006669687071958e-01  1.0008405357821998e-01  1.0006027791505245e-01  1.0008643748736454e-01  1.0005702502768042e-01  1.0006250461891332e-01  1.0006433516582189e-01  1.0005176876241352e-01  1.0005106231632048e-01  1.0005326139404938e-01  1.0004234665990873e-01  1.0004216382061014e-01  1.0004037644700466e-01  1.0003688397825536e-01  1.0003122000214580e-01  1.0003751863017560e-01  1.0002078550569653e-01  1.0004266610717376e-01  1.0000000000000003e-01  9.9974133530297007e-02  1.0000000000000003e-01  9.9985019512728313e-02  9.9976451804944758e-02  9.9974515659928875e-02  9.9971592586770006e-02  9.9972167749603283e-02  9.9962106846566021e-02  9.9963605958198393e-02  9.9964378081853017e-02  9.9950498140515723e-02  9.9953549134744968e-02  9.9954578415861195e-02  9.9934259817811358e-02  9.9942378360942177e-02  9.9945804565411189e-02  9.9915931572503738e-02  9.9935585524283652e-02  9.9934362170558649e-02  9.9904144000019221e-02  9.9918124126292404e-02  9.9956955351412385e-02  9.9828748532426917e-02  9.9912204733557941e-02  9.9877826261966535e-02  9.9852183027481015e-02  9.9857787211105650e-02  9.9957068016276240e-02  9.9673518514845599e-02  1.0017135645948012e-01  9.9301090668741002e-02  9.9686549975738198e-02  1.0096526968441054e-01  1.0036163319736195e-01  1.0000649053803856e-01  1.0016385733662971e-01  1.0011800495584991e-01  1.0011550135257404e-01  1.0009384668807665e-01  1.0013359625574191e-01  1.0008417526290843e-01  1.0009551731593219e-01  1.0010747454392850e-01  1.0011171206712968e-01  1.0004264223530147e-01  1.0009999909608726e-01  1.0005152849013994e-01  1.0006845159430817e-01  1.0006732624239145e-01  1.0005461470364925e-01  1.0005233470867367e-01  1.0005692674693822e-01  1.0004527776566033e-01  1.0004448965153415e-01  1.0004501806552574e-01  1.0003600756093564e-01  1.0003687733355172e-01  1.0003216431391815e-01  1.0003483113741868e-01  1.0002057621784197e-01  1.0004149791234405e-01  1.0000000000000003e-01  9.9973972511399667e-02  1.0000000000000003e-01  9.9985569853349443e-02  9.9973654577366275e-02  9.9976325720351061e-02  9.9973017672827111e-02  9.9966494294695757e-02  9.9965971731169126e-02  9.9966420053486077e-02  9.9954678480829437e-02  9.9957539926445141e-02  9.9957866073100463e-02  9.9940089074543437e-02  9.9945672459746934e-02  9.9949031579929112e-02  9.9923069672941900e-02  9.9935778206098003e-02  9.9940189993513590e-02  9.9905148689161810e-02  9.9926420950199310e-02  9.9938856749404240e-02  9.9873105835564566e-02  9.9953164199453895e-02  9.9880361940132389e-02  9