<?xml version="1.0"?>
<VTKFile type="UnstructuredGrid"  version="0.1"  >
<UnstructuredGrid>
<Piece  NumberOfPoints="1933" NumberOfCells="3640">
<Points>
<DataArray  type="Float64"  NumberOfComponents="3"  format="ascii">0.2935781489371202 0.002084036006117974 0  5.293578163095865 0.001999345638316689 0  5.293705272799941 7.501999425163353 0  0.2937052207863727 7.502084047677275 0  10.29357816507611 0.001914564389643349 0  10.29370537846816 7.501914672491505 0  15.29357820325675 0.001829607534360045 0  15.29370557137395 7.501829727464632 0  20.29357834051361 0.001744438570731547 0  20.29370588686038 7.501744563255164 0  25.29357864180134 0.001659051870090952 0  25.29370636256146 7.501659178797182 0  30.29357917001522 0.00157346210108822 0  30.29370703772611 7.501573591012044 0  35.2935799854986 0.001487697754062189 0  35.29370795273667 7.501487829542485 0  40.2935811471307 0.001401797382595837 0  40.29370914905815 7.501401933572166 0  45.29358271406385 0.00131580772500859 0  45.29371066955152 7.5013159502391 0  50.29358474770817 0.001229783189200005 0  50.29371255903054 7.501229934274233 0  55.293587313813 0.001143786400786212 0  55.29371486495303 7.501143948635499 0  60.29359048461141 0.001057889670911205 0  60.29371763816273 7.501058066028724 0  65.29359434105349 0.0009721773626404249 0  65.29372093360561 7.500972371312118 0  70.29359897517192 0.0008867492434774664 0  70.29372481094727 7.500886964880437 0  75.29360449264031 0.0008017250239922202 0  75.29372933499459 7.500801967229941 0  80.29361101557033 0.0007172504178950044 0  80.29373457578237 7.500717525032688 0  85.29361868558183 0.0006335052411410024 0  85.29374060811419 7.500633819215703 0  90.29362766711898 0.0005507143317359155 0  90.293747510229 7.500551075773024 0  95.29363815088013 0.0004691624722154649 0  95.29375536108498 7.500469580371191 0  100.2936503569737 0.0003892151218951424 0  100.2937642355014 7.500389698287368 0  105.2936645369138 0.0003113477620480936 0  105.293774196034 7.500311901902841 0  110.2936809724974 0.000236188267554772 0  110.2937852800317 7.50023680891681 0  115.2936999674446 0.0001645793459411963 0  115.2937974799459 7.500165235658621 0  120.2937218231972 9.767238352237603e-05 0  120.2938107150721 7.500098271191407 0  125.2937467810999 3.707101444711092e-05 0  125.2938247947632 7.500037378666733 0  130.2937748942695 -1.494634932155344e-05 0  130.2938393799319 7.49998452879201 0  135.2938057531828 -5.508087179683299e-05 0  135.2938539694232 7.499942362340781 0  140.2938379054442 -7.849254389351868e-05 0  140.2938679910017 7.49991435957618 0  145.2938676212757 -7.813319953623917e-05 0  145.293881218947 7.499904983494021 0  150.2938861652695 -4.463385964655181e-05 0  150.2938951480651 7.499919990632106 0  160.2938926261467 9.11034447572408e-19 0  165.2937490275476 -0.0001815877632397454 0  165.2938671607689 7.499793386295038 0  160.2939118260133 7.499940123935279 0  170.2936638814063 -0.0003451816506388177 0  170.2938218163841 7.499642095246655 0  175.2936113167411 -0.0004955224293296195 0  175.2937833979182 7.499497332376845 0  180.2935778938487 -0.0006350037346647586 0  180.2937528679288 7.499360767510381 0  185.2935561840071 -0.0007656335892780473 0  185.2937293068196 7.49923177272235 0  190.2935419085815 -0.0008891259138138528 0  190.2937114047984 7.499109234130195 0  195.2935325132696 -0.001006873159581687 0  195.2936979375251 7.498992060589665 0  200.293526417589 -0.001119972361189993 0  200.2936878916455 7.498879316903134 0  205.2935226073912 -0.001229277996545342 0  205.2936804688976 7.498770238412935 0  210.2935204082456 -0.001335456318309997 0  210.2936750533929 7.498664209794747 0  215.2935193563581 -0.00143903113302937 0  215.2936711731829 7.498560736687402 0  220.2935191230829 -0.001540419258238178 0  220.2936684664309 7.498459419659101 0  225.2935194694677 -0.001639956965217548 0  225.2936666545026 7.498359932946385 0  230.2935202180199 -0.001737919415747469 0  230.2936655214995 7.498262007903002 0  235.2935212345962 -0.001834534932142331 0  235.2936648990043 7.49816542035873 0  240.2935224164135 -0.001929995547210358 0  240.2936646547861 7.49806998100394 0  245.2935236838836 -0.002024464900070088 0  245.293664684443 7.497975528041059 0  250.2935249749042 -0.002118084240008912 0  250.2936649051936 7.497881921509473 0  255.2935262408011 -0.002210977076653677 0  255.2936652512523 7.497789038840136 0  260.2935274434058 -0.002303252854916364 0  260.2936656703664 7.497696771315 0  265.2935285529781 -0.002395009919380197 0  265.2936661212337 7.497605021198289 0  270.2935295467684 -0.002486337948740275 0  270.2936665715881 7.497513699377909 0  275.2935304081425 -0.002577319972079378 0  275.2936669968033 7.497422723415935 0  280.2935311262204 -0.00266803400977812 0  280.2936673789058 7.497332015966499 0  285.2935316960674 -0.002758554292063572 0  285.293667705908 7.497241503590903 0  290.2935321194762 -0.002848951862259374 0  290.2936679713617 7.497151116098197 0  295.2935324064491 -0.002939294101481764 0  295.2936681740608 7.497060786686872 0  300.2935325773497 -0.003029642171563446 0  300.2936683178 7.496970453378971 0  305.2935326654268 -0.003120044232372543 0  305.2936684112859 7.496880062516184 0  310.2935327184358 -0.003210519736240773 0  310.2936684688528 7.496789575306537 0  5.293832036536806 15.00199963018967 0  0.2938319736535595 15.0020840832431 0  10.29383215981275 15.00191494917099 0  15.29383237620971 15.00183002868846 0  20.29383271064536 15.00174486898591 0  25.29383318550907 15.00165948291766 0  30.29383382297415 15.00157389439491 0  35.29383464584569 15.0014881364956 0  40.29383567778247 15.00140225007152 0  45.29383694328243 15.00131628309942 0  50.29383846758105 15.00123029080577 0  55.29384027649382 15.0011443365447 0  60.29384239617153 15.00105849342801 0  65.29384485270835 15.00097284675314 0  70.29384767151082 15.00088749733792 0  75.29385087631815 15.00080256594672 0  80.29385448772727 15.00071819908356 0  85.29385852104753 15.0006345765393 0  90.29386298327636 15.00055192121687 0  95.29386786898124 15.0004705119158 0  100.2938731549146 15.00039069991879 0  105.2938787933964 15.00031293032451 0  110.2938847049727 15.00023776896018 0  115.2938907719626 15.00016593502632 0  120.2938968366807 15.00009833758825 0  125.2939027122174 15.00003610895224 0  130.2939082207262 14.99998061628162 0  135.2939132849764 14.9999334067867 0  140.2939181114924 14.99989598319765 0  145.2939235034107 14.99986916243444 0  150.2939312624117 14.99985134054891 0  165.2939430109582 14.99972528030851 0  160.2939513227967 14.99983902825685 0  170.2939272677483 14.99959972431692 0  175.2939084992286 14.99947117533047 0  180.2938898957946 14.99934440619891 0  185.2938730530916 14.99922132071399 0  190.2938585598864 14.99910239121472 0  195.2938464728155 14.99898746399076 0  200.2938366014738 14.99887615065398 0  205.2938286626186 14.99876800608154 0  210.2938223575402 14.99866260332837 0  215.293817407388 14.99855956059139 0  220.2938135666265 14.99845854684583 0  225.2938106257393 14.99835927873636 0  230.2938084090778 14.99826151449387 0  235.2938067708717 14.99816504739185 0  240.2938055908487 14.99806969973055 0  245.2938047701203 14.99797531764954 0  250.2938042275844 14.99788176677808 0  255.2938038968877 14.99778892862366 0  260.293803723923 14.99769669757483 0  265.293803664783 14.99760497840114 0  270.2938036841014 14.99751368415718 0  275.2938037537045 14.99742273442311 0  280.2938038514896 14.99733205384344 0  285.2938039604965 14.99724157095375 0  290.2938040680834 14.99715121730294 0  295.2938041652458 14.99706092686 0  300.2938042461282 14.99697063556444 0  305.2938043080204 14.99688028041998 0  310.2938043524031 14.99678979615877 0  5.293958334415432 22.50200009223271 0  0.2939582699273499 22.5020843499094 0  10.29395844453507 22.5019155008167 0  15.29395862773767 22.50183061261065 0  20.29395890173815 22.50174545855014 0  25.29395927904571 22.50166006981819 0  30.29395976968794 22.50157448077901 0  35.2939603825988 22.50148873023355 0  40.29396112614847 22.50140286203979 0  45.29396200815496 22.5013169256787 0  50.2939630355804 22.50123097707259 0  55.29396421400863 22.50114507981911 0  60.29396554693515 22.50105930694789 0  65.29396703485774 22.50097374329587 0  70.29396867413099 22.50088848861098 0  75.29397045553959 22.50080366152455 0  80.2939723625457 22.50071940456465 0  85.29397436919216 22.50063589041373 0  90.29397643770341 22.50055332962317 0  95.29397851594764 22.50047197995752 0  100.2939805351473 22.50039215738905 0  105.2939824086182 22.50031424838886 0  110.2939840329591 22.5002387223473 0  115.2939852941046 22.50016614133052 0  120.2939860820344 22.50009716127654 0  125.2939863195653 22.50003251306479 0  130.29398601178 22.49997294197045 0  135.29398532107 22.49991906763966 0  140.2939846629349 22.49987110247924 0  145.2939847871462 22.49982834096597 0  150.2939867339499 22.49978836006354 0  165.2940132162436 22.49965018060976 0  160.2940040484685 22.49974470295501 0  170.2940152089012 22.49954381746991 0  175.2940119153619 22.49943109792788 0  180.2940054356529 22.49931609203236 0  185.2939974772517 22.49920133903013 0  190.2939891957951 22.49908819772818 0  195.2939812800824 22.49897727377554 0  200.2939740894097 22.49886874120476 0  205.2939677723164 22.49876254667213 0  210.2939623521431 22.49865852866097 0  215.2939577834191 22.49855648322225 0  220.2939539869628 22.4984561983503 0  225.2939508707375 22.49835747073087 0  230.2939483416426 22.49826011292189 0  235.2939463117568 22.49816395552833 0  240.2939447012809 22.49806884688712 0  245.2939434395914 22.49797465161353 0  250.29394246525 22.49788124871485 0  255.2939417254837 22.49778852962436 0  260.2939411754101 22.49769639632239 0  265.2939407771855 22.49760475961235 0  270.2939404991422 22.49751353757291 0  275.2939403149615 22.4974226541838 0  280.2939402028867 22.49733203811033 0  285.2939401449813 22.49724162161514 0  290.2939401264367 22.49715133952692 0  295.2939401349677 22.4970611281048 0  300.2939401603306 22.4969709234285
[...]
<PointData  Scalars="p"> 
<DataArray  type="Float64"  Name="p"  format="ascii">1.0000000000000001e-01  1.0000000000000003e-01  1.0000372062561702e-01  1.0000000000000003e-01  1.0000000000000003e-01  1.0000362866702030e-01  1.0000000000000003e-01  1.0000548243613226e-01  1.0000000000000003e-01  1.0000611490505927e-01  1.0000000000000003e-01  1.0000739378426834e-01  1.0000000000000003e-01  1.0000999638387789e-01  1.0000000000000003e-01  1.0001079623563745e-01  1.0000000000000003e-01  1.0001257665277914e-01  1.0000000000000003e-01  1.0001555732000028e-01  1.0000000000000003e-01  1.0001505054423623e-01  1.0000000000000003e-01  1.0002424578081091e-01  1.0000000000000003e-01  1.0002770184415535e-01  1.0000000000000003e-01  1.0003250467537531e-01  1.0000000000000003e-01  1.0003594354001279e-01  1.0000000000000003e-01  1.0004429274226957e-01  1.0000000000000003e-01  1.0004733759977180e-01  1.0000000000000003e-01  1.0005395057300860e-01  1.0000000000000003e-01  1.0006390888650418e-01  1.0000000000000003e-01  1.0006726721967889e-01  1.0000000000000003e-01  1.0007814219972809e-01  1.0000000000000003e-01  1.0008506890989616e-01  1.0000000000000003e-01  1.0009736924052075e-01  1.0000000000000003e-01  1.0009644152301482e-01  1.0000000000000003e-01  1.0012576329965099e-01  1.0000000000000003e-01  1.0010221725485767e-01  1.0000000000000003e-01  1.0016128853203032e-01  1.0000000000000003e-01  1.0009825007843046e-01  1.0000000000000003e-01  1.0020880912529831e-01  1.0000000000000003e-01  1.0008025233385910e-01  1.0000000000000001e-01  1.0028634625863268e-01  1.0000000000000001e-01  1.0000000000000003e-01  9.9800589615482715e-02  9.9552933698777685e-02  1.0000000000000003e-01  9.9956978277947334e-02  1.0000000000000003e-01  9.9845106352468432e-02  1.0000000000000003e-01  9.9908436735300310e-02  1.0000000000000003e-01  9.9891080662282014e-02  1.0000000000000003e-01  9.9907821698114768e-02  1.0000000000000003e-01  9.9901939835322112e-02  1.0000000000000003e-01  9.9916165359210093e-02  1.0000000000000003e-01  9.9914899286288869e-02  1.0000000000000003e-01  9.9920213468394928e-02  1.0000000000000003e-01  9.9924627439339331e-02  1.0000000000000003e-01  9.9927797583360581e-02  1.0000000000000003e-01  9.9930025638847772e-02  1.0000000000000003e-01  9.9934106950054211e-02  1.0000000000000003e-01  9.9935996181543557e-02  1.0000000000000003e-01  9.9938029391919050e-02  1.0000000000000003e-01  9.9940513584222887e-02  1.0000000000000003e-01  9.9942160800608137e-02  1.0000000000000003e-01  9.9943363930935891e-02  1.0000000000000003e-01  9.9945379360678738e-02  1.0000000000000003e-01  9.9946011991157033e-02  1.0000000000000003e-01  9.9947831724979730e-02  1.0000000000000003e-01  9.9947591830055998e-02  1.0000000000000003e-01  9.9950833505387068e-02  1.0000000000000003e-01  9.9947370431371779e-02  1.0000000000000003e-01  9.9955344072590810e-02  1.0000000000000003e-01  9.9943888333921649e-02  1.0000000000000003e-01  9.9964558701966591e-02  1.0000000000000003e-01  9.9929587978424425e-02  1.0000000000000001e-01  1.0000000000000003e-01  1.0000688225092298e-01  1.0000000000000003e-01  1.0000639289554797e-01  1.0000678497226774e-01  1.0000767566424308e-01  1.0001029988210085e-01  1.0001000853426525e-01  1.0001064256488811e-01  1.0001458433494492e-01  1.0001252175576850e-01  1.0001427950874717e-01  1.0001680332801283e-01  1.0002717238772600e-01  1.0002285200159225e-01  1.0003315548824662e-01  1.0002817781914432e-01  1.0003293582137975e-01  1.0004095710205774e-01  1.0003921302786910e-01  1.0004293841083890e-01  1.0005556952116629e-01  1.0004889713292718e-01  1.0006114492630239e-01  1.0006098058438923e-01  1.0007464084888831e-01  1.0005301616004803e-01  1.0010954523140694e-01  1.0001874356763679e-01  1.0017938329451041e-01  9.9933993103994992e-02  1.0028978152827230e-01  1.0020157160606356e-01  9.9339589093731542e-02  9.9783429449457658e-02  9.9971605445094938e-02  9.9939488010911195e-02  9.9951537583461592e-02  9.9929566184238400e-02  9.9959293169980562e-02  9.9945549962161637e-02  9.9950723527411828e-02  9.9957218559233743e-02  9.9957872995364697e-02  9.9957920841698050e-02  9.9964287746261551e-02  9.9964526578786225e-02  9.9965541017789095e-02  9.9969166047694874e-02  9.9969928614288092e-02  9.9970720999820892e-02  9.9973064619934021e-02  9.9974033514600463e-02  9.9974404475920944e-02  9.9976725928029767e-02  9.9976368071977822e-02  9.9978955493835814e-02  9.9976940891655292e-02  9.9983262663651901e-02  9.9973786269536638e-02  9.9992044923376794e-02  9.9965423301151490e-02  1.0000000000000003e-01  1.0001052840834419e-01  1.0000000000000003e-01  1.0000671739973843e-01  1.0000984670262097e-01  1.0001245566164432e-01  1.0001266469555287e-01  1.0001337164117217e-01  1.0001903114701342e-01  1.0001758567921980e-01  1.0001823740578239e-01  1.0002434239233669e-01  1.0002597550183467e-01  1.0002001362540108e-01  1.0004879326966741e-01  1.0003683090509671e-01  1.0004340506336497e-01  1.0005509003230341e-01  1.0004987033546153e-01  1.0005626985420385e-01  1.0007245852705651e-01  1.0006733554652830e-01  1.0007341458963122e-01  1.0009648539550348e-01  1.0007972179712925e-01  1.0010700298740308e-01  1.0009352150070527e-01  1.0013346662378195e-01  1.0006604101830893e-01  1.0021613333468077e-01  9.9944211741520961e-02  1.0045277136790180e-01  1.0011886745140690e-01  9.9425987685923936e-02  9.9684080703445629e-02  9.9938855578435806e-02  9.9916179091615986e-02  9.9865711517647032e-02  9.9942689018552008e-02  9.9899433005293886e-02  9.9912155398944921e-02  9.9924910506221196e-02  9.9924065052941630e-02  9.9922405880304779e-02  9.9935420548263695e-02  9.9934194986836020e-02  9.9935799685163446e-02  9.9943024690110405e-02  9.9943898730110267e-02  9.9944731515826779e-02  9.9949670067999208e-02  9.9950461192526763e-02  9.9951653485853206e-02  9.9954500847424549e-02  9.9956105869774867e-02  9.9956124224951870e-02  9.9960044261028239e-02  9.9958123933752571e-02  9.9963987876365512e-02  9.9957175909519996e-02  9.9973201451960078e-02  9.9945264930868360e-02  1.0000000000000003e-01  1.0001284031138143e-01  1.0000000000000003e-01  1.0000803971755959e-01  1.0001412241888061e-01  1.0001322505599707e-01  1.0001409683304610e-01  1.0002012910162764e-01  1.0001861825244851e-01  1.0001929164501895e-01  1.0002676663007672e-01  1.0002378970887241e-01  1.0002382748420671e-01  1.0004010089132324e-01  1.0002318381119857e-01  1.0004871228219939e-01  1.0005275764360611e-01  1.0004877489568406e-01  1.0004967427807289e-01  1.0006921105783333e-01  1.0005720647784330e-01  1.0006750095813222e-01  1.0008331825344713e-01  1.0007863465892930e-01  1.0007713037983187e-01  1.0011488997915101e-01  1.0006839340402349e-01  1.0014032557513908e-01  1.0004425055867924e-01  1.0022006086888888e-01  9.9907146225779592e-02  1.0047841029181388e-01  1.0010973403884303e-01  9.9281031731237146e-02  9.9798678295620447e-02  9.9973628839108014e-02  9.9771887578126314e-02  1.0000397777701910e-01  9.9887316391899822e-02  9.9921637021374521e-02  9.9928934810235223e-02  9.9930451735314230e-02  9.9921495748337877e-02  9.9942745320861032e-02  9.9937298802850155e-02  9.9938716152977128e-02  9.9948371336446074e-02  9.9948899112941345e-02  9.9949287054541189e-02  9.9956098445043759e-02  9.9956702337035130e-02  9.9957448652676584e-02  9.9961943788907298e-02  9.9962559108334806e-02  9.9964192671450167e-02  9.9966029930903796e-02  9.9969044350590133e-02  9.9966867971298085e-02  9.9974685252843906e-02  9.9965862007361614e-02  9.9983524723431944e-02  9.9958062659602887e-02  1.0000000000000003e-01  1.0001520781322064e-01  1.0000000000000003e-01  1.0001071844442452e-01  1.0001482459934677e-01  1.0001404009426809e-01  1.0002100988373500e-01  1.0001929842222995e-01  1.0002069437574181e-01  1.0002902421836161e-01  1.0002571463410971e-01  1.0002579314446793e-01  1.0004001919124529e-01  1.0003163871027977e-01  1.0003946797420553e-01  1.0004024144408895e-01  1.0006008510882504e-01  1.0005221896299822e-01  1.0007544918718685e-01  1.0006014622554228e-01  1.0006761985030456e-01  1.0009164214342921e-01  1.0007462627802795e-01  1.0009005321519922e-01  1.0010455333118158e-01  1.0010650299606993e-01  1.0008607918584436e-01  1.0016249128442888e-01  1.0004233678256108e-01  1.0024909294974048e-01  9.9893819372819839e-02  1.0055289022615013e-01  1.0023596478557698e-01  9.9192505507641845e-02  9.9729190464907219e-02  9.9898614202819161e-02  9.9883721723287230e-02  9.9862836310489561e-02  9.9905114304379247e-02  9.9911462328645409e-02  9.9921641695894459e-02  9.9893592488747338e-02  9.9932497896864383e-02  9.9919234018344738e-02  9.9920982054035684e-02  9.9934876773764919e-02  9.9934443110518065e-02  9.9933584594385727e-02  9.9944415095230055e-02  9.9944478668409692e-02  9.9945187989879475e-02  9.9951487672481007e-02  9.9952594703908201e-02  9.9953098882816116e-02  9.9957955581031002e-02  9.9958168683934617e-02  9.9960982270239571e-02  9.9961139488206008e-02  9.9967173142489971e-02  9.9960053097151169e-02  9.9977288930739816e-02  9.9951052460550874e-02  1.0000000000000003e-01  1.0001799888728956e-01  1.0000000000000003e-01  1.0001097489348149e-01  1.0001601164643785e-01  1.0001935178129305e-01  1.0001995723675224e-01  1.0002048029297031e-01  1.0002897941991884e-01  1.0002684072129193e-01  1.0002662384958104e-01  1.0003872182077572e-01  1.0003391980961367e-01  1.0003660831075639e-01  1.0004925434166854e-01  1.0004690817194771e-01  1.0003053777947246e-01  1.0008698834743932e-01  1.0005785756298234e-01  1.0006863113870312e-01  1.0008935023849862e-01  1.0007392968185644e-01  1.0007854437455482e-01  1.0011490692771789e-01  1.0008187372578653e-01  1.0011322593844391e-01  1.0010566001559630e-01  1.0014650579532547e-01  1.0004276764169659e-01  1.0027377679471895e-01  9.9855393730300279e-02  1.0061172839361912e-01  1.0020974675001412e-01  9.9232140759231827e-02  9.9666348878081096e-02  1.0000914756460136e-01  9.9843198046008136e-02  9.9873621808153665e-02  9.9863375605045088e-02  9.9953350445220357e-02  9.9866687508591429e-02  9.9945457561592954e-02  9.9910085473504509e-02  9.9915707911682874e-02  9.9932781246112240e-02  9.9932134620507124e-02  9.9927890354609666e-02  9.9943512430473128e-02  9.9941926256429461e-02  9.9942241769198525e-02  9.9951480847755098e-02  9.9951920492242122e-02  9.9952386368114307e-02  9.9958166407466242e-02  9.9959616309570468e-02  9.9959605693404285e-02  9.9965325367265198e-02  9.9963570513276562e-02  9.9970105102045403e-02  9.9963869950855488e-02  9.9980425534952344e-02  9.9955983933796108e-02  1.0000000000000003e-01  1.0001951532988083e-01  1.0000000000000003e-01  1.0001146687984999e-01  1.0002077429480052e-01  1.0001858188173278e-01  1.0002069139290304e-01  1.0002800654244492e-01  1.0002713149325192e-01  1.0002691974637576e-01  1.0003889187026788e-01  1.0003386266452753e-01  1.0003571299779426e-01  1.0005172126166179e-01  1.0004507786442558e-01  1.0004123232611224e-01  1.0007089630697394e-01  1.0003562341488566e-01  1.0007934022171035e-01  1.0009061120964297e-01  1.0007538482358723e-01  1.0007968461584311e-01  1.0011006772729102e-01  1.0009001831256456e-01  1.0009176820781486e-01  1.0014343321134028e-01  1.0008307805670759e-01  1.0015724407456805e-01  1.0006814801882920e-01  1.0026235409763255e-01  9.9854232849481403e-02  1.0066581868416197e-01  1.0018483450033173e-01  9.9165699905670382e-02  9.9734883186181553e-02  9.9970614171437183e-02  9.9799524839679868e-02  9.9925401202577604e-02  9.9883195885361820e-02  9.9825175132950666e-02  9.9957025291378399e-02  9.9893240017797494e-02  9.9909430635980248e-02  9.9920877238163994e-02  9.9925177892764408e-02  9.9914509269428020e-02  9.9937031994477551e-02  9.9933142633420846e-02  9.9932493653618643e-02  9.9944140815439508e-02  9.9945015259265496e-02  9.9944722790654458e-02  9.9953010166227554e-02  9.9953453967735278e-02  9.9954765971911275e-02  9.9958958724224181e-02  9.9961805088484026e-02  9.9960430214319107e-02  9.9968464090594955e-02  9.9961648833401265e-02  9.9978023788159287e-02  9.9954171461433497e-02  1.0000000000000003e-01  1.0002092401186681e-01  1.0000000000000003e-01  1.0001397848572849e-01  1.0002049644403245e-01  1.0001885917631234e-01  1.0002706555899146e-01  1.0002572846233951e-01  1.0002664756212541e-01  1.0003754716785446e-01  1.0003354475601522e-01  1.0003401714212866e-01  1.0005031685833143e-01  1.0004392458007687e-01  1.0004368433701337e-01  1.0006648812726197e-01  1.0004741990415046e-01  1.0005964845249725e-01  1.0006102086229131e-01  1.0008844117314315e-01  1.0007475122385971e-01  1.0011578243167027e-01  1.0008037542285077e-01  1.0009772030254804e-01  1.0012410328650111e-01  1.0011189776464365e-01  1.0008896327086605e-01  1.0018987435109794e-01  1.0003749522361449e-01  1.0027567333350605e-01  9.9863779275146572e-02  1.0067686705271767e-01  1.0026388705680030e-01  9.9096636412340885e-02  9.9695843237269210e-02  9.9934961639659425e-02  9.9860306359477541e-02  9.9915956159719280e-02  9.9837380123701400e-02  9.9917878663730766e-02  9.9854096381239127e-02  9.9924411329555721e-02  9.9906831301924792e-02  9.9931246478227098e-02  9.9900606166635181e-02  9.9936750338060279e-02  9.9927602152906025e-02  9.9926744799786499e-02  9.9941258601063329e-02  9.9941196022504633e-02  9.9939352759993105e-02  9.9950795840862694e-02  9.9951329648805376e-02  9.9951295880200408e-02  9.9958656491403911e-02  9.9958885690151419e-02  9.9961346701881795e-02  9.9963101790496722e-02  9.9969205583838941e-02  9.9962573296412963e-02  9.9979646339471484e-02  9.9956348021053854e-02  1.0000000000000003e-01  1.0002292968986223e-01  1.0000000000000003e-01  1.0001366061041232e-01  1.0002077481633373e-01  1.0002362335346769e-01  1.0002546519923823e-01  1.0002505764876042e-01  1.0003538275724325e-01  1.0003300242939116e-01  1.0003294664885395e-01  1.0004663869560425e-01  1.0004293404289025e-01  1.0004264658462744e-01  1.0006339137506813e-01  1.0005135377526171e-01  1.0005348839407628e-01  1.0007389920718049e-01  1.0006610223487029e-01  1.0004102763884212e-01  1.0012740165442879e-01  1.0008092212452398e-01  1.0009215255152587e-01  1.0013331413440323e-01  1.0008898173417236e-01  1.0011728843852259e-01  1.0012996084802243e-01  1.0015127880925186e-01  1.0004455871452973e-01  1.0031166528628310e-01  9.9829293309666486e-02  1.0070235555092825e-01  1.0026130389705409e-01  9.9117706491306551e-02  9.9650146365363193e-02  9.9995080772294839e-02  9.9837892167035577e-02  9.9872072854534213e-02  9.9896689878745726e-02  9.9894556547857519e-02  9.9866006145903935e-02  9.9874610135406772e-02  9.9947111138942502e-02  9.9880960729344201e-02  9.9940770417769859e-02  9.9917838571047343e-02  9.9919740123047801e-02  9.9935705524460766e-02  9.9936900822024666e-02  9.9931842866318385e-02  9.9946509217190740e-02  9.9945826991851144e-02  9.9945923684579663e-02  9.9954798160299965e-02  9.9956255254246756e-02  9.9955731176926049e-02  9.9963148966692311e-02  9.9961802442678521e-02  9.9967551698908086e-02  9.9963303985159152e-02  9.9978742130253193e-02  9.9956163591022482e-02  1.0000000000000003e-01  1.0002372617979959e-01  1.0000000000000003e-01  1.0001362682986777e-01  1.0002471328720527e-01  1.0002228220590101e-01  1.0002496744424197e-01  1.0003242983952465e-01  1.0003186979303583e-01  1.0003166471191810e-01  1.0004419951932332e-01  1.0004034540009803e-01  1.0004035208716545e-01  1.0005990536308326e-01  1.0005137020181389e-01  1.0005077172156837e-01  1.0007464425480853e-01  1.0006182034579157e-01  1.0005370240011867e-01  1.0010083957675565e-01  1.0004275260017435e-01  1.0010697977049141e-01  1.0012453045242396e-01  1.0009998126034730e-01  1.0009400423150677e-01  1.0016275581390212e-01  1.0008248463289904e-01  1.0015731895811755e-01  1.0008829822043562e-01  1.0026971094913817e-01  9.9832931026904922e-02  1.0074565714735298e-01  1.0024000030632289e-01  9.9086692928376033e-02  9.9691402734862114e-02  9.9984528499576869e-02  9.9797396194973353e-02  9.9925698132110372e-02  9.9880014455657945e-02  9.9871288390320848e-02  9.9899145677330492e-02  9.9906961804230185e-02  9.9844199202066414e-02  9.9958837478813831e-02  9.9905428118397699e-02  9.9921381131743217e-02  9.9928126962519209e-02  9.9935621678146416e-02  9.9924891317460990e-02  9.9944629206029548e-02  9.9942629289687335e-02  9.9940771083778954e-02  9.9951805139382538e-02  9.9953117291438312e-02  9.9953275847668735e-02  9.9960039842216450e-02  9.9962601367499501e-02  9.9961097934171655e-02  9.9969849037030947e-02  9.9963830040775678e-02  9.9978933031398459e-02  9.9957863806637612e-02  1.0000000000000003e-01  1.0002437586422851e-01  1.0000000000000003e-01  1.0001542824338998e-01  1.0002383262980072e-01  1.0002155104934621e-01  1.0003033467486769e-01  1.0002933291229733e-01  1.0003034753218583e-01  1.0004079267574328e-01  1.0003830083966285e-01  1.0003746005303724e-01  1.0005490854061304e-01  1.0004882916547134e-01  1.0004854134001846e-01  1.0007106349401616e-01  1.0005895741844122e-01  1.0005638366161707e-01  1.0009038978568953e-01  1.0006014119193941e-01  1.0007472448645341e-01  1.0008307450554023e-01  1.0010969012848329e-01  1.0009738839636512e-01  1.0014784085749313e-01  1.0010829037184847e-01  1.0009177216214873e-01  1.0020640265926886e-01  1.0003724202069893e-01  1.0027044837801447e-01  9.9881962919048009e-02  1.0070154735679043e-01  1.0029143871108280e-01  9.9029877713379857e-02  9.9680985637984360e-02  9.9952120359043245e-02  9.9840992285163924e-02  9.9915401069398002e-02  9.9846271354602417e-02  9.9909656960440477e-02  9.9900068863042715e-02  9.9872670689732657e-02  9.9915921111018727e-02  9.9876900072902175e-02  9.9933898715988803e-02  9.9916653230514088e-02  9.9940302945237938e-02  9.9914320256916683e-02  9.9943634766549744e-02  9.9938179535098065e-02  9.9936397374090921e-02  9.9948928080949989e-02  9.9949623512062061e-02  9.9947466069643914e-02  9.9958334035061547e-02  9.9958537759621630e-02  9.9960302728112821e-02  9.9963850005033800e-02  9.9969397957681477e-02  9.9963326028793556e-02  9.9979679388795636e-02  9.9958484695513453e-02  1.0000000000000003e-01  1.0002575134287678e-01  1.0000000000000003e-01  1.0001492057946905e-01  1.0002345999843007e-01  1.0002539778566032e-01  1.0002832011237511e-01  1.0002776814234722e-01  1.0003779413183925e-01  1.0003631373689539e-01  1.0003556587573867e-01  1.0004938321061743e-01  1.0004635273114416e-01  1.0004534548530905e-01  1.0006556867194270e-01  1.0005749378486874e-01  1.0005412009474285e-01  1.0008386285660699e-01  1.0006431010781452e-01  1.0006558672137159e-01  1.0009563928252628e-01  1.0008177316947243e-01  1.0004307543636642e-01  1.0017084713427910e-01  1.0008769177571226e-01  1.0012196412635158e-01  1.0014747820364407e-01  1.0014184958469147e-01  1.0004322173534975e-01  1.0032522293943481e-01  9.9830121252811474e-02  1.0069559443467214e-01  1.0031060388088546e-01  9.9041970833504453e-02  9.9640822750140412e-02  9.9993176739822998e-02  9.9837034982408771e-02  9.9882445789917118e-02  9.9885107356817562e-02  9.9906576936832220e-02  9.9867164883190002e-02  9.9916454399477897e-02  9.9905186495951231e-02  9.9893370819365446e-02  9.9889096828151308e-02  9.9957827251653267e-02  9.9900782007438446e-02  9.9949055588148705e-02  9.9932199854818021e-02  9.9933372207442916e-02  9.9946050052851829e-02  9.9948320807868044e-02  9.9943779779047684e-02  9.9955395076328488e-02  9.9956172194213655e-02  9.9955689678623422e-02  9.9964640698973456e-02  9.9963837883169149e-02  9.9968449987538580e-02  9.9965980842586497e-02  9.9979876333127479e-02  9.9959613195863467e-02  1.0000000000000003e-01  1.0002591503864862e-01  1.0000000000000003e-01  1.0001437003429449e-01  1.0002623813972966e-01  1.0002358718703563e-01  1.0002689681038464e-01  1.0003340205180683e-01  1.0003393525880327e-01  1.0003351063456914e-01  1.0004520462176540e-01  1.0004236221008725e-01  1.0004205709089288e-01  1.0005974803377043e-01  1.0005418564934947e-01  1.0005086805756622e-01  1.0007670854110465e-01  1.0006407091975154e-01  1.0005973425815082e-01  1.0009461333377480e-01  1.0007346709446038e-01  1.0006112219710614e-01  1.0012660580093702e-01  1.0004680614318838e-01  1.0011953708980938e-01  1