<?xml version="1.0"?>
<VTKFile type="UnstructuredGrid"  version="0.1"  >
<UnstructuredGrid>
<Piece  NumberOfPoints="1933" NumberOfCells="3640">
<Points>
<DataArray  type="Float64"  NumberOfComponents="3"  format="ascii">-0.0002650728017309367 0.001784309684477339 0  4.999734938307311 0.001712518098538012 0  4.999842687449386 7.501712582650709 0  -0.0001573548803378566 7.501784318228015 0  9.999734938882332 0.001640652105686394 0  9.999842773809629 7.501640740341161 0  14.99973496853253 0.001568641260874299 0  14.99984293188271 7.501568739354376 0  19.99973507899223 0.001496454809696848 0  19.99984319084929 7.501496556899284 0  24.99973532383315 0.00142408745623358 0  24.99984358182647 7.501424191446013 0  29.99973575501188 0.001351550659213691 0  29.99984413731117 7.501351656318079 0  34.99973642243738 0.001278867284623446 0  34.99984489078386 7.501278975338544 0  39.99973737485381 0.001206068488431216 0  39.99984587666923 7.501206180188635 0  44.99973866126825 0.00113319214468475 0  44.99984713060024 7.501133309076825 0  49.99974033259046 0.00106028239484899 0  49.99984868988679 7.501060406415452 0  54.99974244335843 0.0009873900709294224 0  54.99985059410054 7.500987523315395 0  59.99974505352263 0.0009145738729050937 0  59.99985288570776 7.500914718808056 0  64.99974823031056 0.0008419022812808075 0  64.99985561068866 7.500842061790448 0  69.99975205020988 0.0007694562744092073 0  69.99985881908553 7.500769633770259 0  74.99975660112329 0.0006973330120453822 0  74.99986256540312 7.500697532573775 0  79.99976198473789 0.0006256507569065744 0  79.99986690875059 7.500625877283782 0  84.99976831914836 0.0005545554544528973 0  84.99987191255912 7.500554814810902 0  89.99977574172217 0.0004842296061445279 0  89.99987764361107 7.500484528692486 0  94.99978441212468 0.0004149043976166281 0  94.99988416997614 7.500415250985971 0  99.9997945152201 0.0003468765531845396 0  99.99989155723961 7.500347278517796 0  104.9998062631838 0.0002805322021924768 0  104.9998998621145 7.500280995315294 0  109.9998198953269 0.0002163813624584032 0  109.999909122167 7.500216903835367 0  114.9998356724341 0.0001551088075298021 0  114.9999193400563 7.500155668632551 0  119.9998538588844 9.765064093933222e-05 0  119.9999304607254 7.500098177262243 0  124.9998746785448 4.531172332173816e-05 0  124.9999423413669 7.500045624005533 0  129.9998982153674 -5.163874304991745e-08 0  129.9999547192608 7.499999621022964 0  134.9999241982286 -3.574617121828333e-05 0  134.9999671981645 7.499962335657474 0  139.9999515425559 -5.78062466825519e-05 0  139.9999793162343 7.499936637824554 0  144.9999773696613 -6.041667139023362e-05 0  144.9999908722849 7.499926231830211 0  149.9999948316356 -3.570481133206122e-05 0  150.0000030142484 7.49993591877884 0  160.0000000000002 1.347019551575756e-18 0  164.9998806969298 -0.0001500435469655717 0  164.9999788336217 7.499829378192553 0  160.0000159546722 7.499950490628908 0  169.9998096261164 -0.0002856899669767308 0  169.9999410890915 7.499703867040314 0  174.9997655030162 -0.0004107725514947812 0  174.9999090482671 7.499583359582376 0  179.9997372660196 -0.0005271632058518181 0  179.9998835260736 7.499469358319033 0  184.9997187894943 -0.0006364389850957351 0  184.9998637752672 7.499361422860898 0  189.9997065359302 -0.0007399577450057662 0  189.9998487213431 7.499258686924041 0  194.9996983867546 -0.0008388293665687854 0  194.9998373565799 7.499160286977814 0  199.9996930264679 -0.000933931878723012 0  199.9998288448655 7.499065477296022 0  204.9996896078044 -0.001025951267406136 0  204.9998225260706 7.49897364537178 0  209.999687565183 -0.001115423739875166 0  209.9998178897563 7.498884296703396 0  214.9996865082228 -0.001202771785799849 0  214.9998145439194 7.498797032942771 0  219.9996861593217 -0.001288332285509477 0  219.9998121873645 7.498711531481877 0  224.9996863159726 -0.001372377549853019 0  224.9998105876579 7.498627528647417 0  229.9996868272904 -0.001455130822354067 0  229.9998095643236 7.498544806559008 0  234.9996875789133 -0.0015367776798091 0  234.9998089762886 7.498463183062221 0  239.9996884829756 -0.001617474472342765 0  239.9998087125709 7.498382504054468 0  244.9996894712603 -0.001697354648151736 0  244.9998086853721 7.498302637609251 0  249.9996904903955 -0.001776533569257704 0  249.9998088249368 7.498223469430394 0  254.9996914984302 -0.001855112247393519 0  254.9998090757155 7.498144899284501 0  259.9996924623575 -0.001933180302277223 0  259.9998093934837 7.498066838153287 0  264.9996933563468 -0.002010818354004195 0  264.9998097431877 7.49798920592003 0  269.9996941605089 -0.002088099994368476 0  269.9998100973456 7.497911929460975 0  274.9996948601338 -0.002165093427009914 0  274.9998104348743 7.497834941060765 0  279.9996954453546 -0.002241862811013799 0  279.9998107402597 7.497758177118554 0  284.9996959112735 -0.002318469270135032 0  284.9998110029902 7.497681577168978 0  289.9996962585819 -0.002394971411200496 0  289.999811217179 7.497605083322537 0  294.9996964947655 -0.002471424974093092 0  294.999811381312 7.497528640349982 0  299.999696635886 -0.002547880791433157 0  299.9998114980456 7.497452196813135 0  304.9996967087058 -0.002624379291844367 0  304.9998115741267 7.497375707873913 0  309.999696752156 -0.002700937650982125 0  309.9998116209686 7.497299140592395 0  4.999950151768841 15.00171274987664 0  -4.989960300544327e-05 15.00178434508052 0  9.999950253029088 15.00164096725844 0  14.99995043124743 15.00156898698367 0  19.9999507070867 15.00149680859184 0  24.99995109914917 15.00142444206776 0  29.99995162588756 15.00135190653675 0  34.99995230631198 15.00127922868764 0  39.99995316018198 15.00120644160565 0  44.99995420800447 15.00113358421688 0  49.99995547096155 15.00106070136883 0  54.99995697079493 15.00098784452964 0  59.99995872962203 15.00091507310396 0  64.9999607696348 15.00084245640277 0  69.99996311260664 15.00077007635518 0  74.99996577911817 15.00069803111315 0  79.99996878738031 15.00062643977489 0  84.99997215151103 15.00055544854505 0  89.99997587908994 15.00048523876408 0  94.99997996780729 15.00041603737189 0  99.99998440105129 15.00034813051054 0  104.9999891424321 15.00028188106833 0  109.9999941296099 15.00021775090276 0  114.9999992686604 15.00015632796939 0  120.0000044319392 15.00009835699719 0  125.0000094656838 15.00004476833038 0  130.0000142192959 14.99999669019994 0  135.0000186170582 14.99995540864824 0  140.0000228034844 14.99992219154345 0  145.0000273940717 14.99989777532689 0  150.000033800983 14.99988096197479 0  165.0000424443838 14.99977366439579 0  160.0000493916881 14.99986827004518 0  170.0000294036808 14.99966910688957 0  175.0000138507721 14.99956184999868 0  179.9999984129688 14.99945587150188 0  184.9999844125976 14.99935278502375 0  189.9999723427756 14.99925301637063 0  194.9999622565315 14.99915646710456 0  199.9999540014252 14.99906283844287 0  204.9999473468636 14.99897177941946 0  209.9999420482358 14.99888294993923 0  214.9999378763849 14.9987960440478 0  219.9999346289915 14.99871079537479 0  224.9999321330256 14.99862697516603 0  229.9999302431325 14.99854438770825 0  234.9999288384565 14.99846286525779 0  239.9999278191047 14.99838226331925 0  244.9999271028039 14.99830245654454 0  249.999926621965 14.99822333527703 0  254.9999263211974 14.99814480267066 0  259.9999261552535 14.99806677229039 0  264.999926087346 14.99798916610344 0  269.999926087781 14.99791191278849 0  274.9999261328439 14.99783494631027 0  279.9999262038726 14.99775820472906 0  284.9999262864868 14.99768162923809 0  289.9999263699053 14.99760516343494 0  294.9999264463756 14.99752875281901 0  299.9999265107577 14.99745234439955 0  304.9999265604949 14.99737588592195 0  309.9999265964233 14.99729932308848 0  5.000057230126788 22.50171312827958 0  5.717735652482903e-05 22.50178456074281 0  10.00005732079185 22.50164142079865 0  15.00005747215186 22.50156946809587 0  20.00005769897011 22.50149729509801 0  25.00005801172147 22.5014249269808 0  30.00005841884791 22.50135239156013 0  35.00005892791217 22.50127972030809 0  40.00005954604382 22.501206948848 0  45.00006027995708 22.50113411740511 0  50.00006113570932 22.50106127146429 0  55.00006211827809 22.50098846276938 0  60.00006323098405 22.5009157507517 0  65.00006447474894 22.50084320446691 0  70.00006584715655 22.50077090513096 0  75.00006734128016 22.50069894937104 0  80.00006894423252 22.50062745333594 0  85.0000706354212 22.50055655783634 0  90.00007238453267 22.50048643469775 0  95.00007414936684 22.50041729448139 0  100.0000758738175 22.50034939561267 0  105.0000774866111 22.50028305466538 0  110.0000789019271 22.50021865690601 0  115.0000800238285 22.50015666490403 0  120.000080757556 22.50009762051736 0  125.0000810320968 22.50004213096879 0  130.0000808394306 22.49999082163045 0  135.0000802947355 22.49994422465416 0  140.0000797141231 22.49990255239065 0  145.0000796820648 22.49986528277072 0  150.0000810201112 22.49983050405705 0  165.0001019874246 22.49971230986331 0  160.0000944081798 22.49979151761958 0  170.0001036828064 22.49962328524946 0  175.0001010224639 22.49952891567802 0  180.0000957210424 22.49943254789236 0  185.0000891813317 22.49933628666954 0  190.0000823571493 22.49924126965633 0  195.0000758198047 22.49914801357722 0  200.0000698694774 22.49905667713673 0  205.0000646322733 22.49896722887822 0  210.0000601304509 22.49887954560322 0  215.000056328855 22.49879346694227 0  220.0000531639187 22.49870882410591 0  225.0000505609609 22.49862545406598 0  230.0000484440185 22.49854320578884 0  235.000046741089 22.49846194228053 0  240.0000453866388 22.49838154052476 0  245.000044322536 22.49830189043813 0  250.0000434981077 22.49822289343274 0  255.0000428697498 22.49814446088575 0  260.0000424003152 22.49806651265894 0  265.0000420584327 22.49798897572914 0  270.0000418178092 22.49791178295071 0  275.0000416565612 22.49783487195059 0  280.0000415565701 22.49775818414598 0  285.0000415028746 22.49768166386027 0  290.0000414830993 22.49760525748162 0  295.0000414869498 22.4975289
[...]
<PointData  Scalars="p"> 
<DataArray  type="Float64"  Name="p"  format="ascii">1.0000000000000001e-01  1.0000000000000003e-01  1.0000389869500419e-01  1.0000000000000003e-01  1.0000000000000003e-01  1.0000453206095773e-01  1.0000000000000003e-01  1.0000684396567970e-01  1.0000000000000003e-01  1.0000801768769954e-01  1.0000000000000003e-01  1.0000968401347787e-01  1.0000000000000003e-01  1.0001242145849715e-01  1.0000000000000003e-01  1.0001364571929855e-01  1.0000000000000003e-01  1.0001552185661398e-01  1.0000000000000003e-01  1.0001860903100303e-01  1.0000000000000003e-01  1.0001906467713005e-01  1.0000000000000003e-01  1.0002672293935982e-01  1.0000000000000003e-01  1.0003094901356031e-01  1.0000000000000003e-01  1.0003546937227112e-01  1.0000000000000003e-01  1.0003911231719148e-01  1.0000000000000003e-01  1.0004648965184176e-01  1.0000000000000003e-01  1.0004947222577387e-01  1.0000000000000003e-01  1.0005489915258559e-01  1.0000000000000003e-01  1.0006322744568603e-01  1.0000000000000003e-01  1.0006569280606604e-01  1.0000000000000003e-01  1.0007398990000933e-01  1.0000000000000003e-01  1.0007904531756130e-01  1.0000000000000003e-01  1.0008810590937643e-01  1.0000000000000003e-01  1.0008597415957114e-01  1.0000000000000003e-01  1.0010864879454300e-01  1.0000000000000003e-01  1.0008788327010537e-01  1.0000000000000003e-01  1.0013415592356230e-01  1.0000000000000003e-01  1.0008158113349151e-01  1.0000000000000003e-01  1.0016940389555076e-01  1.0000000000000003e-01  1.0006434297107783e-01  1.0000000000000001e-01  1.0022914753049139e-01  1.0000000000000001e-01  1.0000000000000003e-01  9.9813970870227114e-02  9.9617560261937299e-02  1.0000000000000003e-01  9.9945781712967738e-02  1.0000000000000003e-01  9.9853039727216097e-02  1.0000000000000003e-01  9.9902883119347322e-02  1.0000000000000003e-01  9.9887902957935024e-02  1.0000000000000003e-01  9.9900755983179004e-02  1.0000000000000003e-01  9.9894659367567265e-02  1.0000000000000003e-01  9.9905520044431817e-02  1.0000000000000003e-01  9.9903880093565087e-02  1.0000000000000003e-01  9.9907539934410428e-02  1.0000000000000003e-01  9.9910711046175216e-02  1.0000000000000003e-01  9.9913037336279292e-02  1.0000000000000003e-01  9.9914579425643718e-02  1.0000000000000003e-01  9.9917790085293626e-02  1.0000000000000003e-01  9.9919300625489232e-02  1.0000000000000003e-01  9.9920949500399550e-02  1.0000000000000003e-01  9.9922995077651358e-02  1.0000000000000003e-01  9.9924494703813427e-02  1.0000000000000003e-01  9.9925482858155085e-02  1.0000000000000003e-01  9.9927423582334599e-02  1.0000000000000003e-01  9.9927833264207400e-02  1.0000000000000003e-01  9.9929932299098231e-02  1.0000000000000003e-01  9.9929129363688932e-02  1.0000000000000003e-01  9.9933318499420540e-02  1.0000000000000003e-01  9.9928277972944027e-02  1.0000000000000003e-01  9.9939026565309091e-02  1.0000000000000003e-01  9.9922998867287185e-02  1.0000000000000003e-01  9.9951373920335734e-02  1.0000000000000003e-01  9.9902865281666767e-02  1.0000000000000001e-01  1.0000000000000003e-01  1.0000641931630266e-01  1.0000000000000003e-01  1.0000636055116745e-01  1.0000681825501878e-01  1.0000770476239154e-01  1.0001001981183724e-01  1.0000984932303363e-01  1.0001028385727155e-01  1.0001363335367440e-01  1.0001208296165240e-01  1.0001342333462047e-01  1.0001648142598765e-01  1.0002438061824365e-01  1.0002209308405952e-01  1.0003063251343977e-01  1.0002688903775586e-01  1.0003018203544876e-01  1.0003689560346632e-01  1.0003498573076222e-01  1.0003719082023525e-01  1.0004724754505756e-01  1.0004094069051545e-01  1.0004977125463223e-01  1.0004898076907973e-01  1.0005922050527985e-01  1.0004009168931584e-01  1.0008604582269673e-01  1.0001097162005215e-01  1.0014174624553049e-01  9.9942202460347435e-02  1.0023250802067304e-01  1.0016161070673489e-01  9.9413976149213337e-02  9.9824110806910976e-02  9.9972101288958684e-02  9.9948291021664928e-02  9.9958421052135094e-02  9.9938224770820636e-02  9.9961940528777271e-02  9.9950236969938891e-02  9.9953189792953048e-02  9.9957902516364217e-02  9.9958129485834823e-02  9.9957542714478917e-02  9.9962435209816625e-02  9.9962529067947184e-02  9.9963077741228715e-02  9.9965919193722705e-02  9.9966471132462070e-02  9.9967015371608611e-02  9.9968778254107590e-02  9.9969650020178463e-02  9.9969642130108116e-02  9.9971851565796105e-02  9.9970880792473363e-02  9.9973951704726643e-02  9.9970466390823506e-02  9.9978722594458933e-02  9.9965157893934606e-02  9.9989874229344883e-02  9.9952634748638705e-02  1.0000000000000003e-01  1.0000947992592556e-01  1.0000000000000003e-01  1.0000640999650971e-01  1.0000954097499899e-01  1.0001192847966195e-01  1.0001238288412079e-01  1.0001286042313121e-01  1.0001774223040930e-01  1.0001658657559230e-01  1.0001685335402445e-01  1.0002242244749104e-01  1.0002360427093743e-01  1.0001992960297511e-01  1.0004283799407065e-01  1.0003499111320942e-01  1.0003977782754753e-01  1.0005017755608761e-01  1.0004541828024921e-01  1.0004971640419839e-01  1.0006284499789042e-01  1.0005778981792904e-01  1.0006100174547068e-01  1.0007943944719538e-01  1.0006408730258344e-01  1.0008455114363653e-01  1.0007236904540527e-01  1.0010416268939110e-01  1.0004652264374035e-01  1.0017062043268579e-01  9.9946478468853198e-02  1.0036483352409263e-01  1.0011672396219126e-01  9.9457643430089629e-02  9.9717700791102037e-02  9.9941303920686980e-02  9.9926073333624729e-02  9.9879555755282054e-02  9.9942921668229059e-02  9.9907247836373100e-02  9.9915035863126236e-02  9.9924503013614316e-02  9.9923299964284826e-02  9.9920562855965428e-02  9.9930597163833415e-02  9.9929337551814740e-02  9.9930012927987560e-02  9.9935639729136411e-02  9.9936304405024601e-02  9.9936674495096661e-02  9.9940602129302614e-02  9.9941145632167300e-02  9.9942046092793738e-02  9.9944094713665679e-02  9.9945662803433574e-02  9.9944970134415140e-02  9.9949086226993944e-02  9.9945766696918917e-02  9.9953130977605789e-02  9.9942847746721103e-02  9.9964294626751743e-02  9.9925035878251398e-02  1.0000000000000003e-01  1.0001136187660448e-01  1.0000000000000003e-01  1.0000727600237820e-01  1.0001263541099799e-01  1.0001208456065233e-01  1.0001262111787459e-01  1.0001769259383274e-01  1.0001634681006394e-01  1.0001633518697239e-01  1.0002259536879907e-01  1.0001999242559459e-01  1.0001971003619280e-01  1.0003311718566142e-01  1.0002111862322197e-01  1.0003967362593637e-01  1.0004568304116439e-01  1.0004188777742493e-01  1.0004200911507437e-01  1.0005784895681634e-01  1.0004721291997026e-01  1.0005379853715504e-01  1.0006631579027814e-01  1.0006112520908420e-01  1.0005738113069558e-01  1.0008798236491928e-01  1.0004762041175477e-01  1.0010552919792676e-01  1.0002502898326368e-01  1.0017120287188405e-01  9.9910799846057108e-02  1.0038735655175522e-01  1.0012066232093249e-01  9.9331024918625332e-02  9.9812441738073243e-02  9.9982259526443518e-02  9.9809334289769874e-02  1.0000138843393783e-01  9.9907894389015900e-02  9.9932365802276532e-02  9.9937384027640505e-02  9.9938128862237366e-02  9.9928721800097514e-02  9.9945143581357587e-02  9.9940292760620927e-02  9.9940411777675014e-02  9.9947789556272829e-02  9.9948052542635224e-02  9.9947897102848987e-02  9.9953186818976414e-02  9.9953644352817325e-02  9.9953869268845794e-02  9.9957463696073418e-02  9.9957622677422892e-02  9.9959044943735836e-02  9.9959749421160843e-02  9.9963076327547515e-02  9.9959169692261651e-02  9.9968637929596912e-02  9.9955605992248078e-02  9.9979052726831441e-02  9.9942984931948128e-02  1.0000000000000003e-01  1.0001329455634912e-01  1.0000000000000003e-01  1.0000927249933696e-01  1.0001300318021991e-01  1.0001215625648989e-01  1.0001825791652440e-01  1.0001672276610245e-01  1.0001746708774925e-01  1.0002426625114876e-01  1.0002130385398755e-01  1.0002074857405539e-01  1.0003241039421740e-01  1.0002590691392510e-01  1.0003114747003546e-01  1.0003452316345990e-01  1.0004833531708449e-01  1.0004357465437358e-01  1.0006270150166051e-01  1.0005006374921586e-01  1.0005407791746876e-01  1.0007380808351332e-01  1.0005822740073850e-01  1.0006854564794325e-01  1.0007944627238778e-01  1.0007973568027941e-01  1.0005919254606858e-01  1.0012304749418197e-01  1.0002026871363717e-01  1.0019329696039490e-01  9.9895594432002188e-02  1.0045045281993975e-01  1.0023286422031245e-01  9.9241964869796959e-02  9.9757801011879185e-02  9.9921131171352776e-02  9.9891707879021088e-02  9.9888929170339327e-02  9.9918446027293051e-02  9.9922864282833979e-02  9.9932011800612758e-02  9.9905859385468129e-02  9.9936326877603301e-02  9.9925058102071931e-02  9.9924740457992461e-02  9.9935227875145013e-02  9.9934660595703384e-02  9.9933078317507751e-02  9.9941497444044125e-02  9.9941463674171033e-02  9.9941636820691182e-02  9.9946471958472533e-02  9.9947354425693968e-02  9.9947250001668403e-02  9.9951274957786551e-02  9.9950706770020145e-02  9.9953575580249615e-02  9.9951936446695047e-02  9.9959214056963452e-02  9.9948361775986677e-02  9.9970763527522322e-02  9.9933600062818526e-02  1.0000000000000003e-01  1.0001558721839464e-01  1.0000000000000003e-01  1.0000935208673598e-01  1.0001356205726757e-01  1.0001628421137990e-01  1.0001682549637488e-01  1.0001691867263299e-01  1.0002390342145362e-01  1.0002192643065777e-01  1.0002088600060464e-01  1.0003082350569216e-01  1.0002664498686513e-01  1.0002773673493684e-01  1.0003902303836965e-01  1.0003623872624526e-01  1.0002430205063903e-01  1.0006825698739558e-01  1.0004712108800577e-01  1.0005384917678135e-01  1.0007175695834197e-01  1.0005762760579720e-01  1.0005876385049750e-01  1.0008840595342466e-01  1.0005901676947707e-01  1.0008223750596124e-01  1.0007416191868440e-01  1.0010823070346245e-01  1.0001632029100703e-01  1.0021404706854517e-01  9.9858494374721676e-02  1.0050168214444451e-01  1.0022481092415053e-01  9.9265348805689504e-02  9.9704537522570830e-02  1.0001696722567163e-01  9.9868054362798858e-02  9.9894492030052309e-02  9.9885646644855136e-02  9.9963626718259146e-02  9.9889040870935003e-02  9.9952135056238137e-02  9.9923219718640585e-02  9.9925208505058982e-02  9.9937971441105278e-02  9.9937128593556801e-02  9.9932272286423596e-02  9.9944390700424240e-02  9.9942956327301283e-02  9.9942476866508950e-02  9.9949728904499130e-02  9.9949945012059643e-02  9.9950003232924300e-02  9.9954238744561996e-02  9.9955540431762538e-02  9.9954566634318481e-02  9.9959892492390734e-02  9.9956455913774223e-02  9.9964262314591934e-02  9.9953948142628549e-02  9.9975544231631810e-02  9.9940739641892873e-02  1.0000000000000003e-01  1.0001684195040318e-01  1.0000000000000003e-01  1.0000951295052900e-01  1.0001739041636852e-01  1.0001535878695053e-01  1.0001682575333490e-01  1.0002279861158841e-01  1.0002213356044842e-01  1.0002109367825730e-01  1.0003097223987138e-01  1.0002657331179365e-01  1.0002682252716465e-01  1.0004032145961594e-01  1.0003442929025272e-01  1.0003052812197739e-01  1.0005448382744388e-01  1.0002828476551809e-01  1.0005903050427750e-01  1.0007252864157597e-01  1.0005878187411248e-01  1.0006064965591774e-01  1.0008516511297977e-01  1.0006734575447511e-01  1.0006483282068598e-01  1.0010773075634791e-01  1.0005429138492980e-01  1.0011501409796963e-01  1.0003617161353416e-01  1.0020507423537302e-01  9.9851044993532520e-02  1.0055281994543008e-01  1.0020801637117729e-01  9.9206764951114038e-02  9.9758863063065778e-02  9.9993333008251695e-02  9.9830734770822993e-02  9.9938915897828468e-02  9.9900264189529922e-02  9.9856298673722657e-02  9.9962402427026809e-02  9.9911500361273969e-02  9.9922138890023077e-02  9.9929824722632704e-02  9.9933011055250182e-02  9.9922397610669206e-02  9.9939751010754516e-02  9.9936303803587118e-02  9.9934804114804071e-02  9.9943717298848059e-02  9.9944329949470140e-02  9.9943506314066108e-02  9.9950032382635459e-02  9.9950083956580199e-02  9.9950991752124546e-02  9.9953566877547237e-02  9.9956431636580897e-02  9.9953368572367779e-02  9.9962147331454157e-02  9.9951578954610293e-02  9.9972683264254514e-02  9.9938460441903007e-02  1.0000000000000003e-01  1.0001793742302674e-01  1.0000000000000003e-01  1.0001153282308946e-01  1.0001705322985885e-01  1.0001514179299757e-01  1.0002190155246797e-01  1.0002063968289483e-01  1.0002074559685702e-01  1.0002978908088012e-01  1.0002624098589763e-01  1.0002562793401007e-01  1.0003900660404035e-01  1.0003338911339046e-01  1.0003196542319347e-01  1.0005070313350646e-01  1.0003528504619756e-01  1.0004250607985123e-01  1.0004776665657752e-01  1.0006563135139786e-01  1.0005627207735535e-01  1.0009010626082990e-01  1.0006040358578459e-01  1.0007121579906947e-01  1.0009246601666909e-01  1.0008110863382315e-01  1.0005657368241026e-01  1.0014295462894167e-01  1.0000913848597096e-01  1.0021536426529970e-01  9.9855338032739271e-02  1.0056835072426154e-01  1.0027734762759699e-01  9.9144170107361720e-02  9.9730394496701361e-02  9.9965898614484378e-02  9.9882677647648924e-02  9.9937900931343387e-02  9.9865078616081668e-02  9.9928556946592431e-02  9.9880930092091452e-02  9.9937531283637374e-02  9.9921370452058872e-02  9.9941805616733576e-02  9.9914449062412841e-02  9.9942444385459558e-02  9.9934725204903679e-02  9.9932552637406608e-02  9.9943531253291557e-02  9.9943351786437068e-02  9.9941048723353354e-02  9.9949827680545167e-02  9.9950280169895753e-02  9.9949586136199087e-02  9.9955520506651546e-02  9.9954945042942556e-02  9.9957334762561287e-02  9.9956843452812388e-02  9.9963984803115011e-02  9.9953596123793967e-02  9.9974997887020772e-02  9.9941777699969397e-02  1.0000000000000003e-01  1.0001959588567977e-01  1.0000000000000003e-01  1.0001122753284067e-01  1.0001700083680530e-01  1.0001900435517420e-01  1.0002045240637579e-01  1.0001938844806438e-01  1.0002789498064138e-01  1.0002569539192717e-01  1.0002484445174710e-01  1.0003614992129339e-01  1.0003284079290642e-01  1.0003126938519701e-01  1.0004842265009666e-01  1.0003828358210869e-01  1.0003779640921082e-01  1.0005571484735082e-01  1.0004753828066991e-01  1.0002862109699480e-01  1.0009570198051816e-01  1.0006130566123224e-01  1.0006688418442239e-01  1.0010237061320743e-01  1.0006316469383500e-01  1.0008352564355012e-01  1.0009182370837851e-01  1.0011125514924506e-01  1.0001200545107500e-01  1.0024786124378064e-01  9.9822966097277033e-02  1.0059454063868473e-01  1.0028085923273622e-01  9.9157810002570720e-02  9.9691527535213098e-02  1.0001671442178076e-01  9.9868119658099386e-02  9.9903230630325593e-02  9.9914319848070560e-02  9.9914793623755424e-02  9.9885524235530779e-02  9.9895291713926540e-02  9.9956272163404289e-02  9.9900388970543569e-02  9.9947807274362546e-02  9.9928940254778734e-02  9.9928569856481825e-02  9.9940400659610101e-02  9.9941159141580069e-02  9.9935841093401923e-02  9.9947200972460862e-02  9.9946424857624769e-02  9.9945891262239725e-02  9.9952586498639154e-02  9.9953874010497476e-02  9.9952485782156236e-02  9.9958906937265821e-02  9.9956041110738678e-02  9.9962637664305617e-02  9.9954410791646728e-02  9.9974132237981350e-02  9.9941846466131787e-02  1.0000000000000003e-01  1.0002024270233852e-01  1.0000000000000003e-01  1.0001104870533603e-01  1.0002026987509871e-01  1.0001785825600064e-01  1.0001958114026266e-01  1.0002549122903870e-01  1.0002484958465072e-01  1.0002378250908699e-01  1.0003408199840573e-01  1.0003091651418375e-01  1.0002963449683790e-01  1.0004595123792064e-01  1.0003868875276005e-01  1.0003622059311508e-01  1.0005624240775254e-01  1.0004473566225051e-01  1.0003647824279197e-01  1.0007444913401610e-01  1.0003043342242085e-01  1.0007512569419680e-01  1.0009545880642683e-01  1.0007364450950912e-01  1.0006543741865062e-01  1.0012292175908205e-01  1.0005292079065677e-01  1.0011412049443441e-01  1.0004982737584259e-01  1.0021434674007300e-01  9.9821306408292579e-02  1.0063796638064944e-01  1.0026555570560586e-01  9.9133634541995294e-02  9.9725067190569047e-02  1.0001211551962133e-01  9.9835398231980357e-02  9.9948236127593515e-02  9.9905569207557415e-02  9.9896989875580586e-02  9.9914918734161529e-02  9.9920279222072902e-02  9.9870824805054922e-02  9.9964313099974431e-02  9.9921120078875617e-02  9.9932624422227972e-02  9.9936596363970592e-02  9.9942386996681884e-02  9.9932214773542180e-02  9.9947297015080053e-02  9.9945445051391649e-02  9.9943057407275659e-02  9.9951510755268799e-02  9.9952221060903887e-02  9.9952082096545630e-02  9.9956718475500542e-02  9.9959316527995917e-02  9.9956199086131153e-02  9.9965200026726778e-02  9.9955698827960585e-02  9.9974811956600393e-02  9.9944282523324157e-02  1.0000000000000003e-01  1.0002074869236886e-01  1.0000000000000003e-01  1.0001257300412947e-01  1.0001959258891926e-01  1.0001698999488613e-01  1.0002410249240612e-01  1.0002295571648211e-01  1.0002303638294620e-01  1.0003143624095664e-01  1.0002924769924421e-01  1.0002750558086045e-01  1.0004206795989073e-01  1.0003697767475379e-01  1.0003526502387859e-01  1.0005396364899172e-01  1.0004336593196791e-01  1.0003906054002783e-01  1.0006693883703181e-01  1.0004228515625517e-01  1.0004979049702287e-01  1.0006251172453065e-01  1.0007746825590433e-01  1.0006951988570084e-01  1.0011106442267546e-01  1.0007875239185693e-01  1.0005823244025769e-01  1.0015757432595047e-01  1.0000812759080376e-01  1.0021351185246805e-01  9.9862692074554199e-02  1.0060624654801396e-01  1.0030741428726021e-01  9.9091330332153671e-02  9.9718279448231528e-02  9.9986597069004951e-02  9.9870861435521749e-02  9.9942851783023881e-02  9.9878279852597590e-02  9.9929568476199257e-02  9.9918991814510319e-02  9.9894042089203883e-02  9.9925086720038386e-02  9.9897646265048934e-02  9.9944016085321635e-02  9.9928757561345977e-02  9.9948295557420741e-02  9.9925487020776485e-02  9.9948054176376602e-02  9.9943331889219181e-02  9.9940752427396737e-02  9.9950053387931143e-02  9.9950560126036578e-02  9.9947890507696521e-02  9.9956411345883206e-02  9.9955978044697344e-02  9.9957623780492763e-02  9.9958778663456843e-02  9.9965138417553209e-02  9.9955714035090890e-02  9.9975548320967930e-02  9.9945395566206574e-02  1.0000000000000003e-01  1.0002190135526344e-01  1.0000000000000003e-01  1.0001219359568660e-01  1.0001912900546270e-01  1.0002026805260403e-01  1.0002253314699337e-01  1.0002126788980015e-01  1.0002936146167853e-01  1.0002786528636486e-01  1.0002625084854114e-01  1.0003767847263156e-01  1.0003505856318362e-01  1.0003312346854257e-01  1.0005002796692171e-01  1.0004320350546571e-01  1.0003829660883053e-01  1.0006276237644476e-01  1.0004629261669083e-01  1.0004386973135738e-01  1.0007027171505105e-01  1.0005640250020793e-01  1.0002623152682857e-01  1.0012628811852813e-01  1.0006223660620096e-01  1.0008620333688337e-01  1.0010798823929824e-01  1.0010470896153444e-01  1.0001122402771953e-01  1.0026193141173698e-01  9.9820455942718322e-02  1.0060142183985117e-01  1.0032162955999720e-01  9.9108366447563254e-02  9.9687616718993857e-02  1.0002006138422884e-01  9.9869456152935326e-02  9.9916531060557423e-02  9.9910058886767614e-02  9.9929701425447173e-02  9.9893537238625513e-02  9.9930573056421404e-02  9.9920229057876772e-02  9.9907210388821957e-02  9.9905800217336124e-02  9.9963770436395816e-02  9.9916093084678845e-02  9.9954417687717803e-02  9.9940449007982546e-02  9.9939984835304072e-02  9.9949270445785471e-02  9.9950804084049452e-02  9.9946199338009301e-02  9.9954900157393806e-02  9.9955480622478277e-02  9.9954003207798306e-02  9.9961543456084448e-02  9.9959378627050913e-02  9.9964757165474705e-02  9.9958489745370097e-02  9.9976084865655679e-02  9.9947207175189859e-02  1.0000000000000003e-01  1.0002212626707041e-01  1.0000000000000003e-01  1.0001173930309881e-01  1.0002161309148710e-01  1.0001896949859519e-01  1.0002121911126725e-01  1.0002623430217313e-01  1.0002646736210784e-01  1.0002517235609656e-01  1.0003469320188908e-01  1.0003223347242916e-01  1.0003084713838131e-01  1.0004562032548472e-01  1.0004121496864063e-01  1.0003680278225205e-01  1.0005828595759869e-01  1.0004752010080764e-01  1.0004098553848069e-01  1.0007027725392799e-01  1.0005168297309970e-01  1.0003909758644598e-01  1.0009211680954594e-01  1.0003144548030543e-01  1.0007941798981534e-01  1