<?xml version="1.0"?>
<VTKFile type="UnstructuredGrid"  version="0.1"  >
<UnstructuredGrid>
<Piece  NumberOfPoints="1933" NumberOfCells="3640">
<Points>
<DataArray  type="Float64"  NumberOfComponents="3"  format="ascii">0.47528206479045 0.001724169918200102 0  5.475282068644159 0.001658361531257838 0  5.475380835204408 7.501658403660559 0  0.4753808066387212 7.501724167336985 0  10.47528206003082 0.001592498865251047 0  10.47538089674467 7.501592560719117 0  15.47528206784313 0.001526521361238227 0  15.47538101303696 7.501526591926043 0  20.4752821320276 0.001460399135542674 0  20.47538120746394 7.501460473569639 0  25.47528229508536 0.001394122393138612 0  25.4753815053748 7.501394198857762 0  30.4752825990295 0.001327694728809706 0  30.4753819336588 7.501327772916774 0  35.47528308483765 0.001261128881733449 0  35.4753825204418 7.501261209297854 0  40.47528379304126 0.001194444171288937 0  40.47538329507424 7.501194527782181 0  45.47528476482101 0.001127665122089221 0  45.47538428837875 7.501127753197766 0  50.47528604332796 0.001060820961501333 0  50.47538553308589 7.501060915021275 0  55.47528767511999 0.000993945798115192 0  55.47538706439419 7.500994047617266 0  60.47528971168887 0.0009270793833434964 0  60.47538892060545 7.500927191039795 0  65.47529221109752 0.0008602684330040721 0  65.47539114379589 7.500860392385829 0  70.47529523976669 0.0007935685520090967 0  70.47539378048839 7.500793707750586 0  75.47529887446983 0.0007270468732309551 0  75.47539688228171 7.500727204899699 0  80.4753032045993 0.0006607856024266719 0  80.47540050637484 7.500660966850645 0  85.47530833477727 0.0005948867691455732 0  85.47540471588566 7.500595096658556 0  90.47531438787711 0.0005294786397734899 0  90.47540957980227 7.500529723845494 0  95.47532150850539 0.0004647244866750761 0  95.47541517230557 7.50046501312182 0  100.4753298669208 0.000400834782093401 0  100.4754215710495 7.500401176358332 0  105.4753396631989 0.0003380844911576373 0  105.4754288537595 7.500338489228346 0  110.4753511310491 0.0002768381380828739 0  110.4754370921943 7.500277314613538 0  115.475364539797 0.0002175869985958596 0  115.4754463421531 7.500218135829206 0  120.4753801910846 0.0001610056326958918 0  120.4754566279278 7.500161604005315 0  125.4753984026132 0.0001080398990509593 0  125.4754679199422 7.500108605435989 0  130.475419462154 6.004708263680121e-05 0  130.4754801067556 7.500060355800561 0  135.4754435153981 1.90229018152279e-05 0  135.4754929711099 7.500018527333826 0  140.4754703079141 -1.203037813172633e-05 0  140.4755062050026 7.499985410237001 0  145.4754986006934 -2.85422898678088e-05 0  145.4755195713091 7.499964109526412 0  150.4755248131466 -2.379924353872146e-05 0  150.4755335375907 7.499958890936104 0  160.4755282581475 1.056266119293546e-18 0  165.4754310730939 -0.0001166605915290717 0  165.4755102872402 7.499868042456702 0  160.4755414662194 7.499962685986215 0  170.4753711456491 -0.0002249271566364589 0  170.4754785930376 7.49976730490519 0  175.4753324471187 -0.0003269931724511051 0  175.475451363723 7.499668602860009 0  180.4753065683516 -0.0004237238999940055 0  180.475429298723 7.499573631980145 0  185.4752887840218 -0.0005159331310560311 0  185.4754118676513 7.499482417216384 0  190.4752763162667 -0.0006043912729865827 0  190.4753982646378 7.499394545514989 0  195.4752674674793 -0.0006897622956187094 0  195.4753877178394 7.49930953164478 0  200.4752611600103 -0.0007725882067023682 0  200.4753795763365 7.499226930014379 0  205.4752566834155 -0.0008533013599911893 0  205.4753733183477 7.49914636217571 0  210.4752535520284 -0.0009322450004009232 0  210.4753685343188 7.499067515704188 0  215.4752514226247 -0.001009693110932142 0  215.4753649049675 7.498990134590994 0  220.4752500454821 -0.001085866748102727 0  220.4753621812528 7.498914008485628 0  225.4752492343866 -0.001160946620776492 0  225.4753601680761 7.498838963206865 0  230.4752488476477 -0.001235082508082926 0  230.4753587116606 7.498764853058391 0  235.4752487756765 -0.001308400253338117 0  235.4753576899903 7.498691554820468 0  240.4752489325919 -0.001381006976639998 0  240.4753570056216 7.498618963106829 0  245.47524925038 -0.001452995004151002 0  245.4753565802767 7.498546986771075 0  250.4752496747184 -0.001524444880695291 0  250.4753563507638 7.498475546096991 0  255.4752501619313 -0.001595427729773859 0  255.4753562658852 7.498404570565679 0  260.4752506767321 -0.001666007149994705 0  260.475356284077 7.498333997043251 0  265.4752511905539 -0.001736240783003141 0  265.4753563716139 7.498263768273691 0  270.4752516803213 -0.001806181648387439 0  270.4753565012487 7.498193831593861 0  275.4752521276146 -0.001875879308860316 0  275.47535665119 7.498124137815584 0  280.4752525181798 -0.001945380896272026 0  280.4753568043637 7.498054640248141 0  285.4752528418237 -0.002014731984019884 0  285.4753569478917 7.49798529387059 0  290.4752530927328 -0.002083977212654126 0  290.4753570727519 7.49791605471749 0  295.4752532703243 -0.002153160418610295 0  295.4753571735557 7.497846879627351 0  300.4752533807145 -0.002222323680958331 0  300.4753572483976 7.497777726637321 0  305.4752534388014 -0.002291503942754071 0  305.4753572987872 7.497708556488027 0  310.4752534705357 -0.002360724021712427 0  310.4753573299902 7.497639335828921 0  5.47547938065405 15.00165852004021 0  0.4754793442971356 15.00172416751324 0  10.47547945708332 15.00159272943763 0  15.47547959560882 15.0015267811814 0  20.47547981349767 15.00146066924057 0  25.47548012661549 15.00139439619942 0  30.47548055096946 15.00132797206562 0  35.47548110332799 15.00126141291204 0  40.47548180143888 15.00119473984473 0  45.47548266409787 15.00112797844749 0  50.47548371117117 15.00106115872226 0  55.47548496359739 15.00099431551081 0  60.47548644335552 15.00092748939378 0  65.47548817336497 15.00086072809234 0  70.47549017726325 15.00079408843676 0  75.47549247899489 15.00072763901478 0  80.47549510211597 15.00066146367278 0  85.47549806869903 15.00059566611743 0  90.47550139768357 15.00053037596354 0  95.47550510249242 15.00046575669482 0  100.4755091877153 15.00040201614947 0  105.4755136447085 15.00033942029162 0  110.475518446125 15.00027831111839 0  115.4755235398537 15.00021912941758 0  120.4755288438724 15.00016244233317 0  125.4755342456092 15.00010897339995 0  130.4755396133158 15.00005962679559 0  135.4755448335205 15.00001548319971 0  140.4755498976822 14.99997770981988 0  145.4755550663736 14.99994723690693 0  150.4755611061644 14.99992378041035 0  165.475564152876 14.99982710761927 0  160.4755706830662 14.99990406563331 0  170.4755530986627 14.99974131829523 0  175.4755400983604 14.99965227340226 0  180.4755271538481 14.99956323160729 0  185.4755153057687 14.99947564507326 0  190.4755049635766 14.9993900212906 0  195.4754961932808 14.99930642759983 0  200.4754888951755 14.99922474459663 0  205.4754829022828 14.99914478649915 0  210.4754780311821 14.99906635564643 0  215.4754741062531 14.99898926531016 0  220.4754709697657 14.99891334768521 0  225.4754684847878 14.99883845524664 0  230.4754665346831 14.99876445937469 0  235.4754650211806 14.99869124805241 0  240.4754638619962 14.99861872342835 0  245.4754629884791 14.99854679955797 0  250.4754623434852 14.99847540041971 0  255.4754618795375 14.99840445820644 0  260.4754615572768 14.99833391185912 0  265.4754613441745 14.99826370579949 0  270.4754612134736 14.99819378882285 0  275.475461143314 14.99812411312085 0  280.4754611160007 14.99805463341566 0  285.4754611173872 14.99798530620066 0  290.4754611363163 14.99791608909189 0  295.4754611641285 14.99784694028514 0  300.4754611942333 14.99777781803867 0  305.4754612218739 14.99770867982424 0  310.4754612443305 14.99763947992716 0  5.475577606180051 22.50165879673382 0  0.4755775681197763 22.50172430199626 0  10.47557767624874 22.50159307621459 0  15.47557779760869 22.50152715821836 0  20.47557798314843 22.50146105737068 0  25.47557824242074 22.50139478884774 0  30.47557858349538 22.50132837006601 0  35.4755790139401 22.50126182135868 0  40.47557954123992 22.50119516626846 0  45.47558017287462 22.50112843181317 0  50.47558091618805 22.50106164891507 0  55.47558177811302 22.50099485309747 0  60.47558276477285 22.50092808551764 0  65.47558388095059 22.50086139439894 0  70.47558512939608 22.50079483693569 0  75.47558650993098 22.50072848176743 0  80.47558801830259 22.50066241214689 0  85.47558964474212 22.50059672995694 0  90.47559137220058 22.500531560759 0  95.47559317428225 22.50046706006403 0  100.475595012999 22.50040342097897 0  105.4755968366552 22.50034088323698 0  110.4755985785147 22.50027974325232 0  115.4756001574547 22.50022036403309 0  120.4756014826567 22.50016318213122 0  125.4756024655192 22.50010870559191 0  130.4756030431147 22.50005749086734 0  135.4756032175992 22.50001007601995 0  140.4756031120164 22.49996683015488 0  145.4756030275237 22.49992765635793 0  150.4756034447497 22.4998914852857 0  165.4756171181772 22.49978228583266 0  160.4756115499816 22.49984934306529 0  170.4756182827359 22.4997071942177 0  175.4756161096082 22.49962734360224 0  180.4756118564606 22.49954530495237 0  185.4756065849801 22.49946277101775 0  190.4756010350848 22.49938071333826 0  195.4755956620207 22.49929962348778 0  200.4755907143664 22.49921970584903 0  205.4755863050894 22.49914100452418 0  210.4755824642307 22.49906347986847 0  215.4755791744419 22.49898705234656 0  220.4755763936232 22.49891162669747 0  225.4755740687385 22.49883710470849 0  230.4755721438977 22.49876339158221 0  235.4755705648529 22.49869039878428 0  240.475569281311 22.49861804500797 0  245.4755682479533 22.49854625616475 0  250.4755674247134 22.49847496489767 0  255.4755667766512 22.49840410988351 0  260.4755662736146 22.49833363506227 0  265.4755658898097 22.49826348886267 0  270.4755656033353 22.49819362345617 0  275.4755653957132 22.49812399405289 0  280.4755652514232 22.49805455824114 0  285.4755651574411 22.49798527536228 0  290.4755651027763 22.49791610589091 0  295.4755650780182 22.49784701074045 0  300.4755650
[...]
<PointData  Scalars="p"> 
<DataArray  type="Float64"  Name="p"  format="ascii">1.0000000000000001e-01  1.0000000000000003e-01  1.0000212145157170e-01  1.0000000000000003e-01  1.0000000000000003e-01  1.0000133934180022e-01  1.0000000000000003e-01  1.0000202693922078e-01  1.0000000000000003e-01  1.0000187662396268e-01  1.0000000000000003e-01  1.0000227961756185e-01  1.0000000000000003e-01  1.0000375329393464e-01  1.0000000000000003e-01  1.0000382327939954e-01  1.0000000000000003e-01  1.0000482796238802e-01  1.0000000000000003e-01  1.0000656364971433e-01  1.0000000000000003e-01  1.0000528815202869e-01  1.0000000000000003e-01  1.0001250805795492e-01  1.0000000000000003e-01  1.0001387411353441e-01  1.0000000000000003e-01  1.0001712496909576e-01  1.0000000000000003e-01  1.0001904633416756e-01  1.0000000000000003e-01  1.0002517831961527e-01  1.0000000000000003e-01  1.0002712255498117e-01  1.0000000000000003e-01  1.0003239570462404e-01  1.0000000000000003e-01  1.0004018033779316e-01  1.0000000000000003e-01  1.0004314898200052e-01  1.0000000000000003e-01  1.0005244803258592e-01  1.0000000000000003e-01  1.0005860028083743e-01  1.0000000000000003e-01  1.0006944213893193e-01  1.0000000000000003e-01  1.0007007285220257e-01  1.0000000000000003e-01  1.0009484186640261e-01  1.0000000000000003e-01  1.0007750910214919e-01  1.0000000000000003e-01  1.0012681599944530e-01  1.0000000000000003e-01  1.0007739205968569e-01  1.0000000000000003e-01  1.0016845823611936e-01  1.0000000000000003e-01  1.0006550892431214e-01  1.0000000000000001e-01  1.0023417267999107e-01  1.0000000000000001e-01  1.0000000000000003e-01  9.9863376120007952e-02  9.9659073780322904e-02  1.0000000000000003e-01  9.9984607092414565e-02  1.0000000000000003e-01  9.9896336707711531e-02  1.0000000000000003e-01  9.9948963893566209e-02  1.0000000000000003e-01  9.9935861377752358e-02  1.0000000000000003e-01  9.9950095861560631e-02  1.0000000000000003e-01  9.9946675431802093e-02  1.0000000000000003e-01  9.9958832139524390e-02  1.0000000000000003e-01  9.9958423515330824e-02  1.0000000000000003e-01  9.9963362209895032e-02  1.0000000000000003e-01  9.9967333056751123e-02  1.0000000000000003e-01  9.9970136153291450e-02  1.0000000000000003e-01  9.9972199139013590e-02  1.0000000000000003e-01  9.9975592183617470e-02  1.0000000000000003e-01  9.9977138477911134e-02  1.0000000000000003e-01  9.9978779412991881e-02  1.0000000000000003e-01  9.9980753347505641e-02  1.0000000000000003e-01  9.9981918973233622e-02  1.0000000000000003e-01  9.9982877529357778e-02  1.0000000000000003e-01  9.9984197847435230e-02  1.0000000000000003e-01  9.9984811780712987e-02  1.0000000000000003e-01  9.9985657152259946e-02  1.0000000000000003e-01  9.9986071921280881e-02  1.0000000000000003e-01  9.9987127956478961e-02  1.0000000000000003e-01  9.9986565073480471e-02  1.0000000000000003e-01  9.9988718183998557e-02  1.0000000000000003e-01  9.9986209984636740e-02  1.0000000000000003e-01  9.9991280500076302e-02  1.0000000000000003e-01  9.9983204951034327e-02  1.0000000000000001e-01  1.0000000000000003e-01  1.0000471643250136e-01  1.0000000000000003e-01  1.0000398340888307e-01  1.0000416011567159e-01  1.0000471479500937e-01  1.0000664580242537e-01  1.0000634490903267e-01  1.0000693626613689e-01  1.0000996465204018e-01  1.0000817778387437e-01  1.0000968151847869e-01  1.0001070710881135e-01  1.0001958529900662e-01  1.0001488248112665e-01  1.0002301434263065e-01  1.0001870392435450e-01  1.0002310951323422e-01  1.0002937458860744e-01  1.0002846259104230e-01  1.0003228529767970e-01  1.0004266603823740e-01  1.0003817686461514e-01  1.0004916363315582e-01  1.0004968810372609e-01  1.0006155122729736e-01  1.0004569061948203e-01  1.0009120223952236e-01  1.0001935643582653e-01  1.0014850235709037e-01  9.9950996224942537e-02  1.0023636834342323e-01  1.0016453817930887e-01  9.9517460909739050e-02  9.9825471501766072e-02  9.9981955212372811e-02  9.9953798714719252e-02  9.9963165149715080e-02  9.9947811013580232e-02  9.9972194545799226e-02  9.9961661064831814e-02  9.9967079256937152e-02  9.9972875724681040e-02  9.9973707609243664e-02  9.9974371803617540e-02  9.9979781175206436e-02  9.9980073722346421e-02  9.9981166447316527e-02  9.9984190412218996e-02  9.9984872305669339e-02  9.9985610170625530e-02  9.9987639335876677e-02  9.9988335256930336e-02  9.9988943364893640e-02  9.9990490115773697e-02  9.9990881839608858e-02  9.9991997475049388e-02  9.9992223051496049e-02  9.9994195735539790e-02  9.9992427190094463e-02  9.9997254147145248e-02  9.9991418634848422e-02  1.0000000000000003e-01  1.0000755542397254e-01  1.0000000000000003e-01  1.0000445901859983e-01  1.0000639140968164e-01  1.0000822526987120e-01  1.0000810914068575e-01  1.0000877548759875e-01  1.0001305091356730e-01  1.0001186781373225e-01  1.0001265557494131e-01  1.0001696453277525e-01  1.0001842517475600e-01  1.0001245355864030e-01  1.0003611124146854e-01  1.0002460297510538e-01  1.0003045345443452e-01  1.0003896033635154e-01  1.0003527412841361e-01  1.0004133065258584e-01  1.0005439571736013e-01  1.0005116195369176e-01  1.0005778611041556e-01  1.0007667755805781e-01  1.0006490584718586e-01  1.0008858387931979e-01  1.0007895227985644e-01  1.0011179130494834e-01  1.0006033470797462e-01  1.0017909067235510e-01  9.9963255257724579e-02  1.0036776597087417e-01  1.0007560614495745e-01  9.9613589602787045e-02  9.9771132143323962e-02  9.9959762609391822e-02  9.9938301533963714e-02  9.9903161054787942e-02  9.9964347344151924e-02  9.9930031352892315e-02  9.9942828627390706e-02  9.9953999687475814e-02  9.9953834659620100e-02  9.9953887192339844e-02  9.9964911065200501e-02  9.9964187602677057e-02  9.9966108690465239e-02  9.9972172189842903e-02  9.9972921689995928e-02  9.9973899076501907e-02  9.9977962179206611e-02  9.9978698704317095e-02  9.9979727410893324e-02  9.9982285902884910e-02  9.9983314772662979e-02  9.9984037121231467e-02  9.9986263785987919e-02  9.9986476110790062e-02  9.9988599925013452e-02  9.9987861061812566e-02  9.9992344190709154e-02  9.9986400375798853e-02  1.0000000000000003e-01  1.0000941421499709e-01  1.0000000000000003e-01  1.0000573257208423e-01  1.0001021516673377e-01  1.0000931409209116e-01  1.0001018812174566e-01  1.0001487700884661e-01  1.0001377824260582e-01  1.0001487944833196e-01  1.0002071396878441e-01  1.0001850023385413e-01  1.0001884379168038e-01  1.0003176738091246e-01  1.0001639395460220e-01  1.0003914451277644e-01  1.0003968075647938e-01  1.0003703192858317e-01  1.0003836587460242e-01  1.0005413697010772e-01  1.0004534942828852e-01  1.0005542057236624e-01  1.0006849600531229e-01  1.0006610860156014e-01  1.0006741868097527e-01  1.0009791344272558e-01  1.0006304266745517e-01  1.0012152243828272e-01  1.0004657002750801e-01  1.0018486279968346e-01  9.9938960842563970e-02  1.0038672569503025e-01  1.0005689038522532e-01  9.9505663085465601e-02  9.9861814226535131e-02  9.9975071010339381e-02  9.9821572977551773e-02  1.0000504793637029e-01  9.9909779987673364e-02  9.9940840524789090e-02  9.9947630422025452e-02  9.9949339855709723e-02  9.9944255875230911e-02  9.9962216627478298e-02  9.9958254690461018e-02  9.9960429015121935e-02  9.9968673645462552e-02  9.9969264542392841e-02  9.9970047691090774e-02  9.9975779025943831e-02  9.9976298557605162e-02  9.9977281198726078e-02  9.9980960041327421e-02  9.9981796623250810e-02  9.9983017511947422e-02  9.9985285754179726e-02  9.9986836270222854e-02  9.9987221399737175e-02  9.9990401830122491e-02  9.9989157329372080e-02  9.9994289617484161e-02  9.9989158625907890e-02  1.0000000000000003e-01  1.0001131224033651e-01  1.0000000000000003e-01  1.0000807032081839e-01  1.0001098357475555e-01  1.0001056115410202e-01  1.0001573682368994e-01  1.0001450281865144e-01  1.0001601721855209e-01  1.0002269593551266e-01  1.0002030340215340e-01  1.0002098574172327e-01  1.0003234198323620e-01  1.0002528577104779e-01  1.0003271314794038e-01  1.0003058913797519e-01  1.0004888442187468e-01  1.0004091771901236e-01  1.0005937788303246e-01  1.0004725525897268e-01  1.0005533358430688e-01  1.0007447202857576e-01  1.0006252075447779e-01  1.0007716374525159e-01  1.0008972446306962e-01  1.0009258996922191e-01  1.0008008671026872e-01  1.0013986859616913e-01  1.0004823402682107e-01  1.0020974354149792e-01  9.9932602734701823e-02  1.0044414033282104e-01  1.0014893501479670e-01  9.9451484346151309e-02  9.9804020554383407e-02  9.9914823341651818e-02  9.9920150916787007e-02  9.9889135783666039e-02  9.9928025976820170e-02  9.9933879232211767e-02  9.9941202013307556e-02  9.9921969936776198e-02  9.9954452727850515e-02  9.9944259948372485e-02  9.9947405998639341e-02  9.9959400711055954e-02  9.9959266204705813e-02  9.9959459383575089e-02  9.9968564364448426e-02  9.9968700923263251e-02  9.9969675484593498e-02  9.9975033432672097e-02  9.9975942125924588e-02  9.9976862315812931e-02  9.9980695648311399e-02  9.9981608593092852e-02  9.9983292261201950e-02  9.9985185730655082e-02  9.9987670793901584e-02  9.9987002494131852e-02  9.9992489037533966e-02  9.9987200692991857e-02  1.0000000000000003e-01  1.0001353562399061e-01  1.0000000000000003e-01  1.0000840569221651e-01  1.0001234538749135e-01  1.0001502763531257e-01  1.0001546604222049e-01  1.0001621921758562e-01  1.0002298625669284e-01  1.0002150283366421e-01  1.0002219238247866e-01  1.0003182966980827e-01  1.0002823849185583e-01  1.0003149681505825e-01  1.0004067211609897e-01  1.0003966032342297e-01  1.0002510957168705e-01  1.0007249270305396e-01  1.0004649469379438e-01  1.0005719849994496e-01  1.0007281467836954e-01  1.0006199335304101e-01  1.0006832377227709e-01  1.0009751706263426e-01  1.0007345783447413e-01  1.0010096590643493e-01  1.0009679918027493e-01  1.0012882050662614e-01  1.0005287945282353e-01  1.0022893200935126e-01  9.9907529154217120e-02  1.0048811260214596e-01  1.0011456647725557e-01  9.9492231437313880e-02  9.9755604427166772e-02  9.9997834549052034e-02  9.9878235234692608e-02  9.9901024438729530e-02  9.9893291504849172e-02  9.9960892866665943e-02  9.9895255518683862e-02  9.9959613908366801e-02  9.9931295810946522e-02  9.9938404368361253e-02  9.9953266686817518e-02  9.9953063106250531e-02  9.9951052075130845e-02  9.9964210714521856e-02  9.9963078489426607e-02  9.9964068466894013e-02  9.9971765564344867e-02  9.9972260737837673e-02  9.9972956320469028e-02  9.9978073087511277e-02  9.9979117339548770e-02  9.9980073935907951e-02  9.9984002699393143e-02  9.9984599792700829e-02  9.9987366608837683e-02  9.9987591982989316e-02  9.9992783508817157e-02  9.9988040471398004e-02  1.0000000000000003e-01  1.0001473455770915e-01  1.0000000000000003e-01  1.0000904088280264e-01  1.0001622311358854e-01  1.0001470736620906e-01  1.0001665368487528e-01  1.0002251690308481e-01  1.0002176617294126e-01  1.0002246345555876e-01  1.0003195607170501e-01  1.0002821769441558e-01  1.0003096237618547e-01  1.0004336518119578e-01  1.0003850825620730e-01  1.0003618732026036e-01  1.0006022852673255e-01  1.0002935561671425e-01  1.0006934440938960e-01  1.0007408323395194e-01  1.0006319347907565e-01  1.0006828292336824e-01  1.0009292788345214e-01  1.0007830705450309e-01  1.0008365125168030e-01  1.0012434848715542e-01  1.0008013173399362e-01  1.0013941187831636e-01  1.0007409382662832e-01  1.0021942286896061e-01  9.9913100118237272e-02  1.0052449402171787e-01  1.0009105282532636e-01  9.9443310811260621e-02  9.9812170071743977e-02  9.9959120089413447e-02  9.9844890325451741e-02  9.9940381598314892e-02  9.9910743423890336e-02  9.9860829634480883e-02  9.9968063564135096e-02  9.9915758758033574e-02  9.9931317243126275e-02  9.9942152450440372e-02  9.9945924499078895e-02  9.9939275798126323e-02  9.9958364927617741e-02  9.9955518869686261e-02  9.9955968512899701e-02  9.9965900817708203e-02  9.9966702941563346e-02  9.9967053357940372e-02  9.9973936530026508e-02  9.9974602968961809e-02  9.9975818035857422e-02  9.9980026893909030e-02  9.9981767610489575e-02  9.9982606036014762e-02  9.9986826379793670e-02  9.9986367319848002e-02  9.9991758359514238e-02  9.9987387024147570e-02  1.0000000000000003e-01  1.0001591838451507e-01  1.0000000000000003e-01  1.0001108484870017e-01  1.0001611075465344e-01  1.0001537303970566e-01  1.0002189142821967e-01  1.0002098987343645e-01  1.0002237110969064e-01  1.0003096344966760e-01  1.0002803560201927e-01  1.0002941301148037e-01  1.0004240764617772e-01  1.0003768236478286e-01  1.0003871735857710e-01  1.0005687665318974e-01  1.0004144207295498e-01  1.0005400703122312e-01  1.0005096729245652e-01  1.0007746910620713e-01  1.0006467804207005e-01  1.0009723319735718e-01  1.0006964672417164e-01  1.0008689890360971e-01  1.0010833671850015e-01  1.0009994563643639e-01  1.0008737174770171e-01  1.0016426752225854e-01  1.0005153012252012e-01  1.0023068362322760e-01  9.9924252866621724e-02  1.0052684013066422e-01  1.0014963191250935e-01  9.9394158853069625e-02  9.9777470138681490e-02  9.9928867941325855e-02  9.9891294439477613e-02  9.9926113838484820e-02  9.9871797688201036e-02  9.9938568999511659e-02  9.9882993698792374e-02  9.9940164117511665e-02  9.9927880148939441e-02  9.9946949223447032e-02  9.9924728805598911e-02  9.9955215977218459e-02  9.9948132897189054e-02  9.9948918261558786e-02  9.9961423462762170e-02  9.9961501549412801e-02  9.9960822157228776e-02  9.9970558471360715e-02  9.9970969613833310e-02  9.9971609003442582e-02  9.9977584336270256e-02  9.9978530576101274e-02  9.9980122855351253e-02  9.9983453903182515e-02  9.9986188692976347e-02  9.9985846003259271e-02  9.9992069107217224e-02  9.9987591550044969e-02  1.0000000000000003e-01  1.0001750517036070e-01  1.0000000000000003e-01  1.0001087581910510e-01  1.0001661357136374e-01  1.0001921902015048e-01  1.0002075118004987e-01  1.0002115571825382e-01  1.0002935545815334e-01  1.0002770366217192e-01  1.0002846438564802e-01  1.0003931295001744e-01  1.0003662793965119e-01  1.0003773425768323e-01  1.0005414651414980e-01  1.0004480856750278e-01  1.0004874957093195e-01  1.0006385629726434e-01  1.0005941721240166e-01  1.0003776345585355e-01  1.0011043723300778e-01  1.0006962917075489e-01  1.0008222165102765e-01  1.0011333556018681e-01  1.0008081073380722e-01  1.0010625076734637e-01  1.0011845644816759e-01  1.0013351868580633e-01  1.0006009198132174e-01  1.0025642205314270e-01  9.9900825850759670e-02  1.0054189132707810e-01  1.0014194015464105e-01  9.9414611665372646e-02  9.9742398439915572e-02  9.9975327463343838e-02  9.9869585091385479e-02  9.9889779831881145e-02  9.9918521988755407e-02  9.9914595933080400e-02  9.9897670073333153e-02  9.9901824361369837e-02  9.9958152204455933e-02  9.9907002083662891e-02  9.9956357864590381e-02  9.9938120143939019e-02  9.9941567353289323e-02  9.9955569122201535e-02  9.9956744485589485e-02  9.9953878610631611e-02  9.9966249384250777e-02  9.9965921503685065e-02  9.9966611550760989e-02  9.9974275499551263e-02  9.9975345534273605e-02  9.9975885771970710e-02  9.9981466839511313e-02  9.9982153857850517e-02  9.9984859813072244e-02  9.9986213635975568e-02  9.9991471714964697e-02  9.9987224384942064e-02  1.0000000000000003e-01  1.0001814710793136e-01  1.0000000000000003e-01  1.0001099999056089e-01  1.0001971706856302e-01  1.0001819512607603e-01  1.0002081706839644e-01  1.0002698129595532e-01  1.0002671682053040e-01  1.0002745208059273e-01  1.0003743419210059e-01  1.0003436370026587e-01  1.0003565654870501e-01  1.0005097744873839e-01  1.0004442993793557e-01  1.0004592974061552e-01  1.0006453418247263e-01  1.0005529161661939e-01  1.0005041406061284e-01  1.0008871200406248e-01  1.0003874218885797e-01  1.0009797049082202e-01  1.0010603504381983e-01  1.0008812840660508e-01  1.0008666444640750e-01  1.0014042160878789e-01  1.0008054199566219e-01  1.0014042627370050e-01  1.0009304123661504e-01  1.0022205361787984e-01  9.9908371375616048e-02  1.0056852817125995e-01  1.0012277410751683e-01  9.9388605888404660e-02  9.9775613575219482e-02  9.9962851976029915e-02  9.9836783081385785e-02  9.9931542316174904e-02  9.9900290897859928e-02  9.9894751311148375e-02  9.9921896643729344e-02  9.9929182577933276e-02  9.9877085224773773e-02  9.9969085199801508e-02  9.9925859945675460e-02  9.9940168123922118e-02  9.9947111206636921e-02  9.9953447039065987e-02  9.9946257212783426e-02  9.9963111529565524e-02  9.9961727403892628e-02  9.9961108427218212e-02  9.9970508531475974e-02  9.9971921214612861e-02  9.9972316732220678e-02  9.9978624693832216e-02  9.9980171216216523e-02  9.9980856009851099e-02  9.9986014656437111e-02  9.9985776790922826e-02  9.9991100903654928e-02  9.9987539364262912e-02  1.0000000000000003e-01  1.0001869233406882e-01  1.0000000000000003e-01  1.0001239041792610e-01  1.0001896944618820e-01  1.0001788035838036e-01  1.0002498000797137e-01  1.0002450592806547e-01  1.0002606696594703e-01  1.0003456757756743e-01  1.0003272432343813e-01  1.0003310604499828e-01  1.0004677572144782e-01  1.0004202951339332e-01  1.0004327647460233e-01  1.0006101917535629e-01  1.0005202906566385e-01  1.0005217004507977e-01  1.0007931430989553e-01  1.0005502527908183e-01  1.0007111586949702e-01  1.0007190547181877e-01  1.0010001332502189e-01  1.0008805761341978e-01  1.0012814603345285e-01  1.0009646491157358e-01  1.0009025765345723e-01  1.0017639062725518e-01  1.0005213123152169e-01  1.0022408145438078e-01  9.9946320172464492e-02  1.0052887740691943e-01  1.0016414494482281e-01  9.9338982209759341e-02  9.9765545681266984e-02  9.9935933389332279e-02  9.9871860338999155e-02  9.9920265253768167e-02  9.9872983136282900e-02  9.9924254737235610e-02  9.9919316988260537e-02  9.9899935670426751e-02  9.9938871893499245e-02  9.9903174738179501e-02  9.9949030342505268e-02  9.9936385311328590e-02  9.9955113023742034e-02  9.9935880758354509e-02  9.9960745459710176e-02  9.9956640807695535e-02  9.9956336684609223e-02  9.9967310813258950e-02  9.9967929183013005e-02  9.9967107977564182e-02  9.9976171846272971e-02  9.9976934685124322e-02  9.9978144728814722e-02  9.9982729409362744e-02  9.9985346402064912e-02  9.9984946104900024e-02  9.9991572184782593e-02  9.9987430957604831e-02  1.0000000000000003e-01  1.0001976523433648e-01  1.0000000000000003e-01  1.0001194841907345e-01  1.0001883010608831e-01  1.0002082639768269e-01  1.0002328975841110e-01  1.0002366191441078e-01  1.0003179063337529e-01  1.0003089152940434e-01  1.0003129592621929e-01  1.0004222505554559e-01  1.0003994164193354e-01  1.0004024702444671e-01  1.0005606407836004e-01  1.0004982327375876e-01  1.0004927145630968e-01  1.0007293007477619e-01  1.0005776314651788e-01  1.0006225154089277e-01  1.0008447524801645e-01  1.0007590880874383e-01  1.0004346633399021e-01  1.0015014659713847e-01  1.0007965151775859e-01  1.0011113816266268e-01  1.0013063526910143e-01  1.0012480789594512e-01  1.0005871004693936e-01  1.0026428784669011e-01  9.9904675799878023e-02  1.0052406967820977e-01  1.0018093858877557e-01  9.9341514613427842e-02  9.9731224172534355e-02  9.9968900180190431e-02  9.9866862110116777e-02  9.9893263626557344e-02  9.9904042497876946e-02  9.9919137845203690e-02  9.9891532134526950e-02  9.9934248508797716e-02  9.9926360213604029e-02  9.9920260926851509e-02  9.9914755822847187e-02  9.9967993048185613e-02  9.9923369507334187e-02  9.9963153157107396e-02  9.9949848467911842e-02  9.9952209563694550e-02  9.9963437134110905e-02  9.9965577472734726e-02  9.9962834688366212e-02  9.9972927801883243e-02  9.9973604615661057e-02  9.9974301280796929e-02  9.9981244074398484e-02  9.9982109819744910e-02  9.9984193838532284e-02  9.9986466001310725e-02  9.9991354307237587e-02  9.9987445326023536e-02  1.0000000000000003e-01  1.0001980519903547e-01  1.0000000000000003e-01  1.0001151192020788e-01  1.0002084111781714e-01  1.0001919537546161e-01  1.0002230086093412e-01  1.0002781128358020e-01  1.0002844101153499e-01  1.0002904897166817e-01  1.0003844926136773e-01  1.0003630995332388e-01  1.0003720261046342e-01  1.0005105376233205e-01  1.0004645914631427e-01  1.0004550339219238e-01  1.0006583066031509e-01  1.0005614864436527e-01  1.0005566634814865e-01  1.0008280968004349e-01  1.0006718893373985e-01  1.0005980003589876e-01  1.0011273445456696e-01  1.0004428883100493e-01  1.0011399593303526e-01  1