<?xml version="1.0"?>
<VTKFile type="UnstructuredGrid"  version="0.1"  >
<UnstructuredGrid>
<Piece  NumberOfPoints="1933" NumberOfCells="3640">
<Points>
<DataArray  type="Float64"  NumberOfComponents="3"  format="ascii">0.2940222572765805 -0.001129643615968576 0  5.294022273820193 -0.001097154469025348 0  5.293973525615865 7.49890287996995 0  0.2939735066834159 7.498870387903907 0  10.29402230516039 -0.001064688529103023 0  10.29397355501724 7.498935344050003 0  15.29402236369216 -0.001032233074603288 0  15.29397359753604 7.498967796784697 0  20.29402245721621 -0.0009997693792520683 0  20.29397365430253 7.499000257996644 0  25.2940225894149 -0.0009672763549383357 0  25.29397372486386 7.499032748976744 0  30.29402276067891 -0.0009347319633256808 0  30.29397380704485 7.499065291693171 0  35.29402296877434 -0.0009021136236382281 0  35.29397389683801 7.499097908587569 0  40.29402320925089 -0.0008693981473856694 0  40.29397398828671 7.499130622702997 0  45.2940234756056 -0.0008365614403562177 0  45.29397407331787 7.499163457995062 0  50.29402375923591 -0.0008035780788731296 0  50.29397414148889 7.499196439751123 0  55.29402404920602 -0.0007704208015506268 0  55.29397417962129 7.499229595086994 0  60.29402433183249 -0.000737059922715004 0  60.2939741712941 7.499262953517201 0  65.29402459007612 -0.0007034626521290695 0  65.29397409616223 7.499296547612569 0  70.29402480270123 -0.0006695922889014813 0  70.29397392905568 7.499330413772501 0  75.29402494313811 -0.0006354072401638077 0  75.29397363879592 7.499364593152332 0  80.29402497793838 -0.0006008597932209088 0  80.29397318664256 7.49939913280034 0  85.29402486465332 -0.0005658945393479315 0  85.29397252425133 7.499434087075715 0  90.29402454885896 -0.0005304463035770508 0  90.29397159098062 7.499469519435607 0  95.2940239598838 -0.0004944373721566927 0  95.29397031034179 7.499505504691081 0  100.2940230044958 -0.0004577737229243172 0  100.2939685853415 7.499542131820576 0  105.2940215572915 -0.0004203398542698399 0  105.2939662924658 7.499579507353426 0  110.2940194456067 -0.0003819916970897982 0  110.2939632741714 7.499617759096884 0  115.2940164251069 -0.0003425470652905139 0  115.2939593301933 7.499657039359849 0  120.294012139189 -0.0003017734110565379 0  120.2939542091658 7.499697525347411 0  125.2940060498047 -0.0002593740204519593 0  125.293947604943 7.49973941104758 0  130.293997317227 -0.0002149781631775665 0  130.2939391685497 7.499782877601245 0  135.2939845879563 -0.0001681534190869006 0  135.2939285608537 7.499828013672801 0  140.2939656169096 -0.0001184946065493374 0  140.2939156006527 7.499874626297149 0  145.2939365904486 -6.595053637018438e-05 0  145.2939006229224 7.499921827015728 0  150.2938909045536 -1.189348454162797e-05 0  150.2938852826314 7.499967212143265 0  160.2938926261462 3.670475372508778e-19 0  165.2939006021333 -7.479888657438849e-06 0  165.2938938169535 7.499988516448957 0  160.2938883014848 7.499989929399052 0  170.2939120787202 -3.698212725124073e-06 0  170.2938990959279 7.499994537098443 0  175.2939240025891 7.516802983019866e-06 0  175.2939046068146 7.500006713071173 0  180.2939351905769 2.391004939957775e-05 0  180.2939102113791 7.50002355414744 0  185.2939452400994 4.400899798617517e-05 0  185.2939156983872 7.500043869717755 0  190.2939540801694 6.681049519951523e-05 0  190.2939209071557 7.500066777101678 0  195.2939617750424 9.161450917744251e-05 0  195.293925741102 7.500091632309862 0  200.2939684368704 0.0001179229116083123 0  200.2939301544184 7.500117964477413 0  205.2939741874355 0.0001453746638681229 0  205.293934135766 7.500145426159588 0  210.293979142285 0.0001737034120423746 0  210.2939376951357 7.50017375788613 0  215.2939834050318 0.0002027093217984811 0  215.2939408546086 7.500202763347628 0  220.2939870661494 0.0002322400836875548 0  220.2939436423081 7.500232292055523 0  225.2939902036375 0.0002621778874251613 0  225.2939460886273 7.500262227146597 0  230.2939928843687 0.000292430329633642 0  230.2939482239868 7.500292476712784 0  235.2939951655881 0.0003229239523765885 0  235.2939500775804 7.500322967556979 0  240.2939970963514 0.0003535995715177196 0  240.2939516767462 7.500353640635017 0  245.2939987188301 0.000384408846264346 0  245.293953046725 7.50038444768579 0  250.2940000694677 0.0004153117282449092 0  250.2939542106548 7.50041534871358 0  255.2940011800089 0.0004462745501548841 0  255.2939551897106 7.500446310095542 0  260.2940020784206 0.0004772685954841143 0  260.2939560033217 7.500477303162342 0  265.2940027897367 0.0005082690481022055 0  265.2939566694384 7.500508303153246 0  270.2940033368444 0.00053925426408575 0  270.293957204815 7.500539288487583 0  275.2940037412424 0.0005702053457815645 0  275.2939576252886 7.500570240328591 0  280.2940040237716 0.0006011060360792081 0  280.2939579460412 7.50060114244761 0  285.2940042053154 0.0006319429952937581 0  285.2939581818073 7.50063198142971 0  290.2940043074134 0.0006627065801696379 0  290.2939583470151 7.500662747298102 0  295.2940043526584 0.0006933923184889526 0  295.2939584558302 7.500693434671698 0  300.2940043645768 0.0007240033543182253 0  300.2939585221131 7.500724044601508 0  305.2940043663496 0.0007545541549008725 0  305.2939585594074 7.500754587248126 0  310.294004377039 0.0007850753563083835 0  310.2939585813583 7.500785085621891 0  5.293924739144218 14.99890294886474 0  0.2939247218975916 14.99887046504974 0  10.29392475812397 14.99893539828327 0  15.29392477876303 14.99896783665926 0  20.29392479926824 14.99900028550295 0  25.29392481675579 14.99903276600644 0  30.29392482726556 14.99906529949482 0  35.29392482557692 14.99909790766313 0  40.29392480496529 14.9991306128307 0  45.2939247569301 14.99916343825817 0  50.29392467088956 14.99919640852633 0  55.29392453382429 14.99922954997143 0  60.2939243298511 14.99926289117636 0  65.29392403970888 14.99929646352415 0  70.29392364013951 14.99933030182438 0  75.29392310315245 14.9993644450252 0  80.29392239516929 14.99939893702044 0  85.29392147606707 14.99943382754858 0  90.29392029817967 14.99946917314939 0  95.29391880539808 14.99950503807616 0  100.2939169326635 14.9995414949206 0  105.2939146064166 14.99957862442972 0  110.2939117470422 14.99961651345576 0  115.2939082751295 14.99965524896976 0  120.2939041245916 14.99969490422016 0  125.2938992674087 14.99973550986652 0  130.2938937566964 14.99977699751949 0  135.2938877956293 14.99981909504132 0  140.2938818353122 14.99986114345393 0  145.29387668398 14.99990180204346 0  150.2938735461148 14.99993863521408 0  165.2938796935324 14.99997841009314 0  160.2938773001595 14.99997046756985 0  170.293881403519 14.9999896102017 0  175.2938830700838 15.00000446465903 0  180.2938849343485 15.0000226571202 0  185.2938870139274 15.00004364058117 0  190.2938892399761 15.00006686667645 0  195.2938915256552 15.00009186311903 0  200.2938937940338 15.00011824719946 0  205.2938959863976 15.00014571680029 0  210.2938980622053 15.00017403575598 0  215.2938999961002 15.00020301969311 0  220.2939017743498 15.00023252417189 0  225.2939033916419 15.00026243532601 0  230.2939048485109 15.00029266266695 0  235.2939061493937 15.00032313361097 0  240.2939073012184 15.00035378932633 0  245.2939083124093 15.00038458157728 0  250.2939091922086 15.00041547031909 0  255.2939099502249 15.00044642186327 0  260.2939105961456 15.00047740748441 0  265.2939111395601 15.00050840237872 0  270.2939115898597 15.00053938491681 0  275.2939119561812 15.00057033615741 0  280.2939122473804 15.00060123960887 0  285.2939124720315 15.00063208124056 0  290.2939126384544 15.00066284975189 0  295.2939127548377 15.00069353709705 0  300.2939128295527 15.00072413922256 0  305.2939128718843 15.0007546568785 0  310.2939128935805 15.00078509618239 0  5.293875976931305 22.4989030600543 0  0.2938759617601615 22.49887061379311 0  10.29387598774925 22.49893547506953 0  15.29387599156729 22.49896788294847 0  20.29387598521242 22.49900030506078 0  25.29387596492389 22.49903276165415 0  30.29387592627761 22.49906527273695 0  35.29387586403064 22.49909785857523 0  40.29387577192202 22.49913054003778 0  45.29387564245764 22.49916333889947 0  50.2938754666928 22.49919627814757 0  55.29387523401552 22.4992293823046 0  60.29387493193391 22.49926267776921 0  65.29387454587656 22.49929619317015 0  70.29387405902415 22.49932995971975 0  75.29387345221028 22.4993640115432 0  80.29387270395551 22.49939838593632 0  85.29387179074354 22.49943312346713 0  90.29387068771328 22.49946826776793 0  95.29386937004207 22.49950386475004 0  100.2938678154346 22.49953996077943 0  105.2938660083312 22.49957659903344 0  110.2938639466908 22.49961381275115 0  115.2938616524476 22.49965161331223 0  120.2938591868569 22.49968996997484 0  125.2938566716041 22.49972877673766 0  130.2938543150979 22.49976780066251 0  135.2938524395741 22.49980660675552 0  140.2938514967331 22.49984446166099 0  145.2938520460323 22.49988024300817 0  150.2938546533434 22.49991244884297 0  165.2938579344118 22.49996655720122 0  160.293857653777 22.49995154719849 0  170.293857655488 22.49998270489451 0  175.2938572036695 22.50000073534595 0  180.2938568444416 22.500020852867 0  185.2938567063344 22.50004295645922 0  190.2938568204651 22.50006680966733 0  195.2938571640045 22.50009213984476 0  200.2938576908795 22.50011868664388 0  205.2938583496886 22.50014622124172 0  210.2938590927189 22.50017455079842 0  215.2938598796429 22.50020351632576 0  220.2938606783527 22.50023298814405 0  225.293861464422 22.50026286089241 0  230.2938622200161 22.50029304892164 0  235.2938629326854 22.50032348234862 0  240.2938635942369 22.50035410380494 0  245.2938641997648 22.50038486581252 0  250.2938647468513 22.50041572869143 0  255.2938652349313 22.50044665890557 0  260.2938656647877 22.50047762776665 0  265.2938660381623 22.5005086104308 0  270.2938663574509 22.50053958513899 0  275.2938666254753 22.50057053266219 0  280.2938668453197 22.50060143591966 0  285.2938670202435 22.50063227973629 0  290.2938671536952 22.50066305069067 0  295.2938672494857 22.5006937369
[...]
<PointData  Scalars="p"> 
<DataArray  type="Float64"  Name="p"  format="ascii">1.0000000000000001e-01  1.0000000000000003e-01  9.9997412521165160e-02  1.0000000000000003e-01  1.0000000000000003e-01  9.9996295449709893e-02  1.0000000000000003e-01  9.9994408367683141e-02  1.0000000000000003e-01  9.9993141476511865e-02  1.0000000000000003e-01  9.9991723959808487e-02  1.0000000000000003e-01  9.9989897208354106e-02  1.0000000000000003e-01  9.9988715879133661e-02  1.0000000000000003e-01  9.9987460398671096e-02  1.0000000000000003e-01  9.9985445821798358e-02  1.0000000000000003e-01  9.9984201352010582e-02  1.0000000000000003e-01  9.9981005674292467e-02  1.0000000000000003e-01  9.9977623789174019e-02  1.0000000000000003e-01  9.9975112491196783e-02  1.0000000000000003e-01  9.9972656727681991e-02  1.0000000000000003e-01  9.9969069452422607e-02  1.0000000000000003e-01  9.9967288078362124e-02  1.0000000000000003e-01  9.9965120080207762e-02  1.0000000000000003e-01  9.9961603211441361e-02  1.0000000000000003e-01  9.9960972234816592e-02  1.0000000000000003e-01  9.9958422226235882e-02  1.0000000000000003e-01  9.9957169441427116e-02  1.0000000000000003e-01  9.9954809147982812e-02  1.0000000000000003e-01  9.9957330697651461e-02  1.0000000000000003e-01  9.9949964400617625e-02  1.0000000000000003e-01  9.9960017574654406e-02  1.0000000000000003e-01  9.9944217802762109e-02  1.0000000000000003e-01  9.9966247867500566e-02  1.0000000000000003e-01  9.9934705652974729e-02  1.0000000000000003e-01  9.9976142095324114e-02  1.0000000000000001e-01  9.9915574736217108e-02  1.0000000000000001e-01  1.0000000000000003e-01  1.0010158794295210e-01  1.0017173170510062e-01  1.0000000000000003e-01  1.0004470229948563e-01  1.0000000000000003e-01  1.0008289038412514e-01  1.0000000000000003e-01  1.0006557194738093e-01  1.0000000000000003e-01  1.0007245436671509e-01  1.0000000000000003e-01  1.0006839875795868e-01  1.0000000000000003e-01  1.0007238137973476e-01  1.0000000000000003e-01  1.0006903386331448e-01  1.0000000000000003e-01  1.0007042138841968e-01  1.0000000000000003e-01  1.0006981374423987e-01  1.0000000000000003e-01  1.0006909673419066e-01  1.0000000000000003e-01  1.0006850291865112e-01  1.0000000000000003e-01  1.0006823580351022e-01  1.0000000000000003e-01  1.0006712215580876e-01  1.0000000000000003e-01  1.0006656732806452e-01  1.0000000000000003e-01  1.0006593259784706e-01  1.0000000000000003e-01  1.0006510697978806e-01  1.0000000000000003e-01  1.0006432779147316e-01  1.0000000000000003e-01  1.0006393204880573e-01  1.0000000000000003e-01  1.0006280735250665e-01  1.0000000000000003e-01  1.0006277710619256e-01  1.0000000000000003e-01  1.0006120059484697e-01  1.0000000000000003e-01  1.0006225981576400e-01  1.0000000000000003e-01  1.0005872350543872e-01  1.0000000000000003e-01  1.0006341594447714e-01  1.0000000000000003e-01  1.0005399846652269e-01  1.0000000000000003e-01  1.0006847538269371e-01  1.0000000000000003e-01  1.0004323520785745e-01  1.0000000000000003e-01  1.0008675095313314e-01  1.0000000000000001e-01  1.0000000000000003e-01  9.9996496041025687e-02  1.0000000000000003e-01  9.9996101508456559e-02  9.9995752930946979e-02  9.9995209085887965e-02  9.9994087588546235e-02  9.9994071878697008e-02  9.9994002631419568e-02  9.9992525021205494e-02  9.9992970615587415e-02  9.9992559467159195e-02  9.9990135355463722e-02  9.9987723974047898e-02  9.9987104230465085e-02  9.9983591394503024e-02  9.9984670032475589e-02  9.9984099827994652e-02  9.9981258961758745e-02  9.9982604517807952e-02  9.9982761921721675e-02  9.9979121748870844e-02  9.9982653309648617e-02  9.9980612935827370e-02  9.9981728371754022e-02  9.9978819673902264e-02  9.9988145944702650e-02  9.9970320103217644e-02  1.0000099085044462e-01  9.9950031437496922e-02  1.0002751229418844e-01  9.9913572850066010e-02  9.9940077210259007e-02  1.0028778900703943e-01  1.0006802429494581e-01  1.0001674461969956e-01  1.0002315334899509e-01  1.0001881235111927e-01  1.0002951905659017e-01  1.0002087294944692e-01  1.0002606682332997e-01  1.0002646246164669e-01  1.0002533211771221e-01  1.0002561947311489e-01  1.0002661668250222e-01  1.0002506735396210e-01  1.0002515445764598e-01  1.0002528108540658e-01  1.0002430854642376e-01  1.0002417814164528e-01  1.0002408991448597e-01  1.0002358113184424e-01  1.0002313955390493e-01  1.0002352325861594e-01  1.0002226982884897e-01  1.0002348269537280e-01  1.0002110140337248e-01  1.0002472599351749e-01  1.0001768932001714e-01  1.0003016047973970e-01  1.0000842834322490e-01  1.0004205982948582e-01  1.0000000000000003e-01  9.9995190410043275e-02  1.0000000000000003e-01  9.9996346066745026e-02  9.9994409305636758e-02  9.9993155268411432e-02  9.9992628841417908e-02  9.9992562830055365e-02  9.9990323742690818e-02  9.9990747733164381e-02  9.9990967433476075e-02  9.9988061840259462e-02  9.9987782512642967e-02  9.9987765426883618e-02  9.9979481044319182e-02  9.9980213775645699e-02  9.9979042822099448e-02  9.9973901585868108e-02  9.9976381545426762e-02  9.9975826364183618e-02  9.9970773935563098e-02  9.9973829162417011e-02  9.9974711107669062e-02  9.9967950612102480e-02  9.9976025884777261e-02  9.9970195873747600e-02  9.9976426597652004e-02  9.9964927429940759e-02  9.9990765048730321e-02  9.9940063685645911e-02  1.0003081165587695e-01  9.9862455393166308e-02  9.9930004492885874e-02  1.0030352428898397e-01  1.0014084619443155e-01  1.0003382452646754e-01  1.0003579258028397e-01  1.0006059121747475e-01  1.0003504011925865e-01  1.0004950630982912e-01  1.0004962698643619e-01  1.0004706386418910e-01  1.0004816538059680e-01  1.0005093479051348e-01  1.0004771352889401e-01  1.0004852637385643e-01  1.0004903822153281e-01  1.0004715886911486e-01  1.0004695765007446e-01  1.0004719157313782e-01  1.0004577509722055e-01  1.0004568695002360e-01  1.0004542227260163e-01  1.0004495491015676e-01  1.0004402284926273e-01  1.0004516192758169e-01  1.0004242214326228e-01  1.0004587282929937e-01  1.0003982144741444e-01  1.0004964765918227e-01  1.0003097238093041e-01  1.0006655615375866e-01  1.0000000000000003e-01  9.9994457529621467e-02  1.0000000000000003e-01  9.9996267258487440e-02  9.9993678665141431e-02  9.9993672263232206e-02  9.9993675683043876e-02  9.9991502545765651e-02  9.9992168852238397e-02  9.9992860726491023e-02  9.9990207106974621e-02  9.9991441270620859e-02  9.9991935545182611e-02  9.9986517148699924e-02  9.9989012361607246e-02  9.9984520032494625e-02  9.9978842437857471e-02  9.9980999653877384e-02  9.9981702165035213e-02  9.9975611230005465e-02  9.9980814577532509e-02  9.9980453277796533e-02  9.9976018982915041e-02  9.9979732387110831e-02  9.9984285910374615e-02  9.9972533656563958e-02  9.9991342113305154e-02  9.9969576072785088e-02  1.0000375412144183e-01  9.9943049093366279e-02  1.0005147506557655e-01  9.9851654305600571e-02  9.9914500503886769e-02  1.0036343733153816e-01  1.0010214720725616e-01  1.0000233127407636e-01  1.0008038865462787e-01  1.0000172750742688e-01  1.0003634403836638e-01  1.0003106825852319e-01  1.0003024630614599e-01  1.0003055865559660e-01  1.0003682341016566e-01  1.0003150187376675e-01  1.0003390461615400e-01  1.0003512922846590e-01  1.0003284691936330e-01  1.0003294950754660e-01  1.0003358890745402e-01  1.0003184137713556e-01  1.0003170518123751e-01  1.0003208755002065e-01  1.0003076683305226e-01  1.0003112504519648e-01  1.0003045739167644e-01  1.0003115477751666e-01  1.0002878637770737e-01  1.0003293091292875e-01  1.0002542868713174e-01  1.0003769104536425e-01  1.0001741719215704e-01  1.0005031251502081e-01  1.0000000000000003e-01  9.9993698146120191e-02  1.0000000000000003e-01  9.9995715904491661e-02  9.9993785886489925e-02  9.9994371325999892e-02  9.9991468869746289e-02  9.9992240962222020e-02  9.9992432330064718e-02  9.9989761540857355e-02  9.9991244609071106e-02  9.9992221134950696e-02  9.9987579200093268e-02  9.9989720480571018e-02  9.9989070482925338e-02  9.9984382150775472e-02  9.9981878697081916e-02  9.9981714220816018e-02  9.9973998653691817e-02  9.9979141987333417e-02  9.9980120432638056e-02  9.9972220800859796e-02  9.9980412992524623e-02  9.9979144636544684e-02  9.9976009390756307e-02  9.9977488914092250e-02  9.9990303865439750e-02  9.9963399486434956e-02  1.0000954121607482e-01  9.9936333269021307e-02  1.0006275190643123e-01  9.9824044122635999e-02  9.9859185332599923e-02  1.0041900577343592e-01  1.0012106925059353e-01  1.0002622390124075e-01  1.0005893611038584e-01  1.0004254998584085e-01  1.0003706750444319e-01  1.0003626619264779e-01  1.0003164543609082e-01  1.0004591142294939e-01  1.0003551916571601e-01  1.0004048926140618e-01  1.0004275103129803e-01  1.0003967672253079e-01  1.0004016135903436e-01  1.0004186294136896e-01  1.0003907105674419e-01  1.0003918960545982e-01  1.0003961874280658e-01  1.0003809504640786e-01  1.0003777445450124e-01  1.0003844758319411e-01  1.0003679186995212e-01  1.0003792442739937e-01  1.0003609632800900e-01  1.0003890564414292e-01  1.0003316428307112e-01  1.0004360316511048e-01  1.0002459320596635e-01  1.0005848693793352e-01  1.0000000000000003e-01  9.9992779951640728e-02  1.0000000000000003e-01  9.9995843624600345e-02  9.9994068735513100e-02  9.9993004443141881e-02  9.9992733923813346e-02  9.9993105846254884e-02  9.9990304127840809e-02  9.9991363817184542e-02  9.9992829920411461e-02  9.9988849736488403e-02  9.9990807989243369e-02  9.9991729693556353e-02  9.9986115334396469e-02  9.9988273623330973e-02  9.9991215154455429e-02  9.9976550476735315e-02  9.9981615347281588e-02  9.9981502643172626e-02  9.9973248534101097e-02  9.9980687492083456e-02  9.9983463345481069e-02  9.9971867176643789e-02  9.9986383659211711e-02  9.9980164171765071e-02  9.9985667149949733e-02  9.9971386835815787e-02  1.0001636055153858e-01  9.9927446799348216e-02  1.0008435270381255e-01  9.9799994876775516e-02  9.9846002401835193e-02  1.0042079656464038e-01  1.0014440721874648e-01  9.9981690238103507e-02  1.0005668589967504e-01  1.0004433287220735e-01  1.0004839856049134e-01  1.0001220019085251e-01  1.0004621918036558e-01  1.0002290017369742e-01  1.0003431521022774e-01  1.0003671931498627e-01  1.0003314170202422e-01  1.0003385951616219e-01  1.0003747274882545e-01  1.0003348674278270e-01  1.0003422194860356e-01  1.0003531319528688e-01  1.0003281827947515e-01  1.0003290859980173e-01  1.0003328026193227e-01  1.0003220714355483e-01  1.0003155114546761e-01  1.0003311613746715e-01  1.0003021858867399e-01  1.0003402422498882e-01  1.0002792817407595e-01  1.0003838128022934e-01  1.0001999468000766e-01  1.0005186664338486e-01  1.0000000000000003e-01  9.9992266396890767e-02  1.0000000000000003e-01  9.9996075357561137e-02  9.9992637514912316e-02  9.9993731888351992e-02  9.9993467653988102e-02  9.9991119042722565e-02  9.9991319713702217e-02  9.9992790105341511e-02  9.9988779429921973e-02  9.9990867108443474e-02  9.9992313836336610e-02  9.9986481900287444e-02  9.9989371264950389e-02  9.9991836946628318e-02  9.9982742594427576e-02  9.9989857150151809e-02  9.9983829581587497e-02  9.9973261604121011e-02  9.9980275897188151e-02  9.9981552834486745e-02  9.9972272375804833e-02  9.9981052329168998e-02  9.9986867854328573e-02  9.9969126561385929e-02  9.9995233957885371e-02  9.9971149870668408e-02  1.0000962414636398e-01  9.9930541639961304e-02  1.0009524351291553e-01  9.9771349297011064e-02  9.9848266015953382e-02  1.0044914129676523e-01  1.0012503716518711e-01  9.9981399963036885e-02  1.0007339526952216e-01  1.0002423175883207e-01  1.0004456698086338e-01  1.0005768454489311e-01  1.0001785422892427e-01  1.0003643162044272e-01  1.0003540817525609e-01  1.0003441866745187e-01  1.0003356460866707e-01  1.0004006868337199e-01  1.0003451293514960e-01  1.0003620192546342e-01  1.0003797930816062e-01  1.0003520467748235e-01  1.0003508833444513e-01  1.0003612850260120e-01  1.0003385656639530e-01  1.0003421721525187e-01  1.0003406042423793e-01  1.0003408657368287e-01  1.0003229797728391e-01  1.0003587914779159e-01  1.0002970909088302e-01  1.0003999348601063e-01  1.0002222192367909e-01  1.0005374186964291e-01  1.0000000000000003e-01  9.9991902744091102e-02  1.0000000000000003e-01  9.9995319033139587e-02  9.9992905266631113e-02  9.9994360253876161e-02  9.9991629751881694e-02  9.9992334032240768e-02  9.9993081438640427e-02  9.9989349262313329e-02  9.9991087205647949e-02  9.9992551088057213e-02  9.9987205204670512e-02  9.9989901327341979e-02  9.9991964041377140e-02  9.9984451781287217e-02  9.9990328419490321e-02  9.9990873371742797e-02  9.9983734619966430e-02  9.9982251243757786e-02  9.9983703064248072e-02  9.9969993346018513e-02  9.9982642475620859e-02  9.9982492861011171e-02  9.9974495879088299e-02  9.9980663830727040e-02  9.9997426389627331e-02  9.9958576268938046e-02  1.0002270882279184e-01  9.9927212445483499e-02  1.0009784567817948e-01  9.9757270496665926e-02  9.9815139640491865e-02  1.0048134955338950e-01  1.0013206044846680e-01  9.9990136659402609e-02  1.0005012941848246e-01  1.0001643056008944e-01  1.0005568188115149e-01  1.0003346968353834e-01  1.0004675158182855e-01  1.0002548322561933e-01  1.0003405156612689e-01  1.0002540302202659e-01  1.0003902627485857e-01  1.0002987287826820e-01  1.0003321547028730e-01  1.0003587318941566e-01  1.0003262321609301e-01  1.0003285154527856e-01  1.0003473465761348e-01  1.0003197319604452e-01  1.0003177530590930e-01  1.0003286449299338e-01  1.0003062321804485e-01  1.0003178376847424e-01  1.0003037827519377e-01  1.0003292827186927e-01  1.0002747759905885e-01  1.0003765415079476e-01  1.0002009939673565e-01  1.0005055112726501e-01  1.0000000000000003e-01  9.9991225231602726e-02  1.0000000000000003e-01  9.9995495130054068e-02  9.9993268410962566e-02  9.9992875236921366e-02  9.9992374068742798e-02  9.9993687607394438e-02  9.9990249720085536e-02  9.9991427934557120e-02  9.9992748480299085e-02  9.9988149206511376e-02  9.9989798266692603e-02  9.9992052796810393e-02  9.9985045053239047e-02  9.9989411378819934e-02  9.9992333672342962e-02  9.9983754018100349e-02  9.9989185785997151e-02  9.9994716793222194e-02  9.9972560208496736e-02  9.9981730376654337e-02  9.9983934483632741e-02  9.9967681939347658e-02  9.9986781567169600e-02  9.9982143837080206e-02  9.9981393519484124e-02  9.9971268280468609e-02  1.0002513300386308e-01  9.9910629268297094e-02  1.0011573381722581e-01  9.9740386912298057e-02  9.9806880532404024e-02  1.0048033995156382e-01  1.0014924819395334e-01  9.9968032951940247e-02  1.0005127178407644e-01  1.0002864393842217e-01  1.0003531599011316e-01  1.0003241872221413e-01  1.0005122596101164e-01  1.0004402622480310e-01  1.0001786010345627e-01  1.0004213012495038e-01  1.0002521500817320e-01  1.0003281182696983e-01  1.0003531236329449e-01  1.0003213506854605e-01  1.0003210389931405e-01  1.0003565056676554e-01  1.0003193619600780e-01  1.0003251033411881e-01  1.0003347041899151e-01  1.0003151185791907e-01  1.0003088615159220e-01  1.0003260824023019e-01  1.0002963658263600e-01  1.0003292716895588e-01  1.0002800332387052e-01  1.0003706662179196e-01  1.0002059580570960e-01  1.0005025540181244e-01  1.0000000000000003e-01  9.9990975280975156e-02  1.0000000000000003e-01  9.9995750685204179e-02  9.9991917944989572e-02  9.9993388442758110e-02  9.9993285945978908e-02  9.9991186171735122e-02  9.9991664074153233e-02  9.9993185092955642e-02  9.9989056089524270e-02  9.9990323218174249e-02  9.9992403770774688e-02  9.9985557931301997e-02  9.9988772681414886e-02  9.9992166990066633e-02  9.9983646008033472e-02  9.9989438809356124e-02  9.9994680062796729e-02  9.9980383733992706e-02  9.9993510097994925e-02  9.9985428485939679e-02  9.9970082285237308e-02  9.9980825890913144e-02  9.9988126858364487e-02  9.9963873050432750e-02  9.9996859055327764e-02  9.9972672573694479e-02  1.0000768095429773e-01  9.9922899583705552e-02  1.0012205513797212e-01  9.9713433336680618e-02  9.9810340738273176e-02  1.0048843809973629e-01  1.0013623223469695e-01  9.9964925004903921e-02  1.0006371827604407e-01  1.0000944729499402e-01  1.0003280107631274e-01  1.0003795655762439e-01  1.0003680332351124e-01  1.0003594773459576e-01  1.0005320418996509e-01  1.0001657471872882e-01  1.0003305445565493e-01  1.0003039259342358e-01  1.0003071158564047e-01  1.0002883780826849e-01  1.0003456626100200e-01  1.0002990053298885e-01  1.0003089785151362e-01  1.0003290274705266e-01  1.0003025910141565e-01  1.0003042249474929e-01  1.0003080594381529e-01  1.0003006819743387e-01  1.0002842640406343e-01  1.0003196699968388e-01  1.0002615466429708e-01  1.0003550868391380e-01  1.0001968690095979e-01  1.0004801405452632e-01  1.0000000000000003e-01  9.9990806351249503e-02  1.0000000000000003e-01  9.9995085961286562e-02  9.9992133135397870e-02  9.9994062059837407e-02  9.9991338132922519e-02  9.9992191582587570e-02  9.9993075406182907e-02  9.9989930188220749e-02  9.9990979045424616e-02  9.9992956492916743e-02  9.9986844195428928e-02  9.9989000353078200e-02  9.9991483035052287e-02  9.9983752455049285e-02  9.9988792416043817e-02  9.9993183887734094e-02  9.9982085493003803e-02  9.9991724166581267e-02  9.9994163873764530e-02  9.9981932136364415e-02  9.9984349603029016e-02  9.9984906382189237e-02  9.9968144199959225e-02  9.9980870288802579e-02  9.9997552415797553e-02  9.9951453493116543e-02  1.0002409110627705e-01  9.9924988581229904e-02  1.0010412827483589e-01  9.9720647013740657e-02  9.9794052170927197e-02  1.0050006294008773e-01  1.0013679871716280e-01  9.9973805917008496e-02  1.0004993126853172e-01  1.0000786460229986e-01  1.0004321158566892e-01  1.0002361056556364e-01  1.0003113765597853e-01  1.0004410851828353e-01  1.0003712680139451e-01  1.0004250772175607e-01  1.0002447781458879e-01  1.0003192086929026e-01  1.0002395855681939e-01  1.0003488060316544e-01  1.0002768060018705e-01  1.0002986706303162e-01  1.0003225837641212e-01  1.0002973984513498e-01  1.0002961587340106e-01  1.0003177792254825e-01  1.0002885909267034e-01  1.0002976430387028e-01  1.0002886654866505e-01  1.0003054516863648e-01  1.0002580334693230e-01  1.0003498002282470e-01  1.0001924176759723e-01  1.0004683402673405e-01  1.0000000000000003e-01  9.9990316961859574e-02  1.0000000000000003e-01  9.9995192179564638e-02  9.9992510549060901e-02  9.9992605267066381e-02  9.9991862715268234e-02  9.9993357557081247e-02  9.9990288736484537e-02  9.9991228873190452e-02  9.9993092717653442e-02  9.9988421060452776e-02  9.9989629216040501e-02  9.9991752341493254e-02  9.9984625555977466e-02  9.9987591934758466e-02  9.9992156722833916e-02  9.9982316095586846e-02  9.9989409891247188e-02  9.9994605890783336e-02  9.9981942613981065e-02  9.9990515429395008e-02  1.0000063098348340e-01  9.9966520366121844e-02  9.9986994796154527e-02  9.9982489075392686e-02  9.9972759210070053e-02  9.9972432639226991e-02  1.0002506018789532e-01  9.9901427221095768e-02  1.0012061920757452e-01  9.9722503695637399e-02  9.9790223938270028e-02  1.0048458105661766e-01  1.0014624540471372e-01  9.9960714731943137e-02  1.0004824992560604e-01  1.0001749583235893e-01  1.0003062628150707e-01  1.0002031742549811e-01  1.0003941892003468e-01  1.0002878281570649e-01  1.0003425380413854e-01  1.0004350188190918e-01  1.0004150986008405e-01  1.0001644392067814e-01  1.0003654178105015e-01  1.0002280463269242e-01  1.0002855182272001e-01  1.0003047494678571e-01  1.0002812836186546e-01  1.0002791837234470e-01  1.0003082785958792e-01  1.0002836488751256e-01  1.0002820338004387e-01  1.0003011139486322e-01  1.0002686226278013e-01  1.0002956244970292e-01  1.0002547219906210e-01  1.0003314364764723e-01  1.0001857061998906e-01  1.0004503131772237e-01  1.0000000000000003e-01  9.9990116791037240e-02  1.0000000000000003e-01  9.9995376639609598e-02  9.9991269714247336e-02  9.9992895667915749e-02  9.9992565400954608e-02  9.9990956365018535e-02  9.9991112361707102e-02  9.9992782678083023e-02  9.9989072674122964e-02  9.9990209761102261e-02  9.9992147271339621e-02  9.9985936420775079e-02  9.9987501345949262e-02  9.9991321919239609e-02  9.9982404566107491e-02  9.9987185087550140e-02  9.9993420280110420e-02  9.9980908086745104e-02  9.9989845729869520e-02  9.9997862096547457e-02  9.9977565754096082e-02  9.9995926494035547e-02  9.9991042041662981e-02  9