<?xml version="1.0"?>
<VTKFile type="UnstructuredGrid"  version="0.1"  >
<UnstructuredGrid>
<Piece  NumberOfPoints="1933" NumberOfCells="3640">
<Points>
<DataArray  type="Float64"  NumberOfComponents="3"  format="ascii">0.4752962461075888 0.00123430520234499 0  5.475296279318608 0.001170711179151799 0  5.475391739811228 7.501170835129697 0  0.4753916620279072 7.501234350551655 0  10.47529631267773 0.001106993911872452 0  10.47539188735807 7.501107148097416 0  15.47529641181813 0.00104307045993082 0  15.47539214469407 7.501043235379548 0  20.47529665433244 0.0009789173435369421 0  20.47539255242707 7.500979085342213 0  25.47529711636417 0.000914547744863031 0  25.47539315230059 7.500914716460524 0  30.47529786878466 0.0008499983834418543 0  30.47539398632605 7.500850167909003 0  35.47529897729662 0.0007853219235306819 0  35.47539509615824 7.5007854935133 0  40.47530050406168 0.000720582869641999 0  40.47539652294412 7.50072075835122 0  45.47530250982712 0.0006558557899577366 0  45.47539830753147 7.500656037315064 0  50.47530505613415 0.0005912251920893456 0  50.47540049086605 7.500591415155315 0  55.47530820746401 0.0005267866806543622 0  55.4754031144331 7.500526987723594 0  60.47531203328977 0.0004626492354820676 0  60.47540622061899 7.50046286429506 0  65.47531661005137 0.0003989386084185953 0  65.47540985287566 7.500399170986635 0  70.47532202306719 0.0003358019765358939 0  70.47541405555921 7.500336055413463 0  75.47532836838565 0.0002734141353192725 0  75.47541887327066 7.500273692859663 0  80.47533575452535 0.0002119856927858601 0  80.47542434944928 7.500212294400112 0  85.47534430397387 0.0001517739660708363 0  85.47543052386267 7.500152117619009 0  90.47535415414445 9.309763070507052e-05 0  90.47543742844924 7.500093480857399 0  95.47536545720082 3.63566979167735e-05 0  95.47544508072338 7.500036782318373 0  100.4753783775738 -1.793979590358416e-05 0  100.4754534736179 7.499982525902769 0  105.4753930849125 -6.913474250705101e-05 0  105.475462560207 7.499931356367084 0  110.4754097380654 -0.0001163669397745418 0  110.475472231379 7.499884107255343 0  115.4754284515646 -0.000158489409712579 0  115.4754822845039 7.499841865860743 0  120.4754492279331 -0.0001939487148248248 0  120.4754923824217 7.49980605956417 0  125.4754718231265 -0.0002206052600222365 0  125.4755020070116 7.499778565550891 0  130.4754954806624 -0.0002354664831291295 0  130.4755104257596 7.499761837051446 0  135.4755184065532 -0.0002343012546821739 0  135.4755167262996 7.499759015633637 0  140.4755367275039 -0.0002111362136728166 0  140.4755200642143 7.499773949960381 0  145.475542393585 -0.0001578636760250294 0  145.4755204938838 7.499810991307148 0  150.4755187815142 -6.54678820090366e-05 0  150.475521354721 7.499874725838769 0  160.4755282581479 8.974120553446434e-19 0  165.4753740281809 -0.0002130976675218481 0  165.4755015770729 7.499754841295641 0  160.4755468048905 7.499924294860527 0  170.4752894494057 -0.000394902886384318 0  170.475455637913 7.499588904984063 0  175.4752422383735 -0.0005540875743475752 0  175.4754178167553 7.499436975286067 0  180.4752159469494 -0.0006955893223468484 0  180.4753890195651 7.49929924030427 0  185.4752017285419 -0.0008232082882032152 0  185.4753679813694 7.499173704039601 0  190.4751946559828 -0.0009399424703574698 0  190.4753530523969 7.499058164486079 0  195.475191902224 -0.001048109738596416 0  195.4753427467169 7.498950702657177 0  200.4751917964777 -0.00114947925997704 0  200.4753358704081 7.498849761629294 0  205.4751933207919 -0.001245399101206615 0  205.4753315093143 7.498754109753179 0  210.4751958357373 -0.001336902822881277 0  210.475328978237 7.49866277866155 0  215.475198927743 -0.001424791493782511 0  215.475327767654 7.498575004504501 0  220.475202322129 -0.00150969426652428 0  220.4753274989837 7.498490179825104 0  225.4752058322698 -0.001592112344023454 0  225.4753278900912 7.498407816364698 0  230.475209329039 -0.001672450773966792 0  230.4753287297196 7.498327516998952 0  235.475212721909 -0.001751041550772777 0  235.4753298588833 7.498248954719937 0  240.4752159469293 -0.001828160569777926 0  240.4753311574123 7.498171856865716 0  245.4752189588896 -0.001904040234239645 0  245.4753325342416 7.498095993200062 0  250.4752217261083 -0.001978878970556069 0  250.4753339203842 7.498021166806138 0  255.4752242269415 -0.002052848522338896 0  255.4753352638485 7.497947207044931 0  260.4752264474607 -0.002126099625235627 0  260.4753365259582 7.497873964044428 0  265.4752283799922 -0.002198766474230071 0  265.4753376787109 7.49780130434643 0  270.4752300223188 -0.002270970253833686 0  270.4753387029136 7.497729107462132 0  275.4752313774644 -0.002342821884737055 0  275.4753395868964 7.497657263191035 0  280.4752324540344 -0.002414424024176933 0  280.4753403256691 7.497585669657894 0  285.4752332671293 -0.002485872212175432 0  285.4753409203901 7.497514232135736 0  290.4752338398439 -0.002557254836155626 0  290.4753413780134 7.497442862869631 0  295.4752342053316 -0.002628651211768228 0  295.4753417110127 7.497371482317161 0  300.4752344091139 -0.002700126394707263 0  300.4753419370853 7.497300022494209 0  305.4752345107014 -0.002771720047768636 0  305.4753420790574 7.497228433442547 0  310.4752345817831 -0.002843424235216583 0  310.47534216611 7.497156694140007 0  5.475486777676455 15.00117113152149 0  0.4754866893172111 15.00123446515483 0  10.47548693514084 15.00110751102419 0  15.47548719819799 15.00104361257033 0  20.47548759301857 15.00097945637482 0  25.47548814196098 15.00091507638177 0  30.47548886617662 15.00085051897768 0  35.47548978638956 15.00078584113232 0  40.4754909229184 15.00072110911711 0  45.47549229540451 15.00065639812074 0  50.47549392240801 15.00059179279741 0  55.47549582088852 15.00052738872282 0  60.47549800551701 15.00046329476114 0  65.47550048773063 15.00039963640643 0  70.47550327441031 15.0003365602383 0  75.47550636604203 15.00027423972045 0  80.47550975419006 15.00021288267315 0  85.47551341809837 15.00015274086674 0  90.47551732023467 15.00009412231169 0  95.47552140067016 15.00003740693656 0  100.4755255703778 14.99998306639579 0  105.4755297040435 14.99993168859517 0  110.4755336339965 14.99988400687226 0  115.4755371489116 14.99984093199652 0  120.4755400046583 14.99980358099991 0  125.4755419611289 14.99977328782341 0  130.4755428690146 14.99975156203728 0  135.475542844045 14.99973992403392 0  140.4755425769917 14.99973946805485 0  145.4755438088585 14.99974983291793 0  150.4755498502323 14.99976676949817 0  165.4755736440495 14.99966674761764 0  160.4755804355794 14.99978783230294 0  170.475557563068 14.99953560427956 0  175.4755380029092 14.99940491896064 0  180.4755188370479 14.99927973548237 0  185.4755018872053 14.99916161594413 0  190.4754877462808 14.99905051106756 0  195.4754763873351 14.99894574765339 0  200.4754675147946 14.99884648334229 0  205.4754607473738 14.99875189770044 0  210.4754557054764 14.99866126120606 0  215.4754520479691 14.99857395059705 0  220.4754494836194 14.99848944255239 0  225.4754477707522 14.99840730014665 0  230.4754467120772 14.99832715825731 0  235.4754461481101 14.99824871030038 0  240.4754459507164 14.9981716969837 0  245.4754460174063 14.99809589707038 0  250.4754462665466 14.99802111989839 0  255.4754466334511 14.99794719934762 0  260.4754470672509 14.99787398897374 0  265.4754475283963 14.99780135807819 0  270.4754479866821 14.99772918854371 0  275.4754484196674 14.99765737232023 0  280.4754488113912 14.99758580950008 0  285.4754491513217 14.9975144069677 0  290.4754494334665 14.9974430776373 0  295.475449655728 14.99737174026167 0  300.4754498196623 14.99730031961152 0  305.4754499311902 14.99722874622038 0  310.4754500032647 14.99715695318199 0  5.475581317303511 22.50117175465786 0  0.4755812291218419 22.50123490493787 0  10.47558145229658 22.50110820246207 0  15.47558166220928 22.50104431213673 0  20.47558196378833 22.50098013806629 0  25.47558236742917 22.5009157337872 0  30.47558288014816 22.5008511561284 0  35.47558350698359 22.50078646711446 0  40.47558425139378 22.50072173501806 0  45.47558511505839 22.50065703531885 0  50.47558609732169 22.50059245195381 0  55.47558719438727 22.50052807905949 0  60.47558839830292 22.50046402332955 0  65.47558969572763 22.50040040709446 0  70.47559106645812 22.50033737223989 0  75.47559248169816 22.5002750851028 0  80.47559390208446 22.50021374250088 0  85.47559527555373 22.50015357904852 0  90.47559653527172 22.50009487585713 0  95.47559759808317 22.50003797055856 0  100.475598364342 22.49998326822465 0  105.4755987206281 22.49993125201041 0  110.4755985478438 22.49988249090915 0  115.475597738574 22.4998376393612 0  120.4755962293219 22.49979741877952 0  125.475594054812 22.49976256313959 0  130.4755914314808 22.49973369813787 0  135.4755888718193 22.49971110504476 0  140.4755873121782 22.49969429873686 0  145.4755881878662 22.49968134224974 0  150.4755932851417 22.49966791404777 0  165.4756308990238 22.49956871898519 0  160.475619851134 22.4996601821385 0  170.4756330728005 22.49946479122877 0  175.4756289818711 22.49935550400439 0  180.47562132785 22.49924573180305 0  185.4756122002448 22.49913826106163 0  190.4756029508097 22.49903438891653 0  195.4755943415545 22.49893451891943 0  200.4755867348584 22.4988385781534 0  205.4755802477238 22.49874626928763 0  210.4755748585944 22.49865721041327 0  215.4755704753332 22.49857100727466 0  220.4755669759841 22.49848728739187 0  225.4755642318923 22.49840571373088 0  230.4755621199573 22.49832598793994 0  235.4755605284543 22.49824784862039 0  240.4755593591964 22.49817106751849 0  245.4755585277176 22.49809544509797 0  250.4755579624527 22.49802080619144 0  255.4755576034869 22.4979469960295 0  260.4755574011574 22.49787387674866 0  265.4755573146862 22.49780132438552 0  270.4755573108937 22.4977292263258 0  275.4755573630265 22.49765747916356 0  280.4755574497062 22.49758598691868 0  285.4755575540005 22.49751465954046 0  290.4755576626531 22.4974434115705 0  295.4755577655644 22.49737216069878 0  300.475557855654
[...]
<PointData  Scalars="p"> 
<DataArray  type="Float64"  Name="p"  format="ascii">1.0000000000000001e-01  1.0000000000000003e-01  1.0000212144362823e-01  1.0000000000000003e-01  1.0000000000000003e-01  1.0000133933093680e-01  1.0000000000000003e-01  1.0000202691957678e-01  1.0000000000000003e-01  1.0000187660027723e-01  1.0000000000000003e-01  1.0000227959090360e-01  1.0000000000000003e-01  1.0000375325756175e-01  1.0000000000000003e-01  1.0000382323888668e-01  1.0000000000000003e-01  1.0000482791942869e-01  1.0000000000000003e-01  1.0000656359194761e-01  1.0000000000000003e-01  1.0000528809021826e-01  1.0000000000000003e-01  1.0001250800257180e-01  1.0000000000000003e-01  1.0001387404079311e-01  1.0000000000000003e-01  1.0001712489930614e-01  1.0000000000000003e-01  1.0001904626387641e-01  1.0000000000000003e-01  1.0002517823686335e-01  1.0000000000000003e-01  1.0002712247649884e-01  1.0000000000000003e-01  1.0003239563627461e-01  1.0000000000000003e-01  1.0004018025660583e-01  1.0000000000000003e-01  1.0004314892337736e-01  1.0000000000000003e-01  1.0005244798122792e-01  1.0000000000000003e-01  1.0005860024532237e-01  1.0000000000000003e-01  1.0006944210809830e-01  1.0000000000000003e-01  1.0007007288253073e-01  1.0000000000000003e-01  1.0009484184813734e-01  1.0000000000000003e-01  1.0007750920948733e-01  1.0000000000000003e-01  1.0012681600539798e-01  1.0000000000000003e-01  1.0007739224715538e-01  1.0000000000000003e-01  1.0016845835161151e-01  1.0000000000000003e-01  1.0006550925929188e-01  1.0000000000000001e-01  1.0023417339116703e-01  1.0000000000000001e-01  1.0000000000000003e-01  9.9863377742507975e-02  9.9659074166477374e-02  1.0000000000000003e-01  9.9984608067309688e-02  1.0000000000000003e-01  9.9896338407289009e-02  1.0000000000000003e-01  9.9948965381759694e-02  1.0000000000000003e-01  9.9935863001744493e-02  1.0000000000000003e-01  9.9950097470930144e-02  1.0000000000000003e-01  9.9946677114751942e-02  1.0000000000000003e-01  9.9958833742084904e-02  1.0000000000000003e-01  9.9958425159712816e-02  1.0000000000000003e-01  9.9963363826340607e-02  1.0000000000000003e-01  9.9967334639808961e-02  1.0000000000000003e-01  9.9970137722294281e-02  1.0000000000000003e-01  9.9972200687078877e-02  1.0000000000000003e-01  9.9975593691779316e-02  1.0000000000000003e-01  9.9977139967323519e-02  1.0000000000000003e-01  9.9978780874757464e-02  1.0000000000000003e-01  9.9980754776735639e-02  1.0000000000000003e-01  9.9981920376878697e-02  1.0000000000000003e-01  9.9982878911461751e-02  1.0000000000000003e-01  9.9984199193100101e-02  1.0000000000000003e-01  9.9984813115835597e-02  1.0000000000000003e-01  9.9985658443865491e-02  1.0000000000000003e-01  9.9986073223489347e-02  1.0000000000000003e-01  9.9987129177987966e-02  1.0000000000000003e-01  9.9986566381844277e-02  1.0000000000000003e-01  9.9988719293044606e-02  1.0000000000000003e-01  9.9986211383274293e-02  1.0000000000000003e-01  9.9991281381228536e-02  1.0000000000000003e-01  9.9983206717423473e-02  1.0000000000000001e-01  1.0000000000000003e-01  1.0000471642292325e-01  1.0000000000000003e-01  1.0000398339560705e-01  1.0000416010060140e-01  1.0000471478168511e-01  1.0000664577750916e-01  1.0000634488555604e-01  1.0000693624749021e-01  1.0000996461577258e-01  1.0000817774899397e-01  1.0000968148971846e-01  1.0001070705640884e-01  1.0001958526695814e-01  1.0001488244923457e-01  1.0002301428567358e-01  1.0001870387636068e-01  1.0002310947992818e-01  1.0002937452393200e-01  1.0002846254374599e-01  1.0003228527177743e-01  1.0004266597168363e-01  1.0003817683692372e-01  1.0004916359294172e-01  1.0004968807128074e-01  1.0006155116073416e-01  1.0004569063700361e-01  1.0009120214768522e-01  1.0001935649635210e-01  1.0014850253077515e-01  9.9950996084585422e-02  1.0023636994593320e-01  1.0016453792804804e-01  9.9517460473324562e-02  9.9825472270549456e-02  9.9981955873634870e-02  9.9953799206218941e-02  9.9963165736758702e-02  9.9947811715287549e-02  9.9972195013445495e-02  9.9961661668569915e-02  9.9967079831080052e-02  9.9972876237018879e-02  9.9973708149725546e-02  9.9974372348192342e-02  9.9979781670977402e-02  9.9980074236233910e-02  9.9981166957542250e-02  9.9984190892837291e-02  9.9984872792866650e-02  9.9985610651894416e-02  9.9987639800424258e-02  9.9988335716963056e-02  9.9988943829861468e-02  9.9990490551486275e-02  9.9990882301706760e-02  9.9991997887221601e-02  9.9992223535405794e-02  9.9994196077854355e-02  9.9992427786603583e-02  9.9997254304620739e-02  9.9991419482297811e-02  1.0000000000000003e-01  1.0000755540711323e-01  1.0000000000000003e-01  1.0000445900396146e-01  1.0000639139321672e-01  1.0000822523924588e-01  1.0000810910824758e-01  1.0000877546309790e-01  1.0001305086394656e-01  1.0001186776813882e-01  1.0001265553894652e-01  1.0001696445920147e-01  1.0001842511314252e-01  1.0001245350571289e-01  1.0003611116568868e-01  1.0002460290113638e-01  1.0003045340577223e-01  1.0003896022910987e-01  1.0003527405076505e-01  1.0004133059926028e-01  1.0005439561335257e-01  1.0005116187934744e-01  1.0005778608087566e-01  1.0007667745290086e-01  1.0006490582837875e-01  1.0008858381589526e-01  1.0007895229554971e-01  1.0011179122631365e-01  1.0006033486981421e-01  1.0017909067989317e-01  9.9963255388443459e-02  1.0036776698510175e-01  1.0007560724708339e-01  9.9613588267494113e-02  9.9771133617315266e-02  9.9959763125852211e-02  9.9938302626892225e-02  9.9903162399780990e-02  9.9964348147997983e-02  9.9930032544982519e-02  9.9942829733094915e-02  9.9954000672784968e-02  9.9953835722886755e-02  9.9953888270237615e-02  9.9964912039117920e-02  9.9964188628515291e-02  9.9966109710568934e-02  9.9972173151268995e-02  9.9972922669543607e-02  9.9973900051545037e-02  9.9977963111516396e-02  9.9978699645541819e-02  9.9979728339705670e-02  9.9982286812366164e-02  9.9983315667346750e-02  9.9984038033551242e-02  9.9986264636648600e-02  9.9986477031478560e-02  9.9988600720677528e-02  9.9987862053459053e-02  9.9992344807811939e-02  9.9986401717397796e-02  1.0000000000000003e-01  1.0000941419440958e-01  1.0000000000000003e-01  1.0000573255885449e-01  1.0001021513664070e-01  1.0000931406299567e-01  1.0001018809955003e-01  1.0001487696300726e-01  1.0001377819981726e-01  1.0001487941968080e-01  1.0002071390386646e-01  1.0001850017669985e-01  1.0001884375328320e-01  1.0003176729642949e-01  1.0001639387387422e-01  1.0003914448867188e-01  1.0003968065119026e-01  1.0003703185447928e-01  1.0003836582450802e-01  1.0005413685153418e-01  1.0004534934893711e-01  1.0005542051978711e-01  1.0006849589512509e-01  1.0006610850732471e-01  1.0006741865995283e-01  1.0009791328343018e-01  1.0006304267364620e-01  1.0012152229942664e-01  1.0004657008935561e-01  1.0018486276420775e-01  9.9938960845945821e-02  1.0038672650786050e-01  1.0005689129329219e-01  9.9505663227294497e-02  9.9861814428579651e-02  9.9975071748405420e-02  9.9821574105352626e-02  1.0000504828089504e-01  9.9909780966871711e-02  9.9940841322527618e-02  9.9947631072161341e-02  9.9949340598556716e-02  9.9944256662187245e-02  9.9962217245700646e-02  9.9958255407406743e-02  9.9960429727302499e-02  9.9968674280116993e-02  9.9969265216530212e-02  9.9970048368047043e-02  9.9975779651534480e-02  9.9976299202461386e-02  9.9977281844887564e-02  9.9980960649787176e-02  9.9981797249559315e-02  9.9983018119634878e-02  9.9985286368455634e-02  9.9986836840605969e-02  9.9987222049329472e-02  9.9990402324971611e-02  9.9989158071581027e-02  9.9994289953537291e-02  9.9989159626035565e-02  1.0000000000000003e-01  1.0001131221676975e-01  1.0000000000000003e-01  1.0000807029854679e-01  1.0001098354361451e-01  1.0001056113257549e-01  1.0001573677755245e-01  1.0001450277662778e-01  1.0001601718866426e-01  1.0002269586981251e-01  1.0002030334402053e-01  1.0002098570395135e-01  1.0003234189696149e-01  1.0002528569665899e-01  1.0003271310327717e-01  1.0003058900648265e-01  1.0004888436410424e-01  1.0004091766648519e-01  1.0005937775660199e-01  1.0004725515985693e-01  1.0005533353401988e-01  1.0007447187779130e-01  1.0006252066662263e-01  1.0007716367324768e-01  1.0008972434922202e-01  1.0009258982898638e-01  1.0008008673750454e-01  1.0013986835717958e-01  1.0004823419462026e-01  1.0020974330080643e-01  9.9932602993207414e-02  1.0044414064255089e-01  1.0014893479767119e-01  9.9451484999491024e-02  9.9804021774301407e-02  9.9914824545554004e-02  9.9920151364950374e-02  9.9889136792075714e-02  9.9928027038771156e-02  9.9933880033482136e-02  9.9941202907184237e-02  9.9921970989383962e-02  9.9954453464684664e-02  9.9944260857263781e-02  9.9947406902680155e-02  9.9959401495149522e-02  9.9959267050703945e-02  9.9959460243869341e-02  9.9968565140438739e-02  9.9968701737771837e-02  9.9969676299334315e-02  9.9975034199159610e-02  9.9975942904740323e-02  9.9976863100569899e-02  9.9980696387184334e-02  9.9981609361491419e-02  9.9983292986270636e-02  9.9985186502533033e-02  9.9987671452222315e-02  9.9987003355008097e-02  9.9992489518578975e-02  9.9987201850885180e-02  1.0000000000000003e-01  1.0001353559218358e-01  1.0000000000000003e-01  1.0000840567009946e-01  1.0001234536307498e-01  1.0001502759374543e-01  1.0001546600046947e-01  1.0001621919225104e-01  1.0002298619491172e-01  1.0002150277869309e-01  1.0002219234975507e-01  1.0003182958430415e-01  1.0002823842492921e-01  1.0003149678131534e-01  1.0004067200232118e-01  1.0003966024009278e-01  1.0002510950298599e-01  1.0007249260370714e-01  1.0004649459723153e-01  1.0005719846174944e-01  1.0007281452111501e-01  1.0006199324417425e-01  1.0006832372951560e-01  1.0009751688049805e-01  1.0007345774949811e-01  1.0010096580162431e-01  1.0009679910527004e-01  1.0012882028777076e-01  1.0005287962307584e-01  1.0022893164453786e-01  9.9907529576310702e-02  1.0048811239560938e-01  1.0011456682992655e-01  9.9492231549860130e-02  9.9755605885094120e-02  9.9997834734956950e-02  9.9878236191467712e-02  9.9901025431098828e-02  9.9893292044995280e-02  9.9960893642297710e-02  9.9895256601864685e-02  9.9959614441432143e-02  9.9931296673194309e-02  9.9938405189081453e-02  9.9953267337074742e-02  9.9953063850573357e-02  9.9951052852070246e-02  9.9964211361193087e-02  9.9963079204538161e-02  9.9964069190082230e-02  9.9971766211861393e-02  9.9972261421518605e-02  9.9972957002861587e-02  9.9978073730498482e-02  9.9979117985160917e-02  9.9980074604018726e-02  9.9984003296563984e-02  9.9984600468943793e-02  9.9987367157037307e-02  9.9987592728883287e-02  9.9992783893767478e-02  9.9988041481630638e-02  1.0000000000000003e-01  1.0001473452147580e-01  1.0000000000000003e-01  1.0000904086502260e-01  1.0001622307085448e-01  1.0001470732809770e-01  1.0001665365544429e-01  1.0002251684545198e-01  1.0002176611931127e-01  1.0002246342458912e-01  1.0003195598973463e-01  1.0002821762383633e-01  1.0003096234225337e-01  1.0004336507809927e-01  1.0003850817550373e-01  1.0003618727346900e-01  1.0006022839474070e-01  1.0002935548352682e-01  1.0006934441232972e-01  1.0007408307284782e-01  1.0006319338271615e-01  1.0006828286902464e-01  1.0009292771494478e-01  1.0007830691764512e-01  1.0008365122582139e-01  1.0012434826158402e-01  1.0008013169828230e-01  1.0013941169642845e-01  1.0007409393173192e-01  1.0021942246364668e-01  9.9913100688330606e-02  1.0052449337687874e-01  1.0009105329807749e-01  9.9443311646638013e-02  9.9812170788319179e-02  9.9959120882120750e-02  9.9844891586486281e-02  9.9940382043677556e-02  9.9910744239288668e-02  9.9860830711778856e-02  9.9968064094429807e-02  9.9915759734935924e-02  9.9931318120629498e-02  9.9942153160965164e-02  9.9945925290357368e-02  9.9939276655093820e-02  9.9958365600600202e-02  9.9955519642266275e-02  9.9955969294432859e-02  9.9965901504438515e-02  9.9966703672726864e-02  9.9967054100019034e-02  9.9973937205123070e-02  9.9974603676369997e-02  9.9975818730811086e-02  9.9980027572387609e-02  9.9981768261940385e-02  9.9982606747399144e-02  9.9986826958234118e-02  9.9986368097517778e-02  9.9991758786218840e-02  9.9987388059665283e-02  1.0000000000000003e-01  1.0001591834532958e-01  1.0000000000000003e-01  1.0001108482076874e-01  1.0001611071301117e-01  1.0001537301242577e-01  1.0002189137241728e-01  1.0002098982233999e-01  1.0002237107787464e-01  1.0003096337523484e-01  1.0002803553560004e-01  1.0002941297501294e-01  1.0004240754662781e-01  1.0003768228670108e-01  1.0003871732346623e-01  1.0005687652775910e-01  1.0004144196978476e-01  1.0005400699557492e-01  1.0005096709296668e-01  1.0007746905208416e-01  1.0006467800546130e-01  1.0009723302315103e-01  1.0006964660828006e-01  1.0008689884948520e-01  1.0010833654489458e-01  1.0009994546585278e-01  1.0008737177787543e-01  1.0016426722630724e-01  1.0005153025283117e-01  1.0023068323976925e-01  9.9924253421707840e-02  1.0052683922921585e-01  1.0014963167466333e-01  9.9394159923456626e-02  9.9777471362596543e-02  9.9928868893561451e-02  9.9891294980611584e-02  9.9926114620654066e-02  9.9871798749052915e-02  9.9938569394963983e-02  9.9882994531973648e-02  9.9940164979423304e-02  9.9927880837699379e-02  9.9946949931930706e-02  9.9924729690570882e-02  9.9955216564795599e-02  9.9948133632837902e-02  9.9948919013707713e-02  9.9961424086166456e-02  9.9961502235384289e-02  9.9960822864361504e-02  9.9970559091508635e-02  9.9970970269733492e-02  9.9971609672959205e-02  9.9977584940283637e-02  9.9978531220101224e-02  9.9980123461545736e-02  9.9983454541987066e-02  9.9986189228269254e-02  9.9985846724733374e-02  9.9992069483425067e-02  9.9987592507521539e-02  1.0000000000000003e-01  1.0001750512241300e-01  1.0000000000000003e-01  1.0001087579181044e-01  1.0001661353736581e-01  1.0001921897190108e-01  1.0002075112850997e-01  1.0002115568760242e-01  1.0002935538635421e-01  1.0002770359881315e-01  1.0002846435187365e-01  1.0003931285432249e-01  1.0003662786110973e-01  1.0003773422339934e-01  1.0005414639342862e-01  1.0004480847451491e-01  1.0004874954062365e-01  1.0006385613351335e-01  1.0005941711104810e-01  1.0003776337614498e-01  1.0011043711167385e-01  1.0006962904873740e-01  1.0008222164261381e-01  1.0011333533718607e-01  1.0008081062600724e-01  1.0010625069822500e-01  1.0011845631571339e-01  1.0013351844325488e-01  1.0006009218357846e-01  1.0025642155083439e-01  9.9900826438597184e-02  1.0054189033043426e-01  1.0014194035074421e-01  9.9414612129639132e-02  9.9742399844593363e-02  9.9975327755062793e-02  9.9869586035975552e-02  9.9889780862484928e-02  9.9918522471090954e-02  9.9914596691144539e-02  9.9897670952356368e-02  9.9901824916710583e-02  9.9958152900893216e-02  9.9907003064448996e-02  9.9956358389919286e-02  9.9938120923236728e-02  9.9941568124460076e-02  9.9955569731930941e-02  9.9956745173532424e-02  9.9953879340926630e-02  9.9966249986570180e-02  9.9965922170029059e-02  9.9966612225697846e-02  9.9974276107755861e-02  9.9975346162061426e-02  9.9975886423672264e-02  9.9981467412188496e-02  9.9982154503297227e-02  9.9984860352573271e-02  9.9986214332433515e-02  9.9991472099512674e-02  9.9987225322560519e-02  1.0000000000000003e-01  1.0001814705564419e-01  1.0000000000000003e-01  1.0001099996751578e-01  1.0001971701604721e-01  1.0001819508107335e-01  1.0002081703181410e-01  1.0002698123044794e-01  1.0002671675783585e-01  1.0002745204406899e-01  1.0003743410278571e-01  1.0003436362245589e-01  1.0003565651267643e-01  1.0005097733427151e-01  1.0004442984402220e-01  1.0004592970637735e-01  1.0006453403815976e-01  1.0005529151352401e-01  1.0005041402035565e-01  1.0008871183271761e-01  1.0003874202230655e-01  1.0009797052701450e-01  1.0010603484392525e-01  1.0008812827769575e-01  1.0008666444578782e-01  1.0014042135422506e-01  1.0008054191957066e-01  1.0014042616034036e-01  1.0009304124903227e-01  1.0022205317578775e-01  9.9908372014612792e-02  1.0056852701495769e-01  1.0012277456045816e-01  9.9388606580683450e-02  9.9775614340299856e-02  9.9962852610027575e-02  9.9836784211323068e-02  9.9931542722746569e-02  9.9900291674126424e-02  9.9894752230269029e-02  9.9921897107356633e-02  9.9929183193350382e-02  9.9877086114254832e-02  9.9969085653857384e-02  9.9925860745523343e-02  9.9940168854581804e-02  9.9947111804002051e-02  9.9953447687187946e-02  9.9946257933612850e-02  9.9963112085939679e-02  9.9961728040940265e-02  9.9961109083805649e-02  9.9970509095168927e-02  9.9971921824046753e-02  9.9972317341328401e-02  9.9978625265326526e-02  9.9980171775136600e-02  9.9980856624962491e-02  9.9986015142968634e-02  9.9985777454327310e-02  9.9991101262753762e-02  9.9987540241105191e-02  1.0000000000000003e-01  1.0001869227913358e-01  1.0000000000000003e-01  1.0001239038529050e-01  1.0001896939419068e-01  1.0001788032459079e-01  1.0002497994466528e-01  1.0002450586945799e-01  1.0002606692612870e-01  1.0003456749547161e-01  1.0003272424691007e-01  1.0003310600427040e-01  1.0004677561561515e-01  1.0004202942336507e-01  1.0004327643588017e-01  1.0006101903627974e-01  1.0005202896122674e-01  1.0005217001347778e-01  1.0007931414571578e-01  1.0005502515070178e-01  1.0007111585749857e-01  1.0007190521593713e-01  1.0010001326503308e-01  1.0008805759444202e-01  1.0012814583208134e-01  1.0009646473928295e-01  1.0009025771631980e-01  1.0017639030957523e-01  1.0005213127882570e-01  1.0022408117118378e-01  9.9946320574903685e-02  1.0052887633140685e-01  1.0016414493401352e-01  9.9338983076703663e-02  9.9765546661588503e-02  9.9935934245396818e-02  9.9871860882439809e-02  9.9920265938946443e-02  9.9872984106672336e-02  9.9924255170131260e-02  9.9919317654455261e-02  9.9899936514486448e-02  9.9938872278065360e-02  9.9903175424500307e-02  9.9949031070557304e-02  9.9936385923469526e-02  9.9955113623281910e-02  9.9935881521947961e-02  9.9960745974342582e-02  9.9956641436390659e-02  9.9956337337320983e-02  9.9967311355145777e-02  9.9967929770889211e-02  9.9967108595191478e-02  9.9976172375559363e-02  9.9976935263551614e-02  9.9978145282397651e-02  9.9982729972493703e-02  9.9985346884885598e-02  9.9984946746531814e-02  9.9991572524704170e-02  9.9987431798796711e-02  1.0000000000000003e-01  1.0001976517172054e-01  1.0000000000000003e-01  1.0001194838659508e-01  1.0001883006110260e-01  1.0002082634366499e-01  1.0002328969861526e-01  1.0002366187570501e-01  1.0003179055525714e-01  1.0003089145664755e-01  1.0003129588379005e-01  1.0004222495285302e-01  1.0003994155350221e-01  1.0004024698597723e-01  1.0005606394910925e-01  1.0004982316692525e-01  1.0004927141978227e-01  1.0007292991419935e-01  1.0005776302954905e-01  1.0006225152536659e-01  1.0008447504290707e-01  1.0007590868403050e-01  1.0004346629430232e-01  1.0015014640867280e-01  1.0007965139956283e-01  1.0011113816200894e-01  1.0013063506508113e-01  1.0012480767281791e-01  1.0005871024295640e-01  1.0026428736591186e-01  9.9904676181774926e-02  1.0052406882630648e-01  1.0018093879563598e-01  9.9341514934687722e-02  9.9731225340969842e-02  9.9968900518242670e-02  9.9866862849532667e-02  9.9893264514230903e-02  9.9904042942287274e-02  9.9919138468887156e-02  9.9891532992959942e-02  9.9934248908864376e-02  9.9926360815333182e-02  9.9920261614158276e-02  9.9914756304161426e-02  9.9967993598219410e-02  9.9923370316267773e-02  9.9963153596843560e-02  9.9949849100333499e-02  9.9952210199991107e-02  9.9963437636633651e-02  9.9965578034660357e-02  9.9962835288223917e-02  9.9972928301766920e-02  9.9973605152990586e-02  9.9974301846723124e-02  9.9981244551938825e-02  9.9982110368731558e-02  9.9984194302085744e-02  9.9986466586210535e-02  9.9991354631833604e-02  9.9987446117200895e-02  1.0000000000000003e-01  1.0001980513295379e-01  1.0000000000000003e-01  1.0001151189162358e-01  1.0002084105630846e-01  1.0001919532401900e-01  1.0002230081475816e-01  1.0002781121301528e-01  1.0002844094076765e-01  1.0002904892629122e-01  1.0003844916585920e-01  1.0003630986567709e-01  1.0003720256439694e-01  1.0005105364289509e-01  1.0004645904361115e-01  1.0004550334971492e-01  1.0006583050840226e-01  1.0005614852166599e-01  1.0005566632142303e-01  1.0008280949613113e-01  1.0006718881092744e-01  1.0005980001899779e-01  1.0011273423803131e-01  1.0004428865201266e-01  1.0011399601857290e-01  1