<?xml version="1.0"?>
<VTKFile type="UnstructuredGrid"  version="0.1"  >
<UnstructuredGrid>
<Piece  NumberOfPoints="1933" NumberOfCells="3640">
<Points>
<DataArray  type="Float64"  NumberOfComponents="3"  format="ascii">-0.0002660857390038296 0.001819300286223911 0  4.999733923272847 0.001747350524038481 0  4.999841908573721 7.501747409231476 0  -0.0001581302402134943 7.501819305405795 0  9.9997339208496 0.001675331281022175 0  9.999841988790402 7.501675412921023 0  14.99973394397614 0.001603173710814977 0  14.9998421367887 7.501603265064339 0  19.99973404169775 0.001530846601589709 0  19.99984238051891 7.501530942007649 0  24.99973426518314 0.001458343016193618 0  24.99984274992712 7.501458440416271 0  29.9997346643276 0.001385672047298136 0  29.99984327643006 7.501385771181702 0  34.99973528727399 0.001312853709092459 0  34.99984399254188 7.501312955250251 0  39.99973618122146 0.001239915930029147 0  39.99984493184463 7.501240021067668 0  44.99973739377949 0.001166893009608672 0  44.99984612925523 7.501167003266388 0  49.99973897454424 0.001093825140699811 0  49.99984762149671 7.501093942310619 0  54.99974097677346 0.001020758762726956 0  54.99984944769174 7.501020884919292 0  59.99974345913326 0.0009477476307736541 0  59.9998516500148 7.500947885179437 0  64.99974648753846 0.0008748545799049914 0  64.99985427434788 7.500875006343771 0  69.99975013712697 0.0008021540475956175 0  69.99985737088799 7.500802323382836 0  74.99975449442459 0.0007297355034043167 0  74.9998609946397 7.500729926443006 0  79.99975965975237 0.0006577080384481389 0  79.9998652056951 7.500657925460093 0  84.99976574992881 0.0005862065062069 0  84.99987006915323 7.500586456306917 0  89.99977290128295 0.0005153998074784269 0  89.9998756544428 7.500515689033736 0  94.9997812729403 0.0004455022179721628 0  94.99988203368117 7.500445839019911 0  99.99979105018137 0.0003767891359895839 0  99.99988927850512 7.500377182232573 0  104.9998024473549 0.0003096193949417123 0  104.9998974545313 7.500310076335944 0  109.9998157091191 0.0002444675356688873 0  109.9999066122451 7.500244990168171 0  114.9998311073156 0.0001819714958760076 0  114.999916772765 7.500182545142494 0  119.999848927689 0.0001230046021917653 0  119.9999279068517 7.500123573367825 0  124.9998694342305 6.87864484527576e-05 0  124.9999399065937 7.50006919834733 0  129.999892785482 2.105653582708829e-05 0  129.9999525536331 7.500020943845115 0  134.9999188488675 -1.765153380536798e-05 0  134.9999655013776 7.499980872251871 0  139.9999467983039 -4.35843541340862e-05 0  139.9999783262987 7.499951742164462 0  144.9999742415982 -5.117938904642579e-05 0  144.9999908063907 7.499937168869782 0  149.999995262473 -3.272843755147323e-05 0  150.0000038844558 7.499941930579583 0  160.0000000000001 1.08131961461655e-18 0  164.9998847715727 -0.0001431551123111861 0  164.9999794557663 7.499837464077588 0  160.000015573332 7.499953232905042 0  169.9998154615604 -0.0002735487415324678 0  169.9999427287296 7.499716609997029 0  174.9997719464861 -0.0003945514120588748 0  174.9999114444635 7.499599904519659 0  179.9997437389571 -0.0005077441381823377 0  179.9998864031396 7.499488957832746 0  184.9997250077178 -0.0006144906578041718 0  184.9998669099845 7.499383473903587 0  189.9997123687792 -0.0007159897102965167 0  189.9998519507719 7.49928271423258 0  194.9997037842427 -0.0008132330394852666 0  194.9998405687863 7.499185917701424 0  199.9996979809752 -0.000907011019311914 0  199.9998319667016 7.499092417965533 0  204.9996941336756 -0.0009979442272536113 0  204.999825512415 7.499001663461382 0  209.9996916877455 -0.001086519562111844 0  209.9998207151765 7.498913206540556 0  214.9996902578286 -0.001173121864487877 0  214.9998171965714 7.498826685129424 0  219.9996895681052 -0.001258058864964517 0  219.9998146646573 7.498741804984754 0  224.9996894160976 -0.001341579981964191 0  224.9998128932171 7.498658324867353 0  229.9996896500234 -0.001423890225564441 0  229.9998117058807 7.498576044855973 0  234.9996901541589 -0.001505160447512503 0  234.9998109642158 7.498494797352459 0  239.999690839072 -0.001585534942591668 0  239.9998105588635 7.498414440202452 0  244.9996916349169 -0.001665137153524853 0  244.9998104029387 7.498334851414411 0  249.9996924867046 -0.001744074022253405 0  249.9998104271003 7.498255925063606 0  254.9996933509101 -0.001822439373390416 0  254.9998105758553 7.498177568068047 0  259.9996941930012 -0.001900316602608486 0  259.9998108047729 7.498099697604997 0  264.9996949856547 -0.001977780861934372 0  264.9998110783904 7.498022239000721 0  269.9996957074918 -0.002054900874263788 0  269.9998113686513 7.497945123976129 0  274.9996963422706 -0.002131740460546921 0  274.9998116537489 7.497868289173865 0  279.9996968784915 -0.002208359813791218 0  279.9998119173061 7.497791674934814 0  284.99969730945 -0.002284816488725052 0  284.9998121478088 7.497715224344023 0  289.9996976337726 -0.002361165967414057 0  289.9998123382292 7.497638882639792 0  294.9996978565352 -0.002437461455522427 0  294.9998124857771 7.497562597191507 0  299.9996979909849 -0.002513752144488093 0  299.9998125917086 7.497486318419636 0  304.9996980606979 -0.002590078268663431 0  304.9998126612485 7.4974100022503 0  309.9996981013377 -0.002666459200361453 0  309.9998127041013 7.497333614862989 0  4.999949623446033 15.001747563599 0  -5.042421111245421e-05 15.00181932408455 0  9.999949718917827 15.0016756259659 0  14.99994988824083 15.0016034992693 0  19.99995015144191 15.00153118117399 0  24.99995052665956 15.0014586794248 0  29.99995103197906 15.00138601054856 0  34.99995168612796 15.00131319831288 0  39.99995250868223 15.00124027257687 0  44.99995352008829 15.00116726872342 0  49.99995474162159 15.00109422769629 0  54.99995619530802 15.00102119662546 0  59.99995790378706 15.00094823003818 0  64.99995989007073 15.00087539169021 0  69.99996217712939 15.00080275709998 0  74.99996478721927 15.0007304169283 0  79.9999677408364 15.00065848141806 0  84.9999710551579 15.00058708619795 0  89.99997474179708 15.00051639986584 0  94.99997880368356 15.00044663390125 0  99.99998323089245 15.00037805560223 0  104.9999879953675 15.00031100486123 0  109.9999930447918 15.00024591558286 0  114.9999982966135 15.00018334215256 0  120.0000036347672 15.00012399002165 0  125.0000089145999 15.00006874593399 0  130.0000139867675 15.00001869487837 0  135.0000187591812 14.99997509148929 0  140.0000233264041 14.99993920884685 0  145.0000281981893 14.99991187563722 0  150.000034604986 14.99989217705477 0  165.0000417664393 14.99978511881648 0  160.0000486950887 14.99987657257973 0  170.0000290847869 14.99968380087401 0  175.0000140004387 14.99957951829226 0  179.9999990070181 14.99947612133647 0  184.9999853710601 14.9993752157782 0  189.9999735725777 14.99927726719317 0  194.9999636712386 14.99918223003952 0  199.9999555285934 14.99908985717456 0  204.9999489293566 14.99899984296474 0  209.9999436429298 14.99891188530515 0  214.9999394519783 14.9988257094225 0  219.999936163719 14.99874107434046 0  224.9999336126032 14.99865777197633 0  229.9999316590375 14.99857562350987 0  234.9999301865384 14.99849447509507 0  239.999929098488 14.99841419376797 0  244.9999283150303 14.9983346638442 0  249.9999277703253 14.99825578385571 0  254.9999274102118 14.99817746397878 0  259.999927190264 14.99809962387726 0  264.9999270741964 14.99802219088409 0  269.9999270325616 14.99794509845741 0  274.9999270416859 14.99786828486488 0  279.9999270827835 14.99779169206893 0  284.9999271412162 14.99771526480622 0  289.999927205834 14.99763894986734 0  294.9999272684153 14.997562695569 0  299.9999273232384 14.99748645131243 0  304.9999273669839 14.99741016676717 0  309.9999273993683 14.99733378914915 0  5.000056965093563 22.50174791725562 0  5.691590365053401e-05 22.50181951793926 0  10.00005705112094 22.50167605488706 0  15.00005719615553 22.50160395734326 0  20.00005741468506 22.50153164671109 0  25.00005771712419 22.50145914542622 0  30.00005811199014 22.50138647848937 0  35.00005860702631 22.50131367439467 0  40.0000592096499 22.50124076557043 0  45.00005992698943 22.50116778878032 0  50.00006076567362 22.50109478572245 0  55.00006173144646 22.50102180395399 0  60.00006282863396 22.50094889822508 0  65.00006405945238 22.50087613229799 0  70.00006542312512 22.50080358133928 0  75.00006691476952 22.50073133499773 0  80.00006852400622 22.50065950131037 0  85.00007023326377 22.500588211607 0  90.00007201578482 22.5005176266024 0  95.00007383342336 22.50044794384919 0  100.0000756344774 22.5003794066324 0  105.0000773520822 22.50031231413855 0  110.000078904157 22.50024703216423 0  115.000080196643 22.50018400246237 0  120.0000811328294 22.50012374654374 0  125.0000816328939 22.50006685549337 0  130.000081668862 22.5000139497375 0  135.0000813194592 22.49996557977039 0  140.0000808427042 22.49992201895902 0  145.0000807420584 22.49988287666602 0  150.000081745814 22.49984647345248 0  165.000101003089 22.49972756481062 0  160.0000938152563 22.49980502932598 0  170.0001026263809 22.49964059989611 0  175.0001001030234 22.49954833292226 0  180.0000950445219 22.49945394609092 0  185.0000887802499 22.49935946605648 0  190.0000822203219 22.49926600720788 0  195.0000759141353 22.49917409255657 0  200.000070153741 22.49908390061404 0  205.0000650649567 22.49899542431177 0  210.0000606737263 22.49890856489874 0  215.0000569502366 22.49882318448553 0  220.0000538366248 22.4987391340841 0  225.0000512636112 22.49865626772494 0  230.0000491600335 22.49857444891399 0  235.0000474579946 22.49849355300472 0  240.0000460953818 22.49841346747707 0  245.0000450168596 22.49833409120814 0  250.0000441740051 22.49825533331076 0  255.000043524998 22.49817711183678 0  260.0000430340847 22.49809935249109 0  265.0000426709644 22.49802198742134 0  270.0000424101499 22.49794495410941 0  275.0000422303482 22.4978681943691 0  280.0000421138595 22.4977916534439 0  285.0000420460016 22.49771527918518 0  290.000042014561 22.49763902126202 0  295.0000420092925 22.49756283028571 0  300.0000420214847 22.
[...]
<PointData  Scalars="p"> 
<DataArray  type="Float64"  Name="p"  format="ascii">1.0000000000000001e-01  1.0000000000000003e-01  1.0000389869631161e-01  1.0000000000000003e-01  1.0000000000000003e-01  1.0000453206324089e-01  1.0000000000000003e-01  1.0000684396930049e-01  1.0000000000000003e-01  1.0000801769234437e-01  1.0000000000000003e-01  1.0000968401911348e-01  1.0000000000000003e-01  1.0001242146544594e-01  1.0000000000000003e-01  1.0001364572724954e-01  1.0000000000000003e-01  1.0001552186536045e-01  1.0000000000000003e-01  1.0001860904122517e-01  1.0000000000000003e-01  1.0001906468815741e-01  1.0000000000000003e-01  1.0002672295042393e-01  1.0000000000000003e-01  1.0003094902600111e-01  1.0000000000000003e-01  1.0003546938493856e-01  1.0000000000000003e-01  1.0003911233021726e-01  1.0000000000000003e-01  1.0004648966598974e-01  1.0000000000000003e-01  1.0004947224013493e-01  1.0000000000000003e-01  1.0005489916684306e-01  1.0000000000000003e-01  1.0006322746123869e-01  1.0000000000000003e-01  1.0006569282112136e-01  1.0000000000000003e-01  1.0007398991550945e-01  1.0000000000000003e-01  1.0007904533332672e-01  1.0000000000000003e-01  1.0008810592622086e-01  1.0000000000000003e-01  1.0008597417489573e-01  1.0000000000000003e-01  1.0010864881470018e-01  1.0000000000000003e-01  1.0008788328410825e-01  1.0000000000000003e-01  1.0013415595000132e-01  1.0000000000000003e-01  1.0008158114277887e-01  1.0000000000000003e-01  1.0016940392483632e-01  1.0000000000000003e-01  1.0006434296609643e-01  1.0000000000000001e-01  1.0022914753327691e-01  1.0000000000000001e-01  1.0000000000000003e-01  9.9813970871052760e-02  9.9617560112830045e-02  1.0000000000000003e-01  9.9945781777493900e-02  1.0000000000000003e-01  9.9853039693554010e-02  1.0000000000000003e-01  9.9902883125356945e-02  1.0000000000000003e-01  9.9887902941594248e-02  1.0000000000000003e-01  9.9900755968272165e-02  1.0000000000000003e-01  9.9894659342747008e-02  1.0000000000000003e-01  9.9905520025989028e-02  1.0000000000000003e-01  9.9903880066714398e-02  1.0000000000000003e-01  9.9907539908354340e-02  1.0000000000000003e-01  9.9910711020058593e-02  1.0000000000000003e-01  9.9913037308088939e-02  1.0000000000000003e-01  9.9914579396647302e-02  1.0000000000000003e-01  9.9917790057116138e-02  1.0000000000000003e-01  9.9919300595856200e-02  1.0000000000000003e-01  9.9920949470670664e-02  1.0000000000000003e-01  9.9922995048326288e-02  1.0000000000000003e-01  9.9924494673955852e-02  1.0000000000000003e-01  9.9925482828197687e-02  1.0000000000000003e-01  9.9927423552960914e-02  1.0000000000000003e-01  9.9927833234303570e-02  1.0000000000000003e-01  9.9929932269872318e-02  1.0000000000000003e-01  9.9929129333831204e-02  1.0000000000000003e-01  9.9933318471142896e-02  1.0000000000000003e-01  9.9928277942064547e-02  1.0000000000000003e-01  9.9939026539146616e-02  1.0000000000000003e-01  9.9922998833540902e-02  1.0000000000000003e-01  9.9951373899085136e-02  1.0000000000000003e-01  9.9902865238718344e-02  1.0000000000000001e-01  1.0000000000000003e-01  1.0000641931752244e-01  1.0000000000000003e-01  1.0000636055293058e-01  1.0000681825702833e-01  1.0000770476459390e-01  1.0001001981493440e-01  1.0000984932636782e-01  1.0001028386049554e-01  1.0001363335810917e-01  1.0001208296621288e-01  1.0001342333884973e-01  1.0001648143162348e-01  1.0002438062274444e-01  1.0002209308845225e-01  1.0003063251939107e-01  1.0002688904346255e-01  1.0003018204045405e-01  1.0003689561059066e-01  1.0003498573738069e-01  1.0003719082608167e-01  1.0004724755364293e-01  1.0004094069773495e-01  1.0004977126317553e-01  1.0004898077782871e-01  1.0005922051540470e-01  1.0004009169750763e-01  1.0008604583123740e-01  1.0001097162352660e-01  1.0014174623745434e-01  9.9942202465575114e-02  1.0023250792646078e-01  1.0016161088936845e-01  9.9413976053432565e-02  9.9824110687657910e-02  9.9972101300653413e-02  9.9948291018530519e-02  9.9958421038042949e-02  9.9938224745665272e-02  9.9961940527948476e-02  9.9950236950024252e-02  9.9953189778572857e-02  9.9957902506951316e-02  9.9958129471864665e-02  9.9957542700456967e-02  9.9962435200072974e-02  9.9962529054870922e-02  9.9963077728538977e-02  9.9965919183187590e-02  9.9966471120250422e-02  9.9967015359595846e-02  9.9968778243335665e-02  9.9969650008674041e-02  9.9969642118503996e-02  9.9971851555374330e-02  9.9970880780894777e-02  9.9973951694471888e-02  9.9970466378748998e-02  9.9978722585858437e-02  9.9965157878594030e-02  9.9989874225203640e-02  9.9952634726855449e-02  1.0000000000000003e-01  1.0000947992763436e-01  1.0000000000000003e-01  1.0000640999822384e-01  1.0000954097754118e-01  1.0001192848331969e-01  1.0001238288839019e-01  1.0001286042732281e-01  1.0001774223650248e-01  1.0001658658190703e-01  1.0001685336002049e-01  1.0002242245588014e-01  1.0002360427889201e-01  1.0001992961035688e-01  1.0004283800276005e-01  1.0003499112196869e-01  1.0003977783488618e-01  1.0005017756705664e-01  1.0004541829007996e-01  1.0004971641292418e-01  1.0006284500989107e-01  1.0005778982895977e-01  1.0006100175457738e-01  1.0007943946051746e-01  1.0006408731184614e-01  1.0008455115561661e-01  1.0007236905265855e-01  1.0010416269758786e-01  1.0004652264934318e-01  1.0017062042286247e-01  9.9946478486946405e-02  1.0036483345625494e-01  1.0011672398406864e-01  9.9457643522825503e-02  9.9717700694594250e-02  9.9941303982487212e-02  9.9926073313586064e-02  9.9879555720937416e-02  9.9942921690807332e-02  9.9907247804510602e-02  9.9915035846601469e-02  9.9924503005904455e-02  9.9923299944286462e-02  9.9920562835359938e-02  9.9930597152302333e-02  9.9929337531526788e-02  9.9930012908313201e-02  9.9935639713658306e-02  9.9936304385113126e-02  9.9936674475054388e-02  9.9940602111862412e-02  9.9941145612037666e-02  9.9942046072751256e-02  9.9944094694768226e-02  9.9945662783502143e-02  9.9944970113707482e-02  9.9949086208054677e-02  9.9945766675180486e-02  9.9953130958855829e-02  9.9942847722325492e-02  9.9964294611748425e-02  9.9925035843757906e-02  1.0000000000000003e-01  1.0001136187856799e-01  1.0000000000000003e-01  1.0000727600401552e-01  1.0001263541394641e-01  1.0001208456394355e-01  1.0001262112097675e-01  1.0001769259857361e-01  1.0001634681499426e-01  1.0001633519133432e-01  1.0002259537543487e-01  1.0001999243206589e-01  1.0001971004147235e-01  1.0003311719352327e-01  1.0002111863097422e-01  1.0003967363012159e-01  1.0004568304992942e-01  1.0004188778478394e-01  1.0004200912114680e-01  1.0005784896712529e-01  1.0004721292867971e-01  1.0005379854462811e-01  1.0006631580106959e-01  1.0006112521938247e-01  1.0005738113739218e-01  1.0008798237715288e-01  1.0004762041667706e-01  1.0010552920601333e-01  1.0002502898807265e-01  1.0017120285772349e-01  9.9910799885562826e-02  1.0038735644587615e-01  1.0012066233718636e-01  9.9331024882716168e-02  9.9812441767569177e-02  9.9982259524298164e-02  9.9809334204680050e-02  1.0000138849649694e-01  9.9907894342297979e-02  9.9932365791956093e-02  9.9937384025601789e-02  9.9938128845628832e-02  9.9928721780896596e-02  9.9945143579013143e-02  9.9940292744021747e-02  9.9940411763396617e-02  9.9947789548611513e-02  9.9948052528549075e-02  9.9947897088817531e-02  9.9953186809128763e-02  9.9953644338998213e-02  9.9953869255023808e-02  9.9957463684618220e-02  9.9957622663496920e-02  9.9959044930180166e-02  9.9959749407952159e-02  9.9963076314346186e-02  9.9959169676618581e-02  9.9968637918017578e-02  9.9955605973143249e-02  9.9979052718253761e-02  9.9942984904693763e-02  1.0000000000000003e-01  1.0001329455858192e-01  1.0000000000000003e-01  1.0000927250141042e-01  1.0001300318329578e-01  1.0001215625919058e-01  1.0001825792115010e-01  1.0001672277078688e-01  1.0001746709199201e-01  1.0002426625773510e-01  1.0002130386064680e-01  1.0002074857956665e-01  1.0003241040261342e-01  1.0002590692183173e-01  1.0003114747594559e-01  1.0003452317430532e-01  1.0004833532382137e-01  1.0004357466040759e-01  1.0006270151212082e-01  1.0005006375874594e-01  1.0005407792434851e-01  1.0007380809629682e-01  1.0005822741058158e-01  1.0006854565703371e-01  1.0007944628297853e-01  1.0007973569226725e-01  1.0005919255024129e-01  1.0012304750574863e-01  1.0002026871578125e-01  1.0019329695966925e-01  9.9895594460447129e-02  1.0045045273338754e-01  1.0023286434637796e-01  9.9241964835401167e-02  9.9757800953102299e-02  9.9921131138872771e-02  9.9891707917513936e-02  9.9888929124962361e-02  9.9918446012193504e-02  9.9922864287363564e-02  9.9932011786118422e-02  9.9905859356137355e-02  9.9936326881304313e-02  9.9925058080464590e-02  9.9924740440160337e-02  9.9935227867955292e-02  9.9934660578656548e-02  9.9933078299912312e-02  9.9941497433664234e-02  9.9941463657208379e-02  9.9941636803702730e-02  9.9946471945174004e-02  9.9947354408839090e-02  9.9947249984405559e-02  9.9951274942891785e-02  9.9950706752382476e-02  9.9953575563467484e-02  9.9951936428766819e-02  9.9959214041012406e-02  9.9948361753726955e-02  9.9970763515402461e-02  9.9933600030834790e-02  1.0000000000000003e-01  1.0001558722115510e-01  1.0000000000000003e-01  1.0000935208884006e-01  1.0001356205989523e-01  1.0001628421513407e-01  1.0001682550049486e-01  1.0001691867612846e-01  1.0002390342721662e-01  1.0002192643643565e-01  1.0002088600519088e-01  1.0003082351356779e-01  1.0002664499397003e-01  1.0002773673991508e-01  1.0003902304788898e-01  1.0003623873424669e-01  1.0002430205742192e-01  1.0006825699573434e-01  1.0004712109636210e-01  1.0005384918169316e-01  1.0007175697018277e-01  1.0005762761581029e-01  1.0005876385667581e-01  1.0008840596716681e-01  1.0005901677828258e-01  1.0008223751555606e-01  1.0007416192553623e-01  1.0010823071557282e-01  1.0001632029300778e-01  1.0021404707110106e-01  9.9858494399075806e-02  1.0050168207945460e-01  1.0022481095921094e-01  9.9265348845152784e-02  9.9704537451345734e-02  1.0001696729509583e-01  9.9868054318760197e-02  9.9894492000762725e-02  9.9885646642322606e-02  9.9963626716660897e-02  9.9889040826400918e-02  9.9952135076326942e-02  9.9923219689857165e-02  9.9925208487211939e-02  9.9937971438452622e-02  9.9937128576612827e-02  9.9932272268331748e-02  9.9944390694782337e-02  9.9942956311055167e-02  9.9942476850664680e-02  9.9949728894946438e-02  9.9949944996621631e-02  9.9950003217458852e-02  9.9954238732477663e-02  9.9955540416626534e-02  9.9954566618394206e-02  9.9959892479305493e-02  9.9956455896749147e-02  9.9964262300711343e-02  9.9953948122965416e-02  9.9975544221177132e-02  9.9940739612555299e-02  1.0000000000000003e-01  1.0001684195351696e-01  1.0000000000000003e-01  1.0000951295233286e-01  1.0001739042001893e-01  1.0001535879048296e-01  1.0001682575663250e-01  1.0002279861666731e-01  1.0002213356584506e-01  1.0002109368238307e-01  1.0003097224711821e-01  1.0002657331878338e-01  1.0002682253207229e-01  1.0004032146848799e-01  1.0003442929817843e-01  1.0003052812765099e-01  1.0005448383792639e-01  1.0002828477639342e-01  1.0005903050678272e-01  1.0007252865308980e-01  1.0005878188265482e-01  1.0006064966198458e-01  1.0008516512542813e-01  1.0006734576623255e-01  1.0006483282553878e-01  1.0010773077157778e-01  1.0005429139060122e-01  1.0011501410956626e-01  1.0003617161497357e-01  1.0020507424689408e-01  9.9851045006704719e-02  1.0055281990584197e-01  1.0020801640365239e-01  9.9206764906439163e-02  9.9758863079152119e-02  9.9993332998827483e-02  9.9830734719531938e-02  9.9938915929125058e-02  9.9900264168349059e-02  9.9856298616000927e-02  9.9962402461085315e-02  9.9911500325068764e-02  9.9922138873290892e-02  9.9929824718798396e-02  9.9933011037545039e-02  9.9922397588381853e-02  9.9939751006854483e-02  9.9936303784844790e-02  9.9934804097141450e-02  9.9943717289548054e-02  9.9944329932584799e-02  9.9943506296867324e-02  9.9950032370659525e-02  9.9950083939682924e-02  9.9950991735491240e-02  9.9953566862883023e-02  9.9956431620339917e-02  9.9953368554104860e-02  9.9962147317219405e-02  9.9951578933155358e-02  9.9972683252429390e-02  9.9938460411296864e-02  1.0000000000000003e-01  1.0001793742636972e-01  1.0000000000000003e-01  1.0001153282544974e-01  1.0001705323348876e-01  1.0001514179581068e-01  1.0002190155713996e-01  1.0002063968759334e-01  1.0002074560055352e-01  1.0002978908732375e-01  1.0002624099220535e-01  1.0002562793853287e-01  1.0003900661225545e-01  1.0003338912087556e-01  1.0003196542794773e-01  1.0005070314347868e-01  1.0003528505532279e-01  1.0004250608465062e-01  1.0004776667060795e-01  1.0006563135742488e-01  1.0005627208146253e-01  1.0009010627285807e-01  1.0006040359534542e-01  1.0007121580505957e-01  1.0009246602849364e-01  1.0008110864708961e-01  1.0005657368343442e-01  1.0014295464594429e-01  1.0000913848624066e-01  1.0021536427977379e-01  9.9855338036493047e-02  1.0056835071358811e-01  1.0027734773211197e-01  9.9144170046311791e-02  9.9730394441170531e-02  9.9965898596032707e-02  9.9882677667476119e-02  9.9937900912472927e-02  9.9865078569546240e-02  9.9928556974146390e-02  9.9880930044807956e-02  9.9937531273374930e-02  9.9921370445999205e-02  9.9941805605073278e-02  9.9914449032364877e-02  9.9942444387116483e-02  9.9934725184413098e-02  9.9932552618608395e-02  9.9943531246312917e-02  9.9943351769682803e-02  9.9941048705616389e-02  9.9949827670726382e-02  9.9950280153527180e-02  9.9949586119424963e-02  9.9955520494351718e-02  9.9954945026343667e-02  9.9957334746748477e-02  9.9956843437061016e-02  9.9963984788471960e-02  9.9953596103123071e-02  9.9974997876349045e-02  9.9941777670426765e-02  1.0000000000000003e-01  1.0001959588960430e-01  1.0000000000000003e-01  1.0001122753518703e-01  1.0001700083995313e-01  1.0001900435910159e-01  1.0002045241085875e-01  1.0001938845137710e-01  1.0002789498649112e-01  1.0002569539764133e-01  1.0002484445589299e-01  1.0003614992899038e-01  1.0003284079997916e-01  1.0003126938952679e-01  1.0004842265957618e-01  1.0003828359049602e-01  1.0003779641370091e-01  1.0005571485944281e-01  1.0004753828969504e-01  1.0002862110410382e-01  1.0009570198954856e-01  1.0006130567067602e-01  1.0006688418672660e-01  1.0010237062778704e-01  1.0006316470269484e-01  1.0008352565029205e-01  1.0009182371676993e-01  1.0011125516615636e-01  1.0001200544506600e-01  1.0024786126708284e-01  9.9822966093152402e-02  1.0059454065010420e-01  1.0028085927866939e-01  9.9157809996267263e-02  9.9691527471728561e-02  1.0001671447095832e-01  9.9868119621896539e-02  9.9903230594857603e-02  9.9914319868615445e-02  9.9914793597318211e-02  9.9885524207461954e-02  9.9895291704090228e-02  9.9956272160238002e-02  9.9900388930886957e-02  9.9947807285676066e-02  9.9928940228651536e-02  9.9928569836509079e-02  9.9940400654206063e-02  9.9941159123793033e-02  9.9935841073482690e-02  9.9947200964660865e-02  9.9946424840073683e-02  9.9945891244697022e-02  9.9952586487185857e-02  9.9953873993917877e-02  9.9952485764761956e-02  9.9958906924131063e-02  9.9956041092816444e-02  9.9962637649104263e-02  9.9954410772039232e-02  9.9974132226332696e-02  9.9941846436509649e-02  1.0000000000000003e-01  1.0002024270661317e-01  1.0000000000000003e-01  1.0001104870741682e-01  1.0002026987929909e-01  1.0001785825981084e-01  1.0001958114376620e-01  1.0002549123426344e-01  1.0002484959004791e-01  1.0002378251299557e-01  1.0003408200542456e-01  1.0003091652102376e-01  1.0002963450104690e-01  1.0004595124657069e-01  1.0003868876073144e-01  1.0003622059761084e-01  1.0005624241857394e-01  1.0004473567136145e-01  1.0003647824777616e-01  1.0007444914628441e-01  1.0003043343494990e-01  1.0007512569409360e-01  1.0009545881897587e-01  1.0007364451940215e-01  1.0006543741995501e-01  1.0012292177531260e-01  1.0005292079720414e-01  1.0011412050373872e-01  1.0004982737723597e-01  1.0021434676624788e-01  9.9821306392457843e-02  1.0063796641541745e-01  1.0026555573993598e-01  9.9133634486979233e-02  9.9725067186591382e-02  1.0001211551580215e-01  9.9835398184406843e-02  9.9948236154025871e-02  9.9905569179365314e-02  9.9896989843230130e-02  9.9914918743431183e-02  9.9920279208196475e-02  9.9870824754347651e-02  9.9964313124084658e-02  9.9921120046891840e-02  9.9932624406244883e-02  9.9936596356943158e-02  9.9942386980193879e-02  9.9932214751496815e-02  9.9947297009466751e-02  9.9945445033357394e-02  9.9943057389405204e-02  9.9951510745409172e-02  9.9952221044252804e-02  9.9952082079750496e-02  9.9956718462800770e-02  9.9959316512196583e-02  9.9956199068515134e-02  9.9965200013803671e-02  9.9955698807752721e-02  9.9974811945259340e-02  9.9944282494903530e-02  1.0000000000000003e-01  1.0002074869688575e-01  1.0000000000000003e-01  1.0001257300677482e-01  1.0001959259320781e-01  1.0001698999800049e-01  1.0002410249742311e-01  1.0002295572143426e-01  1.0002303638689743e-01  1.0003143624738292e-01  1.0002924770571206e-01  1.0002750558516431e-01  1.0004206796801102e-01  1.0003697768229508e-01  1.0003526502820508e-01  1.0005396365912557e-01  1.0004336594098066e-01  1.0003906054448321e-01  1.0006693884905493e-01  1.0004228516688603e-01  1.0004979050007815e-01  1.0006251174120982e-01  1.0007746826180242e-01  1.0006951988802500e-01  1.0011106443473967e-01  1.0007875240472000e-01  1.0005823243733393e-01  1.0015757434621707e-01  1.0000812759137866e-01  1.0021351187179314e-01  9.9862692063075451e-02  1.0060624659627330e-01  1.0030741436826757e-01  9.9091330266921990e-02  9.9718279401656743e-02  9.9986597054207926e-02  9.9870861444907644e-02  9.9942851764284052e-02  9.9878279814072296e-02  9.9929568491288284e-02  9.9918991794440470e-02  9.9894042054953461e-02  9.9925086735381169e-02  9.9897646226036210e-02  9.9944016076268447e-02  9.9928757551788344e-02  9.9948295546396698e-02  9.9925486993008572e-02  9.9948054174467241e-02  9.9943331870013183e-02  9.9940752408552130e-02  9.9950053379366799e-02  9.9950560109595382e-02  9.9947890489824900e-02  9.9956411335187914e-02  9.9955978028089837e-02  9.9957623764370854e-02  9.9958778648974553e-02  9.9965138402930948e-02  9.9955714015072070e-02  9.9975548310491894e-02  9.9945395538080600e-02  1.0000000000000003e-01  1.0002190136031418e-01  1.0000000000000003e-01  1.0001219359839963e-01  1.0001912900937246e-01  1.0002026805688982e-01  1.0002253315195279e-01  1.0002126789353886e-01  1.0002936146778058e-01  1.0002786529246639e-01  1.0002625085285838e-01  1.0003767848038210e-01  1.0003505857048306e-01  1.0003312347284289e-01  1.0005002797631789e-01  1.0004320351412470e-01  1.0003829661321183e-01  1.0006276238816311e-01  1.0004629262666966e-01  1.0004386973490856e-01  1.0007027172917801e-01  1.0005640251043513e-01  1.0002623153087059e-01  1.0012628813061365e-01  1.0006223661475550e-01  1.0008620333827248e-01  1.0010798825093498e-01  1.0010470897874661e-01  1.0001122401770188e-01  1.0026193144296755e-01  9.9820455929832658e-02  1.0060142188659463e-01  1.0032162960092104e-01  9.9108366428314429e-02  9.9687616663524686e-02  1.0002006141817933e-01  9.9869456123312064e-02  9.9916531031022951e-02  9.9910058897891382e-02  9.9929701406040849e-02  9.9893537204404637e-02  9.9930573069791820e-02  9.9920229035812755e-02  9.9907210368345545e-02  9.9905800203721737e-02  9.9963770434733160e-02  9.9916093050360769e-02  9.9954417694021511e-02  9.9940448985194247e-02  9.9939984816735702e-02  9.9949270438877483e-02  9.9950804067740456e-02  9.9946199319419796e-02  9.9954900148660139e-02  9.9955480606411240e-02  9.9954003190923971e-02  9.9961543444935838e-02  9.9959378610316674e-02  9.9964757150939706e-02  9.9958489727939040e-02  9.9976084854647887e-02  9.9947207148016110e-02  1.0000000000000003e-01  1.0002212627244367e-01  1.0000000000000003e-01  1.0001173930562432e-01  1.0002161309641749e-01  1.0001896950288573e-01  1.0002121911545116e-01  1.0002623430774381e-01  1.0002646736801601e-01  1.0002517236052583e-01  1.0003469320922141e-01  1.0003223347962339e-01  1.0003084714301989e-01  1.0004562033423724e-01  1.0004121497700078e-01  1.0003680278686611e-01  1.0005828596839940e-01  1.0004752011072690e-01  1.0004098554271443e-01  1.0007027726702450e-01  1.0005168298353277e-01  1.0003909758980221e-01  1.0009211682373609e-01  1.0003144549347560e-01  1.0007941798556710e-01  1