<?xml version="1.0"?>
<VTKFile type="UnstructuredGrid"  version="0.1"  >
<UnstructuredGrid>
<Piece  NumberOfPoints="1933" NumberOfCells="3640">
<Points>
<DataArray  type="Float64"  NumberOfComponents="3"  format="ascii">0.000297695560689315 -0.002769296699189919 0  5.000297745383842 -0.002694683060996803 0  5.000185797242942 7.497305427246652 0  0.0001857348183678664 7.49723079479653 0  10.00029783366264 -0.00262014733206314 0  10.00018589686458 7.497379962469693 0  15.00029800195505 -0.002545668358267781 0  15.00018604628626 7.497454435968361 0  20.00029828162697 -0.002471201000850537 0  20.00018625429676 7.497528897435082 0  25.00029869323849 -0.002396688871633491 0  25.00018652581914 7.497603404544921 0  30.00029924821215 -0.00232206985198032 0  30.00018686146057 7.497678019587747 0  35.00029995064384 -0.002247278191209616 0  35.00018725716937 7.497752808123818 0  40.00030079865723 -0.00217224486157595 0  40.0001877039418 7.497827838893783 0  45.00030178519547 -0.002096896960901073 0  45.00018818744697 7.497903184499404 0  50.00030289828231 -0.002021156534619334 0  50.00018868745499 7.497978922594361 0  55.00030412079734 -0.00194493897156705 0  55.00018917697484 7.498055137471251 0  60.0003054297796 -0.00186815100368327 0  60.00018962101235 7.498131922026576 0  65.00030679523078 -0.001790688257434273 0  65.00018997483917 7.49820938015415 0  70.00030817832175 -0.00171243223626999 0  70.00019018163258 7.498287629675909 0  75.00030952883554 -0.00163324654069232 0  75.00019016928917 7.498366805977894 0  80.00031078155327 -0.001552972040140072 0  80.00018984613477 7.498447066589416 0  85.00031185111595 -0.001471420582144752 0  85.00018909514881 7.498528597029066 0  90.00031262458853 -0.001388366637608025 0  90.00018776617321 7.498611618345954 0  95.00031295045548 -0.001303536008191905 0  95.00018566540001 7.498696396899028 0  100.0003126218862 -0.001216590327170647 0  100.0001825412585 7.498783257005178 0  105.0003113505563 -0.00112710553499137 0  105.0001780657126 7.498872597046387 0  110.0003087244759 -0.001034541806149758 0  110.0001718102076 7.498964909198216 0  115.0003041381321 -0.0009382016837891182 0  115.0001632166153 7.499060801526992 0  120.0002966737446 -0.0008371730115533092 0  120.0001515668358 7.499161017441115 0  125.0002848948427 -0.0007302554511571452 0  125.0001359631348 7.499266438429035 0  130.0002664807104 -0.0006158793135538887 0  130.0001153509841 7.499378035524071 0  135.0002375695975 -0.0004920591468003225 0  135.0000886601138 7.499496691135883 0  140.0001915652344 -0.0003565331717714784 0  140.0000552344657 7.499622727407386 0  145.0001169421681 -0.0002076070933613195 0  145.0000159253933 7.499754847940943 0  149.9999931084366 -4.761015331333207e-05 0  149.9999756784928 7.499888223321178 0  159.9999999999992 9.57172618748963e-19 0  164.9999949501969 -5.75882785207009e-05 0  165.0000006411444 7.499926603105746 0  159.9999938305095 7.499963560673426 0  170.0000114153575 -8.038014330641494e-05 0  170.0000071308288 7.499912043358581 0  175.0000356966292 -7.915378086511597e-05 0  175.000015696268 7.499917061844933 0  180.0000616666747 -6.070386737861935e-05 0  180.000026062825 7.499937392758554 0  185.0000866375404 -2.969392797409565e-05 0  185.0000374312812 7.499969370101192 0  190.0001095300012 1.05948017655047e-05 0  190.000049077624 7.500010165845811 0  195.0001300166549 5.782525730765099e-05 0  195.0000604808733 7.500057664725472 0  200.0001481118523 0.0001103127731139436 0  200.00007130974 7.500110294771391 0  205.0001639746195 0.0001668262500552855 0  205.0000813764511 7.500166883399759 0  210.0001778147729 0.0002264526321267954 0  210.0000905919875 7.500226548428669 0  215.0001898493123 0.0002885044499068717 0  215.0000989313302 7.500288618922765 0  220.0002002832753 0.0003524563734942234 0  220.0001064088838 7.500352578545412 0  225.0002093023899 0.000417901219961253 0  225.0001130619598 7.500418025089227 0  230.0002170713229 0.0004845190380357908 0  230.0001189400544 7.500484641409011 0  235.0002237344761 0.0005520550527351599 0  235.0001240981005 7.500552174349128 0  240.0002294178592 0.0006203036853568917 0  240.000128592362 7.500620419294619 0  245.0002342313422 0.0006890968032832077 0  245.0001324780694 7.500689208714337 0  250.0002382709665 0.0007582949688629671 0  250.0001358081849 7.500758403576201 0  255.0002416211975 0.0008277808626531295 0  255.0001386329062 7.500827886868373 0  260.0002443570774 0.0008974543301788886 0  260.0001409996395 7.500897558705436 0  265.000246546307 0.0009672286936350851 0  265.000142953277 7.500967332675486 0  270.0002482512729 0.001037028115007285 0  270.0001445366602 7.501037133217405 0  275.0002495310771 0.001106785920104265 0  275.0001457911304 7.501106893929013 0  280.0002504435755 0.001176443915270271 0  280.000146757097 7.501176556810123 0  285.0002510474188 0.001245952871201666 0  285.0001474745331 7.501246072552784 0  290.0002514039388 0.001315274535069297 0  290.0001479833018 7.501315402110488 0  295.0002515785525 0.001384385786128489 0  295.0001483232531 7.501384519908934 0  300.0002516408088 0.001453285869125861 0  300.0001485340814 7.501453419185608 0  305.0002516612553 0.001522007872107866 0  305.0001486553069 7.501522120039541 0  310.0002517011463 0.001590634867534653 0  310.0001487275974 7.501590680978701 0  5.000073689121655 14.997305651735 0  7.362957976964069e-05 14.9972310148417 0  10.00007376296365 14.9973801584412 0  15.000073856046 14.9974545969771 0  20.00007396740047 14.99752902598196 0  25.00007409273676 14.99760350507764 0  30.00007422486555 14.99767809590729 0  35.00007435333924 14.99775286254241 0  40.00007446382597 14.99782787202572 0  45.00007453736454 14.99790319521733 0  50.00007454950671 14.99797890795137 0  55.0000744693038 14.998055092491 0  60.00007425807547 14.99813183929015 0  65.00007386789862 14.99820924909837 0  70.00007323974687 14.99828743547143 0  75.00007230122421 14.99836652777348 0  80.00007096384829 14.9984466747683 0  85.0000691198928 14.99852804888972 0  90.00006663890296 14.99861085122838 0  95.00006336422776 14.99869531712114 0  100.0000591103351 14.99878172188096 0  105.0000536624998 14.99887038545766 0  110.0000467818696 14.9989616733026 0  115.0000382213869 14.9990559877415 0  120.0000277619835 14.99915373854212 0  125.0000152843034 14.99925527112916 0  130.0000008984636 14.99936071314707 0  134.9999851596738 14.99946967149023 0  139.9999693893049 14.99958067126781 0  144.9999560660483 14.99969018063417 0  149.9999490604341 14.99979100206539 0  164.9999769224968 14.99988279786197 0  159.999971031913 14.99988369608774 0  169.999979007361 14.9998888948667 0  174.9999803094617 14.99990511373564 0  179.9999821883249 14.99993142934248 0  184.9999850118363 14.99996658738857 0  189.9999886974568 15.00000906305497 0  194.9999930060322 15.00005743746467 0  199.9999976787081 15.00011051090662 0  205.0000024914054 15.00016731062358 0  210.0000072699713 15.00022706231473 0  215.0000118884269 15.00028915365523 0  220.0000162611994 15.00035310034824 0  225.0000203342575 15.00041851779367 0  230.0000240771205 15.00048509855702 0  235.0000274763593 15.00055259484711 0  240.0000305305819 15.00062080501576 0  245.0000332467068 15.0006895631829 0  250.0000356372655 15.0007587312603 0  255.0000377184901 15.00082819281623 0  260.0000395089872 15.00089784837113 0  265.0000410288306 15.00096761183188 0  270.0000422989515 15.00103740787027 0  275.0000433407299 15.00110717012845 0  280.0000441757065 15.00117684019853 0  285.0000448254157 15.00124636737211 0  290.0000453113257 15.00131570917794 0  295.0000456550644 15.00138483269576 0  300.0000458792239 15.0014537165 0  305.0000460094254 15.00152235274391 0  310.0000460788474 15.00159074816088 0  4.999961573141659 22.49730603270372 0  -3.848091668184894e-05 22.49723146755377 0  9.999961622282543 22.49738045995851 0  14.99996166341253 22.49745482114661 0  19.99996169047608 22.4975291793945 0  24.99996169501457 22.49760359463346 0  29.99996166638861 22.49767812655064 0  34.99996159156348 22.49775283621453 0  39.9999614546325 22.497827787187 0  44.99996123620953 22.49790304652218 0  49.99996091275714 22.49797868582788 0  54.99996045587349 22.4980547824593 0  59.99995983155009 22.49813142087372 0  64.99995899941813 22.49820869415571 0  69.99995791202781 22.49828670570634 0  74.99995651425304 22.49836557106474 0  79.99995474299266 22.49844541977672 0  84.99995252746528 22.49852639712497 0  89.99994979059761 22.49860866534933 0  94.99994645231007 22.49869240365548 0  99.99994243595923 22.49877780573307 0  104.9999376798409 22.49886507252837 0  109.9999321564955 22.49895439640024 0  114.9999259034992 22.49904593022531 0  119.9999190700976 22.49913973117104 0  124.9999119835492 22.49923566364023 0  129.9999052353407 22.49933324022668 0  134.9998997766464 22.49943137732955 0  139.9998969881088 22.4995280550566 0  144.999898643459 22.49961993016202 0  149.999906620057 22.49970213841643 0  164.9999292348483 22.49983217615491 0  159.9999256311808 22.49980780804258 0  169.9999294457598 22.49985708211307 0  174.9999278911951 22.49988599664247 0  179.9999258503238 22.49992041791503 0  184.999924080691 22.49996058572485 0  189.9999229257586 22.50000609002804 0  194.9999224697644 22.50005625982487 0  199.9999226590569 22.50011037278502 0  204.9999233799439 22.50016775332561 0  209.999924503018 22.50022780981623 0  214.9999259057246 22.50029004157001 0  219.9999274821091 22.50035403239112 0  224.9999291455784 22.50041943923721 0  229.9999308281787 22.50048598007342 0  234.9999324783757 22.50055342266755 0  239.999934058386 22.50062157493431 0  244.9999355415802 22.50069027690618 0  249.9999369101739 22.50075939419211 0  254.9999381532831 22.500828812717 0  259.999939265315 22.50089843453665 0  264.9999402446764 22.50096817454824 0  269.9999410927311 22.5010379579513 0  274.9999418129835 22.50110771834292 0  279.9999424104627 22.50117739634803 0  284.9999428913308 22.50124693867907 0  289.9999432627922 22.50131629747204 0  294.9999435334661 22.50138542963029 0  299.9999437144705 22
[...]
<PointData  Scalars="p"> 
<DataArray  type="Float64"  Name="p"  format="ascii">1.0000000000000001e-01  1.0000000000000003e-01  9.9996101369996176e-02  1.0000000000000003e-01  1.0000000000000003e-01  9.9995467704821539e-02  1.0000000000000003e-01  9.9993155710006151e-02  1.0000000000000003e-01  9.9991981731579416e-02  1.0000000000000003e-01  9.9990315169595639e-02  1.0000000000000003e-01  9.9987577707423753e-02  1.0000000000000003e-01  9.9986353115992493e-02  1.0000000000000003e-01  9.9984476751224238e-02  1.0000000000000003e-01  9.9981389510537741e-02  1.0000000000000003e-01  9.9980933156566212e-02  1.0000000000000003e-01  9.9973275595777469e-02  1.0000000000000003e-01  9.9969049200729659e-02  1.0000000000000003e-01  9.9964528747696901e-02  1.0000000000000003e-01  9.9960885340337646e-02  1.0000000000000003e-01  9.9953508374330868e-02  1.0000000000000003e-01  9.9950525191092335e-02  1.0000000000000003e-01  9.9945098187307554e-02  1.0000000000000003e-01  9.9936770171088374e-02  1.0000000000000003e-01  9.9934304281411035e-02  1.0000000000000003e-01  9.9926007138995382e-02  1.0000000000000003e-01  9.9920952037399979e-02  1.0000000000000003e-01  9.9911891029632161e-02  1.0000000000000003e-01  9.9914022613322148e-02  1.0000000000000003e-01  9.9891348510634054e-02  1.0000000000000003e-01  9.9912113462812049e-02  1.0000000000000003e-01  9.9865840787893193e-02  1.0000000000000003e-01  9.9918416079701797e-02  1.0000000000000003e-01  9.9830592169023250e-02  1.0000000000000003e-01  9.9935654379413638e-02  1.0000000000000001e-01  9.9770846505517791e-02  1.0000000000000001e-01  1.0000000000000003e-01  1.0018602479761718e-01  1.0038243067476325e-01  1.0000000000000003e-01  1.0005421647490678e-01  1.0000000000000003e-01  1.0014695613061479e-01  1.0000000000000003e-01  1.0009711351453499e-01  1.0000000000000003e-01  1.0011209318487234e-01  1.0000000000000003e-01  1.0009924037415113e-01  1.0000000000000003e-01  1.0010533680455791e-01  1.0000000000000003e-01  1.0009447622127404e-01  1.0000000000000003e-01  1.0009611621728071e-01  1.0000000000000003e-01  1.0009245637929441e-01  1.0000000000000003e-01  1.0008928530375227e-01  1.0000000000000003e-01  1.0008695911763844e-01  1.0000000000000003e-01  1.0008541704459531e-01  1.0000000000000003e-01  1.0008220643955162e-01  1.0000000000000003e-01  1.0008069597514324e-01  1.0000000000000003e-01  1.0007904712793088e-01  1.0000000000000003e-01  1.0007700159096418e-01  1.0000000000000003e-01  1.0007550203334045e-01  1.0000000000000003e-01  1.0007451389498993e-01  1.0000000000000003e-01  1.0007257322819535e-01  1.0000000000000003e-01  1.0007216356572816e-01  1.0000000000000003e-01  1.0007006460903679e-01  1.0000000000000003e-01  1.0007086749660316e-01  1.0000000000000003e-01  1.0006667854790652e-01  1.0000000000000003e-01  1.0007171885140205e-01  1.0000000000000003e-01  1.0006097073111492e-01  1.0000000000000003e-01  1.0007699773641181e-01  1.0000000000000003e-01  1.0004862393522093e-01  1.0000000000000003e-01  1.0009713045734954e-01  1.0000000000000001e-01  1.0000000000000003e-01  9.9993581059577702e-02  1.0000000000000003e-01  9.9993639653708152e-02  9.9993181859948668e-02  9.9992295232041492e-02  9.9989980400875644e-02  9.9990150636721051e-02  9.9989715945277599e-02  9.9986366846155278e-02  9.9987916687305944e-02  9.9986576254728565e-02  9.9983518158096349e-02  9.9975620169881443e-02  9.9977906379383266e-02  9.9969368178781562e-02  9.9973110453591876e-02  9.9969817611812381e-02  9.9963104884658704e-02  9.9965013889122392e-02  9.9962808769179790e-02  9.9952753242775375e-02  9.9959058921716457e-02  9.9950228550092335e-02  9.9951019947823933e-02  9.9940779426269749e-02  9.9959907781596302e-02  9.9913955011043318e-02  9.9989027730466876e-02  9.9858252723191432e-02  1.0005779784475323e-01  9.9767488708270430e-02  9.9838389558696561e-02  1.0058601208339073e-01  1.0017588439434345e-01  1.0002789656748566e-01  1.0005170597329964e-01  1.0004157631170091e-01  1.0006177225101205e-01  1.0003805680125531e-01  1.0004976044028059e-01  1.0004680765727179e-01  1.0004209500226686e-01  1.0004186822298651e-01  1.0004245498928037e-01  1.0003756259453107e-01  1.0003746889778903e-01  1.0003692023061304e-01  1.0003407884671746e-01  1.0003352703616697e-01  1.0003298282018110e-01  1.0003121999904281e-01  1.0003034834898956e-01  1.0003035625230339e-01  1.0002814692421060e-01  1.0002911771260423e-01  1.0002604696148046e-01  1.0002953214915716e-01  1.0002127635394775e-01  1.0003484049731978e-01  1.0001012527492052e-01  1.0004736317120887e-01  1.0000000000000003e-01  9.9990520813760309e-02  1.0000000000000003e-01  9.9993590259686446e-02  9.9990459208656748e-02  9.9988071924167643e-02  9.9987617233995046e-02  9.9987139439974726e-02  9.9982258181201461e-02  9.9983413308632224e-02  9.9983146201820167e-02  9.9977577671456638e-02  9.9976395690325792e-02  9.9980068655410440e-02  9.9957164177502583e-02  9.9965008361872817e-02  9.9960221887592418e-02  9.9949823320561890e-02  9.9954581187002803e-02  9.9950282945364538e-02  9.9937156302721902e-02  9.9942209634800300e-02  9.9938997721648701e-02  9.9920562212444886e-02  9.9935912135940760e-02  9.9915448714751137e-02  9.9927632087030843e-02  9.9895837486409178e-02  9.9953475995256863e-02  9.9829381376399698e-02  1.0005351976011895e-01  9.9635165267629180e-02  9.9883274269699396e-02  1.0054234218449497e-01  1.0028229162842786e-01  1.0005869147000319e-01  1.0007392253341556e-01  1.0012043884321345e-01  1.0005707372671907e-01  1.0009274743331965e-01  1.0008495945632223e-01  1.0007549239789745e-01  1.0007669585031290e-01  1.0007943286660430e-01  1.0006939867293917e-01  1.0007065861361220e-01  1.0006998324339511e-01  1.0006435655323775e-01  1.0006369213766632e-01  1.0006332204964315e-01  1.0005939452991001e-01  1.0005885121655160e-01  1.0005795081005471e-01  1.0005590227695006e-01  1.0005433437955542e-01  1.0005502705299318e-01  1.0005091117630577e-01  1.0005423065153335e-01  1.0004686674876585e-01  1.0005714958437660e-01  1.0003570371458619e-01  1.0007496081475147e-01  1.0000000000000003e-01  9.9988639086882894e-02  1.0000000000000003e-01  9.9992724339329639e-02  9.9987365437344017e-02  9.9987915934537874e-02  9.9987379191321349e-02  9.9982308370099485e-02  9.9983653677981330e-02  9.9983665034397831e-02  9.9977405738718592e-02  9.9980007952563357e-02  9.9980289854657303e-02  9.9966884861326974e-02  9.9978880236776105e-02  9.9960328523197708e-02  9.9954318981696488e-02  9.9958113158484740e-02  9.9957991174437655e-02  9.9942153859468169e-02  9.9952787606591278e-02  9.9946202285245256e-02  9.9933687428647305e-02  9.9938875863051377e-02  9.9942619733513025e-02  9.9912021607936274e-02  9.9952380256352613e-02  9.9894472785123686e-02  9.9974973025200614e-02  9.9828799931752352e-02  1.0008919801481371e-01  9.9612648792644365e-02  9.9879336047523581e-02  1.0066895633462447e-01  1.0018755034092128e-01  1.0001773583225296e-01  1.0019065860326262e-01  9.9998607385614557e-02  1.0009210029943119e-01  1.0006762921430208e-01  1.0006261091008446e-01  1.0006186678242307e-01  1.0007127363244317e-01  1.0005485209810867e-01  1.0005970334993511e-01  1.0005958426297162e-01  1.0005220665753439e-01  1.0005194407058332e-01  1.0005209950771086e-01  1.0004680994077179e-01  1.0004635268415106e-01  1.0004612780299553e-01  1.0004253352862599e-01  1.0004237474559473e-01  1.0004095259564717e-01  1.0004024819295224e-01  1.0003692157864667e-01  1.0004082811365778e-01  1.0003136036838130e-01  1.0004439184437403e-01  1.0002094621984904e-01  1.0005701252928741e-01  1.0000000000000003e-01  9.9986706620469670e-02  1.0000000000000003e-01  9.9990728224737188e-02  9.9986997685131709e-02  9.9987844274516985e-02  9.9981743247321619e-02  9.9983277947366764e-02  9.9982533406670793e-02  9.9975735247388162e-02  9.9978696841190470e-02  9.9979251670549940e-02  9.9967591722721030e-02  9.9974093499136135e-02  9.9968853569132043e-02  9.9965477376912484e-02  9.9951667845318184e-02  9.9956426041400398e-02  9.9937302398748665e-02  9.9949937124139424e-02  9.9945923272072676e-02  9.9926196128551303e-02  9.9941773886865440e-02  9.9931456039297192e-02  9.9920558452883348e-02  9.9920266539770486e-02  9.9940808660788819e-02  9.9876958722690701e-02  9.9979731296012259e-02  9.9806707938619885e-02  1.0010440448903406e-01  9.9549555896383091e-02  9.9767134736573906e-02  1.0075801029764242e-01  1.0024218918262541e-01  1.0007886234058667e-01  1.0010828434166194e-01  1.0011106400837576e-01  1.0008154801200983e-01  1.0007712905185767e-01  1.0006798265414905e-01  1.0009413454210422e-01  1.0006366750533451e-01  1.0007493680002151e-01  1.0007525439889077e-01  1.0006476718573151e-01  1.0006533493323679e-01  1.0006691719688190e-01  1.0005849831641406e-01  1.0005853247343077e-01  1.0005835936101291e-01  1.0005352439183714e-01  1.0005264224295576e-01  1.0005274671751424e-01  1.0004872197595455e-01  1.0004929034582384e-01  1.0004642174947949e-01  1.0004806088996258e-01  1.0004078376130944e-01  1.0005163566431753e-01  1.0002923500292119e-01  1.0006639696041135e-01  1.0000000000000003e-01  9.9984414294447432e-02  1.0000000000000003e-01  9.9990648631657589e-02  9.9986438864686944e-02  9.9983717080690662e-02  9.9983175566156893e-02  9.9983082044466001e-02  9.9976098345728681e-02  9.9978074738417383e-02  9.9979114706903752e-02  9.9969178764338223e-02  9.9973356243424433e-02  9.9972264361370744e-02  9.9960979653851936e-02  9.9963763307158116e-02  9.9975696529905594e-02  9.9931749968979480e-02  9.9952880451645507e-02  9.9946153072002622e-02  9.9928248211301487e-02  9.9942374514764593e-02  9.9941238168511401e-02  9.9911600727754929e-02  9.9940985435879509e-02  9.9917765777303894e-02  9.9925844330313165e-02  9.9891773815205850e-02  9.9983680133784267e-02  9.9785963898158941e-02  1.0014150072414195e-01  9.9498332415747862e-02  9.9775190356211824e-02  1.0073461947255018e-01  1.0029544964605908e-01  9.9983026107821865e-02  1.0013193754971718e-01  1.0010550010112297e-01  1.0011434494625004e-01  1.0003636786219602e-01  1.0011095187302027e-01  1.0004785866568432e-01  1.0007677449695569e-01  1.0007478568127075e-01  1.0006202292024226e-01  1.0006286654745732e-01  1.0006772273314146e-01  1.0005560449716097e-01  1.0005703945414017e-01  1.0005751895032722e-01  1.0005026712133291e-01  1.0005005144361885e-01  1.0004999327101677e-01  1.0004575794396528e-01  1.0004445661920186e-01  1.0004543045975935e-01  1.0004010491125298e-01  1.0004354156097948e-01  1.0003573562320532e-01  1.0004604944919218e-01  1.0002445447949522e-01  1.0005925766084171e-01  1.0000000000000003e-01  9.9983159720112708e-02  1.0000000000000003e-01  9.9990487785342516e-02  9.9982611174811040e-02  9.9984642378891139e-02  9.9983175283903894e-02  9.9977203298129147e-02  9.9977867842587220e-02  9.9978907341560813e-02  9.9969030299457057e-02  9.9973428184842089e-02  9.9973178729471535e-02  9.9959681919704821e-02  9.9965572785907883e-02  9.9969472711323573e-02  9.9945521359600775e-02  9.9971714329602362e-02  9.9940974626473320e-02  9.9927477206897694e-02  9.9941221316235201e-02  9.9939352889366589e-02  9.9914842244932869e-02  9.9932657377975187e-02  9.9935170323489655e-02  9.9892278283988251e-02  9.9945711398724532e-02  9.9884991692824499e-02  9.9963833819376818e-02  9.9794935409037555e-02  1.0014894866061218e-01  9.9447204167114722e-02  9.9791985478714124e-02  1.0079319776151002e-01  1.0024112110848152e-01  1.0000666086193760e-01  1.0016925488323009e-01  1.0006107528525854e-01  1.0009972781178304e-01  1.0014369233955449e-01  1.0003759061117455e-01  1.0008849268189718e-01  1.0007785430373656e-01  1.0007016843380544e-01  1.0006698322976076e-01  1.0007759641554458e-01  1.0006024334524083e-01  1.0006369125728237e-01  1.0006519082738975e-01  1.0005627791824907e-01  1.0005566588786655e-01  1.0005648953694687e-01  1.0004996372678257e-01  1.0004991254000413e-01  1.0004900487187965e-01  1.0004642991804810e-01  1.0004356557895291e-01  1.0004662862543154e-01  1.0003785038199910e-01  1.0004841849557382e-01  1.0002731526754431e-01  1.0006153671454185e-01  1.0000000000000003e-01  9.9982064406368587e-02  1.0000000000000003e-01  9.9988468282084589e-02  9.9982948295685645e-02  9.9984859327651610e-02  9.9978100459438501e-02  9.9979361905550942e-02  9.9979255712497231e-02  9.9970213551781401e-02  9.9973760820066329e-02  9.9974373462055996e-02  9.9960996995181198e-02  9.9966613188631842e-02  9.9968036270741453e-02  9.9949301837253604e-02  9.9964716699159253e-02  9.9957496950982688e-02  9.9952236027154459e-02  9.9934375271137049e-02  9.9943730886497786e-02  9.9909902647781879e-02  9.9939599657825298e-02  9.9928788467133947e-02  9.9907543260008946e-02  9.9918896347258063e-02  9.9943429850412047e-02  9.9857058127102272e-02  9.9990862712282372e-02  9.9784647612160646e-02  1.0014465904492717e-01  9.9431675871404696e-02  9.9722655618791872e-02  1.0085578263976762e-01  1.0026958888456305e-01  1.0003409377608799e-01  1.0011731026896642e-01  1.0006209110784751e-01  1.0013491156002535e-01  1.0007143376298405e-01  1.0011906145860994e-01  1.0006246165179826e-01  1.0007862150254532e-01  1.0005818811977973e-01  1.0008554401713601e-01  1.0005754922208245e-01  1.0006526924328610e-01  1.0006744173002384e-01  1.0005646339912855e-01  1.0005664348905006e-01  1.0005894656188744e-01  1.0005016795841828e-01  1.0004971600010389e-01  1.0005041008939426e-01  1.0004447600611573e-01  1.0004505181270559e-01  1.0004266232254165e-01  1.0004315371973241e-01  1.0003601296453203e-01  1.0004640132586701e-01  1.0002500068155851e-01  1.0005821956656713e-01  1.0000000000000003e-01  9.9980406221962317e-02  1.0000000000000003e-01  9.9988773530694935e-02  9.9983000668549704e-02  9.9980997505845479e-02  9.9979549380848853e-02  9.9980612973501901e-02  9.9972107706614646e-02  9.9974306700252827e-02  9.9975157117561109e-02  9.9963853520360302e-02  9.9967161792996709e-02  9.9968732604384158e-02  9.9951582241356585e-02  9.9961719215117484e-02  9.9962206169818074e-02  9.9944290623199580e-02  9.9952465900822379e-02  9.9971377969493486e-02  9.9904310493845822e-02  9.9938698314866639e-02  9.9933120773507425e-02  9.9897640023194470e-02  9.9936839708756817e-02  9.9916480115915293e-02  9.9908187365204612e-02  9.9888752753816493e-02  9.9987995981713457e-02  9.9752159160996307e-02  1.0017702461571858e-01  9.9405491581693095e-02  9.9719149789386993e-02  1.0084213174063197e-01  1.0030845135246570e-01  9.9983276823434095e-02  1.0013186884886728e-01  1.0009675933331244e-01  1.0008566916223120e-01  1.0008519783743315e-01  1.0011446616126128e-01  1.0010469848904074e-01  1.0004372143216883e-01  1.0009960289586534e-01  1.0005218545096278e-01  1.0007105337261742e-01  1.0007142370732938e-01  1.0005959313340961e-01  1.0005883563039406e-01  1.0006415356017817e-01  1.0005279389363786e-01  1.0005357072682174e-01  1.0005410443465812e-01  1.0004740946077416e-01  1.0004612250612335e-01  1.0004751077138653e-01  1.0004108998324691e-01  1.0004395603017374e-01  1.0003735993260501e-01  1.0004558657402896e-01  1.0002586627557315e-01  1.0005815075028443e-01  1.0000000000000003e-01  9.9979759521297992e-02  1.0000000000000003e-01  9.9988952344347820e-02  9.9979732247812730e-02  9.9982143440628585e-02  9.9980420532421205e-02  9.9974511376750633e-02  9.9975152669743980e-02  9.9976219345428455e-02  9.9965921496576654e-02  9.9969086080142197e-02  9.9970367666961296e-02  9.9954053608867305e-02  9.9961314548037639e-02  9.9963782057008510e-02  9.9943763715575076e-02  9.9955268366312355e-02  9.9963523864386478e-02  9.9925560182609105e-02  9.9969566348532241e-02  9.9924883202537215e-02  9.9904552022142670e-02  9.9926361819788909e-02  9.9934567573834843e-02  9.9877092533463108e-02  9.9947083606610129e-02  9.9885888729943875e-02  9.9950182098150722e-02  9.9785669218512368e-02  1.0017868289734035e-01  9.9362078088516201e-02  9.9734454922154644e-02  1.0086630086365982e-01  1.0027490706538120e-01  9.9987878569008856e-02  1.0016458732873731e-01  1.0005175243685661e-01  1.0009442088085391e-01  1.0010299990434698e-01  1.0008507067637397e-01  1.0007971246258542e-01  1.0012916552887072e-01  1.0003567929097666e-01  1.0007887264781234e-01  1.0006736847326711e-01  1.0006339652163294e-01  1.0005760723343318e-01  1.0006777920008426e-01  1.0005269732989491e-01  1.0005455012837466e-01  1.0005693763016554e-01  1.0004848464464099e-01  1.0004777504890854e-01  1.0004791410810883e-01  1.0004327799282771e-01  1.0004068048198482e-01  1.0004379792282277e-01  1.0003479753299535e-01  1.0004429859763378e-01  1.0002518652700262e-01  1.0005571474030102e-01  1.0000000000000003e-01  9.9979253620692168e-02  1.0000000000000003e-01  9.9987428345998511e-02  9.9980409433064063e-02  9.9983011583455822e-02  9.9975900056703690e-02  9.9977046512076853e-02  9.9976965618544536e-02  9.9968567137073194e-02  9.9970755065511396e-02  9.9972496637291533e-02  9.9957936584990636e-02  9.9963025742581937e-02  9.9964737825147865e-02  9.9946042432930010e-02  9.9956638136016226e-02  9.9960942556234833e-02  9.9933069459982801e-02  9.9957718258280773e-02  9.9950214679759786e-02  9.9937494008551050e-02  9.9922541976724136e-02  9.9930486027279122e-02  9.9888950134586749e-02  9.9921254351999875e-02  9.9941773168810671e-02  9.9842444617235279e-02  9.9991874153404742e-02  9.9786505812316600e-02  1.0013730420044051e-01  9.9393796615045202e-02  9.9692598110496342e-02  1.0090859215630965e-01  1.0028169531595932e-01  1.0001339538877248e-01  1.0012912141861111e-01  1.0005713889308945e-01  1.0012170789992285e-01  1.0007041995810489e-01  1.0008099907365679e-01  1.0010594796422857e-01  1.0007490340250710e-01  1.0010234522512841e-01  1.0005597655559456e-01  1.0007123423504442e-01  1.0005169819133154e-01  1.0007450611099913e-01  1.0005193949760194e-01  1.0005666274720486e-01  1.0005924213583912e-01  1.0004994150505762e-01  1.0004943542152739e-01  1.0005210508055794e-01  1.0004358471693359e-01  1.0004401852220429e-01  1.0004237300549183e-01  1.0004121827175504e-01  1.0003485918755288e-01  1.0004428329903882e-01  1.0002445012353091e-01  1.0005460171089887e-01  1.0000000000000003e-01  9.9978101180063478e-02  1.0000000000000003e-01  9.9987807716317809e-02  9.9980872962587897e-02  9.9979734178977570e-02  9.9977469186034770e-02  9.9978734109520809e-02  9.9970641797146112e-02  9.9972137568370062e-02  9.9973751523896523e-02  9.9962325779223940e-02  9.9964945002435593e-02  9.9966879395916128e-02  9.9949977811742863e-02  9.9956800861080164e-02  9.9961706741041823e-02  9.9937245391154936e-02  9.9953712092351280e-02  9.9956134597520119e-02  9.9929737197579416e-02  9.9943604300938349e-02  9.9973768054557419e-02  9.9873731372647420e-02  9.9937769424867637e-02  9.9913805816677012e-02  9.9892027188596091e-02  9.9895301493957672e-02  9.9988777857001943e-02  9.9738098337520814e-02  1.0017953042390496e-01  9.9398626097573398e-02  9.9678392106169342e-02  1.0089154208182465e-01  1.0031235245814225e-01  9.9979929507139048e-02  1.0013052894753834e-01  1.0008345734260757e-01  1.0008992695371456e-01  1.0007028901114003e-01  1.0010645159447978e-01  1.0006941619089135e-01  1.0007976242978225e-01  1.0009278030254976e-01  1.0009419008446181e-01  1.0003622336133774e-01  1.0008389911748840e-01  1.0004557534568152e-01  1.0005954504941267e-01  1.0006000916962204e-01  1.0005072382850064e-01  1.0004919118623350e-01  1.0005379586258746e-01  1.0004509523860348e-01  1.0004451554508158e-01  1.0004599309801694e-01  1.0003845325551843e-01  1.0004061846250682e-01  1.0003524032550194e-01  1.0004150759480668e-01  1.0002391362003442e-01  1.0005279012849819e-01  1.0000000000000003e-01  9.9977876295535784e-02  1.0000000000000003e-01  9.9988261929010100e-02  9.9978389333778922e-02  9.9981032521083521e-02  9.9978783008649930e-02  9.9973768651278397e-02  9.9973535431577470e-02  9.9974830082680002e-02  9.9965310797266366e-02  9.9967769918675606e-02  9.9969155804485191e-02  9.9954385065049306e-02  9.9958789328204248e-02  9.9963200605259692e-02  9.9941721223513705e-02  9.9952485061197360e-02  9.9959018467584690e-02  9.9929731995388002e-02  9.9948323187327340e-02  9.9960905809612005e-02  9.9907897140082538e-02  9.9968555191010527e-02  9.9920594106335997e-02  9