<?xml version="1.0"?>
<VTKFile type="UnstructuredGrid"  version="0.1"  >
<UnstructuredGrid>
<Piece  NumberOfPoints="1933" NumberOfCells="3640">
<Points>
<DataArray  type="Float64"  NumberOfComponents="3"  format="ascii">0.4752876359004293 0.001531723106780237 0  5.475287651287549 0.001466784638276949 0  5.475385119050794 7.501466858911936 0  0.475385071149409 7.501531739355688 0  10.47528765916357 0.001401764797254247 0  10.47538521437957 7.501401862924577 0  15.47528770285499 0.0013365942319686 0  15.47538538608212 7.501336701865033 0  20.47528783709789 0.001271245574560965 0  20.4753856643082 7.501271356766456 0  25.47528811761007 0.001205718056781301 0  25.47538608084758 7.501205830763173 0  30.47528859774183 0.001140028286737013 0  30.47538666853042 7.501140142357617 0  35.47528932818419 0.001074204688493589 0  35.47538746079749 7.501074320923136 0  40.47529035796626 0.001008284332772326 0  40.47538849163369 7.501008404036034 0  45.47529173595556 0.0009423114042041488 0  45.47538979579993 7.500942436192497 0  50.47529351252786 0.0008763368474426474 0  50.4753914092543 7.500876468583957 0  55.47529574128234 0.000810418930281651 0  55.47539336966504 7.500810559730644 0  60.47529848077487 0.0007446246010660418 0  60.47539571693863 7.500744776880699 0  65.47530179628795 0.0006790316255393267 0  65.47539849369171 7.500679198174686 0  70.47530576166623 0.0006137315834517263 0  70.47540174559585 7.500613915662161 0  75.47531046125566 0.0005488339037644508 0  75.47540552150076 7.50054903934825 0  80.47531599196225 0.0004844712360460097 0  80.47540987319975 7.500484702558777 0  85.47532246542683 0.0004208066157476159 0  85.47541485463732 7.500421069056818 0  90.47533001023457 0.0003580431129093092 0  90.47542052024632 7.500358342543426 0  95.4753387739611 0.0002964370045005146 0  95.47542692194587 7.500296779458371 0  100.4753489245754 0.0002363160558525674 0  100.4754341041065 7.500236706398664 0  105.4753606501996 0.0001781053597397159 0  105.4754420954837 7.500178544034735 0  110.4753741551335 0.000122364563761564 0  110.47545089678 7.500122840151449 0  115.4753896478908 6.984254077510452e-05 0  115.4754604622693 7.500070315341267 0  120.4754073126027 2.15591237281275e-05 0  120.4754706742452 7.500021925689984 0  125.4754272462857 -2.107086139053029e-05 0  125.4754813112047 7.499978946770435 0  130.4754493264701 -5.604769999311576e-05 0  130.4754920177155 7.499943080442802 0  135.4754729368346 -8.049747717312522e-05 0  135.4755023034433 7.499916576179939 0  140.4754964012575 -9.02507122373833e-05 0  140.4755116496522 7.499902336436878 0  145.4755158050113 -7.934732310388491e-05 0  145.4755199337327 7.499903955838327 0  150.4755224435358 -4.016934938192691e-05 0  150.4755287514588 7.49992582603798 0  160.4755282581476 1.060845641046159e-18 0  165.4754086625347 -0.0001545471246348093 0  165.4755068654571 7.499823569941442 0  160.475543563606 7.499947603395303 0  170.4753390506841 -0.0002917041299999108 0  170.4754695750512 7.499697218431368 0  175.4752970080132 -0.0004162097403196434 0  175.4754381846772 7.499577605432823 0  180.4752709671761 -0.0005305291299318586 0  180.4754134749017 7.499465834325268 0  185.475254583775 -0.0006366493408001678 0  185.4753946267531 7.499361136097044 0  190.4752442355794 -0.0007362159232484064 0  190.4753805028301 7.499262394880006 0  195.4752377812765 -0.0008305426027627725 0  195.4753700507567 7.499168562174595 0  200.4752339102012 -0.0009206534901649549 0  200.4753624062921 7.499078755790227 0  205.4752317911046 -0.001007340686014136 0  205.4753568935079 7.498992262090087 0  210.475230877915 -0.001091218631854941 0  210.4753529945621 7.498908510956384 0  215.4752307997728 -0.001172768380618018 0  215.4753503154356 7.49882704687058 0  220.4752312971521 -0.001252371312443747 0  220.4753485561969 7.498747503475752 0  225.4752321836779 -0.001330334044539734 0  225.4753474875545 7.498669583203012 0  230.4752333225954 -0.001406906639979523 0  230.4753469331503 7.498593041580786 0  235.4752346118047 -0.001482295929832583 0  235.475346756445 7.498517675329809 0  240.4752359740402 -0.001556675338556522 0  240.4753468510665 7.498443313348526 0  245.4752373502472 -0.001630192222399886 0  245.4753471337139 7.498369809848276 0  250.4752386949975 -0.001702973436608217 0  250.4753475389184 7.498297039069909 0  255.4752399732709 -0.001775129633822459 0  255.4753480151707 7.498224891161803 0  260.4752411581712 -0.001846758644880978 0  260.4753485220412 7.498153268914544 0  265.4752422293402 -0.001917948185787233 0  265.4753490280532 7.4980820851357 0  270.4752431718962 -0.001988778055050769 0  270.4753495091231 7.498011260516484 0  275.4752439758438 -0.002059321920160195 0  275.4753499474361 7.497940721899741 0  280.4752446359091 -0.002129648726378362 0  280.4753503306648 7.497870400915228 0  285.4752451518368 -0.002199823676733923 0  285.4753506514464 7.497800233014763 0  290.4752455291693 -0.002269908597952623 0  290.4753509070342 7.497730157029983 0  295.4752457805768 -0.002339961264666044 0  295.4753510990575 7.49766011550695 0  300.475245927657 -0.002410032782449291 0  300.4753512333112 7.497590056260215 0  305.4752460028334 -0.002480161162862521 0  305.47535131968 7.497519935827268 0  310.4752460500263 -0.002550357142034543 0  310.475351372824 7.49744972570076 0  5.475482286535984 15.00146704601104 0  0.475482229749377 15.00153178448572 0  10.47548239480069 15.00140210793958 0  15.47548258224957 15.00133696495255 0  20.47548286964759 15.00127162132985 0  25.47548327541105 15.00120609197576 0  30.47548381756814 15.00114040118962 0  35.47548451444128 15.00107458111101 0  40.47548538478818 15.00100867058955 0  45.47548644773686 15.00094271469673 0  50.47548772264037 15.00087676490508 0  55.47548922887416 15.00081087991617 0  60.47549098554615 15.00074512713638 0  65.47549301106491 15.0006795848406 0  70.475495322485 15.00061434511781 0  75.47549793453501 15.00054951775714 0  80.47550085820295 15.00048523530908 0  85.47550409873567 15.00042165964828 0  90.47550765288749 15.00035899047369 0  95.47551150526452 15.00029747630102 0  100.4755156236786 15.00023742861073 0  105.4755199536514 15.00017923984413 0  110.4755244127092 15.00012340573937 0  115.4755288861928 15.00007055171996 0  120.4755332283954 15.00002146095729 0  125.4755372766425 14.99997709678852 0  130.4755408922879 14.99993860122393 0  135.4755440519033 14.99990722768746 0  140.4755470216766 14.99988411472237 0  145.4755506437732 14.99986968523496 0  150.4755566841893 14.99986209747807 0  165.4755678816193 14.99976410810626 0  160.4755745143935 14.99985840149273 0  170.475554852643 14.99966050114942 0  175.4755392752733 14.99955509751223 0  180.4755238866677 14.99945185719264 0  185.4755100343264 14.99935227554825 0  190.4754981997743 14.99925664133905 0  195.4754884125061 14.9991647309778 0  200.4754804958688 14.99907614104052 0  205.475474198693 14.99899043641656 0  210.4754692604891 14.99890721049877 0  215.4754654406139 14.99882610506289 0  220.4754625288901 14.99874681263655 0  225.4754603472368 14.99866907200165 0  230.4754587473323 14.99859266162664 0  235.4754576068572 14.99851739305758 0  240.4754568255153 14.99844310502002 0  245.4754563213615 14.998369658419 0  250.4754560276314 14.99829693219576 0  255.4754558900871 14.99822481992037 0  260.4754558648474 14.99815322698974 0  265.4754559166261 14.9980820683142 0  270.4754560173107 14.99801126640211 0  275.475456144814 14.99794074977887 0  280.4754562821213 14.99787045170505 0  285.4754564165062 14.9978003091849 0  290.4754565388411 14.99773026227314 0  295.4754566430436 14.99766025367018 0  300.4754567257242 14.9975902284785 0  305.4754567863206 14.99752013358702 0  310.47545682827 14.99744991495579 0  5.475579064045293 22.50146745880768 0  0.4755790062942623 22.50153203890853 0  10.47557915962019 22.50140259011958 0  15.47557931576892 22.501337468698 0  20.47557954689575 22.50127212478813 0  25.47557986288449 22.50120658863624 0  30.4755802713911 22.50114089314236 0  35.47558077898957 22.50107507501841 0  40.47558139158304 22.5010091753797 0  45.47558211437267 22.50094324028264 0  50.47558295155957 22.50087732147677 0  55.47558390586154 22.50081147751208 0  60.47558497787219 22.50074577529233 0  65.47558616525454 22.50068029215447 0  70.47558746174086 22.50061511856449 0  75.4755888559103 22.50055036154312 0  80.47559032971675 22.50048614895801 0  85.47559185677574 22.50042263483665 0  90.47559340047974 22.50036000584944 0  95.47559491213489 22.50029848905494 0  100.4755963295304 22.50023836083211 0  105.475597576722 22.50017995654419 0  110.4755985664031 22.50012367969003 0  115.4755992071225 22.50007000776898 0  120.4755994187954 22.50001948924253 0  125.4755991612701 22.49997272091399 0  130.4755984813693 22.49993028643856 0  135.4755975817373 22.49989262299614 0  140.4755969049296 22.49985976410325 0  145.4755971976594 22.49983088997199 0  150.4755994534771 22.49980365361892 0  165.4756225321167 22.49969838339072 0  160.4756148111453 22.49977502845643 0  170.4756240931858 22.49961196340539 0  175.475621166657 22.49952054846823 0  180.4756155774643 22.499427614528 0  185.4756087910841 22.49933528401134 0  190.4756017878007 22.49924465637796 0  195.4755951433759 22.4991561886247 0  200.4755891510967 22.49906997619635 0  205.4755839255162 22.49898592906107 0  210.4755794764056 22.49890387311321 0  215.4755757570354 22.49882360517728 0  220.4755726939339 22.49874492108481 0  225.4755702043577 22.49866762880044 0  230.4755682060126 22.49859155355901 0  235.4755666220707 22.49851653891533 0  240.4755653834236 22.49844244583355 0  245.4755644293731 22.49836915094223 0  250.4755637074782 22.4982965445305 0  255.4755631729878 22.49822452856422 0  260.4755627880842 22.49815301484649 0  265.4755625210876 22.49808192336635 0  270.4755623456651 22.49801118084392 0  275.4755622400887 22.4979407194617 0  280.4755621865359 22.49787047576332 0  285.4755621704476 22.49780038968627 0  290.4755621799426 22.49773040366015 0  295.4755622053401 22.49766046161783 0  300.4755622388288 22.4
[...]
<PointData  Scalars="p"> 
<DataArray  type="Float64"  Name="p"  format="ascii">1.0000000000000001e-01  1.0000000000000003e-01  1.0000212144836333e-01  1.0000000000000003e-01  1.0000000000000003e-01  1.0000133933766406e-01  1.0000000000000003e-01  1.0000202693178839e-01  1.0000000000000003e-01  1.0000187661512040e-01  1.0000000000000003e-01  1.0000227960766733e-01  1.0000000000000003e-01  1.0000375328039196e-01  1.0000000000000003e-01  1.0000382326437542e-01  1.0000000000000003e-01  1.0000482794650176e-01  1.0000000000000003e-01  1.0000656362816025e-01  1.0000000000000003e-01  1.0000528812901800e-01  1.0000000000000003e-01  1.0001250803750457e-01  1.0000000000000003e-01  1.0001387408638870e-01  1.0000000000000003e-01  1.0001712494315992e-01  1.0000000000000003e-01  1.0001904630806280e-01  1.0000000000000003e-01  1.0002517828871829e-01  1.0000000000000003e-01  1.0002712252577360e-01  1.0000000000000003e-01  1.0003239567939254e-01  1.0000000000000003e-01  1.0004018030763641e-01  1.0000000000000003e-01  1.0004314896065235e-01  1.0000000000000003e-01  1.0005244801412561e-01  1.0000000000000003e-01  1.0005860026863932e-01  1.0000000000000003e-01  1.0006944212862204e-01  1.0000000000000003e-01  1.0007007286574428e-01  1.0000000000000003e-01  1.0009484186121627e-01  1.0000000000000003e-01  1.0007750914581783e-01  1.0000000000000003e-01  1.0012681600394495e-01  1.0000000000000003e-01  1.0007739213460082e-01  1.0000000000000003e-01  1.0016845828401677e-01  1.0000000000000003e-01  1.0006550905674953e-01  1.0000000000000001e-01  1.0023417296260990e-01  1.0000000000000001e-01  1.0000000000000003e-01  9.9863376762485495e-02  9.9659073907736859e-02  1.0000000000000003e-01  9.9984607483993335e-02  1.0000000000000003e-01  9.9896337378777553e-02  1.0000000000000003e-01  9.9948964484468619e-02  1.0000000000000003e-01  9.9935862020777949e-02  1.0000000000000003e-01  9.9950096499070745e-02  1.0000000000000003e-01  9.9946676097982759e-02  1.0000000000000003e-01  9.9958832774284023e-02  1.0000000000000003e-01  9.9958424166153109e-02  1.0000000000000003e-01  9.9963362849876641e-02  1.0000000000000003e-01  9.9967333683482748e-02  1.0000000000000003e-01  9.9970136774381962e-02  1.0000000000000003e-01  9.9972199751880222e-02  1.0000000000000003e-01  9.9975592780735090e-02  1.0000000000000003e-01  9.9977139067562323e-02  1.0000000000000003e-01  9.9978779991778954e-02  1.0000000000000003e-01  9.9980753913449585e-02  1.0000000000000003e-01  9.9981919529052568e-02  1.0000000000000003e-01  9.9982878076716436e-02  1.0000000000000003e-01  9.9984198380406092e-02  1.0000000000000003e-01  9.9984812309538734e-02  1.0000000000000003e-01  9.9985657663903479e-02  1.0000000000000003e-01  9.9986072437176554e-02  1.0000000000000003e-01  9.9987128440429396e-02  1.0000000000000003e-01  9.9986565591902124e-02  1.0000000000000003e-01  9.9988718623465006e-02  1.0000000000000003e-01  9.9986210538899556e-02  1.0000000000000003e-01  9.9991280849273848e-02  1.0000000000000003e-01  9.9983205651071813e-02  1.0000000000000001e-01  1.0000000000000003e-01  1.0000471642835417e-01  1.0000000000000003e-01  1.0000398340356566e-01  1.0000416010968459e-01  1.0000471478974542e-01  1.0000664579270140e-01  1.0000634489995217e-01  1.0000693625897071e-01  1.0000996463805861e-01  1.0000817777050146e-01  1.0000968150749485e-01  1.0001070708868424e-01  1.0001958528683734e-01  1.0001488246897119e-01  1.0002301432077382e-01  1.0001870390597900e-01  1.0002310950057509e-01  1.0002937456380094e-01  1.0002846257298291e-01  1.0003228528795309e-01  1.0004266601280044e-01  1.0003817685424461e-01  1.0004916361793277e-01  1.0004968809161370e-01  1.0006155120192163e-01  1.0004569062663932e-01  1.0009120220472079e-01  1.0001935645939598e-01  1.0014850242737738e-01  9.9950996168501796e-02  1.0023636897647312e-01  1.0016453810126619e-01  9.9517460696076726e-02  9.9825471795287599e-02  9.9981955476364875e-02  9.9953798909877267e-02  9.9963165382122729e-02  9.9947811290985275e-02  9.9972194731930850e-02  9.9961661303533844e-02  9.9967079484574367e-02  9.9972875927903881e-02  9.9973707823300756e-02  9.9974372019474664e-02  9.9979781371833387e-02  9.9980073925922244e-02  9.9981166649593917e-02  9.9984190602783615e-02  9.9984872498730545e-02  9.9985610361423130e-02  9.9987639520056792e-02  9.9988335439260681e-02  9.9988943549232545e-02  9.9990490288519515e-02  9.9990882022788094e-02  9.9991997638465752e-02  9.9992223243349596e-02  9.9994195871261224e-02  9.9992427426569760e-02  9.9997254209605660e-02  9.9991418970751630e-02  1.0000000000000003e-01  1.0000755541671730e-01  1.0000000000000003e-01  1.0000445901270634e-01  1.0000639140297972e-01  1.0000822525780698e-01  1.0000810912801961e-01  1.0000877547808362e-01  1.0001305089431713e-01  1.0001186779621198e-01  1.0001265556116169e-01  1.0001696450442615e-01  1.0001842515116691e-01  1.0001245353843123e-01  1.0003611121242607e-01  1.0002460294675707e-01  1.0003045343591235e-01  1.0003896029510842e-01  1.0003527409866711e-01  1.0004133063229660e-01  1.0005439567750399e-01  1.0005116192530598e-01  1.0005778609947963e-01  1.0007667751794154e-01  1.0006490584052646e-01  1.0008858385539222e-01  1.0007895228687398e-01  1.0011179127551681e-01  1.0006033477155414e-01  1.0017909067809684e-01  9.9963255307279869e-02  1.0036776637525845e-01  1.0007560660151586e-01  9.9613589026005672e-02  9.9771132712001137e-02  9.9959762819136599e-02  9.9938301965878620e-02  9.9903161586092984e-02  9.9964347664981815e-02  9.9930031823752485e-02  9.9942829065761629e-02  9.9954000078294053e-02  9.9953835080539857e-02  9.9953887619449955e-02  9.9964911451394620e-02  9.9964188008877977e-02  9.9966109094751135e-02  9.9972172570932619e-02  9.9972922077999252e-02  9.9973899462923871e-02  9.9977962548723154e-02  9.9978699077220234e-02  9.9979727779007113e-02  9.9982286263351039e-02  9.9983315127196465e-02  9.9984037482832439e-02  9.9986264123160348e-02  9.9986476475701719e-02  9.9988600240402556e-02  9.9987861454897076e-02  9.9992344435320554e-02  9.9986400907576448e-02  1.0000000000000003e-01  1.0000941420605773e-01  1.0000000000000003e-01  1.0000573256659824e-01  1.0001021515450580e-01  1.0000931408049205e-01  1.0001018811279075e-01  1.0001487699074534e-01  1.0001377822583796e-01  1.0001487943703243e-01  1.0002071394342892e-01  1.0001850021166148e-01  1.0001884377672700e-01  1.0003176734806193e-01  1.0001639392331350e-01  1.0003914450346739e-01  1.0003968071556650e-01  1.0003703189982892e-01  1.0003836585510503e-01  1.0005413692411888e-01  1.0004534939745484e-01  1.0005542055196147e-01  1.0006849596269056e-01  1.0006610856501125e-01  1.0006741867285565e-01  1.0009791338122424e-01  1.0006304266989097e-01  1.0012152238492372e-01  1.0004657005134303e-01  1.0018486278854020e-01  9.9938960840727592e-02  1.0038672602163776e-01  1.0005689077423348e-01  9.9505663070846531e-02  9.9861814294196660e-02  9.9975071305974564e-02  9.9821573416390114e-02  1.0000504807802746e-01  9.9909780372608406e-02  9.9940840841418035e-02  9.9947630680074187e-02  9.9949340149597762e-02  9.9944256186987934e-02  9.9962216873040188e-02  9.9958254974168770e-02  9.9960429297525855e-02  9.9968673897234558e-02  9.9969264809391459e-02  9.9970047959494657e-02  9.9975779274046647e-02  9.9976298813086645e-02  9.9977281454914677e-02  9.9980960282584061e-02  9.9981796871450243e-02  9.9983017752873340e-02  9.9985285997726742e-02  9.9986836496310627e-02  9.9987221657286157e-02  9.9990402026335204e-02  9.9989157623630046e-02  9.9994289750746257e-02  9.9989159022425472e-02  1.0000000000000003e-01  1.0001131222998874e-01  1.0000000000000003e-01  1.0000807031170063e-01  1.0001098356199635e-01  1.0001056114530084e-01  1.0001573680525803e-01  1.0001450280201939e-01  1.0001601720660562e-01  1.0002269590968317e-01  1.0002030337940086e-01  1.0002098572688586e-01  1.0003234194957054e-01  1.0002528574211494e-01  1.0003271313048279e-01  1.0003058908681250e-01  1.0004888439948564e-01  1.0004091769846472e-01  1.0005937783387518e-01  1.0004725522034437e-01  1.0005533356463782e-01  1.0007447197003526e-01  1.0006252072021159e-01  1.0007716371719602e-01  1.0008972441899891e-01  1.0009258991476541e-01  1.0008008672071246e-01  1.0013986850404968e-01  1.0004823409165875e-01  1.0020974345013002e-01  9.9932602832285888e-02  1.0044414046374218e-01  1.0014893497028796e-01  9.9451484524564149e-02  9.9804021015329966e-02  9.9914823823203519e-02  9.9920151091632312e-02  9.9889136180090279e-02  9.9928026397516287e-02  9.9933879550150970e-02  9.9941202367019560e-02  9.9921970353167397e-02  9.9954453020750428e-02  9.9944260307735011e-02  9.9947406357009300e-02  9.9959401022070890e-02  9.9959266539620922e-02  9.9959459724569558e-02  9.9968564672158755e-02  9.9968701245831543e-02  9.9969675807551742e-02  9.9975033736532576e-02  9.9975942434461396e-02  9.9976862626882240e-02  9.9980695941206246e-02  9.9981608897595609e-02  9.9983292548630268e-02  9.9985186036661913e-02  9.9987671054856439e-02  9.9987002835457070e-02  9.9992489228266243e-02  9.9987201152093849e-02  1.0000000000000003e-01  1.0001353561020006e-01  1.0000000000000003e-01  1.0000840568309956e-01  1.0001234537714851e-01  1.0001502761852750e-01  1.0001546602543794e-01  1.0001621920723559e-01  1.0002298623212286e-01  1.0002150281194536e-01  1.0002219236936286e-01  1.0003182963614098e-01  1.0002823846564365e-01  1.0003149680165808e-01  1.0004067207155952e-01  1.0003966029084645e-01  1.0002510954467844e-01  1.0007249266430654e-01  1.0004649465595719e-01  1.0005719848476448e-01  1.0007281461701381e-01  1.0006199331036141e-01  1.0006832375523199e-01  1.0009751699180500e-01  1.0007345780095787e-01  1.0010096586546491e-01  1.0009679915096223e-01  1.0012882042186370e-01  1.0005287951783504e-01  1.0022893187023926e-01  9.9907529314247914e-02  1.0048811253224298e-01  1.0011456665767775e-01  9.9492231395318487e-02  9.9755604981164883e-02  9.9997834634094007e-02  9.9878235604688420e-02  9.9901024831383439e-02  9.9893291716384724e-02  9.9960893174438181e-02  9.9895255945907951e-02  9.9959614121352389e-02  9.9931296151022808e-02  9.9938404693769411e-02  9.9953266944874442e-02  9.9953063400655143e-02  9.9951052383056446e-02  9.9964210971100212e-02  9.9963078772433142e-02  9.9964068753595217e-02  9.9971765821103398e-02  9.9972261008574481e-02  9.9972956590981127e-02  9.9978073342429780e-02  9.9979117595319036e-02  9.9980074200775648e-02  9.9984002936154628e-02  9.9984600060748788e-02  9.9987366826209623e-02  9.9987592278787729e-02  9.9992783661470672e-02  9.9988040872067765e-02  1.0000000000000003e-01  1.0001473454199845e-01  1.0000000000000003e-01  1.0000904087525972e-01  1.0001622309591378e-01  1.0001470735074439e-01  1.0001665367266938e-01  1.0002251687999311e-01  1.0002176615156939e-01  1.0002246344295257e-01  1.0003195603922356e-01  1.0002821766661919e-01  1.0003096236250157e-01  1.0004336514065040e-01  1.0003850822457332e-01  1.0003618730162224e-01  1.0006022847501585e-01  1.0002935556461055e-01  1.0006934441020877e-01  1.0007408317093841e-01  1.0006319344116811e-01  1.0006828290168826e-01  1.0009292781765644e-01  1.0007830700074027e-01  1.0008365124096287e-01  1.0012434839956044e-01  1.0008013171922131e-01  1.0013941180782113e-01  1.0007409386644961e-01  1.0021942271384847e-01  9.9913100334839952e-02  1.0052449378255207e-01  1.0009105306045638e-01  9.9443311043502333e-02  9.9812170333282685e-02  9.9959120410803098e-02  9.9844890817119988e-02  9.9940381777088985e-02  9.9910743742365568e-02  9.9860830058154659e-02  9.9968063776500971e-02  9.9915759142661764e-02  9.9931317591208019e-02  9.9942152732112724e-02  9.9945924811945891e-02  9.9939276137581495e-02  9.9958365194689994e-02  9.9955519175241939e-02  9.9955968822690158e-02  9.9965901090000767e-02  9.9966703230983084e-02  9.9967053652071244e-02  9.9973936797657162e-02  9.9974603249122496e-02  9.9975818311329873e-02  9.9980027162882693e-02  9.9981767868622812e-02  9.9982606318071265e-02  9.9986826609160875e-02  9.9986367628221343e-02  9.9991758528753028e-02  9.9987387434919084e-02  1.0000000000000003e-01  1.0001591836744372e-01  1.0000000000000003e-01  1.0001108483709582e-01  1.0001611073732368e-01  1.0001537302828749e-01  1.0002189140556171e-01  1.0002098985288535e-01  1.0002237109658632e-01  1.0003096341996645e-01  1.0002803557563504e-01  1.0002941299665662e-01  1.0004240760679961e-01  1.0003768233396186e-01  1.0003871734435010e-01  1.0005687660385562e-01  1.0004144203240667e-01  1.0005400701677011e-01  1.0005096721435283e-01  1.0007746908482654e-01  1.0006467802710450e-01  1.0009723312922447e-01  1.0006964667831900e-01  1.0008689888186896e-01  1.0010833665055954e-01  1.0009994556952620e-01  1.0008737175820133e-01  1.0016426740804549e-01  1.0005153017094275e-01  1.0023068347690368e-01  9.9924253076673172e-02  1.0052683979258729e-01  1.0014963187052223e-01  9.9394159178338423e-02  9.9777470594492934e-02  9.9928868329838175e-02  9.9891294648035020e-02  9.9926114147432257e-02  9.9871798104510412e-02  9.9938569156587623e-02  9.9882994023942989e-02  9.9940164460171566e-02  9.9927880421264381e-02  9.9946949503678495e-02  9.9924729155662265e-02  9.9955216210633316e-02  9.9948133187807570e-02  9.9948918559688057e-02  9.9961423709953187e-02  9.9961501820790111e-02  9.9960822437476532e-02  9.9970558717225058e-02  9.9970969873468318e-02  9.9971609268820760e-02  9.9977584575711265e-02  9.9978530831213885e-02  9.9980123095680370e-02  9.9983454156494067e-02  9.9986188905176007e-02  9.9985846289449676e-02  9.9992069256469127e-02  9.9987591929964759e-02  1.0000000000000003e-01  1.0001750514967450e-01  1.0000000000000003e-01  1.0001087580771258e-01  1.0001661355682383e-01  1.0001921900039558e-01  1.0002075115903800e-01  1.0002115570546508e-01  1.0002935542925186e-01  1.0002770363685801e-01  1.0002846437173517e-01  1.0003931291192687e-01  1.0003662790852665e-01  1.0003773424362805e-01  1.0005414646637406e-01  1.0004480853084623e-01  1.0004874955844630e-01  1.0006385623286562e-01  1.0005941717244755e-01  1.0003776342406936e-01  1.0011043718540300e-01  1.0006962912253117e-01  1.0008222164685433e-01  1.0011333547303913e-01  1.0008081069072770e-01  1.0010625073979357e-01  1.0011845639586330e-01  1.0013351859160199e-01  1.0006009205708206e-01  1.0025642186188660e-01  9.9900826071337143e-02  1.0054189095379966e-01  1.0014194028106858e-01  9.9414611748945725e-02  9.9742398970520743e-02  9.9975327592465954e-02  9.9869585455240939e-02  9.9889780241848788e-02  9.9918522177985872e-02  9.9914596230152725e-02  9.9897670419587137e-02  9.9901824579460771e-02  9.9958152480067952e-02  9.9907002471020537e-02  9.9956358073753401e-02  9.9938120451204815e-02  9.9941567659015254e-02  9.9955569363930394e-02  9.9956744757535645e-02  9.9953878900001639e-02  9.9966249623072434e-02  9.9965921767274396e-02  9.9966611818262344e-02  9.9974275740642451e-02  9.9975345782825353e-02  9.9975886030315278e-02  9.9981467066566465e-02  9.9982154113657823e-02  9.9984860027034800e-02  9.9986213912289304e-02  9.9991471867504081e-02  9.9987224757087573e-02  1.0000000000000003e-01  1.0001814708539603e-01  1.0000000000000003e-01  1.0001099998072212e-01  1.0001971704661945e-01  1.0001819510758239e-01  1.0002081705300335e-01  1.0002698126938137e-01  1.0002671679524432e-01  1.0002745206545138e-01  1.0003743415633783e-01  1.0003436366929815e-01  1.0003565653380099e-01  1.0005097740322520e-01  1.0004442990077934e-01  1.0004592972637914e-01  1.0006453412544439e-01  1.0005529157595107e-01  1.0005041404402108e-01  1.0008871193665642e-01  1.0003874212333012e-01  1.0009797050412866e-01  1.0010603496531602e-01  1.0008812835553921e-01  1.0008666444484594e-01  1.0014042150969509e-01  1.0008054196410061e-01  1.0014042622979583e-01  1.0009304123885526e-01  1.0022205344969407e-01  9.9908371614270686e-02  1.0056852773914479e-01  1.0012277434113161e-01  9.9388606057904769e-02  9.9775613852319173e-02  9.9962852236751595e-02  9.9836783522159717e-02  9.9931542480465971e-02  9.9900291199919930e-02  9.9894751674722962e-02  9.9921896825833828e-02  9.9929182818811094e-02  9.9877085574234400e-02  9.9969085381365355e-02  9.9925860260148699e-02  9.9940168413910221e-02  9.9947111443100978e-02  9.9953447295128978e-02  9.9946257498264676e-02  9.9963111750183825e-02  9.9961727655672503e-02  9.9961108687418462e-02  9.9970508754883308e-02  9.9971921455760310e-02  9.9972316973627837e-02  9.9978624920391890e-02  9.9980171437589388e-02  9.9980856253784112e-02  9.9986014849419172e-02  9.9985777054081446e-02  9.9991101046169886e-02  9.9987539712405524e-02  1.0000000000000003e-01  1.0001869231032801e-01  1.0000000000000003e-01  1.0001239040424982e-01  1.0001896942439339e-01  1.0001788034409902e-01  1.0002497998196906e-01  1.0002450590422581e-01  1.0002606694933694e-01  1.0003456754446027e-01  1.0003272429276207e-01  1.0003310602818218e-01  1.0004677567916087e-01  1.0004202947758391e-01  1.0004327645852819e-01  1.0006101912015136e-01  1.0005202902427779e-01  1.0005217003177352e-01  1.0007931424506378e-01  1.0005502522839595e-01  1.0007111586374474e-01  1.0007190537149786e-01  1.0010001330083129e-01  1.0008805760488122e-01  1.0012814595429076e-01  1.0009646484354896e-01  1.0009025767581528e-01  1.0017639050491005e-01  1.0005213124561428e-01  1.0022408134854946e-01  9.9946320318375234e-02  1.0052887700798925e-01  1.0016414499274502e-01  9.9338982456911695e-02  9.9765546039429012e-02  9.9935933743013738e-02  9.9871860547612115e-02  9.9920265524846064e-02  9.9872983518602423e-02  9.9924254908882695e-02  9.9919317248267414e-02  9.9899936003332981e-02  9.9938872044847332e-02  9.9903175005942757e-02  9.9949030632006455e-02  9.9936385552996471e-02  9.9955113260644879e-02  9.9935881060419882e-02  9.9960745663835684e-02  9.9956641055901879e-02  9.9956336943241839e-02  9.9967311027950742e-02  9.9967929415468545e-02  9.9967108222288326e-02  9.9976172056042228e-02  9.9976934914107876e-02  9.9978144948275810e-02  9.9982729632694542e-02  9.9985346593446253e-02  9.9984946359543178e-02  9.9991572319715782e-02  9.9987431291675116e-02  1.0000000000000003e-01  1.0001976520743622e-01  1.0000000000000003e-01  1.0001194840543511e-01  1.0001883008686203e-01  1.0002082637534929e-01  1.0002328973378691e-01  1.0002366189812863e-01  1.0003179060159821e-01  1.0003089150004126e-01  1.0003129590856813e-01  1.0004222501429351e-01  1.0003994160663504e-01  1.0004024700840219e-01  1.0005606402675182e-01  1.0004982323134548e-01  1.0004927144095414e-01  1.0007293001099585e-01  1.0005776310023616e-01  1.0006225153370184e-01  1.0008447516709582e-01  1.0007590875936528e-01  1.0004346631726541e-01  1.0015014652322532e-01  1.0007965147016545e-01  1.0011113816144215e-01  1.0013063518830895e-01  1.0012480780910450e-01  1.0005871011837909e-01  1.0026428766588352e-01  9.9904675934748707e-02  1.0052406936897700e-01  1.0018093871680996e-01  9.9341514645043857e-02  9.9731224612167935e-02  9.9968900327279467e-02  9.9866862392570921e-02  9.9893263982375663e-02  9.9904042671817767e-02  9.9919138089647266e-02  9.9891532473431785e-02  9.9934248666512931e-02  9.9926360448243753e-02  9.9920261198087182e-02  9.9914756011149200e-02  9.9967993265712235e-02  9.9923369826776132e-02  9.9963153331831756e-02  9.9949848717016010e-02  9.9952209815879309e-02  9.9963437333086769e-02  9.9965577694705404e-02  9.9962834925967067e-02  9.9972927999959452e-02  9.9973604828152582e-02  9.9974301505099852e-02  9.9981244263705485e-02  9.9982110037255670e-02  9.9984194022410502e-02  9.9986466233493360e-02  9.9991354436048466e-02  9.9987445640362202e-02  1.0000000000000003e-01  1.0001980517066093e-01  1.0000000000000003e-01  1.0001151190800500e-01  1.0002084109197643e-01  1.0001919535414058e-01  1.0002230084143446e-01  1.0002781125466280e-01  1.0002844098270856e-01  1.0002904895272474e-01  1.0003844922275169e-01  1.0003630991814505e-01  1.0003720259131160e-01  1.0005105371444427e-01  1.0004645910540449e-01  1.0004550337439125e-01  1.0006583059971204e-01  1.0005614859574433e-01  1.0005566633636367e-01  1.0008280960712916e-01  1.0006718888512335e-01  1.0005980002792712e-01  1.0011273436913047e-01  1.0004428876046755e-01  1.0011399596466439e-01  1