<?xml version="1.0"?>
<VTKFile type="UnstructuredGrid"  version="0.1"  >
<UnstructuredGrid>
<Piece  NumberOfPoints="1933" NumberOfCells="3640">
<Points>
<DataArray  type="Float64"  NumberOfComponents="3"  format="ascii">-0.4752548608349805 -0.002574337035774797 0  4.524745188892964 -0.002506605774096547 0  4.524643568553665 7.497493506436197 0  -0.4753564953425395 7.49742575347434 0  9.524745275623511 -0.002438955113557523 0  9.524643671436634 7.49756115799359 0  14.52474544234273 -0.002371368504790666 0  14.52464382726603 7.49762873982629 0  19.524745722778 -0.00230380360503527 0  19.52464404636006 7.497696299202341 0  24.52474614019625 -0.002236205579298611 0  24.52464433537392 7.497763892438172 0  29.52474670883769 -0.002168513013674986 0  29.52464469682991 7.497831581225586 0  34.5247474356674 -0.002100660283242591 0  34.52464512876201 7.497899431060356 0  39.52474832175805 -0.002032578082217806 0  39.5246456244309 7.497967510999517 0  44.52474936315517 -0.00196419293089349 0  44.52464617197707 7.498035894250344 0  49.52475055123679 -0.001895426048087742 0  49.52464675389464 7.498104659318144 0  54.52475187260486 -0.001826191754517889 0  54.52464734622894 7.498173891590509 0  59.52475330852131 -0.001756395443331045 0  59.52464791740697 7.498243685335197 0  64.52475483386274 -0.00168593106733955 0  64.52464842659033 7.498314146161343 0  69.52475641550343 -0.001614678019991716 0  69.52464882141099 7.498385394055991 0  74.52475800996785 -0.001542497210158756 0  74.52464903489282 7.498457567170989 0  79.52475956007062 -0.00146922603337667 0  79.52464898128136 7.49853082661077 0  84.52476099009212 -0.00139467180658768 0  84.52464855039909 7.498605362564388 0  89.52476219873731 -0.001318603036799767 0  89.52464759999224 7.498681402240395 0  94.52476304863544 -0.001240737605641822 0  94.52464594535388 7.498759220193816 0  99.52476335025847 -0.001160726531855821 0  99.52464334532581 7.49883915174777 0  104.5247628366001 -0.001078131381062365 0  104.5246394836519 7.498921610213085 0  109.5247611221375 -0.0009923926133405959 0  109.5246339448543 7.499007108248779 0  114.5247576344807 -0.0009027853057768476 0  114.5246261848583 7.499096282403 0  119.5247514976072 -0.0008083582736815044 0  119.5246154998135 7.499189916296992 0  124.5247413279643 -0.0007078543431883861 0  124.5246010048464 7.499288949166298 0  129.5247248718808 -0.0005996185490414084 0  129.5245816540012 7.499394436476204 0  134.5246983515173 -0.0004815329309392766 0  134.5245563764602 7.499507386326857 0  139.524655271572 -0.0003511217819253532 0  139.5245244995099 7.49962831126149 0  144.5245842150849 -0.0002063333389106398 0  144.5244868348766 7.499756209087072 0  149.5244646642191 -4.889528722133724e-05 0  149.5244482720805 7.499886723865562 0  159.5244717418521 9.676740510905744e-19 0  164.524458755798 -6.661324339379059e-05 0  164.5244712447983 7.499916558009001 0  159.5244669723543 7.499961128410066 0  169.5244700810558 -9.831751958707825e-05 0  169.524475147873 7.499893569861967 0  174.5244908853825 -0.0001058586112561362 0  174.5244814516634 7.499890042450911 0  179.5245144238552 -9.598703411587014e-05 0  179.5244899458855 7.499901914638696 0  184.5245376486771 -7.336071771435248e-05 0  184.5244998008751 7.499925578017668 0  189.5245592616057 -4.127584040749979e-05 0  189.5245102373868 7.49995821213147 0  194.5245787968499 -2.090797516485362e-06 0  194.5245206786461 7.499997691970447 0  199.524596178094 4.248851981979992e-05 0  199.524530744701 7.500042430773578 0  204.5246115028374 9.121215821305715e-05 0  204.5245402077336 7.500091240793008 0  209.524624937745 0.0001431510114096445 0  209.5245489465887 7.500143225955132 0  214.5246366686463 0.000197604127540549 0  214.5245569107044 7.500197703127549 0  219.5246468774809 0.0002540348494603811 0  219.5245640942171 7.50025414542716 0  224.524655732493 0.0003120264173010148 0  224.5245705183151 7.50031214155462 0  229.5246633848795 0.0003712507110509207 0  229.5245762196113 7.50037136650469 0  234.5246699685151 0.0004314459218526339 0  234.5245812426874 7.500431560289449 0  239.5246756010843 0.0004924003574877104 0  239.5245856354449 7.50049251231551 0  244.5246803858069 0.0005539405234861973 0  244.524589446322 7.500554049782754 0  249.5246844133662 0.0006159222373373767 0  249.5245927227356 7.500616028979795 0  254.524687763876 0.0006782239415394803 0  254.5245955103366 7.500678328704388 0  259.5246905088175 0.0007407416571828253 0  259.5245978527884 7.500740845282718 0  264.5246927129562 0.000803385213656744 0  264.5245997918932 7.500803488839088 0  269.524694436243 0.000866075536327248 0  269.5246013679385 7.500866180601618 0  274.5246957357492 0.0009287428980096389 0  274.5246026201576 7.50092885114173 0  279.5246966676404 0.0009913261633842738 0  279.5246035872295 7.500991439549449 0  284.5246972891813 0.001053773199917216 0  284.5246043077256 7.501053893656251 0  289.5246976606209 0.001116042819422364 0  289.5246048204044 7.501116171539406 0  294.5246978466419 0.001178108877249189 0  294.5246051642863 7.501178244677427 0  299.524697916512 0.001239967496577175 0  299.5246053784996 7.501240103259549 0  304.5246979411372 0.001301648671297788 0  304.524605502255 7.501301764258498 0  309.5246979830451 0.001363232897836885 0  309.524605576177 7.501363283089083 0  4.524541774922767 14.99749373639799 0  -0.4754582866859838 14.99742597083646 0  9.524541853458482 14.99756136356482 0  14.52454195534415 14.99762891242029 0  19.52454208084648 14.99769644030377 0  24.52454222686471 14.99776400611614 0  29.52454238745878 14.99783167126001 0  34.5245425535412 14.99789949994628 0  39.5245427122776 14.99796755965802 0  44.52454284635949 14.99803592194736 0  49.52454293316282 14.99810466357429 0  54.5245429437517 14.99817386797437 0  59.5245428416652 14.99824362706429 0  64.52454258142289 14.9983140434234 0  69.52454210667703 14.99838523291897 0  74.52454134794984 14.99845732786914 0  79.52454021990421 14.9985304808548 0  84.52453861814753 14.99860486929019 0  89.52453641566657 14.9986807008189 0  94.52453345921572 14.99875821946452 0  99.5245295663924 14.99883771213614 0  104.5245245249468 14.99891951436849 0  109.5245180972756 14.99900401269683 0  114.5245100355152 14.99909163814242 0  119.5245001166059 14.99918283970901 0  124.5244882126077 14.99927801655299 0  129.5244744190144 14.99937736956371 0  134.5244592696036 14.99948060380816 0  139.5244440591164 14.9995863703801 0  144.5244312416989 14.99969128158633 0  149.5244246825921 14.99978824645346 0  164.5244527719099 14.99986995198108 0  159.5244473163024 14.99987747553012 0  169.5244540670875 14.99986857283332 0  174.5244544057943 14.99987689327365 0  179.5244552985606 14.99989516243889 0  184.5244571976341 14.99992226676845 0  189.5244600582354 14.99995674667021 0  194.5244636521247 14.9999972096473 0  199.5244677174341 15.00004246321845 0  204.5244720206638 15.00009153282657 0  209.5244763759348 15.00014363843462 0  214.5244806453441 15.00019816055637 0  219.5244847321881 15.00025460750821 0  224.5244885724954 15.00031258761923 0  229.524492127125 15.00037178691558 0  234.5244953752109 15.00043195165643 0  239.5244983090292 15.00049287481876 0  244.5245009301349 15.00055438567598 0  249.5245032465304 15.00061634176354 0  254.5245052706305 15.00067862268254 0  259.5245070178307 15.00074112533526 0  264.5245085055078 15.00080376030094 0  269.524509752334 15.0008664491574 0  274.5245107778036 15.00092912263032 0  279.5245116018903 15.00099171951701 0  284.5245122448334 15.00105418637991 0  289.5245127270356 15.00111647802846 0  294.5245130692467 15.00117855877667 0  299.5245132933284 15.00124040432608 0  304.5245134242754 15.00130200376291 0  309.5245134947108 15.00136336036864 0  4.52443995090023 22.49749413188039 0  -0.4755601054227627 22.49742642696588 0  9.524440004629405 22.49756168573062 0  14.52444005406655 22.49762916056446 0  19.524440094143 22.49769661960981 0  24.52444011718821 22.4977641229674 0  29.52444011328038 22.49783173064164 0  34.52444007010408 22.49789950419311 0  39.52443997250948 22.49796750785795 0  44.52443980191806 22.49803580955435 0  49.52443953564926 22.49810448196281 0  54.52443914619551 22.498173603757 0  59.52443860045828 22.498243261019 0  64.52443785896169 22.49831354885342 0  69.52443687508449 22.49838457320064 0  74.52443559439681 22.49845645282642 0  79.52443395426683 22.49852932141504 0  84.52443188402354 22.49860332959732 0  89.52442930616435 22.49867864656519 0  94.52442613939829 22.49875546060058 0  99.52442230477078 22.49883397727752 0  104.5244177367655 22.49891441312575 0  109.5244124021303 22.49899698092689 0  114.524406330146 22.4990818602291 0  119.5243996587954 22.49916914274785 0  124.5243927009052 22.49925873692247 0  129.5243860308061 22.49935020981544 0  134.5243805814808 22.49944254145275 0  139.5243777179963 22.49953377789001 0  144.5243792069745 22.49962062520588 0  149.5243869329058 22.49969821047105 0  164.5244107198998 22.49981630966979 0  159.5244065251921 22.49979811107706 0  169.5244111771096 22.49983436251341 0  174.5244095932227 22.49985596544943 0  179.5244073375968 22.4998828110976 0  184.5244052484205 22.49991527783644 0  189.5244037284279 22.49995304301597 0  194.5244029007045 22.49999548646192 0  199.524402734829 22.5000419132329 0  204.5244031295798 22.50009166095165 0  209.5244039610758 22.50014414293054 0  214.5244051080349 22.50019885877395 0  219.5244064633137 22.50025539006896 0  224.5244079378161 22.50031339029562 0  229.524409460481 22.500372573395 0  234.5244109764895 22.50043270296457 0  239.5244124448415 22.50049358281904 0  244.5244138358923 22.50055504907128 0  249.5244151291079 22.50061696363915 0  254.5244163111439 22.50067920899724 0  259.5244173742368 22.50074168398313 0  264.5244183148984 22.50080430048704 0  269.524419132853 22.50086698088458 0  274.5244198301963 22.50092965609956 0  279.5244204107524 22.5009922641988 0  284.5244208796532 22.50105474941442 0  289.5244212432132 22.50111706144001 0  294.5244215092656 22.50117915472904 0  299.5244216881997 22.501240987
[...]
<PointData  Scalars="p"> 
<DataArray  type="Float64"  Name="p"  format="ascii">1.0000000000000001e-01  1.0000000000000003e-01  9.9997878428916082e-02  1.0000000000000003e-01  1.0000000000000003e-01  9.9998660728509797e-02  1.0000000000000003e-01  9.9997973125743170e-02  1.0000000000000003e-01  9.9998123586825152e-02  1.0000000000000003e-01  9.9997720728768821e-02  1.0000000000000003e-01  9.9996246965677354e-02  1.0000000000000003e-01  9.9996177197522074e-02  1.0000000000000003e-01  9.9995172667645474e-02  1.0000000000000003e-01  9.9993436922832218e-02  1.0000000000000003e-01  9.9994712943623346e-02  1.0000000000000003e-01  9.9987492347783702e-02  1.0000000000000003e-01  9.9986126210744791e-02  1.0000000000000003e-01  9.9982875282958295e-02  1.0000000000000003e-01  9.9980954098108338e-02  1.0000000000000003e-01  9.9974821552532081e-02  1.0000000000000003e-01  9.9972877695958806e-02  1.0000000000000003e-01  9.9967604448294459e-02  1.0000000000000003e-01  9.9959819331034372e-02  1.0000000000000003e-01  9.9956851003277641e-02  1.0000000000000003e-01  9.9947551893934852e-02  1.0000000000000003e-01  9.9941399045319054e-02  1.0000000000000003e-01  9.9930557594927999e-02  1.0000000000000003e-01  9.9929926725624299e-02  1.0000000000000003e-01  9.9905157330935870e-02  1.0000000000000003e-01  9.9922490202009370e-02  1.0000000000000003e-01  9.9873183665276616e-02  1.0000000000000003e-01  9.9922606689731297e-02  1.0000000000000003e-01  9.9831541419643843e-02  1.0000000000000003e-01  9.9934490076954471e-02  1.0000000000000001e-01  9.9765826333088795e-02  1.0000000000000001e-01  1.0000000000000003e-01  1.0013662435142148e-01  1.0034093806524981e-01  1.0000000000000003e-01  1.0001539208777892e-01  1.0000000000000003e-01  1.0010366387043450e-01  1.0000000000000003e-01  1.0005103611377206e-01  1.0000000000000003e-01  1.0006413905285595e-01  1.0000000000000003e-01  1.0004990436848908e-01  1.0000000000000003e-01  1.0005332509920048e-01  1.0000000000000003e-01  1.0004116843691412e-01  1.0000000000000003e-01  1.0004157714661398e-01  1.0000000000000003e-01  1.0003663858352790e-01  1.0000000000000003e-01  1.0003266787242800e-01  1.0000000000000003e-01  1.0002986480291935e-01  1.0000000000000003e-01  1.0002780192846272e-01  1.0000000000000003e-01  1.0002440896511151e-01  1.0000000000000003e-01  1.0002286270356205e-01  1.0000000000000003e-01  1.0002122184015753e-01  1.0000000000000003e-01  1.0001924796741249e-01  1.0000000000000003e-01  1.0001808236029640e-01  1.0000000000000003e-01  1.0001712385693734e-01  1.0000000000000003e-01  1.0001580356525855e-01  1.0000000000000003e-01  1.0001518965816332e-01  1.0000000000000003e-01  1.0001434428514873e-01  1.0000000000000003e-01  1.0001392957080590e-01  1.0000000000000003e-01  1.0001287346195879e-01  1.0000000000000003e-01  1.0001343647293237e-01  1.0000000000000003e-01  1.0001128313915911e-01  1.0000000000000003e-01  1.0001379169113338e-01  1.0000000000000003e-01  1.0000872055433840e-01  1.0000000000000003e-01  1.0001679717169044e-01  1.0000000000000001e-01  1.0000000000000003e-01  9.9995283207043206e-02  1.0000000000000003e-01  9.9996016323162115e-02  9.9995839697503683e-02  9.9995285113703897e-02  9.9993353859592224e-02  9.9993654972111545e-02  9.9993063768655646e-02  9.9990034970180747e-02  9.9991822343040687e-02  9.9990318686119781e-02  9.9989292912399830e-02  9.9980413795672296e-02  9.9985117559273501e-02  9.9976984503011027e-02  9.9981295965413455e-02  9.9976890285998432e-02  9.9970624235808533e-02  9.9971537099877480e-02  9.9967714392925344e-02  9.9957332399554691e-02  9.9961822628257979e-02  9.9950835826959170e-02  9.9950310098163117e-02  9.9938448062092566e-02  9.9954308614835494e-02  9.9908796132061772e-02  9.9980642418802307e-02  9.9851497267325465e-02  1.0004900160329522e-01  9.9763630978580972e-02  9.9835454361716869e-02  1.0048256575009902e-01  1.0017453176384818e-01  1.0001804507320508e-01  1.0004620224905530e-01  1.0003683541150674e-01  1.0005219013400801e-01  1.0002780643580254e-01  1.0003833988024158e-01  1.0003292176594490e-01  1.0002712538213981e-01  1.0002629334872769e-01  1.0002562923787740e-01  1.0002021988168197e-01  1.0001992722382765e-01  1.0001883453924242e-01  1.0001581059222467e-01  1.0001512861347468e-01  1.0001439076440613e-01  1.0001236159748420e-01  1.0001166560335630e-01  1.0001105750016516e-01  1.0000951070698152e-01  1.0000911896235322e-01  1.0000800324638337e-01  1.0000777773207560e-01  1.0000580483123667e-01  1.0000757365007742e-01  1.0000274612629310e-01  1.0000858242967117e-01  1.0000000000000003e-01  9.9992443887262361e-02  1.0000000000000003e-01  9.9995540686861131e-02  9.9993608353598662e-02  9.9991774210267254e-02  9.9991890570520062e-02  9.9991224461012759e-02  9.9986948434115180e-02  9.9988132012916203e-02  9.9987344591257923e-02  9.9983034959527498e-02  9.9981574569462647e-02  9.9987547535108093e-02  9.9963886310449848e-02  9.9975396710326583e-02  9.9969546089498790e-02  9.9961037800631022e-02  9.9964725399377535e-02  9.9958668994818020e-02  9.9945601794789909e-02  9.9948837394801357e-02  9.9942213167570890e-02  9.9923319450919965e-02  9.9935093133316111e-02  9.9911415042207463e-02  9.9921044595919425e-02  9.9888207315680225e-02  9.9939664060334887e-02  9.9820906577163596e-02  1.0003674289279409e-01  9.9632233551059879e-02  9.9924380480301167e-02  1.0038644795593178e-01  1.0022887740043049e-01  1.0004023779727185e-01  1.0006169970096851e-01  1.0009684139346356e-01  1.0003565444718146e-01  1.0006997048361162e-01  1.0005717338967317e-01  1.0004600245458875e-01  1.0004616712699371e-01  1.0004611480880975e-01  1.0003509100613772e-01  1.0003581422218606e-01  1.0003389320589329e-01  1.0002782974645766e-01  1.0002708005534772e-01  1.0002610271913746e-01  1.0002203961946875e-01  1.0002130296023862e-01  1.0002027425096693e-01  1.0001771574417208e-01  1.0001668674720428e-01  1.0001596440058166e-01  1.0001373763139099e-01  1.0001352530962587e-01  1.0001140129347358e-01  1.0001214034762886e-01  1.0000765668307109e-01  1.0001360132062818e-01  1.0000000000000003e-01  9.9990584904250876e-02  1.0000000000000003e-01  9.9994267083895638e-02  9.9989784016875347e-02  9.9990685366873486e-02  9.9989811550014962e-02  9.9985121977783323e-02  9.9986221176408999e-02  9.9985120287711796e-02  9.9979284836416785e-02  9.9981499282406461e-02  9.9981156243744804e-02  9.9968230612567044e-02  9.9983606722795854e-02  9.9960853599043345e-02  9.9960316790573114e-02  9.9962966840873940e-02  9.9961633488466206e-02  9.9945859846186258e-02  9.9954649622958289e-02  9.9944578355077529e-02  9.9931500259319822e-02  9.9933889994316794e-02  9.9932579951031095e-02  9.9902082275499585e-02  9.9936955741191366e-02  9.9878475629030850e-02  9.9953426292650152e-02  9.9815134837396277e-02  1.0006103794472151e-01  9.9613270595502831e-02  9.9943093335017122e-02  1.0049438324255533e-01  1.0013819821278973e-01  1.0002492741604133e-01  1.0017843237988455e-01  9.9994953800356945e-02  1.0009022254237702e-01  1.0005916210238579e-01  1.0005237247688392e-01  1.0005066237805790e-01  1.0005574669945590e-01  1.0003778592656370e-01  1.0004174749210863e-01  1.0003957328726870e-01  1.0003132866923813e-01  1.0003073743296896e-01  1.0002995432532974e-01  1.0002422296942641e-01  1.0002370321260456e-01  1.0002272056797840e-01  1.0001904167383181e-01  1.0001820492807736e-01  1.0001698397480398e-01  1.0001471569290549e-01  1.0001316497952356e-01  1.0001277988286390e-01  1.0000959918040669e-01  1.0001084388370758e-01  1.0000571099495101e-01  1.0001084273222455e-01  1.0000000000000003e-01  9.9988686704720206e-02  1.0000000000000003e-01  9.9991928982971212e-02  9.9989015619432256e-02  9.9989438353553839e-02  9.9984262038072924e-02  9.9985496440258073e-02  9.9983982297962667e-02  9.9977302556217382e-02  9.9979695847912081e-02  9.9979013991535470e-02  9.9967655936146815e-02  9.9974713721086711e-02  9.9967286029011920e-02  9.9969409884061208e-02  9.9951112761260452e-02  9.9959081337874928e-02  9.9940618013297317e-02  9.9952743541350919e-02  9.9944665119559378e-02  9.9925523489359389e-02  9.9937477687704140e-02  9.9922834564444771e-02  9.9910270374731158e-02  9.9907407784841126e-02  9.9919911570739400e-02  9.9860125456510421e-02  9.9951764430562459e-02  9.9790252998908355e-02  1.0006739440488631e-01  9.9555854706788530e-02  9.9851045407346517e-02  1.0054857311491451e-01  1.0019599368704625e-01  1.0008517616008145e-01  1.0007985620755951e-01  1.0011086662708533e-01  1.0007197771718317e-01  1.0006612469959296e-01  1.0005880087085291e-01  1.0007803362814723e-01  1.0004555071371637e-01  1.0005574298005791e-01  1.0005259706624325e-01  1.0004060240121333e-01  1.0004073647167987e-01  1.0004054336101685e-01  1.0003143832514774e-01  1.0003130142414306e-01  1.0003032686427307e-01  1.0002496887509021e-01  1.0002405991922748e-01  1.0002313970269684e-01  1.0001930626836561e-01  1.0001839315785505e-01  1.0001670935839091e-01  1.0001481587061359e-01  1.0001233050031140e-01  1.0001299897321393e-01  1.0000751181969596e-01  1.0001280092695848e-01  1.0000000000000003e-01  9.9986463030373382e-02  1.0000000000000003e-01  9.9991593632699938e-02  9.9987653828313705e-02  9.9984971170405668e-02  9.9984532989030594e-02  9.9983780178985307e-02  9.9977012091467976e-02  9.9978496072221271e-02  9.9977807054955806e-02  9.9968168181598260e-02  9.9971760371936919e-02  9.9968502372426021e-02  9.9959325324513751e-02  9.9960338041582303e-02  9.9974891701107668e-02  9.9927501114451298e-02  9.9953503694347454e-02  9.9942799609094524e-02  9.9927180172530022e-02  9.9938004773432496e-02  9.9931674571182946e-02  9.9902476565799384e-02  9.9926540160255581e-02  9.9899031577891165e-02  9.9903194488091304e-02  9.9871175954911934e-02  9.9947119506196516e-02  9.9771059162329381e-02  1.0009247193142105e-01  9.9511879035969447e-02  9.9885408458702210e-02  1.0050783674498016e-01  1.0024441412529196e-01  1.0000216499145839e-01  1.0012177163975852e-01  1.0009897956712170e-01  1.0010671454496699e-01  1.0003910990722703e-01  1.0010474910292198e-01  1.0004039025164548e-01  1.0006870771362271e-01  1.0006159934648705e-01  1.0004673714646606e-01  1.0004693998044011e-01  1.0004895117653019e-01  1.0003579257414556e-01  1.0003692426939782e-01  1.0003593428315820e-01  1.0002823714241590e-01  1.0002774158098099e-01  1.0002704597303406e-01  1.0002192913536383e-01  1.0002088458214736e-01  1.0001992794235955e-01  1.0001599900686271e-01  1.0001540179878482e-01  1.0001263469948943e-01  1.0001240948736485e-01  1.0000721729487300e-01  1.0001196107090540e-01  1.0000000000000003e-01  9.9985263984491618e-02  1.0000000000000003e-01  9.9990958474185251e-02  9.9983775493891799e-02  9.9985291596026857e-02  9.9983345485674488e-02  9.9977481392230824e-02  9.9978232581979978e-02  9.9977535771087353e-02  9.9968041628081969e-02  9.9971780967939239e-02  9.9969036708198553e-02  9.9956631725219902e-02  9.9961490002272793e-02  9.9963812251359085e-02  9.9939766969528887e-02  9.9970645143248563e-02  9.9930651730558151e-02  9.9925911105937015e-02  9.9936803800770260e-02  9.9931715115531103e-02  9.9907065227632458e-02  9.9921690482855638e-02  9.9916346409469559e-02  9.9875643310270518e-02  9.9919865984800876e-02  9.9860583943993927e-02  9.9925900433975909e-02  9.9780570150142092e-02  1.0008690315252955e-01  9.9475488880797339e-02  9.9908919672479043e-02  1.0055676469391316e-01  1.0018785274831017e-01  1.0004087745311745e-01  1.0015511901470224e-01  1.0005962353227757e-01  1.0008926224383376e-01  1.0013917570129788e-01  1.0003194159247999e-01  1.0008424548490380e-01  1.0006868722151478e-01  1.0005785233554486e-01  1.0005407922029688e-01  1.0006072819563328e-01  1.0004163904056089e-01  1.0004448444098711e-01  1.0004403490810578e-01  1.0003410254991869e-01  1.0003329986823550e-01  1.0003294943922633e-01  1.0002606616503784e-01  1.0002539937524897e-01  1.0002418421986542e-01  1.0001997527232503e-01  1.0001823422771992e-01  1.0001739578099700e-01  1.0001317512484767e-01  1.0001363427072790e-01  1.0000824257783361e-01  1.0001261465894991e-01  1.0000000000000003e-01  9.9984080068962145e-02  1.0000000000000003e-01  9.9988914180637864e-02  9.9983887960730725e-02  9.9984626066200608e-02  9.9978106851232484e-02  9.9979008784877046e-02  9.9977627926062712e-02  9.9969034271320770e-02  9.9971962894716937e-02  9.9970586003858872e-02  9.9957589188478496e-02  9.9962315730226542e-02  9.9961281504029581e-02  9.9943119021740745e-02  9.9958556663639966e-02  9.9945991098202319e-02  9.9949030111387907e-02  9.9922525822681171e-02  9.9935319728185618e-02  9.9902758773302139e-02  9.9930350776631274e-02  9.9913098161664757e-02  9.9891654900735663e-02  9.9900050780084057e-02  9.9912626026764040e-02  9.9835721471392011e-02  9.9948469185533156e-02  9.9769307873834645e-02  1.0007574752238234e-01  9.9473140856176881e-02  9.9850338811484390e-02  1.0060592704182614e-01  1.0022255355382968e-01  1.0007113035198348e-01  1.0010871739256401e-01  1.0007388991168480e-01  1.0012820963136142e-01  1.0006143777734260e-01  1.0011701180028855e-01  1.0005984071255454e-01  1.0007212570832109e-01  1.0005305497807494e-01  1.0007527595746366e-01  1.0004478871923343e-01  1.0005187094926161e-01  1.0005108566847473e-01  1.0003858047104058e-01  1.0003850177229552e-01  1.0003918116229857e-01  1.0002944470509305e-01  1.0002903306764119e-01  1.0002839362251191e-01  1.0002241815235571e-01  1.0002147159046401e-01  1.0001987915075554e-01  1.0001654804216216e-01  1.0001381282597857e-01  1.0001415566525450e-01  1.0000793186741568e-01  1.0001241014901442e-01  1.0000000000000003e-01  9.9982493079473322e-02  1.0000000000000003e-01  9.9989123279318901e-02  9.9983385263015950e-02  9.9980779422644467e-02  9.9979247366825022e-02  9.9978843253487035e-02  9.9970642302135856e-02  9.9972294658482161e-02  9.9971534569334192e-02  9.9960684136406242e-02  9.9963369974632788e-02  9.9962264418198429e-02  9.9945849281859081e-02  9.9955189252392787e-02  9.9951248869381976e-02  9.9936139048170641e-02  9.9940579886938330e-02  9.9962237990660160e-02  9.9889552310754040e-02  9.9930367737094031e-02  9.9917774945193216e-02  9.9886654976098110e-02  9.9919186293023640e-02  9.9893745470874998e-02  9.9881533910818360e-02  9.9866475635300544e-02  9.9939908149991152e-02  9.9743560710843435e-02  1.0009918218716142e-01  9.9458083994681465e-02  9.9858024325423095e-02  1.0058548618418583e-01  1.0025762919563574e-01  1.0002467235467302e-01  1.0013042596692086e-01  1.0011022536861662e-01  1.0008148724481931e-01  1.0008540965677608e-01  1.0010233697146803e-01  1.0009818268137173e-01  1.0004185243197422e-01  1.0009300350752591e-01  1.0004364766353220e-01  1.0006188433777109e-01  1.0005843722389916e-01  1.0004443556249842e-01  1.0004325926190465e-01  1.0004612523033161e-01  1.0003375447495413e-01  1.0003408168532867e-01  1.0003339153587033e-01  1.0002572748391278e-01  1.0002465694813621e-01  1.0002411665785226e-01  1.0001853538730907e-01  1.0001784813063616e-01  1.0001514186660163e-01  1.0001378816787265e-01  1.0000852931897319e-01  1.0001277741777424e-01  1.0000000000000003e-01  9.9981851104782651e-02  1.0000000000000003e-01  9.9988999184915592e-02  9.9980281236213719e-02  9.9981803521637172e-02  9.9979181731949932e-02  9.9973016594772271e-02  9.9973281414719339e-02  9.9972546677727855e-02  9.9962562977049030e-02  9.9965634285587315e-02  9.9964342071187165e-02  9.9949018507497961e-02  9.9955567482402544e-02  9.9954068631490853e-02  9.9935460676766411e-02  9.9944705466934292e-02  9.9949585101546612e-02  9.9911280423654145e-02  9.9961258517156662e-02  9.9902023467579773e-02  9.9893955364209072e-02  9.9911867097109947e-02  9.9913332508559063e-02  9.9859566098251390e-02  9.9919455636032120e-02  9.9859567446894865e-02  9.9906951103229835e-02  9.9777933896886731e-02  1.0009163973285305e-01  9.9431433734570432e-02  9.9877187550870813e-02  1.0061149799375387e-01  1.0022441947824999e-01  1.0003714490208318e-01  1.0016323019339203e-01  1.0006846498597528e-01  1.0009971707680551e-01  1.0010525558928841e-01  1.0007811193606511e-01  1.0007082354747146e-01  1.0012292140824380e-01  1.0003092095252389e-01  1.0007414524784891e-01  1.0005983702801713e-01  1.0005289428628686e-01  1.0004655720803088e-01  1.0005374720211448e-01  1.0003689283758148e-01  1.0003827617889696e-01  1.0003889523296118e-01  1.0002949499861027e-01  1.0002808166408288e-01  1.0002768604593551e-01  1.0002137794829566e-01  1.0001983096474919e-01  1.0001914613642218e-01  1.0001398714326568e-01  1.0001422502085212e-01  1.0000890019676324e-01  1.0001246250025420e-01  1.0000000000000003e-01  9.9981305882782201e-02  1.0000000000000003e-01  9.9987608508691150e-02  9.9981029012408656e-02  9.9982118513579354e-02  9.9975018015258807e-02  9.9975492376355210e-02  9.9973931692143886e-02  9.9965429769023756e-02  9.9967273605023194e-02  9.9966892575095029e-02  9.9953220646466612e-02  9.9957967901991532e-02  9.9956721744893937e-02  9.9938975837986041e-02  9.9947967936520984e-02  9.9947828251531284e-02  9.9920678929587184e-02  9.9944972611488089e-02  9.9928881322844776e-02  9.9928089573689011e-02  9.9899979513737192e-02  9.9911938577913958e-02  9.9871841585549265e-02  9.9903530616035963e-02  9.9909739636750025e-02  9.9823593093253754e-02  9.9947869744207635e-02  9.9775904761198450e-02  1.0005368490394517e-01  9.9471084773210289e-02  9.9835816389715462e-02  1.0066113116383023e-01  1.0023448707408361e-01  1.0006406389915591e-01  1.0012815647341194e-01  1.0007973997025980e-01  1.0012702646980690e-01  1.0007575416219806e-01  1.0008069018040203e-01  1.0010007152671352e-01  1.0006113623723162e-01  1.0009683125128090e-01  1.0005097527249136e-01  1.0006362107492188e-01  1.0004489169515911e-01  1.0006412431398314e-01  1.0003925955371235e-01  1.0004336324626716e-01  1.0004366738509322e-01  1.0003269321320377e-01  1.0003207419758123e-01  1.0003289533775310e-01  1.0002383122097049e-01  1.0002306788769215e-01  1.0002185766213656e-01  1.0001727290201610e-01  1.0001465538411944e-01  1.0001505582906951e-01  1.0000842899539657e-01  1.0001257097243210e-01  1.0000000000000003e-01  9.9980232866149571e-02  1.0000000000000003e-01  9.9988050584957439e-02  9.9981168519028760e-02  9.9979171914906267e-02  9.9976708533224962e-02  9.9976336772639590e-02  9.9968206895101969e-02  9.9969106376030653e-02  9.9968702610862173e-02  9.9957771672824478e-02  9.9960055744163265e-02  9.9959751254597967e-02  9.9943931352627746e-02  9.9950173495020264e-02  9.9950726639101928e-02  9.9927063695911353e-02  9.9942233563706601e-02  9.9937746215352910e-02  9.9915517587010491e-02  9.9924086866752915e-02  9.9956535448918776e-02  9.9849837628821242e-02  9.9920344635074154e-02  9.9888855996700471e-02  9.9869351885261470e-02  9.9875184905103956e-02  9.9941291806205243e-02  9.9735685742545682e-02  1.0009534073708695e-01  9.9475886886011070e-02  9.9819015405592404e-02  1.0065861127836653e-01  1.0026881196350944e-01  1.0003109977429010e-01  1.0013315281519050e-01  1.0010674276866688e-01  1.0009596988738395e-01  1.0008086920241421e-01  1.0010847635429446e-01  1.0006576032836084e-01  1.0007364648051940e-01  1.0007974616950246e-01  1.0008525168035895e-01  1.0003201195658318e-01  1.0007663624862813e-01  1.0003685251891224e-01  1.0005015609779913e-01  1.0004779499522197e-01  1.0003656748256894e-01  1.0003442619529408e-01  1.0003716899379728e-01  1.0002707588457359e-01  1.0002639836367599e-01  1.0002570154720207e-01  1.0001875852613275e-01  1.0001789240053575e-01  1.0001580807745644e-01  1.0001353603019075e-01  1.0000864687076531e-01  1.0001255667129076e-01  1.0000000000000003e-01  9.9980192965229850e-02  1.0000000000000003e-01  9.9988487217808356e-02  9.9979157138575095e-02  9.9980803178988720e-02  9.9977697762220166e-02  9.9972186547018296e-02  9.9971557000265013e-02  9.9970949517007246e-02  9.9961547764281802e-02  9.9963687623110989e-02  9.9962795632310850e-02  9.9948942124111428e-02  9.9953537739902440e-02  9.9954494685257300e-02  9.9934163721781988e-02  9.9943847646366615e-02  9.9944331572191888e-02  9.9917182979718980e-02  9.9932806951037220e-02  9.9940198901072849e-02  9.9887254570840731e-02  9.9955711715356832e-02  9.9885996706216007e-02  9