<?xml version="1.0"?>
<VTKFile type="UnstructuredGrid"  version="0.1"  >
<UnstructuredGrid>
<Piece  NumberOfPoints="1933" NumberOfCells="3640">
<Points>
<DataArray  type="Float64"  NumberOfComponents="3"  format="ascii">-0.2935473473416274 -0.003095069158948085 0  4.706452701933125 -0.003008235165275254 0  4.706322413111359 7.49699186821428 0  -0.2936776444576759 7.496905023253561 0  9.706452792437887 -0.002921470295305645 0  9.706322502404321 7.497078628996678 0  14.7064529610554 -0.002834742139333632 0  14.70632263224876 7.497165350019181 0  19.70645323233323 -0.002747999529848133 0  19.7063228073125 7.497252085946091 0  24.70645361939668 -0.002661183531952136 0  24.70632302798387 7.497338896472876 0  29.70645412618652 -0.002574231827090431 0  29.70632328999142 7.497425843814487 0  34.70645474939027 -0.002487080076088154 0  34.70632358411003 7.497512991970181 0  39.70645547970545 -0.002399661821024332 0  39.70632389586567 7.497600407023278 0  44.70645630244142 -0.002311907638637305 0  44.70632420511032 7.497688158037537 0  49.70645719754297 -0.002223743864999404 0  49.70632448536472 7.497776318326677 0  54.70645813910112 -0.0021350910137164 0  54.70632470284514 7.497864967007865 0  59.70645909437042 -0.002045861901271723 0  59.70632481509327 7.497954190833495 0  64.70646002226 -0.001955959423463011 0  64.70632476910619 7.498044086353401 0  69.70646087119479 -0.001865273869805196 0  69.7063244988318 7.498134762507441 0  74.70646157616841 -0.00177367960188691 0  74.70632392183913 7.498226343796143 0  79.70646205468007 -0.001681030843389163 0  79.70632293489561 7.498318974233251 0  84.70646220107298 -0.001587156219611291 0  84.70632140808561 7.498412822351867 0  89.70646187848153 -0.001491851525068945 0  89.70631917696547 7.498508087614668 0  94.70646090710088 -0.001394869966532884 0  94.70631603209429 7.498605008655555 0  99.70645904660454 -0.001295908800116314 0  99.70631170512875 7.498703873811706 0  104.7064559690063 -0.001194590837964986 0  104.7063058506065 7.498805034279726 0  109.7064512154795 -0.00109043877346334 0  109.7062980228259 7.498908919674443 0  114.7064441256314 -0.0009828398554808961 0  114.7062876484198 7.499016054167003 0  119.7064337185111 -0.0008709987958007929 0  119.7062739986056 7.499127067353165 0  124.7064184876867 -0.0007538799014913239 0  124.7062561735188 7.49924268460798 0  129.7063960414993 -0.0006301509492399065 0  129.7062331304354 7.499363660820104 0  134.7063624621234 -0.0004981776803667017 0  134.706203830409 7.499490577333289 0  139.7063111509123 -0.0003562298938987827 0  139.7061676689036 7.499623336215754 0  144.7062307260211 -0.0002034252997325264 0  144.7061255476555 7.499760053234895 0  149.7061011105399 -4.326977693900704e-05 0  149.7060823624796 7.499895040493304 0  159.7061073738532 1.145868275721555e-18 0  164.70611951479 -3.744034433906741e-05 0  164.7061112197673 7.499949289712801 0  159.7060987061015 7.49996954082397 0  169.7061467488011 -4.124437499694824e-05 0  169.7061234430268 7.499952496687802 0  174.7061780942352 -2.196482905776331e-05 0  174.7061369513774 7.499975006290458 0  179.7062088698971 1.370051793330044e-05 0  179.7061513527182 7.500012253528109 0  184.706237207336 6.120427312779958e-05 0  184.7061659382429 7.500060554157071 0  189.7062625119877 0.0001173839753947244 0  189.7061801224615 7.500117139823318 0  194.7062847542147 0.0001800076264761693 0  194.7061935179198 7.500179970171344 0  199.7063041384149 0.000247477157962273 0  199.7062059065325 7.500247543385294 0  204.7063209496345 0.0003186307608200227 0  204.7062171917071 7.50031874692247 0  209.7063354843839 0.0003926103938447988 0  209.7062273563277 7.500392748309308 0  214.7063480213481 0.0004687724468326017 0  214.7062364316942 7.500468917368455 0  219.7063588107682 0.0005466269156372431 0  219.7062444763568 7.50054677123947 0  224.7063680723349 0.000625795444885766 0  224.7062515623896 7.500625935414017 0  229.7063759967604 0.00070598193983771 0  229.7062577668393 7.500706115897446 0  234.706382748758 0.000786951644155081 0  234.7062631666272 7.500787079099278 0  239.7063884703931 0.0008685160023072758 0  239.7062678356888 7.500868637128363 0  244.7063932843713 0.0009505215424305306 0  244.7062718435498 7.500950636911074 0  249.7063972970923 0.001032841609335886 0  249.706275254802 7.501032952055632 0  254.7064006014503 0.001115370166779633 0  254.7062781291509 7.501115476730346 0  259.7064032793951 0.001198017149784083 0  259.7062805218035 7.501198121060861 0  264.7064054043236 0.001280705031390979 0  264.7062824840663 7.501280807721702 0  269.7064070433359 0.001363366407050505 0  269.7062840640509 7.501363469526025 0  274.7064082594316 0.001445942518012466 0  274.7062853074106 7.501446047924403 0  279.7064091136509 0.001528382752615313 0  279.7062862580428 7.501528492422777 0  284.7064096671542 0.001610645300491302 0  284.7062869586791 7.501610761032509 0  289.7064099830692 0.001692699309579302 0  289.7062874512732 7.5016928219766 0  294.7064101277527 0.001774529124878425 0  294.7062877771347 7.501774656993113 0  299.706410170572 0.001856141451122154 0  299.7062879768082 7.501856266678959 0  304.7064101803496 0.001937576381249192 0  304.7062880900606 7.501937678379957 0  309.7064102145251 0.002018922146046218 0  309.7062881571574 7.502018957319083 0  4.706192002214977 14.99699207385906 0  -0.2938080510248413 14.9969052454357 0  9.706192062698173 14.99707879625236 0  14.70619213144889 14.99716547809615 0  19.70619220436238 14.99725217992141 0  24.70619227421776 14.99733896170086 0  29.70619233082712 14.9974258841124 0  34.7061923605597 14.99751300919196 0  39.70619234566878 14.99760040106437 0  44.70619226352553 14.99768812689407 0  49.70619208574804 14.99777625805927 0  54.70619177717681 14.99786487153945 0  59.70619129463748 14.9979540515247 0  64.70619058543336 14.99804389127844 0  69.70618958550821 14.99813449530452 0  74.70618821723485 14.99822598188388 0  79.70618638680129 14.99831848604719 0  84.70618398122586 14.99841216302821 0  89.70618086514467 14.99850719217174 0  94.70617687774937 14.99860378109562 0  99.70617183068524 14.99870216952889 0  104.7061655085361 14.99880263146731 0  109.7061576749226 14.99890547274371 0  114.7061480896404 14.99901101814353 0  119.7061365460451 14.99911957667607 0  124.7061229433848 14.99923136372031 0  129.7061074153569 14.99934634195809 0  134.7060905402854 14.99946391682991 0  139.7060736482719 14.99958238767312 0  144.7060591841492 14.99969802464758 0  149.7060508979348 14.99980363066507 0  164.706077866843 14.99991251871922 0  159.7060707124988 14.99989981951536 0  169.7060820045371 14.99993382513203 0  174.7060856890885 14.99996588248609 0  179.7060899346811 15.00000809608683 0  184.7060949294952 15.00005895202654 0  189.7061005195929 15.00011682894016 0  194.7061064536912 15.00018028858454 0  199.7061124896657 15.00024814550076 0  204.7061184320663 15.00031945384442 0  209.7061241384413 15.00039346924157 0  214.7061295133345 15.00046960816192 0  219.7061344987189 15.0005474124279 0  224.7061390645856 15.00062652052426 0  229.70614320101 15.00070664520884 0  234.7061469119639 15.00078755631402 0  239.706150210699 15.00086906760951 0  244.7061531164172 15.00095102677157 0  249.706155651937 15.00103330771299 0  254.7061578420942 15.00111580471395 0  259.7061597126846 15.00119842794857 0  264.7061612897782 15.00128110012159 0  269.7061625992932 15.00136375402733 0  274.7061636667395 15.0014463309193 0  279.7061645170579 15.00152877964114 0  284.7061651745608 15.00161105651671 0  289.7061656629706 15.00169312601734 0  294.7061660057349 15.0017749621955 0  299.7061662269173 15.00185655075144 0  304.7061663533307 15.00193789130028 0  309.706166419085 15.00201899881818 0  4.70606164126703 22.4969924090648 0  -0.2939384061139204 22.49690567908582 0  9.706061677890181 22.49707903822342 0  14.70606169714424 22.4971656361414 0  19.70606169057121 22.49725226416294 0  24.7060616478796 22.4973389803004 0  29.70606155683501 22.49742584191381 0  34.7060614028661 22.49751290723032 0  39.70606116850693 22.4976002364127 0  44.70606083276861 22.49768789251712 0  49.70606037048413 22.49777594248366 0  54.70605975163748 22.49786445821117 0  59.70605894068575 22.49795351773247 0  64.7060578958945 22.49804320648806 0  69.7060565687347 22.49813361867781 0  74.70605490344397 22.49822485864091 0  79.70605283693071 22.49831704215522 0  84.70605029933068 22.49841029744032 0  89.70604721572273 22.49850476545653 0  94.70604350980967 22.49860059875805 0  99.70603911081059 22.49869795758378 0  104.7060339654229 22.49879700091331 0  109.7060280574966 22.49889786865529 0  114.706021438906 22.49900064870239 0  119.7060142756273 22.49910531901675 0  124.7060069123252 22.49921165024947 0  129.7059999548059 22.49931904979973 0  134.7059943587983 22.49942632798692 0  139.705991489775 22.49953138335549 0  144.7059930754906 22.49963086809027 0  149.7060009139664 22.49972008416448 0  164.7060206943906 22.49986961436381 0  159.7060180318681 22.49983333208313 0  169.7060207383757 22.49990789827657 0  174.7060196024204 22.49995107703016 0  179.7060183447757 22.5000001950756 0  184.7060175375483 22.50005519197252 0  189.706017394835 22.50011548271027 0  194.7060179208872 22.50018030493814 0  199.7060190179767 22.50024889541937 0  204.7060205519943 22.50032056619193 0  209.7060223876709 22.50039472847218 0  214.7060244049786 22.5004708919589 0  219.7060265049311 22.50054865409643 0  224.7060286099244 22.5006276864335 0  229.7060306615871 22.50070772129596 0  234.7060326177589 22.5007885400234 0  239.7060344494025 22.50086996309245 0  244.7060361378151 22.50095184204515 0  249.7060376722602 22.50103405299598 0  254.7060390480347 22.50111649146316 0  259.7060402649123 22.5011990682939 0  264.7060413259204 22.50128170649099 0  269.7060422363746 22.5013643387899 0  274.7060430031398 22.50144690586713 0  279.7060436340929 22.50152935508033 0  284.7060441378131 22.50161163963514 0  289.7060445235716 22.50169371802983 0  294.7060448017949 22.50177555352032 0  299.7060449852423 22.5018571131
[...]
<PointData  Scalars="p"> 
<DataArray  type="Float64"  Name="p"  format="ascii">1.0000000000000001e-01  1.0000000000000003e-01  9.9996279281189301e-02  1.0000000000000003e-01  1.0000000000000003e-01  9.9996371133359629e-02  1.0000000000000003e-01  9.9994517270689989e-02  1.0000000000000003e-01  9.9993884686017137e-02  1.0000000000000003e-01  9.9992605703131857e-02  1.0000000000000003e-01  9.9990003028050015e-02  1.0000000000000003e-01  9.9989203050491804e-02  1.0000000000000003e-01  9.9987422566013506e-02  1.0000000000000003e-01  9.9984441799389367e-02  1.0000000000000003e-01  9.9984948286576503e-02  1.0000000000000003e-01  9.9975753163839109e-02  1.0000000000000003e-01  9.9972296674302089e-02  1.0000000000000003e-01  9.9967493687088807e-02  1.0000000000000003e-01  9.9964054510629535e-02  1.0000000000000003e-01  9.9955705193388589e-02  1.0000000000000003e-01  9.9952660032826768e-02  1.0000000000000003e-01  9.9946046910672506e-02  1.0000000000000003e-01  9.9936088436810372e-02  1.0000000000000003e-01  9.9932729840894893e-02  1.0000000000000003e-01  9.9921854751618341e-02  1.0000000000000003e-01  9.9914927852040217e-02  1.0000000000000003e-01  9.9902627406532524e-02  1.0000000000000003e-01  9.9903554871064087e-02  1.0000000000000003e-01  9.9874233211414198e-02  1.0000000000000003e-01  9.9897778888611469e-02  1.0000000000000003e-01  9.9838707671382115e-02  1.0000000000000003e-01  9.9901746186573215e-02  1.0000000000000003e-01  9.9791186369740631e-02  1.0000000000000003e-01  9.9919744481757874e-02  1.0000000000000001e-01  9.9713647061571251e-02  1.0000000000000001e-01  1.0000000000000003e-01  1.0019940796666023e-01  1.0044706510182426e-01  1.0000000000000003e-01  1.0004302068568255e-01  1.0000000000000003e-01  1.0015489150884342e-01  1.0000000000000003e-01  1.0009156156300822e-01  1.0000000000000003e-01  1.0010891748826561e-01  1.0000000000000003e-01  1.0009217655695617e-01  1.0000000000000003e-01  1.0009805846462411e-01  1.0000000000000003e-01  1.0008383305656506e-01  1.0000000000000003e-01  1.0008509923070270e-01  1.0000000000000003e-01  1.0007978513741367e-01  1.0000000000000003e-01  1.0007537128114230e-01  1.0000000000000003e-01  1.0007220124223547e-01  1.0000000000000003e-01  1.0006997326692176e-01  1.0000000000000003e-01  1.0006589204863184e-01  1.0000000000000003e-01  1.0006400289852978e-01  1.0000000000000003e-01  1.0006196975115150e-01  1.0000000000000003e-01  1.0005948562769355e-01  1.0000000000000003e-01  1.0005783847321564e-01  1.0000000000000003e-01  1.0005663538692366e-01  1.0000000000000003e-01  1.0005462000820317e-01  1.0000000000000003e-01  1.0005398741376469e-01  1.0000000000000003e-01  1.0005216771713667e-01  1.0000000000000003e-01  1.0005240762872934e-01  1.0000000000000003e-01  1.0004916599834723e-01  1.0000000000000003e-01  1.0005262905304320e-01  1.0000000000000003e-01  1.0004465549137179e-01  1.0000000000000003e-01  1.0005611114098399e-01  1.0000000000000003e-01  1.0003544096211660e-01  1.0000000000000003e-01  1.0007041139729553e-01  1.0000000000000001e-01  1.0000000000000003e-01  9.9993117701242876e-02  1.0000000000000003e-01  9.9993607026691272e-02  9.9993214926004548e-02  9.9992324215568390e-02  9.9989700014380831e-02  9.9989991312803242e-02  9.9989357293350442e-02  9.9985415584424100e-02  9.9987478058552542e-02  9.9985720355670729e-02  9.9983196291977328e-02  9.9972827608621653e-02  9.9977147440569791e-02  9.9966844183544221e-02  9.9971821542474998e-02  9.9967063679478010e-02  9.9959042394285838e-02  9.9960786339070976e-02  9.9957060969580805e-02  9.9944429968158277e-02  9.9951102099865463e-02  9.9938854479424438e-02  9.9939018724087850e-02  9.9925358559289926e-02  9.9946982852967048e-02  9.9890454435629328e-02  9.9981255134438687e-02  9.9820615804995655e-02  1.0006600580733620e-01  9.9710215993566567e-02  9.9798424971742114e-02  1.0066041591928951e-01  1.0021656804883877e-01  1.0002839334222381e-01  1.0006051020307470e-01  1.0004846081456117e-01  1.0007043229617413e-01  1.0004070546712775e-01  1.0005444873227543e-01  1.0004927525794112e-01  1.0004278033114075e-01  1.0004212597257010e-01  1.0004207817504489e-01  1.0003571136401980e-01  1.0003547260225064e-01  1.0003445819862465e-01  1.0003083324266111e-01  1.0003007073948372e-01  1.0002927838882823e-01  1.0002693482874943e-01  1.0002596598746846e-01  1.0002559505492940e-01  1.0002327365603174e-01  1.0002363154241536e-01  1.0002104416750088e-01  1.0002305877980407e-01  1.0001673709119073e-01  1.0002621343079196e-01  1.0000795496053132e-01  1.0003457639173567e-01  1.0000000000000003e-01  9.9989471561445220e-02  1.0000000000000003e-01  9.9993282540532122e-02  9.9990153180148936e-02  9.9987544231740527e-02  9.9987335104660263e-02  9.9986628153848109e-02  9.9980968689430599e-02  9.9982414061208946e-02  9.9981762367038735e-02  9.9975657352478459e-02  9.9974024299061964e-02  9.9979985570480170e-02  9.9951206770020506e-02  9.9963168144123024e-02  9.9956594207764760e-02  9.9944909169833993e-02  9.9950128666454877e-02  9.9943729198298178e-02  9.9927540642506835e-02  9.9932663319180784e-02  9.9926584325765622e-02  9.9903513744486860e-02  9.9920276864093382e-02  9.9892996036386586e-02  9.9906477237773614e-02  9.9866532544600276e-02  9.9933956883931377e-02  9.9783866644034408e-02  1.0005578502449200e-01  9.9547227963306395e-02  9.9881123805771563e-02  1.0057402331595758e-01  1.0031591897467941e-01  1.0006114113033299e-01  1.0008381868338054e-01  1.0013428602052986e-01  1.0005730880894326e-01  1.0010056479248639e-01  1.0008784257704000e-01  1.0007508762511469e-01  1.0007593321759772e-01  1.0007759245190107e-01  1.0006457793146782e-01  1.0006580362527952e-01  1.0006419897785838e-01  1.0005697409454400e-01  1.0005610016102541e-01  1.0005526741667678e-01  1.0005032896948815e-01  1.0004953793159797e-01  1.0004834568525857e-01  1.0004549840169362e-01  1.0004389345384494e-01  1.0004387513201657e-01  1.0003995517422341e-01  1.0004187552945945e-01  1.0003601167243562e-01  1.0004282362012765e-01  1.0002679825369268e-01  1.0005473458257001e-01  1.0000000000000003e-01  9.9987159657916824e-02  1.0000000000000003e-01  9.9991960243782971e-02  9.9985877588354935e-02  9.9986774870230041e-02  9.9985903108896199e-02  9.9979870912338814e-02  9.9981381667366170e-02  9.9980708343614694e-02  9.9973233452738425e-02  9.9976210271941784e-02  9.9976172487954887e-02  9.9959899465993915e-02  9.9976815513923192e-02  9.9951288202756020e-02  9.9947242058519362e-02  9.9951224808221939e-02  9.9950325374212654e-02  9.9930788950285052e-02  9.9942793146478956e-02  9.9932498950379950e-02  9.9916681787378045e-02  9.9921365186634428e-02  9.9922869453546365e-02  9.9885110436464516e-02  9.9931606141357099e-02  9.9859674959188835e-02  9.9955748736958408e-02  9.9779940405143999e-02  1.0009285055284774e-01  9.9521593448095094e-02  9.9890254374416995e-02  1.0071898338942664e-01  1.0020132299664457e-01  1.0002636672767692e-01  1.0022810958314235e-01  9.9996020183646547e-02  1.0011268097837166e-01  1.0007836078587742e-01  1.0007106309085823e-01  1.0006954638554924e-01  1.0007850239948127e-01  1.0005725303097160e-01  1.0006269969359564e-01  1.0006128236728805e-01  1.0005162734292052e-01  1.0005109969574012e-01  1.0005071177924335e-01  1.0004390050958555e-01  1.0004329671865750e-01  1.0004255044336599e-01  1.0003805540856184e-01  1.0003744017210710e-01  1.0003580666048770e-01  1.0003396947058704e-01  1.0003095513710686e-01  1.0003313153631831e-01  1.0002531437032336e-01  1.0003413759134203e-01  1.0001647506650055e-01  1.0004193697209293e-01  1.0000000000000003e-01  9.9984792162559497e-02  1.0000000000000003e-01  9.9989281566836646e-02  9.9985175380929991e-02  9.9985959900917465e-02  9.9978990157300829e-02  9.9980701533510186e-02  9.9979305619160366e-02  9.9970975908295817e-02  9.9974285357241302e-02  9.9974206880967670e-02  9.9959981134373849e-02  9.9968361212487325e-02  9.9960532399290231e-02  9.9959758109670685e-02  9.9939915491418022e-02  9.9947780679905701e-02  9.9924550982186833e-02  9.9939853379420671e-02  9.9932380154708567e-02  9.9908358123170102e-02  9.9925373582329752e-02  9.9909947023374454e-02  9.9895447061597906e-02  9.9893497284469515e-02  9.9913920813227211e-02  9.9837510012509997e-02  9.9957662278802997e-02  9.9750909268910129e-02  1.0010617731371042e-01  9.9447115264597305e-02  9.9764020925440428e-02  1.0080751351809088e-01  1.0027081123278167e-01  1.0010138032757147e-01  1.0011627644346993e-01  1.0013715962848457e-01  1.0009488340509957e-01  1.0008853493651770e-01  1.0007835592695916e-01  1.0010640512814496e-01  1.0006750003407751e-01  1.0008076404544637e-01  1.0007901606683306e-01  1.0006512155601009e-01  1.0006555535885017e-01  1.0006641391205497e-01  1.0005558358402093e-01  1.0005552012774266e-01  1.0005481084070331e-01  1.0004851128517868e-01  1.0004740436396713e-01  1.0004690022814267e-01  1.0004204364211181e-01  1.0004183061880507e-01  1.0003901710080640e-01  1.0003885994379492e-01  1.0003282640312186e-01  1.0003994643751814e-01  1.0002271079983231e-01  1.0004894711512695e-01  1.0000000000000003e-01  9.9982001115116723e-02  1.0000000000000003e-01  9.9989025100396089e-02  9.9983988379430025e-02  9.9980648321658094e-02  9.9980042807603392e-02  9.9979519775262884e-02  9.9971020785702386e-02  9.9973159369571782e-02  9.9973376312999920e-02  9.9961278532985559e-02  9.9966080352080419e-02  9.9963392082236119e-02  9.9950746075328376e-02  9.9953092395460783e-02  9.9969461757138584e-02  9.9913013159554837e-02  9.9942142184658508e-02  9.9931369284246355e-02  9.9910650272108714e-02  9.9926070596791219e-02  9.9921456175273080e-02  9.9885094216003292e-02  9.9918126715499184e-02  9.9886775229003438e-02  9.9894341062880823e-02  9.9853495711828000e-02  9.9957232327536047e-02  9.9726226856943684e-02  1.0014460254998141e-01  9.9388279587987002e-02  9.9790236575590649e-02  1.0076788138385437e-01  1.0033365330793094e-01  9.9990846429839048e-02  1.0015679992764759e-01  1.0012637433235227e-01  1.0013662108679768e-01  1.0004664715235223e-01  1.0013330958553752e-01  1.0005454014840402e-01  1.0008991226755309e-01  1.0008428993534782e-01  1.0006721682619577e-01  1.0006786366241252e-01  1.0007210793698273e-01  1.0005648605029233e-01  1.0005807239395696e-01  1.0005775690555448e-01  1.0004851797609271e-01  1.0004807845913777e-01  1.0004761261203748e-01  1.0004183270124549e-01  1.0004038291235784e-01  1.0004039356983108e-01  1.0003467401592898e-01  1.0003642893432708e-01  1.0002989444938901e-01  1.0003612961444512e-01  1.0001957422515347e-01  1.0004401569501849e-01  1.0000000000000003e-01  9.9980484675739917e-02  1.0000000000000003e-01  9.9988533144683672e-02  9.9979225819676040e-02  9.9981418187404678e-02  9.9979308728475949e-02  9.9971993718766042e-02  9.9972868638789458e-02  9.9973080482088431e-02  9.9961108546620214e-02  9.9966137534525851e-02  9.9964287401602570e-02  9.9948279337742307e-02  9.9954922587725273e-02  9.9958768087228894e-02  9.9929104970923929e-02  9.9964376047600279e-02  9.9920661503287836e-02  9.9909389353712408e-02  9.9924615649619422e-02  9.9920316021282582e-02  9.9889933546383897e-02  9.9909982460712768e-02  9.9908232969634803e-02  9.9856568765536044e-02  9.9916922865938715e-02  9.9842758198922091e-02  9.9931852980568142e-02  9.9737649507605192e-02  1.0014576410811267e-01  9.9334190880508100e-02  9.9815146526948256e-02  1.0083432453791163e-01  1.0026511962315361e-01  1.0002937888668298e-01  1.0020047288077369e-01  1.0007459479381699e-01  1.0011680131503516e-01  1.0017482072121101e-01  1.0004297247172492e-01  1.0010675717362875e-01  1.0009056684125056e-01  1.0007912042831879e-01  1.0007482008342833e-01  1.0008548866042544e-01  1.0006296621634138e-01  1.0006685577642153e-01  1.0006750473909695e-01  1.0005585778709961e-01  1.0005498351430621e-01  1.0005527598757630e-01  1.0004698876664296e-01  1.0004654508585024e-01  1.0004523313115776e-01  1.0004104049642311e-01  1.0003819425492139e-01  1.0003956916942686e-01  1.0003153543332562e-01  1.0003835071625547e-01  1.0002197594493485e-01  1.0004582816341023e-01  1.0000000000000003e-01  9.9979076026513167e-02  1.0000000000000003e-01  9.9986021596902355e-02  9.9979503648281093e-02  9.9981140958953163e-02  9.9972934711711009e-02  9.9974271736361364e-02  9.9973352727894205e-02  9.9962453304401233e-02  9.9966455554490199e-02  9.9965983277234424e-02  9.9949683846138726e-02  9.9956075884969242e-02  9.9956316272781134e-02  9.9933513003630528e-02  9.9952580574356395e-02  9.9940352998099488e-02  9.9938979321871554e-02  9.9911560848199771e-02  9.9925249435349570e-02  9.9884219220685924e-02  9.9919625270944695e-02  9.9902281304632218e-02  9.9875898714325714e-02  9.9888103936801267e-02  9.9911038553395323e-02  9.9810128989586869e-02  9.9962505703423965e-02  9.9724331191554355e-02  1.0013621885079665e-01  9.9323142663967343e-02  9.9736092881852964e-02  1.0090338817147312e-01  1.0030416004990815e-01  1.0006503020370150e-01  1.0013969145284056e-01  1.0008403966120058e-01  1.0016261653920067e-01  1.0008211800152704e-01  1.0014590004820288e-01  1.0007558611050113e-01  1.0009316590009397e-01  1.0006875126159653e-01  1.0009939137090126e-01  1.0006324762566583e-01  1.0007239599958198e-01  1.0007325335337328e-01  1.0005873981072315e-01  1.0005880255155408e-01  1.0006064582940481e-01  1.0004920295687697e-01  1.0004866928015368e-01  1.0004870307116147e-01  1.0004134261048835e-01  1.0004111352881080e-01  1.0003865258458473e-01  1.0003689760076268e-01  1.0003079394785638e-01  1.0003742625016268e-01  1.0002035340794940e-01  1.0004365164081333e-01  1.0000000000000003e-01  9.9977070396660067e-02  1.0000000000000003e-01  9.9986339464764984e-02  9.9979225335593863e-02  9.9976376905429043e-02  9.9974535025161321e-02  9.9974942654364365e-02  9.9964617742375098e-02  9.9966997966844315e-02  9.9967053837264300e-02  9.9953362029071693e-02  9.9957066497421504e-02  9.9957354098730467e-02  9.9936609688766304e-02  9.9948646903847443e-02  9.9946512782120425e-02  9.9926102108267648e-02  9.9933899339232191e-02  9.9958972471203333e-02  9.9872601647777670e-02  9.9919078572001829e-02  9.9907849207099456e-02  9.9866688020981420e-02  9.9911019817604876e-02  9.9882714020469998e-02  9.9870042057963654e-02  9.9848724032402622e-02  9.9955443280905318e-02  9.9688340208361398e-02  1.0017070490689878e-01  9.9297654627863760e-02  9.9738675961308823e-02  1.0088231837479628e-01  1.0034985595840600e-01  1.0000491071056208e-01  1.0016210582335472e-01  1.0012792193702152e-01  1.0010330698985122e-01  1.0010544003888466e-01  1.0013399048165345e-01  1.0012538609953016e-01  1.0005288673664853e-01  1.0011903623169877e-01  1.0005922728256021e-01  1.0008215925530409e-01  1.0008025772434553e-01  1.0006429259911656e-01  1.0006309755896634e-01  1.0006815549140738e-01  1.0005348935317684e-01  1.0005417177562190e-01  1.0005407510630894e-01  1.0004520079061463e-01  1.0004374384262264e-01  1.0004426794410999e-01  1.0003685031310307e-01  1.0003819694068095e-01  1.0003244778835606e-01  1.0003669556658862e-01  1.0002125761475524e-01  1.0004383608413145e-01  1.0000000000000003e-01  9.9976273940469956e-02  1.0000000000000003e-01  9.9986373288505195e-02  9.9975286975625341e-02  9.9977718027635457e-02  9.9975032877222370e-02  9.9967570655810731e-02  9.9968130627348231e-02  9.9968335835496719e-02  9.9955801281495296e-02  9.9959655181394699e-02  9.9959648681993474e-02  9.9940095729887282e-02  9.9948630567406563e-02  9.9949229357027575e-02  9.9925357223561911e-02  9.9938180961140266e-02  9.9946298917244158e-02  9.9899163178118727e-02  9.9957247380056971e-02  9.9893023844891529e-02  9.9875471582741432e-02  9.9900020655283639e-02  9.9905997936906688e-02  9.9837247707928178e-02  9.9917517559520955e-02  9.9842684879954707e-02  9.9911705029152920e-02  9.9730293940583248e-02  1.0016706856992165e-01  9.9254353543494184e-02  9.9759977954752166e-02  1.0091333222173701e-01  1.0030859950633964e-01  1.0001546323417614e-01  1.0020260066509283e-01  1.0007429664535961e-01  1.0011998251215749e-01  1.0012870748547120e-01  1.0010085105331398e-01  1.0009303529884334e-01  1.0015579687039156e-01  1.0004116027797401e-01  1.0009456929541188e-01  1.0007861643840023e-01  1.0007187083659921e-01  1.0006437649561778e-01  1.0007510675434700e-01  1.0005536917706578e-01  1.0005736932277015e-01  1.0005922748212824e-01  1.0004819366105550e-01  1.0004688169853637e-01  1.0004672314433166e-01  1.0003995930724624e-01  1.0003739792399668e-01  1.0003890140063884e-01  1.0003015046185910e-01  1.0003616953114688e-01  1.0002106670693299e-01  1.0004213590414221e-01  1.0000000000000003e-01  9.9975624305315314e-02  1.0000000000000003e-01  9.9984571935223282e-02  9.9976167620157874e-02  9.9978449252889401e-02  9.9969665798798832e-02  9.9970667513435682e-02  9.9969653003998737e-02  9.9959208105853167e-02  9.9961699816477345e-02  9.9962540734537475e-02  9.9945092573162003e-02  9.9951171677456763e-02  9.9951459720536234e-02  9.9928937985320640e-02  9.9941043745469929e-02  9.9943617814548372e-02  9.9909612525679217e-02  9.9939860150228932e-02  9.9925278339999909e-02  9.9916926636518605e-02  9.9890313628279020e-02  9.9902613774930413e-02  9.9852162658096461e-02  9.9891711981218920e-02  9.9908231129397895e-02  9.9793602181385374e-02  9.9962760582748514e-02  9.9729557332977253e-02  1.0011803832395345e-01  9.9298462004942301e-02  9.9708539917629416e-02  1.0097014396584371e-01  1.0031901720303014e-01  1.0004786982315542e-01  1.0015900458082133e-01  1.0008459406953542e-01  1.0015372458650680e-01  1.0009033894617231e-01  1.0009992819989262e-01  1.0012732565824335e-01  1.0008407591089297e-01  1.0012309657279697e-01  1.0006609889411432e-01  1.0008334412780555e-01  1.0005969506054276e-01  1.0008567746702196e-01  1.0005636340368254e-01  1.0006181885758038e-01  1.0006360099183292e-01  1.0005107056277802e-01  1.0005037529783728e-01  1.0005253275393543e-01  1.0004166501768018e-01  1.0004146141845892e-01  1.0003969649338713e-01  1.0003614935151697e-01  1.0003060155619682e-01  1.0003667352180849e-01  1.0002032035927617e-01  1.0004151504539259e-01  1.0000000000000003e-01  9.9974248902568050e-02  1.0000000000000003e-01  9.9985079606885130e-02  9.9976540323562721e-02  9.9974602647524224e-02  9.9971680332016657e-02  9.9972232391066229e-02  9.9962206624607738e-02  9.9963686944604363e-02  9.9964434935998256e-02  9.9950617892050564e-02  9.9953648213371063e-02  9.9954655601498202e-02  9.9934432809602458e-02  9.9942507391996394e-02  9.9945881362385150e-02  9.9916139250633695e-02  9.9935691433110901e-02  9.9934415610139660e-02  9.9904363271284338e-02  9.9918229742423037e-02  9.9956925496818935e-02  9.9829158570529958e-02  9.9912310185815936e-02  9.9878039716816830e-02  9.9852525892301217e-02  9.9858154260816026e-02  9.9956781916341164e-02  9.9674783979377596e-02  1.0016987946101259e-01  9.9304415245367691e-02  9.9689377023649550e-02  1.0095804825289839e-01  1.0035917767015150e-01  1.0000681353615841e-01  1.0016296259448758e-01  1.0011754795939484e-01  1.0011488870344852e-01  1.0009341940696861e-01  1.0013283116729198e-01  1.0008354224759063e-01  1.0009481073371405e-01  1.0010662599223429e-01  1.0011089976251654e-01  1.0004217092466408e-01  1.0009921527051537e-01  1.0005094239490504e-01  1.0006779830566266e-01  1.0006662593055504e-01  1.0005394836946381e-01  1.0005167788308675e-01  1.0005621888654617e-01  1.0004460379161272e-01  1.0004382688250789e-01  1.0004430943190573e-01  1.0003535857687824e-01  1.0003616152357500e-01  1.0003154949016389e-01  1.0003401874598987e-01  1.0002012343175960e-01  1.0004038657651913e-01  1.0000000000000003e-01  9.9974085241853694e-02  1.0000000000000003e-01  9.9985630175256926e-02  9.9973762271206995e-02  9.9976413203736333e-02  9.9973103695581739e-02  9.9966598635364237e-02  9.9966065391181622e-02  9.9966490140674269e-02  9.9954796423721209e-02  9.9957638684840408e-02  9.9957943995586981e-02  9.9940253408943677e-02  9.9945815507264016e-02  9.9949133335100609e-02  9.9923293393528151e-02  9.9935930602798817e-02  9.9940267728116108e-02  9.9905389287289800e-02  9.9926535214410986e-02  9.9938880199475985e-02  9.9873398619614251e-02  9.9953194494932632e-02  9.9880468627728217e-02  9