<?xml version="1.0"?>
<VTKFile type="UnstructuredGrid"  version="0.1"  >
<UnstructuredGrid>
<Piece  NumberOfPoints="1933" NumberOfCells="3640">
<Points>
<DataArray  type="Float64"  NumberOfComponents="3"  format="ascii">0.4754714708047003 -0.0001786614576763758 0  5.475471515979493 -0.0001965396274947145 0  5.475498374542317 7.499803597665253 0  0.4754982909958334 7.499821409500584 0  10.47547157628868 -0.0002145407214453128 0  10.47549852497381 7.499785619066007 0  15.47547171722208 -0.0002327187200504342 0  15.4754987772514 7.499767446990725 0  20.47547200926617 -0.0002510736173407726 0  20.47549916528576 7.499749092113889 0  25.47547251760564 -0.0002695735034739699 0  25.47549972233387 7.499730590819713 0  30.47547329990888 -0.0002881665665408334 0  30.47550048017296 7.499711996828962 0  35.47547440711556 -0.000306787605589269 0  35.47550146849848 7.499693376139486 0  40.47547588518871 -0.0003253612439676956 0  40.47550271469606 7.499674804445829 0  45.47547777702137 -0.0003438030226426609 0  45.4755042438513 7.499656366332765 0  50.47548012419637 -0.00036201902538227 0  50.47550607882286 7.499638155781055 0  55.47548296850941 -0.0003799043737000912 0  55.47550824023482 7.499620277729732 0  60.47548635323604 -0.0003973407236971661 0  60.47551074625909 7.49960285059842 0  65.47549032414435 -0.0004141927451047633 0  65.47551361205664 7.499586009802539 0  70.47549493022503 -0.0004303034308716141 0  70.47551684872582 7.49956991241175 0  75.47550022407493 -0.0004454879474459819 0  75.47552046155013 7.499554743225753 0  80.47550626177903 -0.0004595255661580642 0  80.47552444724812 7.499540722689892 0  85.47551310200814 -0.0004721489844846111 0  85.47552878980684 7.499528117263846 0  90.47552080379975 -0.0004830300102798881 0  90.47553345428042 7.499517253113309 0  95.4755294220751 -0.000491760079766422 0  95.47553837768028 7.499508534337481 0  100.4755389991524 -0.0004978233166707289 0  100.4755434557638 7.499502467388503 0  105.4755495490897 -0.0005005586756932029 0  105.475548524161 7.499499693862505 0  110.4755610289542 -0.0004991059540975819 0  110.4755533320854 7.499501034317877 0  115.4755732859835 -0.0004923278702128186 0  115.4755575073005 7.499507545819267 0  120.4755859597167 -0.0004786968524060391 0  120.4755605132793 7.499520594484799 0  125.4755982991867 -0.0004561310665240121 0  125.475561606533 7.499541938971645 0  130.4756088184938 -0.0004217621545753866 0  130.4755598204942 7.499573806096302 0  135.4756146424197 -0.0003716281318442112 0  135.4755540471678 7.499618904838687 0  140.4756102514039 -0.0003003536474068994 0  140.4755433931417 7.499680254933789 0  145.4755850364491 -0.0002012040355501626 0  145.4755282359779 7.499760620999774 0  150.4755183507538 -6.844412360402519e-05 0  150.4755130424785 7.499861589444426 0  160.4755282581469 8.632708817359895e-19 0  165.4754109271014 -0.00018217494074953 0  165.4755085364974 7.499787591320353 0  160.4755397668419 7.499929087987393 0  170.4753542110313 -0.0003271232722650094 0  170.4754766910721 7.499657757904194 0  175.4753285361526 -0.0004455868476483435 0  175.4754517560929 7.499546225272052 0  180.4753191689167 -0.0005439650141302303 0  180.4754342921103 7.499451412602184 0  185.475318426847 -0.0006269615026919065 0  185.4754230326617 7.499370358853405 0  190.4753221982016 -0.0006981283147020074 0  190.4754164549815 7.49930028724781 0  195.4753282405505 -0.0007601312713584969 0  195.4754132402326 7.49923891858653 0  200.4753353117204 -0.0008149649688164269 0  200.4754123637156 7.499184461921415 0  205.4753427149238 -0.0008641278004479341 0  205.4754130671794 7.499135529250588 0  210.4753500563192 -0.0009087559215054988 0  210.4754148029275 7.499091045478957 0  215.4753571135608 -0.0009497215775750309 0  215.4754171800982 7.4990501727812 0  220.4753637632033 -0.0009877037795020748 0  220.4754199214088 7.499012251950946 0  225.4753699398122 -0.001023238766827646 0  225.4754228307789 7.498976758407092 0  230.4753756124565 -0.00105675613395175 0  230.475425769944 7.498943269594632 0  235.4753807709214 -0.001088604910788011 0  235.4754286418568 7.498911440854346 0  240.4753854174862 -0.001119072616236624 0  240.4754313789976 7.498880987466229 0  245.475389561976 -0.001148399370005619 0  245.4754339351738 7.498851671168035 0  250.4753932187956 -0.001176788494322303 0  250.4754362797791 7.49882328992553 0  255.4753964052225 -0.001204414586790875 0  255.475438393797 7.498795670087368 0  260.4753991405314 -0.001231429735121888 0  260.4754402670411 7.498768660316636 0  265.4754014457312 -0.00125796832542671 0  265.4754418962902 7.498742126881922 0  270.4754033437753 -0.001284150732264068 0  270.4754432840803 7.498715950037084 0  275.4754048602036 -0.001310086042368584 0  275.4754444379613 7.49869002134046 0  280.4754060242054 -0.001335873828604405 0  280.4754453700912 7.498664241880062 0  285.4754068701085 -0.001361604825896483 0  285.4754460970382 7.498638521498894 0  290.4754074392478 -0.001387360123077451 0  290.4754466396473 7.498612779271391 0  295.4754077820651 -0.001413208104434399 0  295.4754470228752 7.498586945683916 0  300.4754079598634 -0.001439197738189458 0  300.4754472755169 7.498560967225634 0  305.4754080448005 -0.001465345751730745 0  305.4754474301301 7.49853481437843 0  310.4754081145112 -0.001491613689816999 0  310.4754475244764 7.498508494303609 0  5.475524853445767 14.99980390896963 0  0.4755247630926152 14.99982158265215 0  10.47552500123773 14.99978596916953 0  15.47552523577536 14.99976779416239 0  20.47552557631704 14.99974942201636 0  25.47552603796495 14.99973090148237 0  30.4755266337852 14.99971229143841 0  35.4755273752523 14.99969365965802 0  40.47552827201996 14.99967508206585 0  45.47552933142489 14.99965664278582 0  50.47553055784658 14.99963843501168 0  55.47553195191871 14.99962056267674 0  60.47553350952829 14.99960314292927 0  65.47553522051032 14.99958630947564 0  70.47553706692212 14.99957021692151 0  75.47553902076891 14.99955504631698 0  80.47554104103524 14.99954101219297 0  85.47554306988748 14.99952837146074 0  90.47554502795327 14.99951743462123 0  95.4755468087339 14.99950857975894 0  100.4755482725159 14.99950226969413 0  105.4755492408561 14.99949907225609 0  110.4755494940395 14.99949968255069 0  115.47554877642 14.99950494358959 0  120.475546818914 14.99951585630776 0  125.4755433950761 14.99953355917429 0  130.4755384376816 14.99955923653289 0  135.4755322550389 14.99959387511979 0  140.4755258911868 14.99963771435745 0  145.47552163848 14.99968908824154 0  150.4755235229384 14.99974195951728 0  165.475552850369 14.99970422974528 0  160.4755556515732 14.9997950368426 0  170.4755415790703 14.99960867496244 0  175.4755274032754 14.99951749844699 0  180.475513760867 14.9994344576568 0  185.4755021586864 14.99936021705889 0  190.4754930056371 14.99929413011353 0  195.4754861852422 14.99923512714703 0  200.4754813726777 14.99918210006495 0  205.4754781931319 14.99913404804895 0  210.475476293107 14.99909011760062 0  215.4754753671548 14.99904959936152 0  220.4754751632937 14.99901190978436 0  225.4754754791939 14.99897656966702 0  230.4754761551099 14.99894318423375 0  235.4754770663621 14.99891142621803 0  240.475478116506 14.99888102206501 0  245.4754792315782 14.99885174088756 0  250.4754803554408 14.99882338569436 0  255.4754814460947 14.99879578643549 0  260.4754824728116 14.99876879449124 0  265.4754834139038 14.99874227831441 0  270.4754842550073 14.99871612002015 0  275.4754849877342 14.99869021279004 0  280.4754856086026 14.99866445902283 0  285.4754861181814 14.99863876921835 0  290.4754865204026 14.99861306161142 0  295.4754868221686 14.99858726253789 0  300.475487033487 14.99856130732537 0  305.4754871688127 14.99853514091437 0  310.4754872508191 14.99850871584941 0  5.475550955405517 22.4998045265913 0  0.4755508673346645 22.49982209071832 0  10.47555107666749 22.4997866070294 0  15.47555125099322 22.49976840795307 0  20.47555148857451 22.49974999481935 0  25.47555179389989 22.49973143119689 0  30.47555216807126 22.49971278303033 0  35.4755526097705 22.49969412070757 0  40.4755531153709 22.49967552028855 0  45.47555367854975 22.49965706462032 0  50.47555428960666 22.49963884469577 0  55.47555493457898 22.49962096143466 0  60.47555559418866 22.49960352799029 0  65.47555624262058 22.49958667266657 0  70.47555684613415 22.49957054253011 0  75.47555736153149 22.49955530780988 0  80.47555773456057 22.49954116716718 0  85.47555789843544 22.49952835387806 0  90.47555777283596 22.49951714285443 0  95.47555726405162 22.49950785818026 0  100.4755562674134 22.49950088033567 0  105.475554673899 22.4994966513356 0  110.4755523838697 22.49949567428912 0  115.4755493323178 22.49949850088325 0  120.4755455315628 22.49950569525947 0  125.4755411383387 22.49951775474342 0  130.4755365506903 22.49953495615037 0  135.4755325317509 22.49955708170535 0  140.4755303335561 22.49958296742365 0  145.4755317393887 22.49960983451357 0  150.4755388383698 22.49963250823831 0  165.4755764296679 22.49961070457987 0  160.4755667667173 22.4996692403842 0  170.4755780974256 22.49954303148025 0  175.475574375273 22.49947293039227 0  180.4755677971165 22.49940464936644 0  185.4755602285847 22.49934036929231 0  190.4755528174254 22.49928089717352 0  195.4755461666985 22.49922626765594 0  200.4755405256123 22.49917613876093 0  205.4755359360065 22.49913001948039 0  210.4755323299186 22.49908738913103 0  215.4755295894059 22.49904775410582 0  220.4755275808969 22.49901067077881 0  225.4755261735653 22.49897575118046 0  230.475525248193 22.49894266055821 0  235.4755247006282 22.4989111116067 0  240.4755244423316 22.49888085776641 0  245.4755243994741 22.49885168671109 0  250.4755245113991 22.49882341448964 0  255.475524728911 22.49879588046207 0  260.4755250125873 22.4987689430227 0  265.4755253312408 22.49874247604379 0  270.4755256605428 22.49871636595782 0  275.4755259818191 22.49869050939828 0  280.4755262810219 22.4986648113206 0  285.4755265478756 22.49863918350666 0  290.4755267752649 22.49861354329832 0  295.4755269589891 22.49
[...]
<PointData  Scalars="p"> 
<DataArray  type="Float64"  Name="p"  format="ascii">1.0000000000000001e-01  1.0000000000000003e-01  9.9999711941378619e-02  1.0000000000000003e-01  1.0000000000000003e-01  9.9998538299466311e-02  1.0000000000000003e-01  9.9997796999146252e-02  1.0000000000000003e-01  9.9996921216330553e-02  1.0000000000000003e-01  9.9996294291551074e-02  1.0000000000000003e-01  9.9996076061093994e-02  1.0000000000000003e-01  9.9995389341126853e-02  1.0000000000000003e-01  9.9995234409932243e-02  1.0000000000000003e-01  9.9995062044459418e-02  1.0000000000000003e-01  9.9993504936803285e-02  1.0000000000000003e-01  9.9995991674655282e-02  1.0000000000000003e-01  9.9994745980667835e-02  1.0000000000000003e-01  9.9995203064997290e-02  1.0000000000000003e-01  9.9994872987971314e-02  1.0000000000000003e-01  9.9996445500580594e-02  1.0000000000000003e-01  9.9996546430295846e-02  1.0000000000000003e-01  9.9998465530636418e-02  1.0000000000000003e-01  1.0000110301653944e-01  1.0000000000000003e-01  1.0000254802294904e-01  1.0000000000000003e-01  1.0000671918397651e-01  1.0000000000000003e-01  1.0000974707805230e-01  1.0000000000000003e-01  1.0001498919572310e-01  1.0000000000000003e-01  1.0001693750593384e-01  1.0000000000000003e-01  1.0002769274436096e-01  1.0000000000000003e-01  1.0002319404765099e-01  1.0000000000000003e-01  1.0004390261240037e-01  1.0000000000000003e-01  1.0002697207962134e-01  1.0000000000000003e-01  1.0006376049536250e-01  1.0000000000000003e-01  1.0002574286303979e-01  1.0000000000000001e-01  1.0009255175076470e-01  1.0000000000000001e-01  1.0000000000000003e-01  9.9978349731907099e-02  9.9895433963527278e-02  1.0000000000000003e-01  1.0001811674300203e-01  1.0000000000000003e-01  9.9987164464161477e-02  1.0000000000000003e-01  1.0000898651975755e-01  1.0000000000000003e-01  1.0000514230403931e-01  1.0000000000000003e-01  1.0001143308273582e-01  1.0000000000000003e-01  1.0001178056621529e-01  1.0000000000000003e-01  1.0001722488847467e-01  1.0000000000000003e-01  1.0001782977923988e-01  1.0000000000000003e-01  1.0002050649559552e-01  1.0000000000000003e-01  1.0002251741612871e-01  1.0000000000000003e-01  1.0002388272735979e-01  1.0000000000000003e-01  1.0002499259673901e-01  1.0000000000000003e-01  1.0002640128010461e-01  1.0000000000000003e-01  1.0002701396050194e-01  1.0000000000000003e-01  1.0002763578617542e-01  1.0000000000000003e-01  1.0002834543347702e-01  1.0000000000000003e-01  1.0002858419675674e-01  1.0000000000000003e-01  1.0002893200166417e-01  1.0000000000000003e-01  1.0002905284672566e-01  1.0000000000000003e-01  1.0002941355215093e-01  1.0000000000000003e-01  1.0002896161873613e-01  1.0000000000000003e-01  1.0002987260646785e-01  1.0000000000000003e-01  1.0002833958590414e-01  1.0000000000000003e-01  1.0003089191298295e-01  1.0000000000000003e-01  1.0002640199331486e-01  1.0000000000000003e-01  1.0003379947657405e-01  1.0000000000000003e-01  1.0002133318125102e-01  1.0000000000000003e-01  1.0004323770619149e-01  1.0000000000000001e-01  1.0000000000000003e-01  1.0000074917546584e-01  1.0000000000000003e-01  1.0000005236309074e-01  9.9999946177466492e-02  9.9999952911687437e-02  1.0000045309973100e-01  1.0000025753338813e-01  1.0000058026651547e-01  1.0000153849020889e-01  1.0000070978234332e-01  1.0000138503421860e-01  1.0000052072361409e-01  1.0000451683746057e-01  1.0000122797241182e-01  1.0000408207006282e-01  1.0000208529006807e-01  1.0000445557981832e-01  1.0000657145901018e-01  1.0000683982688623e-01  1.0000929967283019e-01  1.0001346501017544e-01  1.0001287373869043e-01  1.0001840281722431e-01  1.0001941588804832e-01  1.0002495039661181e-01  1.0002091216410246e-01  1.0003802214153903e-01  1.0001257538267602e-01  1.0006089722832685e-01  9.9986717065798161e-02  1.0009267008788550e-01  1.0006465751742118e-01  9.9879641454115722e-02  9.9934177901712704e-02  9.9999198375390064e-02  9.9985757388803970e-02  9.9988863051002061e-02  9.9985990943125644e-02  9.9995717122018449e-02  9.9992416886800800e-02  9.9996010076254152e-02  9.9998893856933571e-02  9.9999585449983566e-02  1.0000061227010895e-01  1.0000299785889899e-01  1.0000323238600385e-01  1.0000398598982607e-01  1.0000525379960507e-01  1.0000559455383015e-01  1.0000599603869706e-01  1.0000693564973626e-01  1.0000709276965811e-01  1.0000770573646427e-01  1.0000788695620892e-01  1.0000887863780696e-01  1.0000809632598844e-01  1.0001047593620324e-01  1.0000734597809018e-01  1.0001396089322126e-01  1.0000351225583944e-01  1.0002069207055422e-01  1.0000000000000003e-01  1.0000169668415325e-01  1.0000000000000003e-01  1.0000049743377273e-01  1.0000049475071113e-01  1.0000085297838035e-01  1.0000045598067568e-01  1.0000082709850867e-01  1.0000208534610629e-01  1.0000161642109018e-01  1.0000223917800852e-01  1.0000310622403485e-01  1.0000383636028985e-01  1.0000013596839662e-01  1.0000963529155524e-01  1.0000297698950680e-01  1.0000586891304353e-01  1.0000794844493993e-01  1.0000720359269641e-01  1.0001060363938594e-01  1.0001555479059217e-01  1.0001544534570432e-01  1.0002008433274458e-01  1.0002758064155227e-01  1.0002529716741422e-01  1.0003632763498295e-01  1.0003422511816218e-01  1.0004741432623913e-01  1.0003158170439366e-01  1.0007363998476540e-01  9.9996333988677993e-02  1.0014228474312728e-01  1.0000346869984836e-01  9.9948779977140328e-02  9.9945603461525645e-02  9.9996039721343966e-02  9.9983991937201935e-02  9.9977600966002070e-02  9.9999624519035060e-02  9.9987356330729332e-02  9.9995340208411290e-02  1.0000066012293100e-01  1.0000123860507354e-01  1.0000298273712291e-01  1.0000780495972768e-01  1.0000785996636531e-01  1.0000936361738523e-01  1.0001194949588790e-01  1.0001228817788083e-01  1.0001303680725657e-01  1.0001467244081158e-01  1.0001507303457176e-01  1.0001554519750566e-01  1.0001683753174495e-01  1.0001689724364268e-01  1.0001804766558925e-01  1.0001773041315291e-01  1.0001999430824701e-01  1.0001756671733208e-01  1.0002318324118453e-01  1.0001441141627131e-01  1.0003273090431949e-01  1.0000000000000003e-01  1.0000239244068977e-01  1.0000000000000003e-01  1.0000123578998847e-01  1.0000240610183850e-01  1.0000184540066351e-01  1.0000238776224582e-01  1.0000394225797454e-01  1.0000367519741050e-01  1.0000478346935099e-01  1.0000674894090281e-01  1.0000614385880552e-01  1.0000666186995628e-01  1.0001129928650479e-01  1.0000334169014718e-01  1.0001462425082837e-01  1.0001144687196145e-01  1.0001114351609185e-01  1.0001240238992419e-01  1.0001838384313635e-01  1.0001616978714056e-01  1.0002217062836719e-01  1.0002751000085290e-01  1.0002833056030574e-01  1.0003195449527756e-01  1.0004353652305044e-01  1.0003361099202367e-01  1.0005630065757465e-01  1.0003110066248247e-01  1.0007905208525111e-01  9.9994089967520988e-02  1.0014732373488207e-01  9.9982319749491413e-02  9.9919107461592771e-02  9.9977731229214509e-02  9.9986036266278916e-02  9.9939412169561800e-02  1.0000419061209945e-01  9.9966705502330833e-02  9.9982641626457203e-02  9.9986329945242633e-02  9.9987579011816013e-02  9.9988308921397054e-02  9.9996120298792762e-02  9.9995156348509792e-02  9.9997257091500674e-02  1.0000094192079567e-01  1.0000137027013067e-01  1.0000224947385024e-01  1.0000471152172279e-01  1.0000494826182967e-01  1.0000579187287678e-01  1.0000724918891768e-01  1.0000798749219740e-01  1.0000832934933061e-01  1.0001016216914525e-01  1.0000965651992982e-01  1.0001245607129308e-01  1.0000978477132220e-01  1.0001659445596947e-01  1.0000723580858656e-01  1.0002439598854355e-01  1.0000000000000003e-01  1.0000309606668138e-01  1.0000000000000003e-01  1.0000233966964682e-01  1.0000294727762238e-01  1.0000304815510948e-01  1.0000445276813970e-01  1.0000416749406082e-01  1.0000522179086799e-01  1.0000769833464183e-01  1.0000713661787090e-01  1.0000816202926013e-01  1.0001231079256766e-01  1.0000927401467663e-01  1.0001346229372703e-01  1.0000925235209616e-01  1.0001901093469204e-01  1.0001398683033054e-01  1.0002062579165408e-01  1.0001631380365875e-01  1.0002191097397010e-01  1.0002885552274758e-01  1.0002653366489495e-01  1.0003479943062211e-01  1.0004062319831418e-01  1.0004330982222190e-01  1.0004350278967447e-01  1.0006381988646977e-01  1.0003570662993262e-01  1.0009027772981728e-01  9.9997129244268623e-02  1.0016574265985947e-01  1.0000501977022463e-01  9.9919969840841352e-02  9.9953707737397410e-02  9.9963568691531238e-02  9.9987079590669645e-02  9.9957782636601614e-02  9.9978430332394716e-02  9.9981552695627293e-02  9.9983221926364343e-02  9.9980152974682032e-02  9.9993805550035675e-02  9.9990577304446771e-02  9.9993919631015185e-02  9.9999432643989264e-02  9.9999648725649287e-02  1.0000081978912229e-01  1.0000472137721989e-01  1.0000487879811756e-01  1.0000574632807906e-01  1.0000811593396416e-01  1.0000847920557861e-01  1.0000946390904332e-01  1.0001080963239416e-01  1.0001207371392018e-01  1.0001198433360753e-01  1.0001489081462947e-01  1.0001287803519608e-01  1.0001891680923837e-01  1.0001055825156903e-01  1.0002823823340905e-01  1.0000000000000003e-01  1.0000390256706113e-01  1.0000000000000003e-01  1.0000262588563595e-01  1.0000396370836449e-01  1.0000496346416279e-01  1.0000506732829055e-01  1.0000576280706125e-01  1.0000821300644733e-01  1.0000795139992932e-01  1.0000928384214398e-01  1.0001277937091627e-01  1.0001177066246504e-01  1.0001435407050362e-01  1.0001655410894836e-01  1.0001726295263494e-01  1.0001008974122294e-01  1.0003030682184509e-01  1.0001737214169790e-01  1.0002391736205307e-01  1.0002846599830209e-01  1.0002637702021196e-01  1.0003200498490861e-01  1.0004287841153314e-01  1.0003698276167981e-01  1.0005013931765394e-01  1.0005096361019301e-01  1.0006192916891632e-01  1.0004279191910408e-01  1.0009664201386827e-01  9.9994984541989171e-02  1.0017805341953866e-01  9.9975629537730593e-02  9.9946263065384913e-02  9.9938210323459328e-02  9.9987349578439549e-02  9.9959782925240381e-02  9.9966233142060545e-02  9.9963966693620787e-02  9.9983373851548624e-02  9.9963833218319864e-02  9.9989196776585187e-02  9.9978749474352133e-02  9.9984628817033974e-02  9.9991603055747252e-02  9.9991920375344517e-02  9.9992910702687288e-02  9.9998579630053180e-02  9.9998333889087923e-02  9.9999620175058479e-02  1.0000283519628149e-01  1.0000319679096986e-01  1.0000385637245560e-01  1.0000635538731074e-01  1.0000659512684909e-01  1.0000815354040025e-01  1.0000879069481677e-01  1.0001151169107905e-01  1.0000945385181793e-01  1.0001605371803637e-01  1.0000789807532116e-01  1.0002466548374385e-01  1.0000000000000003e-01  1.0000432608739317e-01  1.0000000000000003e-01  1.0000316166392087e-01  1.0000547542471640e-01  1.0000521518549919e-01  1.0000625481012843e-01  1.0000842652844776e-01  1.0000808680842961e-01  1.0000942664864132e-01  1.0001281394649053e-01  1.0001179424884639e-01  1.0001438474482879e-01  1.0001844476889839e-01  1.0001722935252949e-01  1.0001731935395076e-01  1.0002655490610572e-01  1.0001187444137663e-01  1.0003286063014596e-01  1.0002925784528757e-01  1.0002686389098496e-01  1.0003079878516220e-01  1.0004029224863496e-01  1.0003668443668789e-01  1.0004358138430799e-01  1.0005776621852833e-01  1.0004657683827892e-01  1.0006832794975745e-01  1.0005173732140579e-01  1.0009267866261484e-01  1.0000515874368776e-01  1.0018283058471918e-01  9.9962496492724928e-02  9.9933548255302623e-02  9.9961200191824917e-02  9.9963242495928223e-02  9.9949503140729493e-02  9.9978134647484548e-02  9.9972384353463839e-02  9.9949643287908785e-02  9.9991301042447911e-02  9.9970455607708855e-02  9.9979438988956573e-02  9.9985523908298485e-02  9.9987326653666761e-02  9.9987237444084887e-02  9.9995601409860302e-02  9.9994885841513753e-02  9.9996262330443314e-02  1.0000068587999335e-01  1.0000110934894108e-01  1.0000196879678239e-01  1.0000481856454495e-01  1.0000545310782184e-01  1.0000610710015806e-01  1.0000872438846456e-01  1.0000869455466378e-01  1.0001142603437846e-01  1.0001022075714089e-01  1.0001629329667877e-01  1.0000864110568809e-01  1.0002542064846794e-01  1.0000000000000003e-01  1.0000483291064070e-01  1.0000000000000003e-01  1.0000395729854047e-01  1.0000557150310946e-01  1.0000601496053435e-01  1.0000835557741794e-01  1.0000823384688394e-01  1.0000954951926905e-01  1.0001255262665476e-01  1.0001181761610621e-01  1.0001357378240294e-01  1.0001829992664406e-01  1.0001704645314348e-01  1.0001896118159849e-01  1.0002553983927488e-01  1.0001963424946102e-01  1.0002773588600793e-01  1.0002144553206101e-01  1.0003690583818904e-01  1.0002989963559951e-01  1.0004154389948977e-01  1.0003231480287469e-01  1.0004288419639780e-01  1.0005118865957420e-01  1.0004981682594101e-01  1.0005240598000527e-01  1.0007591542341365e-01  1.0004588092290850e-01  1.0009757973014363e-01  1.0001365771446799e-01  1.0017557905341273e-01  9.9978226849653434e-02  9.9923081155377416e-02  9.9944094817631640e-02  9.9949946278055479e-02  9.9963804397328701e-02  9.9964494511079444e-02  9.9955184878339612e-02  9.9982723962473735e-02  9.9956584030191239e-02  9.9978773064471380e-02  9.9976476814809534e-02  9.9982916137686090e-02  9.9977603082101199e-02  9.9990787927776062e-02  9.9988475588294365e-02  9.9990603653404883e-02  9.9996323562732733e-02  9.9996512550776115e-02  9.9997256517773608e-02  1.0000156704542457e-01  1.0000169852845146e-01  1.0000276684016676e-01  1.0000507446410281e-01  1.0000637633173336e-01  1.0000649165368214e-01  1.0001012629688229e-01  1.0000844745113609e-01  1.0001452529570823e-01  1.0000752132776340e-01  1.0002357497308975e-01  1.0000000000000003e-01  1.0000539474568959e-01  1.0000000000000003e-01  1.0000393696902343e-01  1.0000610670072749e-01  1.0000747377193971e-01  1.0000811099779404e-01  1.0000917296708769e-01  1.0001211534818172e-01  1.0001182293423992e-01  1.0001310943167716e-01  1.0001697081891782e-01  1.0001633098067224e-01  1.0001840833269515e-01  1.0002421926307523e-01  1.0002114763505565e-01  1.0002538939165868e-01  1.0002942199634864e-01  1.0003003606332038e-01  1.0002007413692375e-01  1.0005128905035000e-01  1.0003174000288324e-01  1.0004088415811364e-01  1.0005006634631615e-01  1.0004177198482563e-01  1.0005462787593671e-01  1.0006170494745195e-01  1.0006475806673286e-01  1.0005267040613657e-01  1.0010323413118066e-01  1.0001023717946123e-01  1.0017444462900421e-01  9.9968365642330595e-02  9.9935102721748728e-02  9.9933044330607207e-02  9.9964999804617607e-02  9.9951092570325917e-02  9.9949588394547081e-02  9.9971476181828972e-02  9.9967257418318231e-02  9.9968420975733246e-02  9.9966538610736358e-02  9.9985178483197740e-02  9.9968566211079093e-02  9.9988615466150996e-02  9.9982038265161041e-02  9.9985714351336838e-02  9.9992404125385459e-02  9.9993110693068057e-02  9.9993531547930559e-02  9.9998881407618881e-02  9.9999033171376553e-02  1.0000005298715330e-01  1.0000357898492564e-01  1.0000385327230595e-01  1.0000525146460588e-01  1.0000686397181466e-01  1.0000932213738488e-01  1.0000795115946558e-01  1.0001438942430796e-01  1.0000745893493351e-01  1.0002316529061081e-01  1.0000000000000003e-01  1.0000563695613850e-01  1.0000000000000003e-01  1.0000417165497759e-01  1.0000718984607487e-01  1.0000715823459617e-01  1.0000871533243215e-01  1.0001122684869085e-01  1.0001135892163820e-01  1.0001275352625623e-01  1.0001637016023233e-01  1.0001525604990326e-01  1.0001734108639400e-01  1.0002257770194412e-01  1.0002051868482564e-01  1.0002354364013609e-01  1.0002977392682259e-01  1.0002764282806766e-01  1.0002786844145936e-01  1.0004269878919142e-01  1.0001993296530953e-01  1.0005153884355640e-01  1.0004703785002571e-01  1.0004261295342458e-01  1.0004622089372874e-01  1.0006445063603973e-01  1.0004783395596001e-01  1.0006989440212094e-01  1.0006224435016520e-01  1.0008957901806098e-01  1.0001880762945856e-01  1.0017424376371312e-01  9.9958658703741640e-02  9.9924037370130003e-02  9.9945530384348821e-02  9.9955366959839712e-02  9.9938513844568033e-02  9.9963535742823129e-02  9.9958653498662273e-02  9.9958416488845334e-02  9.9974480642671892e-02  9.9978453509478218e-02  9.9956921069399185e-02  9.9991141814750661e-02  9.9974611380067469e-02  9.9981809388198742e-02  9.9986297513312436e-02  9.9989054469105276e-02  9.9988151449522195e-02  9.9995684260105369e-02  9.9995444686216586e-02  9.9996301346975458e-02  1.0000047688695811e-01  1.0000145055412274e-01  1.0000193195818222e-01  1.0000537441111822e-01  1.0000531521942972e-01  1.0000792666750208e-01  1.0000752236405856e-01  1.0001315652345762e-01  1.0000666803188984e-01  1.0002197467872158e-01  1.0000000000000003e-01  1.0000586947970277e-01  1.0000000000000003e-01  1.0000462002459566e-01  1.0000686084043442e-01  1.0000738006300518e-01  1.0001008394788251e-01  1.0001031855745252e-01  1.0001182964387002e-01  1.0001513879712182e-01  1.0001464812373295e-01  1.0001610638163221e-01  1.0002077599843405e-01  1.0001917581313438e-01  1.0002148107118065e-01  1.0002766737481493e-01  1.0002522699863690e-01  1.0002802858696620e-01  1.0003794299911524e-01  1.0002889091936737e-01  1.0004034225758932e-01  1.0003327055816934e-01  1.0005213399894554e-01  1.0004509126594111e-01  1.0005950347152973e-01  1.0004779243616188e-01  1.0005426641201054e-01  1.0007900291838245e-01  1.0004710626513204e-01  1.0009212254775639e-01  1.0003117833730352e-01  1.0015419771766566e-01  9.9974159901889195e-02  9.9900558995033875e-02  9.9939657430326678e-02  9.9944220239819137e-02  9.9951673388112394e-02  9.9955586578417396e-02  9.9948211825756278e-02  9.9967785084420946e-02  9.9969383861533492e-02  9.9965422424574346e-02  9.9985171547362889e-02  9.9966433803320084e-02  9.9983631367623879e-02  9.9980416437619582e-02  9.9987068856238578e-02  9.9981933115498772e-02  9.9992850314026147e-02  9.9991664188667312e-02  9.9992954243024068e-02  9.9998179926234596e-02  9.9998485088549735e-02  9.9999313782042049e-02  1.0000311139318102e-01  1.0000414201878695e-01  1.0000433492345059e-01  1.0000820578301425e-01  1.0000689218918379e-01  1.0001231644029478e-01  1.0000668420520004e-01  1.0002117835322728e-01  1.0000000000000003e-01  1.0000623000592412e-01  1.0000000000000003e-01  1.0000441252092597e-01  1.0000700799600745e-01  1.0000830016085642e-01  1.0000936363668757e-01  1.0001051763045807e-01  1.0001364421987209e-01  1.0001366976999632e-01  1.0001507180620557e-01  1.0001893824241677e-01  1.0001827403150870e-01  1.0001977521304914e-01  1.0002514472500658e-01  1.0002312170281855e-01  1.0002560225200609e-01  1.0003414014443289e-01  1.0002915214009328e-01  1.0003513746544472e-01  1.0004104400294243e-01  1.0004104888028444e-01  1.0002725353809536e-01  1.0007209454387798e-01  1.0004118668136755e-01  1.0005786019997713e-01  1.0006389354745424e-01  1.0006009291079271e-01  1.0005177095029356e-01  1.0010240406675432e-01  1.0001563723535443e-01  1.0015237184224111e-01  9.9982168304897825e-02  9.9892562294955925e-02  9.9924286912596333e-02  9.9956504979171454e-02  9.9947543700138988e-02  9.9944852494757319e-02  9.9959630462561344e-02  9.9962586134845696e-02  9.9957331159058860e-02  9.9977157759263136e-02  9.9975662282251729e-02  9.9977608963347245e-02  9.9972975383934098e-02  9.9990385034603155e-02  9.9975227825948393e-02  9.9991325233161066e-02  9.9986653679842580e-02  9.9989301615063808e-02  9.9994790219037510e-02  9.9995982668494937e-02  9.9996085759917960e-02  1.0000080135980005e-01  1.0000111938949557e-01  1.0000272913213580e-01  1.0000501173638389e-01  1.0000721538904737e-01  1.0000597526096047e-01  1.0001212083099983e-01  1.0000613472115534e-01  1.0002007306405647e-01  1.0000000000000003e-01  1.0000613098617095e-01  1.0000000000000003e-01  1.0000425678894727e-01  1.0000748378133099e-01  1.0000747172130178e-01  1.0000918683997785e-01  1.0001159762130599e-01  1.0001208330540833e-01  1.0001349148905810e-01  1.0001700753420696e-01  1.0001638842214597e-01  1.0001813772703319e-01  1.0002285853841995e-01  1.0002098662103057e-01  1.0002275754006675e-01  1.0002980746700563e-01  1.0002677914697053e-01  1.0003033506087047e-01  1.0003937514444447e-01  1.0003524620081440e-01  1.0003563519663934e-01  1.0005580157642224e-01  1.0002485392157405e-01  1.0006491076220619e-01  1