<?xml version="1.0"?>
<VTKFile type="UnstructuredGrid"  version="0.1"  >
<UnstructuredGrid>
<Piece  NumberOfPoints="1933" NumberOfCells="3640">
<Points>
<DataArray  type="Float64"  NumberOfComponents="3"  format="ascii">-0.2935599892313759 -0.002657913209883049 0  4.706440033892213 -0.002573048936469683 0  4.706312685827401 7.497426981477947 0  -0.2936873278576869 7.497342136499963 0  9.706440086982786 -0.002488192210403032 0  9.706312698385823 7.497511824729609 0  14.70644017411808 -0.002403290634354023 0  14.70631270235092 7.497596717363744 0  19.70644028623169 -0.00231829875577392 0  19.70631268700989 7.497681703263978 0  24.70644040640957 -0.002233178153170451 0  24.7063126381125 7.497766819567953 0  29.70644051282455 -0.002147896082273608 0  29.70631253788428 7.497852098092157 0  34.70644058008666 -0.002062423850284074 0  34.70631236501986 7.497937566877737 0  39.70644057957897 -0.001976735342358445 0  39.7063120945112 7.4980232515656 0  44.70644047913898 -0.001890805816337154 0  44.70631169725817 7.498109176520122 0  49.7064402422895 -0.001804610965070161 0  49.70631113944467 7.498195365704228 0  54.70643982711631 -0.001718126208784194 0  54.706310381672 7.498281843336735 0  59.70643918481642 -0.001631326174533296 0  59.70630937783276 7.498368634366289 0  64.70643825788746 -0.00154418432550965 0  64.70630807369311 7.498455764790068 0  69.70643697787752 -0.001456672711650357 0  69.70630640513212 7.498543261834581 0  74.70643526256544 -0.001368761821534607 0  74.70630429596363 7.498631154002526 0  79.70643301236737 -0.00128042052352596 0  79.70630165523568 7.498719470971482 0  84.70643010566754 -0.001191616092595648 0  84.70629837387628 7.498808243302785 0  89.70642639260909 -0.001102314331823487 0  89.70629432051592 7.498897501871025 0  94.70642168662806 -0.001012479822886336 0  94.70628933630161 7.498987276834204 0  99.70641575258641 -0.0009220763987188305 0  99.70628322852647 7.49907759578723 0  104.7064082896459 -0.0008310680734795877 0  104.7062757630147 7.499168480385376 0  109.7063989057958 -0.0007394210073690625 0  109.706266655546 7.499259940003848 0  114.7063870788209 -0.0006471079044105381 0  114.7062555634829 7.499351959537965 0  119.7063720947999 -0.0005541181984366184 0  119.7062420807552 7.499444475484843 0  124.7063529488046 -0.0004604820473456683 0  124.7062257436849 7.499537328464861 0  129.7063281814688 -0.0003663273185278524 0  129.7062060640613 7.499630168357267 0  134.7062956067048 -0.0002720156891968197 0  134.7061826235456 7.499722264508986 0  139.7062518567958 -0.0001784697762246036 0  139.706155296509 7.49981212734214 0  144.706191630694 -8.79656093363706e-05 0  144.7061247243655 7.499896759596997 0  149.7061064959609 -6.064675729935838e-06 0  149.7060932387189 7.499970186675721 0  159.7061073738538 5.076164760650558e-19 0  164.7061704528937 4.867269365289127e-05 0  164.7061189971618 7.500050370807406 0  159.7060939380634 7.500003821018938 0  169.7062197003832 0.0001105360355469055 0  169.7061439402906 7.500111797856298 0  174.70625864871 0.0001808220310937004 0  174.7061669066147 7.50018183947158 0  179.706289794688 0.0002564690648340662 0  179.7061873197222 7.500257276485437 0  184.7063149497377 0.0003355962021950032 0  184.7062051266983 7.500336228957432 0  189.7063354384181 0.0004170299229388524 0  189.7062204955295 7.500417525750924 0  194.7063522395892 0.000500014928419831 0  194.7062336763377 7.500500406617295 0  199.7063660872853 0.0005840488250929523 0  199.7062449358625 7.500584361985225 0  204.7063775411512 0.0006687874001049776 0  204.7062545278513 7.500669041090458 0  209.7063870350141 0.0007539889611228657 0  209.706262681306 7.500754197118417 0  214.706394910391 0.0008394805066575532 0  214.7062695973921 7.500839653319405 0  219.7064014398234 0.0009251364013746338 0  219.7062754503287 7.500925281391596 0  224.706406843384 0.001010864443369428 0  224.7062803899079 7.50101098725295 0  229.7064113005788 0.001096596454934546 0  229.706284544504 7.501096701398471 0  234.7064149591103 0.00118228174235714 0  234.7062880240534 7.501182372191963 0  239.7064179414708 0.001267882441768898 0  239.7062909227876 7.50126796109621 0  244.7064203500112 0.001353370149870089 0  244.7062933216536 7.5013534392256 0  249.7064222709215 0.001438723462776957 0  249.7062952904219 7.50143878483245 0  254.7064237774281 0.001523926183645571 0  254.7062968895086 7.501523981478661 0  259.7064249324152 0.001608966048522086 0  259.7062981715459 7.501609016735246 0  264.706425790626 0.001693833881794036 0  264.706299182733 7.501693881314957 0  269.7064264005419 0.001778523140654657 0  269.7062999639924 7.501778568590151 0  274.706426806017 0.001863029850535576 0  274.7063005519417 7.501863074487276 0  279.7064270476851 0.00194735297639459 0  279.7063009796897 7.501947397784833 0  284.7064271641227 0.002031495321481161 0  284.7063012774377 7.502031540875392 0  289.7064271926488 0.002115465094288779 0  289.7063014728757 7.502115511080832 0  294.7064271695016 0.002199278318988776 0  294.7063015913663 7.502199322623776 0  299.7064271288654 0.002282962217135412 0  299.706301655952 7.502282999336664 0  304.7064270997342 0.002366559312928601 0  304.706301687369 7.502366578121012 0  309.7064270987085 0.002450130382725005 0  309.7063017045315 7.50245011319665 0  4.706185395625543 14.99742702649164 0  -0.2938146112450233 14.9973422566172 0  9.706185383811336 14.99751181867455 0  14.70618534142175 14.99759667772845 0  19.70618525640194 14.9976816407529 0  24.70618511573345 14.99776673972271 0  29.70618490463502 14.99785200283624 0  34.70618460594353 14.9979374556156 0  39.70618419961632 14.99802312186044 0  44.70618366226897 14.99810902444609 0  49.70618296668486 14.99819518595505 0  54.70618208125614 14.99828162914096 0  59.70618096933249 14.99836837722741 0  64.70617958846783 14.99845545403861 0  69.70617788956589 14.99854288394596 0  74.70617581594307 14.9986306915919 0  79.70617330235 14.99871890131662 0  84.70617027404353 14.99880753615431 0  89.70616664607967 14.99889661616731 0  94.70616232314165 14.99898615571738 0  99.7061572004614 14.99907615897976 0  104.7061511667937 14.99916661249576 0  109.706144111051 14.99925747267586 0  114.7061359351894 14.99934864466065 0  119.7061265773109 14.9994399464585 0  124.7061160505448 14.99953104839647 0  129.7061045042785 14.99962137255603 0  134.7060923122018 14.9997099316702 0  139.7060801800343 14.99979509007044 0  144.7060692307867 14.99987427077261 0  149.7060609430013 14.99994381668474 0  164.7060693880113 15.00005570790266 0  159.7060620003932 15.00000360516541 0  169.7060780138267 15.00011751495403 0  174.7060875553478 15.00018675796209 0  179.7060973557453 15.00026124807157 0  184.7061069058122 15.00033937303774 0  189.7061158878017 15.00042000849416 0  194.7061241333963 15.00050237732145 0  199.7061315753339 15.00058593951246 0  204.7061382094941 15.00067031585035 0  209.7061440685721 15.00075523682186 0  214.7061492048862 15.0008405086506 0  219.706153679604 15.00092599057939 0  224.7061575562358 15.00101157948404 0  229.7061608968692 15.0010971992848 0  234.7061637601324 15.00118279353462 0  239.7061662002151 15.00126832014713 0  244.7061682665346 15.00135374759599 0  249.7061700037757 15.00143905215231 0  254.7061714521408 15.00152421587656 0  259.7061726477037 15.00160922518049 0  264.7061736228039 15.00169406984127 0  269.70617440644 15.00177874239739 0  274.7061750246395 15.00186323789029 0  279.7061755007984 15.00194755394113 0  284.7061758560005 15.00203169116839 0  289.7061761093575 15.00211565395685 0  294.7061762784588 15.00219945157746 0  299.706176380095 15.00228309963192 0  304.7061764315458 15.00236662178988 0  309.7061764529284 15.00245005195175 0  4.706058314607749 22.49742705246694 0  -0.2939416880840158 22.49734241778393 0  9.706058293317497 22.4975117529987 0  14.70605823355392 22.49759654788294 0  19.70605812341417 22.49768146296615 0  24.70605795185441 22.4977665220117 0  29.70605770758097 22.49785174719091 0  34.70605737828109 22.49793715950759 0  39.70605695008422 22.49802277918783 0  44.70605640718023 22.49810862601929 0  49.70605573154488 22.49819471960816 0  54.70605490274174 22.49828107952084 0  59.70605389779571 22.49836772527626 0  64.70605269115478 22.49845467614845 0  69.70605125478457 22.49854195072031 0  74.7060495584751 22.49862956610136 0  79.70604757048486 22.49871753667169 0  84.70604525871471 22.49880587213935 0  89.70604259269739 22.49889457457833 0  94.7060395468182 22.49898363393058 0  99.7060361053537 22.49907302117367 0  104.7060322701198 22.49916267793523 0  109.7060280717283 22.49925250073319 0  114.7060235855402 22.49934231722826 0  119.7060189531519 22.49943185100676 0  124.706014409131 22.49952067094622 0  129.7060103098662 22.49960812255204 0  134.7060071554401 22.49969324533348 0  139.7060055851576 22.49977470043119 0  144.7060063141249 22.49985078281628 0  149.7060099745905 22.49991969810663 0  164.7060083793362 22.5000603116484 0  159.7060106100835 22.5000022336518 0  169.7060075215174 22.50012434771473 0  174.7060080972337 22.50019381543749 0  179.7060098755413 22.50026770235748 0  184.7060125108659 22.50034497137674 0  189.7060156710159 22.50042474665848 0  194.7060190863279 22.50050634435991 0  199.7060225574445 22.50058924877507 0  204.7060259466327 22.50067307675366 0  209.7060291646758 22.50075754507922 0  214.7060321583067 22.50084244443414 0  219.7060348998301 22.50092761976918 0  224.7060373791501 22.50101295585998 0  229.7060395978996 22.50109836677358 0  234.706041565233 22.50118378819057 0  239.7060432948726 22.50126917178942 0  244.7060448030668 22.50135448111877 0  249.7060461072018 22.50143968855255 0  254.7060472248723 22.50152477304353 0  259.7060481732719 22.50160971847825 0  264.706048968807 22.50169451249594 0  269.7060496268625 22.50177914567716 0  274.7060501616913 22.50186361103481 0  279.706050586401 22.50194790375628 0  284.7060509130593 22.502032021148 0  289.7060511529621 22.50211596272075 0  294.7060513171488 22.50219973032378 0  299.7060514173041 22.50228332818121 0  304.7
[...]
<PointData  Scalars="p"> 
<DataArray  type="Float64"  Name="p"  format="ascii">1.0000000000000001e-01  1.0000000000000003e-01  9.9996279423123779e-02  1.0000000000000003e-01  1.0000000000000003e-01  9.9996370794362507e-02  1.0000000000000003e-01  9.9994516564416644e-02  1.0000000000000003e-01  9.9993883645304302e-02  1.0000000000000003e-01  9.9992604407465949e-02  1.0000000000000003e-01  9.9990001374369267e-02  1.0000000000000003e-01  9.9989201178063827e-02  1.0000000000000003e-01  9.9987420501586585e-02  1.0000000000000003e-01  9.9984439429201169e-02  1.0000000000000003e-01  9.9984945793602314e-02  1.0000000000000003e-01  9.9975750445841227e-02  1.0000000000000003e-01  9.9972293675026899e-02  1.0000000000000003e-01  9.9967490591615318e-02  1.0000000000000003e-01  9.9964051331567258e-02  1.0000000000000003e-01  9.9955701720920567e-02  1.0000000000000003e-01  9.9952656587772915e-02  1.0000000000000003e-01  9.9946043431568682e-02  1.0000000000000003e-01  9.9936084662486810e-02  1.0000000000000003e-01  9.9932726237971337e-02  1.0000000000000003e-01  9.9921851038338547e-02  1.0000000000000003e-01  9.9914924051176884e-02  1.0000000000000003e-01  9.9902623521941347e-02  1.0000000000000003e-01  9.9903551374785890e-02  1.0000000000000003e-01  9.9874228872109741e-02  1.0000000000000003e-01  9.9897775730620642e-02  1.0000000000000003e-01  9.9838702922374650e-02  1.0000000000000003e-01  9.9901743581040356e-02  1.0000000000000003e-01  9.9791180890370035e-02  1.0000000000000003e-01  9.9919742976951748e-02  1.0000000000000001e-01  9.9713640683539440e-02  1.0000000000000001e-01  1.0000000000000003e-01  1.0019943850126957e-01  1.0044708875148997e-01  1.0000000000000003e-01  1.0004304029552051e-01  1.0000000000000003e-01  1.0015491710417698e-01  1.0000000000000003e-01  1.0009158467737209e-01  1.0000000000000003e-01  1.0010894164357842e-01  1.0000000000000003e-01  1.0009219991997753e-01  1.0000000000000003e-01  1.0009808233840155e-01  1.0000000000000003e-01  1.0008385630707388e-01  1.0000000000000003e-01  1.0008512258049966e-01  1.0000000000000003e-01  1.0007980822357722e-01  1.0000000000000003e-01  1.0007539417558142e-01  1.0000000000000003e-01  1.0007222392741612e-01  1.0000000000000003e-01  1.0006999577104371e-01  1.0000000000000003e-01  1.0006591429060473e-01  1.0000000000000003e-01  1.0006402494541773e-01  1.0000000000000003e-01  1.0006199155494043e-01  1.0000000000000003e-01  1.0005950721062754e-01  1.0000000000000003e-01  1.0005785979101063e-01  1.0000000000000003e-01  1.0005665653789546e-01  1.0000000000000003e-01  1.0005464080409272e-01  1.0000000000000003e-01  1.0005400817681204e-01  1.0000000000000003e-01  1.0005218792669801e-01  1.0000000000000003e-01  1.0005242817554430e-01  1.0000000000000003e-01  1.0004918535816809e-01  1.0000000000000003e-01  1.0005264992172679e-01  1.0000000000000003e-01  1.0004467325307215e-01  1.0000000000000003e-01  1.0005613362758731e-01  1.0000000000000003e-01  1.0003545515577082e-01  1.0000000000000003e-01  1.0007043984038295e-01  1.0000000000000001e-01  1.0000000000000003e-01  9.9993118444266754e-02  1.0000000000000003e-01  9.9993607154650652e-02  9.9993215030164617e-02  9.9992324230930532e-02  9.9989699790006617e-02  9.9989991040899201e-02  9.9989356999356002e-02  9.9985415000934316e-02  9.9987477506649991e-02  9.9985719792863290e-02  9.9983195397279095e-02  9.9972826640811890e-02  9.9977146572962042e-02  9.9966842831878400e-02  9.9971820436685552e-02  9.9967062587621794e-02  9.9959040827072854e-02  9.9960785068463620e-02  9.9957059786372079e-02  9.9944428142617683e-02  9.9951100835038359e-02  9.9938852969778683e-02  9.9939017084169440e-02  9.9925356659793629e-02  9.9946982017564370e-02  9.9890451382705331e-02  9.9981255460171614e-02  9.9820611361717632e-02  1.0006600833003812e-01  9.9710209977237785e-02  9.9798427529223008e-02  1.0066045653475890e-01  1.0021658020814254e-01  1.0002840229535383e-01  1.0006051945827892e-01  1.0004846886928903e-01  1.0007044190086782e-01  1.0004071353777239e-01  1.0005445738221229e-01  1.0004928370223821e-01  1.0004278859366572e-01  1.0004213419382708e-01  1.0004208642483108e-01  1.0003571944525964e-01  1.0003548070295613e-01  1.0003446627004979e-01  1.0003084123037850e-01  1.0003007872725099e-01  1.0002928631087876e-01  1.0002694273059511e-01  1.0002597376271236e-01  1.0002560292562747e-01  1.0002328117795924e-01  1.0002363945015223e-01  1.0002105125409896e-01  1.0002306705516448e-01  1.0001674302044276e-01  1.0002622340673532e-01  1.0000795777942163e-01  1.0003459020760153e-01  1.0000000000000003e-01  9.9989472757693432e-02  1.0000000000000003e-01  9.9993282787884941e-02  9.9990153578420587e-02  9.9987544118412319e-02  9.9987334904277539e-02  9.9986627894886465e-02  9.9980968026523800e-02  9.9982413356868277e-02  9.9981761708014344e-02  9.9975656172342400e-02  9.9974023154040748e-02  9.9979984586941462e-02  9.9951204847578329e-02  9.9963166588900226e-02  9.9956592710290226e-02  9.9944906860627902e-02  9.9950126872837455e-02  9.9943727479060857e-02  9.9927538030754340e-02  9.9932661326259345e-02  9.9926582542850001e-02  9.9903510726491562e-02  9.9920275070099707e-02  9.9892993510746972e-02  9.9906475070255574e-02  9.9866529142714808e-02  9.9933956656967693e-02  9.9783860457938925e-02  1.0005578872783684e-01  9.9547216018611703e-02  9.9881126796089417e-02  1.0057407146391734e-01  1.0031594734120804e-01  1.0006115755384809e-01  1.0008383318634632e-01  1.0013430514777168e-01  1.0005732368748041e-01  1.0010058144901708e-01  1.0008785880155974e-01  1.0007510343148383e-01  1.0007594897631152e-01  1.0007760834675947e-01  1.0006459341530662e-01  1.0006581920962361e-01  1.0006421450175167e-01  1.0005698947266677e-01  1.0005611552916882e-01  1.0005528275344272e-01  1.0005034416269086e-01  1.0004955313382174e-01  1.0004836073181486e-01  1.0004551345700202e-01  1.0004390819827325e-01  1.0004389018085001e-01  1.0003996936669074e-01  1.0004189080661946e-01  1.0003602489163131e-01  1.0004284003301937e-01  1.0002680848427523e-01  1.0005475643850832e-01  1.0000000000000003e-01  9.9987161298122670e-02  1.0000000000000003e-01  9.9991960754169940e-02  9.9985878219664912e-02  9.9986775160449737e-02  9.9985903501154924e-02  9.9979870874508825e-02  9.9981381630793897e-02  9.9980708439690522e-02  9.9973233020681798e-02  9.9976209943768990e-02  9.9976172339745914e-02  9.9959898512580386e-02  9.9976814977038017e-02  9.9951287517457146e-02  9.9947240581780714e-02  9.9951223795552865e-02  9.9950324577692748e-02  9.9930787028881404e-02  9.9942792082014814e-02  9.9932497897589886e-02  9.9916679715954831e-02  9.9921363759716331e-02  9.9922868620856961e-02  9.9885107481051311e-02  9.9931605766086076e-02  9.9859671814287260e-02  9.9955749255785625e-02  9.9779934187628747e-02  1.0009285665479284e-01  9.9521578639530026e-02  9.9890251068951511e-02  1.0071904893302322e-01  1.0020134585881064e-01  1.0002637528997101e-01  1.0022812751694811e-01  9.9996028370137741e-02  1.0011269331797465e-01  1.0007837177271825e-01  1.0007107392458091e-01  1.0006955683050622e-01  1.0007851335852738e-01  1.0005726323698209e-01  1.0006271019368261e-01  1.0006129283512268e-01  1.0005163766426813e-01  1.0005111010866695e-01  1.0005072223379635e-01  1.0004391090464518e-01  1.0004330715788173e-01  1.0004256093997028e-01  1.0003806576508455e-01  1.0003745068557600e-01  1.0003581688486735e-01  1.0003398003997920e-01  1.0003096490109992e-01  1.0003314257338405e-01  1.0002532293845481e-01  1.0003415011092184e-01  1.0001648086287908e-01  1.0004195351244609e-01  1.0000000000000003e-01  9.9984794238308750e-02  1.0000000000000003e-01  9.9989282160648660e-02  9.9985176340162157e-02  9.9985960496782308e-02  9.9978990505894524e-02  9.9980701746079162e-02  9.9979305964895335e-02  9.9970975699621031e-02  9.9974285291465723e-02  9.9974206982621813e-02  9.9959980457011918e-02  9.9968360851048030e-02  9.9960532152324810e-02  9.9959757026364879e-02  9.9939914560630089e-02  9.9947780086046434e-02  9.9924549106364308e-02  9.9939852367577228e-02  9.9932379379142428e-02  9.9908355808389485e-02  9.9925372585198055e-02  9.9909945855212734e-02  9.9895444881058421e-02  9.9893495395897772e-02  9.9913920704751358e-02  9.9837505470192878e-02  9.9957664213836755e-02  9.9750901800263594e-02  1.0010618516294738e-01  9.9447096012304947e-02  9.9764005412963624e-02  1.0080759507669657e-01  1.0027084066523584e-01  1.0010139393917790e-01  1.0011629380209931e-01  1.0013717441605902e-01  1.0009489669604421e-01  1.0008854873027785e-01  1.0007836815066240e-01  1.0010641889012380e-01  1.0006751224037833e-01  1.0008077678339371e-01  1.0007902872598139e-01  1.0006513398366262e-01  1.0006556786728675e-01  1.0006642654134397e-01  1.0005559607366499e-01  1.0005553275954747e-01  1.0005482349130190e-01  1.0004852393695937e-01  1.0004741699479790e-01  1.0004691298420572e-01  1.0004205610454768e-01  1.0004184344332624e-01  1.0003902921979979e-01  1.0003887303537869e-01  1.0003283753695835e-01  1.0003996088262726e-01  1.0002271897318953e-01  1.0004896632894328e-01  1.0000000000000003e-01  9.9982003524967569e-02  1.0000000000000003e-01  9.9989025877534943e-02  9.9983989746759150e-02  9.9980648942030223e-02  9.9980043496065499e-02  9.9979520482323364e-02  9.9971021026552809e-02  9.9973159638825138e-02  9.9973376848012677e-02  9.9961278366977074e-02  9.9966080399470941e-02  9.9963392416865318e-02  9.9950745426630086e-02  9.9953092129469581e-02  9.9969462051573227e-02  9.9913011592469958e-02  9.9942141678350763e-02  9.9931368999782555e-02  9.9910648373847194e-02  9.9926069893268521e-02  9.9921455934077655e-02  9.9885091651712082e-02  9.9918126403511331e-02  9.9886773941255697e-02  9.9894339817441780e-02  9.9853492492928464e-02  9.9957235525387586e-02  9.9726217106867784e-02  1.0014461428237120e-01  9.9388255615366086e-02  9.9790214934768709e-02  1.0076797038527133e-01  1.0033368746232246e-01  9.9990852210655679e-02  1.0015681767486451e-01  1.0012638792570730e-01  1.0013663525791820e-01  1.0004665616147085e-01  1.0013332271008010e-01  1.0005454985063743e-01  1.0008992330666318e-01  1.0008430059765824e-01  1.0006722720945985e-01  1.0006787406491045e-01  1.0007211857844338e-01  1.0005649643109894e-01  1.0005808300361801e-01  1.0005776760741780e-01  1.0004852862640307e-01  1.0004808928448171e-01  1.0004762342006908e-01  1.0004184360779320e-01  1.0004039364135023e-01  1.0004040468115712e-01  1.0003468434252873e-01  1.0003644044108730e-01  1.0002990382364438e-01  1.0003614239353494e-01  1.0001958089319186e-01  1.0004403271442845e-01  1.0000000000000003e-01  9.9980487434490853e-02  1.0000000000000003e-01  9.9988534149056313e-02  9.9979227280681690e-02  9.9981419057949286e-02  9.9979309850946538e-02  9.9971994236583470e-02  9.9972869207154230e-02  9.9973081257248256e-02  9.9961108667239812e-02  9.9966137803468288e-02  9.9964288076364136e-02  9.9948279005971072e-02  9.9954922622363163e-02  9.9958768636585899e-02  9.9929104022116438e-02  9.9964376095102489e-02  9.9920661482726700e-02  9.9909387695496246e-02  9.9924615239940257e-02  9.9920315907929116e-02  9.9889931498332446e-02  9.9909981791758626e-02  9.9908233207781263e-02  9.9856565482800891e-02  9.9916923700682975e-02  9.9842755201886013e-02  9.9931855081089274e-02  9.9737640155494328e-02  1.0014577869300155e-01  9.9334160636079846e-02  9.9815120180082095e-02  1.0083442310702995e-01  1.0026515324788793e-01  1.0002938439487810e-01  1.0020049377367368e-01  1.0007460726139013e-01  1.0011681577061018e-01  1.0017483556081246e-01  1.0004298220842382e-01  1.0010676950830255e-01  1.0009057781229638e-01  1.0007913156485651e-01  1.0007483081841693e-01  1.0008549985512456e-01  1.0006297690085487e-01  1.0006686678748300e-01  1.0006751580918713e-01  1.0005586883710028e-01  1.0005499470969340e-01  1.0005528733362061e-01  1.0004700002790771e-01  1.0004655657830996e-01  1.0004524444119248e-01  1.0004105211075008e-01  1.0003820526447975e-01  1.0003958119135725e-01  1.0003154547874359e-01  1.0003836401695450e-01  1.0002198331490116e-01  1.0004584577968714e-01  1.0000000000000003e-01  9.9979079126959122e-02  1.0000000000000003e-01  9.9986022646121539e-02  9.9979505400854943e-02  9.9981142191855249e-02  9.9972935770307150e-02  9.9974272581650606e-02  9.9973353804743481e-02  9.9962453755252867e-02  9.9966456133917872e-02  9.9965984191095203e-02  9.9949683871570147e-02  9.9956076270695637e-02  9.9956317119770641e-02  9.9933512524509494e-02  9.9952580867994453e-02  9.9940353648118180e-02  9.9938978500271738e-02  9.9911560572621336e-02  9.9925249889028872e-02  9.9884217231470673e-02  9.9919625320679967e-02  9.9902281320119413e-02  9.9875896833679964e-02  9.9888102949364593e-02  9.9911040278003613e-02  9.9810123536495238e-02  9.9962510640340355e-02  9.9724321211699246e-02  1.0013623440842000e-01  9.9323108861398626e-02  9.9736059998915841e-02  1.0090349095172724e-01  1.0030419608687832e-01  1.0006503419324382e-01  1.0013970992197693e-01  1.0008405096088732e-01  1.0016263247286686e-01  1.0008212973996500e-01  1.0014591331715879e-01  1.0007559546456726e-01  1.0009317706623229e-01  1.0006876066987447e-01  1.0009940199910877e-01  1.0006325720446886e-01  1.0007240603855008e-01  1.0007326338004599e-01  1.0005874979908019e-01  1.0005881270057500e-01  1.0006065613813724e-01  1.0004921328464246e-01  1.0004867971067512e-01  1.0004871369606638e-01  1.0004135302037391e-01  1.0004112435618613e-01  1.0003866277710770e-01  1.0003690878590775e-01  1.0003080325770727e-01  1.0003743870383866e-01  1.0002036011023385e-01  1.0004366817380271e-01  1.0000000000000003e-01  9.9977073745864495e-02  1.0000000000000003e-01  9.9986340665180390e-02  9.9979227463065076e-02  9.9976378111235414e-02  9.9974536374879366e-02  9.9974943971298774e-02  9.9964618593848545e-02  9.9966998760419312e-02  9.9967055011792275e-02  9.9953362407130486e-02  9.9957067051096901e-02  9.9957355173913340e-02  9.9936609635444471e-02  9.9948647339171956e-02  9.9946513847521887e-02  9.9926101554478855e-02  9.9933899640131829e-02  9.9958973723716815e-02  9.9872599960491679e-02  9.9919078685189816e-02  9.9907850004046506e-02  9.9866685576405295e-02  9.9911020528843639e-02  9.9882713774609999e-02  9.9870041115702413e-02  9.9848721040020488e-02  9.9955449591036152e-02  9.9688326613573436e-02  1.0017072515495937e-01  9.9297616482628470e-02  9.9738641816565970e-02  1.0088242190219497e-01  1.0034989230081220e-01  1.0000491160088627e-01  1.0016212510435712e-01  1.0012793357696283e-01  1.0010332141999598e-01  1.0010545287235049e-01  1.0013400368319125e-01  1.0012539852530890e-01  1.0005289555022956e-01  1.0011904766701349e-01  1.0005923645777443e-01  1.0008216946557494e-01  1.0008026754913829e-01  1.0006430244826349e-01  1.0006310744966836e-01  1.0006816564125547e-01  1.0005349939705728e-01  1.0005418209812131e-01  1.0005408546352708e-01  1.0004521127982527e-01  1.0004375425421319e-01  1.0004427871828436e-01  1.0003686046453246e-01  1.0003820810300147e-01  1.0003245714318154e-01  1.0003670789689974e-01  1.0002126446546276e-01  1.0004385246110099e-01  1.0000000000000003e-01  9.9976277554923040e-02  1.0000000000000003e-01  9.9986374689435137e-02  9.9975289162014966e-02  9.9977719456193964e-02  9.9975034665389151e-02  9.9967571803222952e-02  9.9968131790690973e-02  9.9968337219552936e-02  9.9955802001373661e-02  9.9959655971270031e-02  9.9959649987102189e-02  9.9940095980740287e-02  9.9948631142163721e-02  9.9949230713322415e-02  9.9925357042550303e-02  9.9938181472713619e-02  9.9946300419905029e-02  9.9899162246984211e-02  9.9957248292629183e-02  9.9893024669448965e-02  9.9875469931179378e-02  9.9900020822439164e-02  9.9905999500204720e-02  9.9837244280197732e-02  9.9917519951507508e-02  9.9842682530637286e-02  9.9911708675075872e-02  9.9730282242678783e-02  1.0016709196865674e-01  9.9254308125803117e-02  9.9759941250001427e-02  1.0091343552765990e-01  1.0030863473317703e-01  1.0001546370565251e-01  1.0020261914102875e-01  1.0007430597719792e-01  1.0011999695770886e-01  1.0012871979863679e-01  1.0010086390738361e-01  1.0009304672457756e-01  1.0015580928841095e-01  1.0004116830969598e-01  1.0009457980104026e-01  1.0007862540078190e-01  1.0007188036834062e-01  1.0006438567131722e-01  1.0007511630431822e-01  1.0005537850829214e-01  1.0005737893735163e-01  1.0005923721730701e-01  1.0004820339177040e-01  1.0004689168066579e-01  1.0004673302326167e-01  1.0003996949397373e-01  1.0003740760896679e-01  1.0003891202293992e-01  1.0003015932828017e-01  1.0003618131674503e-01  1.0002107318910744e-01  1.0004215151966969e-01  1.0000000000000003e-01  9.9975628185598978e-02  1.0000000000000003e-01  9.9984573369924876e-02  9.9976170046428003e-02  9.9978451023269174e-02  9.9969667531218304e-02  9.9970668936090634e-02  9.9969654700188537e-02  9.9959209173042837e-02  9.9961700915408999e-02  9.9962542205578098e-02  9.9945093193082327e-02  9.9951172484022008e-02  9.9951461165439584e-02  9.9928938130128167e-02  9.9941044496144105e-02  9.9943619435145889e-02  9.9909612149200272e-02  9.9939861018317658e-02  9.9925280018361262e-02  9.9916925772696535e-02  9.9890314213153683e-02  9.9902615004496417e-02  9.9852160888032920e-02  9.9891711963399119e-02  9.9908234455478084e-02  9.9793595861085008e-02  9.9962768230634297e-02  9.9729545792529309e-02  1.0011806031687195e-01  9.9298415313925234e-02  9.9708504065901024e-02  1.0097024094890521e-01  1.0031905255623835e-01  1.0004786818534096e-01  1.0015902187894415e-01  1.0008460329092161e-01  1.0015373820915981e-01  1.0009035032332754e-01  1.0009994085974047e-01  1.0012733784556530e-01  1.0008408703748840e-01  1.0012310818179117e-01  1.0006610706211216e-01  1.0008335419923539e-01  1.0005970367438757e-01  1.0008568697700726e-01  1.0005637231585596e-01  1.0006182816966105e-01  1.0006361027264085e-01  1.0005107998104097e-01  1.0005038478295950e-01  1.0005254247714186e-01  1.0004167457411259e-01  1.0004147137472333e-01  1.0003970593436144e-01  1.0003615966330820e-01  1.0003061025755125e-01  1.0003668497056449e-01  1.0002032673401184e-01  1.0004153022355215e-01  1.0000000000000003e-01  9.9974252968517141e-02  1.0000000000000003e-01  9.9985081159513281e-02  9.9976543076367316e-02  9.9974604400957318e-02  9.9971682308920895e-02  9.9972234283659006e-02  9.9962208138642025e-02  9.9963688316127425e-02  9.9964436681622637e-02  9.9950618894680293e-02  9.9953649238570669e-02  9.9954657226827726e-02  9.9934433359844588e-02  9.9942508190393131e-02  9.9945883103022951e-02  9.9916139365803167e-02  9.9935692314581409e-02  9.9934417587133187e-02  9.9904362866888669e-02  9.9918230625699961e-02  9.9956928188134481e-02  9.9829156239333708e-02  9.9912311876306378e-02  9.9878040586390784e-02  9.9852525084747207e-02  9.9858152058075925e-02  9.9956791047195737e-02  9.9674767280119370e-02  1.0016990699693137e-01  9.9304366039623296e-02  9.9689343949937989e-02  1.0095814133898905e-01  1.0035920889779489e-01  1.0000681183427997e-01  1.0016297978074831e-01  1.0011755513591879e-01  1.0011490133398994e-01  1.0009343029897132e-01  1.0013284313232389e-01  1.0008355349037631e-01  1.0009482251046674e-01  1.0010663659840592e-01  1.0011091081082529e-01  1.0004217862933724e-01  1.0009922507953174e-01  1.0005095061619815e-01  1.0006780740505340e-01  1.0006663465358678e-01  1.0005395728784626e-01  1.0005168686234976e-01  1.0005622799390444e-01  1.0004461298850181e-01  1.0004383606918792e-01  1.0004431893326864e-01  1.0003536757273350e-01  1.0003617140637058e-01  1.0003155781077887e-01  1.0003402967652286e-01  1.0002012954368110e-01  1.0004040108569177e-01  1.0000000000000003e-01  9.9974089508565359e-02  1.0000000000000003e-01  9.9985631896220728e-02  9.9973765081209712e-02  9.9976415144411329e-02  9.9973106077058463e-02  9.9966600412422710e-02  9.9966067174432308e-02  9.9966492094100981e-02  9.9954797826765127e-02  9.9957640017346014e-02  9.9957945822317706e-02  9.9940254314152280e-02  9.9945816506762972e-02  9.9949135189583607e-02  9.9923293859117010e-02  9.9935931462345653e-02  9.9940269933251266e-02  9.9905389267905015e-02  9.9926536257998744e-02  9.9938882801598419e-02  9.9873397759108404e-02  9.9953196103173547e-02  9.9880471198535201e-02  9