<?xml version="1.0"?>
<VTKFile type="UnstructuredGrid"  version="0.1"  >
<UnstructuredGrid>
<Piece  NumberOfPoints="1933" NumberOfCells="3640">
<Points>
<DataArray  type="Float64"  NumberOfComponents="3"  format="ascii">-0.4752503008563838 -0.002731784210139105 0  4.524749758288837 -0.002663341488650351 0  4.524647075734752 7.497336796992946 0  -0.4753530039621476 7.497268321677617 0  9.524749858492022 -0.002595001535450327 0  9.524647206244213 7.497405141221763 0  14.52475005454878 -0.002526754995132003 0  14.52464740739146 7.497473383636744 0  19.52475039228701 -0.002458557466392875 0  19.52464769503124 7.497541575388074 0  24.52475090578712 -0.002390346728586945 0  24.52464808108826 7.497609780913768 0  29.52475161856491 -0.002322050720476677 0  29.5246485729452 7.497678072849679 0  34.52475254553257 -0.002253590984019252 0  34.52464917298444 7.49774652963689 0  39.52475369471505 -0.002184883689606865 0  39.52464987825797 7.497815234892031 0  44.52475506844686 -0.002115839272093247 0  44.52465068012852 7.497884277914387 0  49.52475666401682 -0.002046361181661928 0  49.52465156373035 7.497953754975745 0  54.52475847378761 -0.001976343972482658 0  54.52465250712921 7.498023771227269 0  59.52476048480056 -0.001905670785762481 0  59.52465348006466 7.498094443186173 0  64.52476267783874 -0.001834210169943383 0  64.52465444214003 7.498165901860681 0  69.52476502585044 -0.001761812084647842 0  69.52465534029044 7.498238296654682 0  74.52476749155515 -0.00168830283300443 0  74.52465610528992 7.498311800279227 0  79.52477002391481 -0.001613478538506979 0  79.52465664696058 7.49838661499969 0  84.52477255295184 -0.001537096604354196 0  84.52465684761887 7.498462980674752 0  89.52477498204433 -0.001458864334744583 0  89.524656553101 7.498541185204269 0  94.52477717624996 -0.001378423516796367 0  94.52465556048475 7.498621578193941 0  99.52477894416701 -0.001295329202306642 0  99.52465360137843 7.498704588833068 0  104.5247800090084 -0.001209020125231608 0  104.5246503194574 7.498790749065742 0  109.5247799611879 -0.001118777099154773 0  109.5246452411038 7.498880722834808 0  114.5247781785588 -0.001023664439607271 0  114.5246377391723 7.498975340823927 0  119.5247736889506 -0.0009224484654647056 0  119.5246269936264 7.49907563616389 0  124.5247649282443 -0.0008134883022124708 0  124.5246119625539 7.499182866592343 0  129.5247493071074 -0.000694603361805905 0  129.5245914003618 7.49929848536194 0  134.5247224242196 -0.000562957165560167 0  134.5245640128022 7.499423972863977 0  139.5246766210622 -0.0004151190279232123 0  139.5245289547511 7.499560342583957 0  144.5245982914767 -0.0002479002538647075 0  144.5244871316699 7.499706992919412 0  149.5244627255429 -6.228856623292152e-05 0  149.5244443562603 7.499859670916861 0  159.5244717418518 8.672278456842602e-19 0  164.524440420204 -9.761098517412e-05 0  164.5244684451896 7.499880172053023 0  159.5244686883779 7.499948788602098 0  169.5244438219885 -0.0001529528904584216 0  169.5244677697798 7.499836227037336 0  174.5244618902692 -0.0001788538038790095 0  174.5244706693091 7.499815590517675 0  179.5244852961914 -0.0001833731843354111 0  179.5244769998355 7.499813716818255 0  184.5245096672793 -0.0001721288550622786 0  184.524485695573 7.499826347969692 0  189.5245330144489 -0.0001491329999152654 0  189.5244957060286 7.499850088513909 0  194.5245545088764 -0.0001172756209869656 0  194.5245062249076 7.49988235260187 0  199.5245738835953 -7.865705094360951e-05 0  199.5245166977284 7.499921196264089 0  204.5245911372627 -3.482157795705113e-05 0  204.5245267705579 7.499965157511996 0  209.5246063871195 1.307980535343763e-05 0  209.5245362336444 7.500013129434172 0  214.5246197963837 6.417672704988405e-05 0  214.5245449752801 7.500064265663652 0  219.5246315389725 0.0001178013563199261 0  219.5245529479652 7.500117911675622 0  224.5246417829981 0.0001734339172675418 0  224.5245601449137 7.500173555216754 0  229.5246506836957 0.0002306642391071203 0  229.5245665842635 7.500230790465089 0  234.5246583810674 0.0002891642499222999 0  234.5245722987141 7.500289291928794 0  239.5246649998469 0.000348668008097564 0  239.524577328863 7.500348795246787 0  244.524670650584 0.0004089569941745118 0  244.5245817190385 7.500409082911037 0  249.52467543124 0.0004698491349429824 0  249.5245855147955 7.500469973538141 0  254.5246794290106 0.0005311905305472466 0  254.5245887615301 7.500531313744015 0  259.5246827222424 0.0005928491935891363 0  259.524591503834 7.500592971974447 0  264.524685382417 0.0006547103468945252 0  264.5245937853499 7.500654833859923 0  269.52468747619 0.0007166730055669971 0  269.5245956489539 7.500716798827243 0  274.5246890675257 0.0007786477201307818 0  274.5245971371333 7.500778777836547 0  279.5246902199381 0.000840555507765284 0  279.5245982924516 7.500840692239839 0  284.5246909988211 0.0009023281752151477 0  284.5245991579922 7.500902473891534 0  289.5246914737173 0.0009639104728187381 0  289.5245997776489 7.500964066793623 0  294.5246917201529 0.001025264851959013 0  294.5246001961837 7.501025430730695 0  299.5246918200619 0.001086380050594842 0  299.5246004590269 7.501086547527965 0  304.5246918586901 0.001147285188603266 0  304.5246006122399 7.501147430719219 0  309.524691913266 0.001208070647701344 0  309.5246007041349 7.501208139682 0  4.524544155114869 14.9973370847856 0  -0.4754559231891438 14.99726857578937 0  9.524544259679082 14.99740540918702 0  14.52454440157537 14.99747361660848 0  19.5245445839321 14.99754177282544 0  24.52454480573527 14.99760994681864 0  29.52454506269803 14.99767821168383 0  34.52454534700406 14.9977466447772 0  39.52454564664503 14.99781532809915 0  44.52454594458384 14.9978843491461 0  49.52454621777638 14.99795380224467 0  54.52454643600727 14.99802379035185 0  59.52454656046621 14.99809442733236 0  64.52454654198151 14.99816584076371 0  69.52454631881875 14.99823817536085 0  74.52454581395914 14.99831159715167 0  79.52454493178166 14.99838629856542 0  84.52454355412628 14.9984625046078 0  89.52454153582678 14.99854048026339 0  94.52453870005837 14.99862053912697 0  99.52453483432535 14.99870305290541 0  104.5245296888738 14.99878846061468 0  109.5245229809929 14.99887727457852 0  114.5245144116394 14.99897007688499 0  119.5245037056428 14.99906749329008 0  124.5244906940662 14.99917011915652 0  129.5244754667573 14.99927834997073 0  134.5244586311701 14.99939203214463 0  139.5244417068392 14.99950979332779 0  144.524427623795 14.99962783072777 0  149.5244210650492 14.99973777887292 0  164.5244558230598 14.99981840807388 0  159.5244504513933 14.99984011541786 0  169.5244555026751 14.99980245063453 0  174.5244537330967 14.99979738641171 0  179.5244526263839 14.99980403832916 0  184.52445288582 14.99982132816977 0  189.5244545255829 14.99984761739127 0  194.5244572875577 14.99988127547588 0  199.5244608469235 14.99992087757071 0  204.5244649013001 14.99996524512755 0  209.5244692017569 15.00001342715636 0  214.5244735571935 15.00006466385751 0  219.5244778279981 15.00011834927473 0  224.5244819165339 15.00017399871532 0  229.5244857577374 15.00023122218635 0  234.524489311068 15.00028970340708 0  239.5244925540656 15.00034918346233 0  244.524495477409 15.00040944813819 0  249.52449808123 15.00047031812095 0  254.5245003724123 15.0005316414107 0  259.5245023626526 15.00059328746404 0  264.5245040670713 15.0006551427141 0  269.5245055032333 15.00071710723082 0  274.5245066904453 15.00077909237621 0  279.5245076492396 15.00084101938777 0  284.5245084010179 15.00090281888205 0  289.5245089678427 15.00096443129985 0  294.5245093725743 15.00102580827695 0  299.5245096396918 15.00108691475089 0  304.5245097976231 15.00114773114908 0  309.524509884029 15.00120825394135 0  4.524441146785898 22.49733759159293 0  -0.4755589256274679 22.49726913001886 0  9.524441221365187 22.49740584210519 0  14.52444129924858 22.49747396839126 0  19.5244413766072 22.49754204645862 0  24.5244414460411 22.49761014873797 0  29.52444149728955 22.4976783479019 0  34.52444151722378 22.49774671891165 0  39.52444148939929 22.4978153403807 0  44.52444139337283 22.49788429580412 0  49.52444120389217 22.4979536749026 0  54.52444089000061 22.49802357518962 0  59.52444041407475 22.49809410381227 0  64.52443973081257 22.49816537969505 0  69.52443878621422 22.49823753600026 0  74.52443751665044 22.49831072289615 0  79.52443584820271 22.49838511056971 0  84.52443369660415 22.49846089231527 0  89.52443096834826 22.49853828732281 0  94.52442756389802 22.49861754241319 0  99.5244233844782 22.49869893129233 0  104.5244183447299 22.49878274873349 0  109.5244123945676 22.49886929513449 0  114.5244055548189 22.49895884372053 0  119.5243979722461 22.49905157777315 0  124.5243899993162 22.49914747835711 0  129.5243823001579 22.49924613479806 0  134.524375971798 22.49934644458812 0  139.5243726407377 22.49944617921363 0  144.5243744381707 22.499541453307 0  149.5243836682817 22.49962634858118 0  164.5244151503904 22.49974766368263 0  159.5244091942697 22.4997373101384 0  169.5244159321395 22.49975644749928 0  174.5244137320075 22.4997685884016 0  179.5244103834502 22.49978651941331 0  184.5244070550055 22.49981097045021 0  189.5244043460569 22.49984172352071 0  194.5244024782881 22.49987813016269 0  199.5244014578559 22.49991940630785 0  204.5244011848379 22.49996477983674 0  209.5244015187707 22.50001355405114 0  214.5244023143361 22.50006512739717 0  219.5244034387253 22.5001189923568 0  224.5244047785384 22.50017472564654 0  229.524406241113 22.50023197577936 0  234.5244077531571 22.50029045078903 0  239.5244092582776 22.50034990725702 0  244.5244107142476 22.50041014097337 0  249.5244120904099 22.50047097920219 0  254.5244133653927 22.50053227438145 0  259.5244145251622 22.5005938990544 0  264.5244155614143 22.50065574184206 0  269.524416470249 22.50071770429573 0  274.5244172511022 22.50077969849806 0  279.5244179059152 22.50084164529727 0  284.5244184385646 22.50090347304919 0  289.5244188546368 22.50096511668301 0  294.5244191617437 22.50102651675881 0  299.5244193706621
[...]
<PointData  Scalars="p"> 
<DataArray  type="Float64"  Name="p"  format="ascii">1.0000000000000001e-01  1.0000000000000003e-01  9.9997878431477658e-02  1.0000000000000003e-01  1.0000000000000003e-01  9.9998660732035491e-02  1.0000000000000003e-01  9.9997973132177898e-02  1.0000000000000003e-01  9.9998123594771018e-02  1.0000000000000003e-01  9.9997720737659543e-02  1.0000000000000003e-01  9.9996246977808276e-02  1.0000000000000003e-01  9.9996177211139750e-02  1.0000000000000003e-01  9.9995172682052741e-02  1.0000000000000003e-01  9.9993436942048416e-02  1.0000000000000003e-01  9.9994712964295088e-02  1.0000000000000003e-01  9.9987492366643366e-02  1.0000000000000003e-01  9.9986126234926045e-02  1.0000000000000003e-01  9.9982875306554253e-02  1.0000000000000003e-01  9.9980954121598603e-02  1.0000000000000003e-01  9.9974821580251866e-02  1.0000000000000003e-01  9.9972877722279363e-02  1.0000000000000003e-01  9.9967604471344604e-02  1.0000000000000003e-01  9.9959819358263396e-02  1.0000000000000003e-01  9.9956851023306204e-02  1.0000000000000003e-01  9.9947551911567650e-02  1.0000000000000003e-01  9.9941399057910330e-02  1.0000000000000003e-01  9.9930557606105141e-02  1.0000000000000003e-01  9.9929926716954054e-02  1.0000000000000003e-01  9.9905157338174691e-02  1.0000000000000003e-01  9.9922490168538353e-02  1.0000000000000003e-01  9.9873183664878420e-02  1.0000000000000003e-01  9.9922606630283337e-02  1.0000000000000003e-01  9.9831541384276315e-02  1.0000000000000003e-01  9.9934489969991450e-02  1.0000000000000001e-01  9.9765826106553254e-02  1.0000000000000001e-01  1.0000000000000003e-01  1.0013662382820405e-01  1.0034093791548396e-01  1.0000000000000003e-01  1.0001539178282444e-01  1.0000000000000003e-01  1.0010366332250484e-01  1.0000000000000003e-01  1.0005103563939978e-01  1.0000000000000003e-01  1.0006413853248329e-01  1.0000000000000003e-01  1.0004990385349749e-01  1.0000000000000003e-01  1.0005332456017979e-01  1.0000000000000003e-01  1.0004116792412282e-01  1.0000000000000003e-01  1.0004157661986002e-01  1.0000000000000003e-01  1.0003663806605599e-01  1.0000000000000003e-01  1.0003266736555314e-01  1.0000000000000003e-01  1.0002986430045999e-01  1.0000000000000003e-01  1.0002780143278733e-01  1.0000000000000003e-01  1.0002440848222385e-01  1.0000000000000003e-01  1.0002286222660418e-01  1.0000000000000003e-01  1.0002122137213194e-01  1.0000000000000003e-01  1.0001924750980008e-01  1.0000000000000003e-01  1.0001808191085171e-01  1.0000000000000003e-01  1.0001712341444095e-01  1.0000000000000003e-01  1.0001580313443381e-01  1.0000000000000003e-01  1.0001518923071126e-01  1.0000000000000003e-01  1.0001434387166189e-01  1.0000000000000003e-01  1.0001392915393902e-01  1.0000000000000003e-01  1.0001287307092893e-01  1.0000000000000003e-01  1.0001343605412613e-01  1.0000000000000003e-01  1.0001128278416650e-01  1.0000000000000003e-01  1.0001379124344804e-01  1.0000000000000003e-01  1.0000872027231285e-01  1.0000000000000003e-01  1.0001679660631836e-01  1.0000000000000001e-01  1.0000000000000003e-01  9.9995283209998176e-02  1.0000000000000003e-01  9.9996016327363213e-02  9.9995839702388623e-02  9.9995285117984417e-02  9.9993353867725746e-02  9.9993654979913749e-02  9.9993063774808377e-02  9.9990034982062714e-02  9.9991822354652538e-02  9.9990318695644773e-02  9.9989292929473159e-02  9.9980413806991408e-02  9.9985117569516710e-02  9.9976984521943493e-02  9.9981295981279486e-02  9.9976890297111945e-02  9.9970624257041660e-02  9.9971537115711315e-02  9.9967714401608718e-02  9.9957332421543699e-02  9.9961822637762834e-02  9.9950835840373689e-02  9.9950310109153617e-02  9.9938448084290935e-02  9.9954308609486189e-02  9.9908796162647459e-02  9.9980642399358680e-02  9.9851497213165274e-02  1.0004900164751908e-01  9.9763630466073686e-02  9.9835454467269574e-02  1.0048256585287287e-01  1.0017453150167692e-01  1.0001804486573078e-01  1.0004620209149263e-01  1.0003683522327640e-01  1.0005218990877007e-01  1.0002780628693814e-01  1.0003833968619834e-01  1.0003292158236622e-01  1.0002712521822928e-01  1.0002629317547936e-01  1.0002562906360733e-01  1.0002021972306570e-01  1.0001992705916880e-01  1.0001883437598209e-01  1.0001581043840246e-01  1.0001512845743916e-01  1.0001439061039241e-01  1.0001236144879906e-01  1.0001166545605783e-01  1.0001105735136358e-01  1.0000951056752472e-01  1.0000911881443286e-01  1.0000800311447645e-01  1.0000777757720805e-01  1.0000580472167898e-01  1.0000757345917582e-01  1.0000274607591744e-01  1.0000858215844792e-01  1.0000000000000003e-01  9.9992443892459454e-02  1.0000000000000003e-01  9.9995540691578164e-02  9.9993608358816530e-02  9.9991774220066387e-02  9.9991890581158621e-02  9.9991224469088744e-02  9.9986948450268717e-02  9.9988132028121776e-02  9.9987344603127595e-02  9.9983034983541788e-02  9.9981574590204320e-02  9.9987547552228773e-02  9.9963886336119870e-02  9.9975396734596211e-02  9.9969546105811727e-02  9.9961037835664124e-02  9.9964725425331344e-02  9.9958669012417178e-02  9.9945601829052419e-02  9.9948837419667147e-02  9.9942213177622183e-02  9.9923319485705500e-02  9.9935093140282177e-02  9.9911415063427989e-02  9.9921044591623681e-02  9.9888207342438112e-02  9.9939664008386789e-02  9.9820906576949170e-02  1.0003674284981884e-01  9.9632233229280415e-02  9.9924380139021121e-02  1.0038644835235773e-01  1.0022887691831865e-01  1.0004023763425665e-01  1.0006169935020578e-01  1.0009684096106011e-01  1.0003565419246011e-01  1.0006997009989399e-01  1.0005717303626446e-01  1.0004600213942269e-01  1.0004616678605796e-01  1.0004611446384852e-01  1.0003509069457162e-01  1.0003581389339157e-01  1.0003389287947309e-01  1.0002782943873872e-01  1.0002707974156362e-01  1.0002610240708952e-01  1.0002203932104414e-01  1.0002130265881827e-01  1.0002027395369838e-01  1.0001771545305300e-01  1.0001668646075688e-01  1.0001596410859027e-01  1.0001373735911580e-01  1.0001352501492193e-01  1.0001140103882944e-01  1.0001214003025954e-01  1.0000765648557966e-01  1.0001360089126944e-01  1.0000000000000003e-01  9.9990584910603766e-02  1.0000000000000003e-01  9.9994267088027111e-02  9.9989784026413189e-02  9.9990685376351002e-02  9.9989811557033278e-02  9.9985121992482967e-02  9.9986221190633509e-02  9.9985120297014257e-02  9.9979284857475689e-02  9.9981499301452725e-02  9.9981156256258238e-02  9.9968230640307368e-02  9.9983606749083062e-02  9.9960853607986580e-02  9.9960316824381723e-02  9.9962966865787803e-02  9.9961633504632524e-02  9.9945859884993299e-02  9.9954649649213800e-02  9.9944578372342441e-02  9.9931500295421735e-02  9.9933890025544994e-02  9.9932579958082454e-02  9.9902082327782499e-02  9.9936955739752781e-02  9.9878475674835626e-02  9.9953426272635537e-02  9.9815134851478610e-02  1.0006103794146683e-01  9.9613270339765664e-02  9.9943093064592856e-02  1.0049438314515825e-01  1.0013819814076423e-01  1.0002492718320412e-01  1.0017843200843324e-01  9.9994953696938282e-02  1.0009022222438711e-01  1.0005916184813128e-01  1.0005237226885194e-01  1.0005066213945904e-01  1.0005574644746419e-01  1.0003778572904858e-01  1.0004174726190197e-01  1.0003957305946130e-01  1.0003132846614007e-01  1.0003073721681667e-01  1.0002995410871407e-01  1.0002422276919801e-01  1.0002370300595896e-01  1.0002272036119901e-01  1.0001904147906179e-01  1.0001820472747640e-01  1.0001698378031934e-01  1.0001471549628929e-01  1.0001316479690010e-01  1.0001277967498011e-01  1.0000959902203777e-01  1.0001084364616832e-01  1.0000571088742986e-01  1.0001084241218769e-01  1.0000000000000003e-01  9.9988686711917421e-02  1.0000000000000003e-01  9.9991928989972778e-02  9.9989015629424194e-02  9.9989438360407246e-02  9.9984262052823444e-02  9.9985496453976169e-02  9.9983982307513486e-02  9.9977302577569760e-02  9.9979695867173451e-02  9.9979014003824029e-02  9.9967655964348187e-02  9.9974713745729818e-02  9.9967286043853701e-02  9.9969409926273692e-02  9.9951112781946266e-02  9.9959081354378435e-02  9.9940618054869410e-02  9.9952743573966732e-02  9.9944665136076125e-02  9.9925523538535427e-02  9.9937477716920353e-02  9.9922834587994766e-02  9.9910270412147673e-02  9.9907407831174952e-02  9.9919911562076219e-02  9.9860125535093547e-02  9.9951764376461527e-02  9.9790253079100569e-02  1.0006739431908231e-01  9.9555854614732806e-02  9.9851045506035019e-02  1.0054857285278895e-01  1.0019599327997018e-01  1.0008517577663568e-01  1.0007985606581603e-01  1.0011086629687470e-01  1.0007197737891094e-01  1.0006612444291664e-01  1.0005880058391835e-01  1.0007803329050345e-01  1.0004555047864967e-01  1.0005574268789376e-01  1.0005259677705054e-01  1.0004060215028537e-01  1.0004073620028955e-01  1.0004054308569138e-01  1.0003143807676755e-01  1.0003130116302919e-01  1.0003032660352927e-01  1.0002496862970385e-01  1.0002405966970113e-01  1.0002313945152788e-01  1.0001930603182853e-01  1.0001839291178542e-01  1.0001670912632943e-01  1.0001481562355938e-01  1.0001233028957353e-01  1.0001299869772949e-01  1.0000751166576458e-01  1.0001280055645274e-01  1.0000000000000003e-01  9.9986463040138654e-02  1.0000000000000003e-01  9.9991593639740500e-02  9.9987653835914583e-02  9.9984971183621832e-02  9.9984533002653003e-02  9.9983780187042459e-02  9.9977012111165844e-02  9.9978496090281213e-02  9.9977807065608326e-02  9.9968168209236208e-02  9.9971760394268264e-02  9.9968502383516206e-02  9.9959325361287502e-02  9.9960338069656596e-02  9.9974891722617018e-02  9.9927501148302456e-02  9.9953503725660905e-02  9.9942799621871928e-02  9.9927180223453885e-02  9.9938004809585479e-02  9.9931674584950100e-02  9.9902476625305020e-02  9.9926540188439439e-02  9.9899031612135286e-02  9.9903194512738561e-02  9.9871176027238509e-02  9.9947119450361860e-02  9.9771059283404018e-02  1.0009247179208813e-01  9.9511879111309778e-02  9.9885408369841111e-02  1.0050783665337704e-01  1.0024441364292043e-01  1.0000216494156827e-01  1.0012177132470072e-01  1.0009897925134580e-01  1.0010671436714666e-01  1.0003910965986017e-01  1.0010474875388192e-01  1.0004039008289257e-01  1.0006870743531068e-01  1.0006159908416300e-01  1.0004673693836279e-01  1.0004693974127785e-01  1.0004895092787708e-01  1.0003579236720145e-01  1.0003692403983432e-01  1.0003593405175171e-01  1.0002823693508946e-01  1.0002774136175061e-01  1.0002704575463656e-01  1.0002192892949528e-01  1.0002088437526867e-01  1.0001992772853235e-01  1.0001599881569066e-01  1.0001540158225967e-01  1.0001263452405879e-01  1.0001240924867923e-01  1.0000721717168423e-01  1.0001196074770240e-01  1.0000000000000003e-01  9.9985263995665694e-02  1.0000000000000003e-01  9.9990958479689987e-02  9.9983775507319295e-02  9.9985291608359811e-02  9.9983345494973563e-02  9.9977481410671490e-02  9.9978232599579220e-02  9.9977535780843202e-02  9.9968041654329431e-02  9.9971780991464643e-02  9.9969036719205873e-02  9.9956631758597411e-02  9.9961490029331801e-02  9.9963812266315899e-02  9.9939767012735367e-02  9.9970645186365253e-02  9.9930651731336501e-02  9.9925911157458039e-02  9.9936803833290261e-02  9.9931715132821175e-02  9.9907065282655957e-02  9.9921690527944945e-02  9.9916346417813343e-02  9.9875643384095047e-02  9.9919865996859356e-02  9.9860584003780992e-02  9.9925900399549503e-02  9.9780570284867531e-02  1.0008690296393395e-01  9.9475489099649456e-02  9.9908919552097256e-02  1.0055676436097076e-01  1.0018785250547893e-01  1.0004087720192695e-01  1.0015511860642838e-01  1.0005962339106300e-01  1.0008926198044818e-01  1.0013917535065860e-01  1.0003194142620418e-01  1.0008424516853007e-01  1.0006868694145309e-01  1.0005785210780260e-01  1.0005407896594362e-01  1.0006072792119733e-01  1.0004163882525884e-01  1.0004448419274881e-01  1.0004403465801835e-01  1.0003410232999640e-01  1.0003329963363482e-01  1.0003294920170321e-01  1.0002606594885477e-01  1.0002539914846402e-01  1.0002418399742129e-01  1.0001997505509762e-01  1.0001823401902765e-01  1.0001739555333164e-01  1.0001317493970580e-01  1.0001363402183001e-01  1.0000824244131382e-01  1.0001261432768430e-01  1.0000000000000003e-01  9.9984080080982446e-02  1.0000000000000003e-01  9.9988914189367575e-02  9.9983887973976809e-02  9.9984626074785796e-02  9.9978106868947522e-02  9.9979008801581809e-02  9.9977627936215382e-02  9.9969034295158798e-02  9.9971962916461987e-02  9.9970586015417376e-02  9.9957589220786708e-02  9.9962315756267836e-02  9.9961281515332026e-02  9.9943119062536168e-02  9.9958556697727366e-02  9.9945991110120674e-02  9.9949030175056297e-02  9.9922525843227541e-02  9.9935319738961234e-02  9.9902758830525976e-02  9.9930350814726024e-02  9.9913098179321258e-02  9.9891654957222381e-02  9.9900050836483553e-02  9.9912626016532738e-02  9.9835721568932126e-02  9.9948469142723539e-02  9.9769308001301557e-02  1.0007574733817416e-01  9.9473141159878334e-02  9.9850338920587575e-02  1.0060592663719030e-01  1.0022255314117967e-01  1.0007113005501730e-01  1.0010871721569721e-01  1.0007388965957888e-01  1.0012820928841601e-01  1.0006143765327349e-01  1.0011701152545477e-01  1.0005984043921917e-01  1.0007212548645930e-01  1.0005305475052521e-01  1.0007527567352975e-01  1.0004478853148249e-01  1.0005187071244633e-01  1.0005108542782452e-01  1.0003858027133744e-01  1.0003850155197412e-01  1.0003918093593046e-01  1.0002944450646284e-01  1.0002903285719000e-01  1.0002839340820728e-01  1.0002241795890800e-01  1.0002147138406112e-01  1.0001987895673004e-01  1.0001654783767540e-01  1.0001381265456000e-01  1.0001415543442740e-01  1.0000793174705012e-01  1.0001240984275012e-01  1.0000000000000003e-01  9.9982493094244174e-02  1.0000000000000003e-01  9.9989123287950538e-02  9.9983385273570494e-02  9.9980779437885609e-02  9.9979247383504249e-02  9.9978843263177394e-02  9.9970642325036163e-02  9.9972294679370841e-02  9.9971534580060584e-02  9.9960684166910951e-02  9.9963370000603902e-02  9.9962264429374920e-02  9.9945849320816280e-02  9.9955189283426532e-02  9.9951248879265847e-02  9.9936139100907026e-02  9.9940579921359712e-02  9.9962238015143062e-02  9.9889552352465230e-02  9.9930367776652443e-02  9.9917774948287782e-02  9.9886655048421522e-02  9.9919186328908602e-02  9.9893745493344038e-02  9.9881533953916093e-02  9.9866475715846462e-02  9.9939908082632631e-02  9.9743560878164744e-02  1.0009918199124336e-01  9.9458084330478647e-02  9.9858024290907246e-02  1.0058548597091400e-01  1.0025762873054718e-01  1.0002467226967003e-01  1.0013042565597217e-01  1.0011022503997802e-01  1.0008148708976529e-01  1.0008540940962357e-01  1.0010233669094401e-01  1.0009818249881983e-01  1.0004185220930503e-01  1.0009300319198979e-01  1.0004364749628011e-01  1.0006188408617306e-01  1.0005843697735305e-01  1.0004443536705646e-01  1.0004325904069894e-01  1.0004612499654597e-01  1.0003375428200807e-01  1.0003408147129830e-01  1.0003339131983648e-01  1.0002572728907466e-01  1.0002465674676274e-01  1.0002411644925537e-01  1.0001853520392355e-01  1.0001784792387390e-01  1.0001514169395942e-01  1.0001378794502815e-01  1.0000852919590339e-01  1.0001277711791548e-01  1.0000000000000003e-01  9.9981851120950704e-02  1.0000000000000003e-01  9.9988999192047470e-02  9.9980281252641218e-02  9.9981803536101477e-02  9.9979181743443640e-02  9.9973016615589799e-02  9.9973281435197944e-02  9.9972546689341538e-02  9.9962563005634511e-02  9.9965634311268911e-02  9.9964342082493080e-02  9.9949018544123594e-02  9.9955567513861893e-02  9.9954068642440552e-02  9.9935460723297134e-02  9.9944705501669603e-02  9.9949585114061767e-02  9.9911280479737533e-02  9.9961258570996012e-02  9.9902023458187453e-02  9.9893955427966946e-02  9.9911867140714636e-02  9.9913332508012084e-02  9.9859566181792703e-02  9.9919455660865034e-02  9.9859567484827425e-02  9.9906951097858410e-02  9.9777934045487848e-02  1.0009163951800340e-01  9.9431434125345372e-02  9.9877187441440543e-02  1.0061149770283723e-01  1.0022441921593647e-01  1.0003714470291521e-01  1.0016322982797631e-01  1.0006846485762882e-01  1.0009971682280706e-01  1.0010525529559354e-01  1.0007811178558620e-01  1.0007082334912588e-01  1.0012292111852077e-01  1.0003092080954126e-01  1.0007414498837507e-01  1.0005983679498660e-01  1.0005289409432934e-01  1.0004655699947863e-01  1.0005374697123399e-01  1.0003689265933381e-01  1.0003827597401289e-01  1.0003889502279192e-01  1.0002949481793527e-01  1.0002808146842486e-01  1.0002768585093223e-01  1.0002137776524167e-01  1.0001983078553169e-01  1.0001914593957047e-01  1.0001398698751734e-01  1.0001422480850670e-01  1.0000890008190048e-01  1.0001246221986988e-01  1.0000000000000003e-01  9.9981305899717168e-02  1.0000000000000003e-01  9.9987608518859822e-02  9.9981029028861787e-02  9.9982118524172450e-02  9.9975018035253160e-02  9.9975492395387416e-02  9.9973931704771951e-02  9.9965429795192046e-02  9.9967273630173104e-02  9.9966892588127840e-02  9.9953220680371810e-02  9.9957967931639927e-02  9.9956721757060163e-02  9.9938975882937445e-02  9.9947967971438526e-02  9.9947828261508512e-02  9.9920678982852409e-02  9.9944972654063075e-02  9.9928881327069563e-02  9.9928089655257554e-02  9.9899979537243819e-02  9.9911938582588553e-02  9.9871841651708260e-02  9.9903530672963009e-02  9.9909739615637219e-02  9.9823593198370905e-02  9.9947869727276040e-02  9.9775904857891395e-02  1.0005368476530774e-01  9.9471085140537346e-02  9.9835816424626314e-02  1.0066113082655058e-01  1.0023448673853418e-01  1.0006406363555732e-01  1.0012815629422005e-01  1.0007973974853020e-01  1.0012702615861460e-01  1.0007575402293656e-01  1.0008068996361731e-01  1.0010007125515408e-01  1.0006113611484115e-01  1.0009683102467079e-01  1.0005097504175799e-01  1.0006362087721733e-01  1.0004489150241072e-01  1.0006412406903245e-01  1.0003925938889506e-01  1.0004336304374674e-01  1.0004366717619387e-01  1.0003269303941828e-01  1.0003207400865702e-01  1.0003289513998426e-01  1.0002383105134448e-01  1.0002306770209661e-01  1.0002185748493354e-01  1.0001727272170391e-01  1.0001465522942087e-01  1.0001505562382601e-01  1.0000842888664806e-01  1.0001257070346473e-01  1.0000000000000003e-01  9.9980232885496220e-02  1.0000000000000003e-01  9.9988050595180719e-02  9.9981168533013559e-02  9.9979171931898828e-02  9.9976708552433194e-02  9.9976336784846576e-02  9.9968206919882632e-02  9.9969106399836458e-02  9.9968702624336783e-02  9.9957771705598150e-02  9.9960055773483242e-02  9.9959751266822841e-02  9.9943931393739804e-02  9.9950173530398798e-02  9.9950726650890623e-02  9.9927063747564368e-02  9.9942233602898944e-02  9.9937746220327917e-02  9.9915517652893748e-02  9.9924086909434176e-02  9.9956535459770832e-02  9.9849837693195290e-02  9.9920344673164768e-02  9.9888855997771656e-02  9.9869351950784904e-02  9.9875184980251233e-02  9.9941291739318316e-02  9.9735685905356863e-02  1.0009534060353122e-01  9.9475887182602987e-02  9.9819015365999547e-02  1.0065861111142085e-01  1.0026881157641265e-01  1.0003109967277100e-01  1.0013315256938740e-01  1.0010674248823755e-01  1.0009596974267028e-01  1.0008086899938817e-01  1.0010847607917413e-01  1.0006576019964200e-01  1.0007364628345210e-01  1.0007974595083360e-01  1.0008525152131333e-01  1.0003201178066691e-01  1.0007663598839364e-01  1.0003685237846208e-01  1.0005015589341409e-01  1.0004779479176323e-01  1.0003656732121222e-01  1.0003442601447535e-01  1.0003716880170307e-01  1.0002707572429349e-01  1.0002639819100939e-01  1.0002570136603559e-01  1.0001875837311247e-01  1.0001789222453800e-01  1.0001580792911509e-01  1.0001353584305160e-01  1.0000864676686200e-01  1.0001255641838359e-01  1.0000000000000003e-01  9.9980192985702820e-02  1.0000000000000003e-01  9.9988487226671099e-02  9.9979157157782828e-02  9.9980803195415302e-02  9.9977697776717875e-02  9.9972186569334071e-02  9.9971557023221344e-02  9.9970949531402536e-02  9.9961547794677627e-02  9.9963687651904012e-02  9.9962795647033559e-02  9.9948942162318324e-02  9.9953537773943876e-02  9.9954494698457505e-02  9.9934163770202353e-02  9.9943847687607015e-02  9.9944331580520102e-02  9.9917183038849403e-02  9.9932806992752352e-02  9.9940198905698344e-02  9.9887254641625997e-02  9.9955711773525219e-02  9.9885996681033012e-02  9