<?xml version="1.0"?>
<VTKFile type="UnstructuredGrid"  version="0.1"  >
<UnstructuredGrid>
<Piece  NumberOfPoints="1933" NumberOfCells="3640">
<Points>
<DataArray  type="Float64"  NumberOfComponents="3"  format="ascii">-0.2935609124059467 -0.002623722747640967 0  4.70643910862916 -0.00253899032905286 0  4.706311957227905 7.497461034251009 0  -0.2936880529470278 7.497376323554787 0  9.706439158736742 -0.002454260530630472 0  9.706311963646332 7.497545749820486 0  14.70643923936959 -0.002369479342784454 0  14.70631195753554 7.497630521919568 0  19.70643933876849 -0.002284601759726962 0  19.70631192694907 7.497715393579258 0  24.70643943761095 -0.00219959099291448 0  24.70631185646151 7.497800400140285 0  29.70643951200205 -0.002114416657611131 0  29.70631172721338 7.497885570993417 0  34.70643953477865 -0.002029052907500903 0  34.70631151692726 7.497970931308211 0  39.70643947577103 -0.001943476850718218 0  39.70631119974598 7.498056503494522 0  44.70643930141051 -0.001857667315568094 0  44.7063107458458 7.498142308344701 0  49.70643897389674 -0.001771603939642184 0  49.70631012081524 7.498228365877329 0  54.70643845002427 -0.001685266531975527 0  54.7063092847966 7.498314695922972 0  59.706437679693 -0.001598634660741506 0  59.70630819137912 7.498401318489591 0  64.70643660407281 -0.001511687430764921 0  64.70630678621703 7.498488253933744 0  69.70643515334405 -0.001424403429045813 0  69.70630500532815 7.498575522948445 0  74.70643324388706 -0.001336760830614366 0  74.70630277300707 7.49866314635998 0  79.70643077472556 -0.001248737671897319 0  79.7062999992619 7.498751144702127 0  84.70642762293528 -0.001160312316735482 0  84.7062965766612 7.498839537500976 0  89.70642363758094 -0.001071464166511775 0  89.7062923764492 7.49892834214552 0  94.70641863150877 -0.0009821747117047105 0  94.70628724378091 7.499017572115444 0  99.70641236993366 -0.0008924291121027464 0  99.70628099195326 7.499107234143279 0  104.7064045541099 -0.0008022186817393437 0  104.7062733956364 7.49919732351355 0  109.7063947972683 -0.0007115450666918257 0  109.7062641834602 7.499287815967578 0  114.7063825881103 -0.0006204278238817515 0  114.7062530311638 7.499378653231736 0  119.7063672338895 -0.0005289191951011262 0  119.7062395583989 7.499469716307519 0  124.706347769537 -0.0004371346613751232 0  124.7062233362769 7.499560774950451 0  129.7063228098961 -0.0003453189999710439 0  129.7062039208419 7.499651390488294 0  134.7062903068691 -0.0002539937612038002 0  134.7061809433223 7.499740727035518 0  139.7062471503888 -0.0001642941860480577 0  139.7061543164016 7.49982718318199 0  144.7061885246183 -7.87498015659905e-05 0  144.7061246608602 7.499907671694096 0  149.7061069267869 -3.088318763397713e-06 0  149.7060941037484 7.499976193273983 0  159.7061073738538 7.274232567182199e-19 0  164.7061745498662 5.558394552656057e-05 0  164.7061196215781 7.500058481357744 0  159.7060935516511 7.500006568283011 0  169.7062255739382 0.0001227249352958929 0  169.7061455897345 7.500124589394083 0  174.7062651418688 0.0001971170246313687 0  174.7061693194291 7.500198458776345 0  179.7062963260295 0.0002759888987256536 0  179.706190219284 7.500276977074169 0  184.7063212330553 0.0003576725869544874 0  184.7062082888749 7.500358408249019 0  189.7063413415758 0.0004411534858282722 0  189.7062237565643 7.50044170870889 0  194.706357711497 0.0005257943208112766 0  194.7062369235958 7.500526220484502 0  199.7063711194806 0.00061118028831962 0  199.7062480956052 7.500611513310036 0  204.7063821473231 0.0006970325460649769 0  204.706257554464 7.500697297320293 0  209.7063912399729 0.0007831586881172669 0  209.7062655489455 7.500783372528153 0  214.706398744076 0.0008694233495745444 0  214.7062722938727 7.500869598443656 0  219.7064049340366 0.0009557300383294128 0  219.7062779727751 7.500955875121883 0  224.7064100300197 0.001042009442181842 0  224.7062827417087 7.501042130911356 0  229.7064142106833 0.001128211616595791 0  229.7062867331931 7.501128314265403 0  234.7064176224083 0.001214300594206222 0  234.7062900598376 7.501214388105078 0  239.7064203861527 0.001300250568777414 0  239.7062928175241 7.501300325843472 0  244.7064226026647 0.001386043145375798 0  244.7062950881358 7.501386108532689 0  249.7064243565388 0.001471665343428781 0  249.7062969418759 7.501471722799626 0  254.7064257194456 0.001557108156609959 0  254.7062984392333 7.501557159360925 0  259.7064267527591 0.001642365548475626 0  259.7062996326473 7.501642411986586 0  264.7064275097424 0.00172743381497561 0  264.7063005679202 7.501727476835806 0  269.7064280373986 0.00181231128574043 0  269.7063012854089 7.501812352129123 0  274.7064283780592 0.001896998372555066 0  274.706301821017 7.501897038154624 0  279.7064285707343 0.001981498010390295 0  279.7063022069973 7.501981537636428 0  284.7064286522012 0.002065816575957003 0  284.706302472555 7.502065856521854 0  289.7064286577213 0.002149965407777084 0  289.706302644245 7.502150005265668 0  294.7064286211295 0.002233963070783357 0  294.7063027461588 7.502234000695315 0  299.7064285738011 0.002317838436063101 0  299.7063027999432 7.502317868509664 0  304.7064285415477 0.002401634232718094 0  304.7063028248149 7.502401646384287 0  309.7064285377034 0.0024854090531758 0  309.7063028379833 7.502485387670882 0  4.706184878106574 14.99746106641645 0  -0.2938151250532817 14.99737643552942 0  9.706184860501798 14.99754572989023 0  14.70618480920519 14.99763046884933 0  19.7061847115227 14.99771531852644 0  24.70618455396874 14.99780030866279 0  29.70618432139083 14.99788546486352 0  34.70618399633906 14.99797080973409 0  39.70618355858221 14.99805636385203 0  44.70618298466974 14.99814214655311 0  49.70618224747183 14.99822817651955 0  54.70618131565725 14.99831447217017 0  59.70618015308902 14.99840105185439 0  64.70617871813118 14.99848793384434 0  69.70617696287307 14.99857513610362 0  74.70617483229344 14.99866267578602 0  79.70617226341321 14.99875056837817 0  84.70616918453153 14.99883882633883 0  89.70616551471916 14.99892745698649 0  94.70616116387814 14.99901645921821 0  99.70615603390517 14.99910581835622 0  104.7061500218664 14.99919549792966 0  109.7061430266767 14.99928542636827 0  114.7061349616499 14.99937547519646 0  119.7061257764635 14.99946542306968 0  124.7061154933752 14.99955489659287 0  129.7061042630818 14.99964327440957 0  134.7060924430135 14.99972953753383 0  139.7060806891296 14.99981205502623 0  144.7060700189781 14.99988834143656 0  149.706061729728 14.99995502197384 0  164.7060686941954 15.00006719184566 0  159.7060612866982 15.00001191763985 0  169.7060776810671 15.00013226113676 0  174.7060876936553 15.00020450317685 0  179.7060979411078 15.0002816007731 0  184.7061078582025 15.00036193331005 0  189.7061171139663 15.00044441587854 0  194.7061255466643 15.00052832406763 0  199.706133103008 15.00061316939668 0  204.7061397941902 15.00069861791244 0  209.7061456669354 15.00078443804992 0  214.7061507854063 15.00087046718852 0  219.7061552203291 15.0009565899503 0  224.7061590427183 15.00104272387434 0  229.7061623204436 15.00112880976996 0  234.7061651165244 15.00121480508659 0  239.7061674884424 15.00130067926984 0  244.7061694880469 15.00138641045877 0  249.7061711617849 15.00147198311543 0  254.7061725510994 15.00155738632536 0  259.7061736928964 15.00164261260224 0  264.7061746200256 15.00172765709208 0  269.7061753617393 15.00181251711601 0  274.7061759441132 15.00189719202179 0  279.7061763904247 15.00198168333627 0  284.7061767215048 15.00206599522528 0  289.7061769561004 15.00215013527103 0  294.7061771113362 15.002234115567 0  299.7061772034243 15.00231795411316 0  304.706177248885 15.00240167651105 0  309.7061772667199 15.00248531818456 0  4.706058020964779 22.49746106764414 0  -0.2939419781497752 22.49737657492176 0  9.706057995033117 22.49754563957204 0  14.70605792892977 22.49763031592783 0  19.70605781047334 22.4977151197226 0  24.7060576285572 22.49780007198374 0  29.70605737196033 22.49788519207116 0  34.70605702854786 22.49797049801405 0  39.70605658473376 22.49805600684661 0  44.70605602511877 22.49814173489785 0  49.70605533224612 22.4982276979899 0  54.7060544864414 22.49831391150502 0  59.7060534657301 22.49840039028331 0  64.70605224584958 22.49848714830733 0  69.70605080039948 22.49857419811204 0  74.70604910120827 22.49866154982907 0  79.70604711903671 22.49874920972596 0  84.70604482480161 22.49883717802711 0  89.70604219158791 22.49892544569002 0  94.70603919783332 22.49901398963776 0  99.70603583222025 22.49910276569068 0  104.7060321009811 22.4991916980626 0  109.7060280384838 22.49928066376074 0  114.7060237219964 22.49936946956754 0  119.7060192912101 22.49945781863022 0  124.7060149719547 22.49954526355356 0  129.7060111007645 22.49963114470302 0  134.7060081414027 22.49971451966022 0  139.7060066752419 22.49979411022721 0  144.7060073365464 22.49986834238924 0  149.70601066444 22.49993565368573 0  164.7060073575653 22.50007560095948 0  159.7060099814668 22.50001575940024 0  169.706006426651 22.50014171906617 0  174.7060071390306 22.50021331337646 0  179.7060091604665 22.50028920644008 0  184.7060120717943 22.5003682826488 0  189.7060154969725 22.50044964261938 0  194.7060191443165 22.5005326085947 0  199.7060228062652 22.50061668453978 0  204.7060263447496 22.50070151160193 0  209.706029674209 22.50078683095255 0  214.7060327467033 22.50087245571523 0  219.7060355402342 22.50095825061712 0  224.7060380501059 22.50104411747684 0  229.7060402827542 22.50112998489151 0  234.7060422514436 22.50121580088391 0  239.7060439733226 22.50130152762623 0  244.7060454674414 22.50138713762702 0  249.7060467534421 22.50147261096159 0  254.7060478507087 22.50155793325885 0  259.7060487778339 22.50164309425036 0  264.706049552299 22.50172808674849 0  269.7060501902993 22.50181290596383 0  274.7060507066823 22.50189754909878 0  279.7060511149774 22.50198201516993 0  284.7060514275349 22.50206630501466 0  289.7060516558152 22.50215042142803 0  294.7060518109093 22.5022343693503 0  299.7060519044193 22.502318
[...]
<PointData  Scalars="p"> 
<DataArray  type="Float64"  Name="p"  format="ascii">1.0000000000000001e-01  1.0000000000000003e-01  9.9996281513724916e-02  1.0000000000000003e-01  1.0000000000000003e-01  9.9996368735776511e-02  1.0000000000000003e-01  9.9994512017073864e-02  1.0000000000000003e-01  9.9993876311101362e-02  1.0000000000000003e-01  9.9992594562326967e-02  1.0000000000000003e-01  9.9989988981206063e-02  1.0000000000000003e-01  9.9989186539154923e-02  1.0000000000000003e-01  9.9987403268943398e-02  1.0000000000000003e-01  9.9984419875411387e-02  1.0000000000000003e-01  9.9984924060779898e-02  1.0000000000000003e-01  9.9975725252183456e-02  1.0000000000000003e-01  9.9972266126941919e-02  1.0000000000000003e-01  9.9967460452606363e-02  1.0000000000000003e-01  9.9964018676179836e-02  1.0000000000000003e-01  9.9955667077816945e-02  1.0000000000000003e-01  9.9952620275858869e-02  1.0000000000000003e-01  9.9946005357352638e-02  1.0000000000000003e-01  9.9936045304757304e-02  1.0000000000000003e-01  9.9932686533030571e-02  1.0000000000000003e-01  9.9921809302780953e-02  1.0000000000000003e-01  9.9914883351514439e-02  1.0000000000000003e-01  9.9902580319987708e-02  1.0000000000000003e-01  9.9903510883453589e-02  1.0000000000000003e-01  9.9874182500508724e-02  1.0000000000000003e-01  9.9897738910089059e-02  1.0000000000000003e-01  9.9838649998454862e-02  1.0000000000000003e-01  9.9901713405847165e-02  1.0000000000000003e-01  9.9791119459197289e-02  1.0000000000000003e-01  9.9919721670734332e-02  1.0000000000000001e-01  9.9713563003044625e-02  1.0000000000000001e-01  1.0000000000000003e-01  1.0019954609312257e-01  1.0044730441452265e-01  1.0000000000000003e-01  1.0004308492548934e-01  1.0000000000000003e-01  1.0015500514653553e-01  1.0000000000000003e-01  1.0009165312231769e-01  1.0000000000000003e-01  1.0010901688030051e-01  1.0000000000000003e-01  1.0009227040919820e-01  1.0000000000000003e-01  1.0009815729261512e-01  1.0000000000000003e-01  1.0008392726850797e-01  1.0000000000000003e-01  1.0008519549760191e-01  1.0000000000000003e-01  1.0007988096321359e-01  1.0000000000000003e-01  1.0007546652413543e-01  1.0000000000000003e-01  1.0007229640193309e-01  1.0000000000000003e-01  1.0007006871231869e-01  1.0000000000000003e-01  1.0006598656375855e-01  1.0000000000000003e-01  1.0006409729131888e-01  1.0000000000000003e-01  1.0006206373399136e-01  1.0000000000000003e-01  1.0005957879587496e-01  1.0000000000000003e-01  1.0005793084035437e-01  1.0000000000000003e-01  1.0005672732763762e-01  1.0000000000000003e-01  1.0005471038600708e-01  1.0000000000000003e-01  1.0005407774917179e-01  1.0000000000000003e-01  1.0005225571907102e-01  1.0000000000000003e-01  1.0005249702311206e-01  1.0000000000000003e-01  1.0004925023359683e-01  1.0000000000000003e-01  1.0005271985838375e-01  1.0000000000000003e-01  1.0004473274218689e-01  1.0000000000000003e-01  1.0005620898066693e-01  1.0000000000000003e-01  1.0003550270948348e-01  1.0000000000000003e-01  1.0007053527680582e-01  1.0000000000000001e-01  1.0000000000000003e-01  9.9993126121583342e-02  1.0000000000000003e-01  9.9993609768797870e-02  9.9993217448202221e-02  9.9992325337425456e-02  9.9989699674604471e-02  9.9989989962867690e-02  9.9989354444204259e-02  9.9985411176673547e-02  9.9987472641970748e-02  9.9985712865279741e-02  9.9983187296450809e-02  9.9972815897745759e-02  9.9977134246532248e-02  9.9966829160716988e-02  9.9971806435214874e-02  9.9967046874649662e-02  9.9959025321736797e-02  9.9960769468120603e-02  9.9957043490420880e-02  9.9944411750791468e-02  9.9951086095187117e-02  9.9938834891937250e-02  9.9939003239880003e-02  9.9925337235069120e-02  9.9946970556211504e-02  9.9890423781762813e-02  9.9981257160689729e-02  9.9820560594958474e-02  1.0006603777302613e-01  9.9710126640550248e-02  9.9798342927918754e-02  1.0066087218994783e-01  1.0021665965593494e-01  1.0002842223383715e-01  1.0006054375683179e-01  1.0004848727473624e-01  1.0007047149225776e-01  1.0004073162433332e-01  1.0005448115869658e-01  1.0004930810939604e-01  1.0004281158847086e-01  1.0004215842557376e-01  1.0004211276610915e-01  1.0003574463640341e-01  1.0003550709889222e-01  1.0003449363415519e-01  1.0003086786073831e-01  1.0003010577198357e-01  1.0002931353421909e-01  1.0002696933687120e-01  1.0002599996570083e-01  1.0002562947534170e-01  1.0002330613702604e-01  1.0002366563781670e-01  1.0002107468860201e-01  1.0002309429415640e-01  1.0001676244970410e-01  1.0002625646143407e-01  1.0000796691748884e-01  1.0003463636128225e-01  1.0000000000000003e-01  9.9989485212194626e-02  1.0000000000000003e-01  9.9993286719626595e-02  9.9990158652921421e-02  9.9987545871770694e-02  9.9987335921435799e-02  9.9986626565905817e-02  9.9980965127702756e-02  9.9982409010148127e-02  9.9981754821960089e-02  9.9975647473622156e-02  9.9974012286571712e-02  9.9979971148768762e-02  9.9951187508161829e-02  9.9963148413973024e-02  9.9956571209587800e-02  9.9944884848688825e-02  9.9950104753863650e-02  9.9943703043313306e-02  9.9927514630225228e-02  9.9932638045885563e-02  9.9926558319129458e-02  9.9903485927577640e-02  9.9920254349157550e-02  9.9892964330231135e-02  9.9906457143777730e-02  9.9866494961271091e-02  9.9933946913435129e-02  9.9783802278008205e-02  1.0005582216313372e-01  9.9547079126077256e-02  9.9880997806292005e-02  1.0057460269597997e-01  1.0031612890383056e-01  1.0006119089913848e-01  1.0008387182316122e-01  1.0013437082510435e-01  1.0005735674093888e-01  1.0010062988877250e-01  1.0008790696345199e-01  1.0007514734003779e-01  1.0007599509414646e-01  1.0007765870331645e-01  1.0006464048859806e-01  1.0006586900480113e-01  1.0006426640705718e-01  1.0005703997652406e-01  1.0005616714965793e-01  1.0005533545114595e-01  1.0005039540881819e-01  1.0004960472528855e-01  1.0004841211003378e-01  1.0004556400074227e-01  1.0004395765187418e-01  1.0004394064919096e-01  1.0004001647478088e-01  1.0004194150810788e-01  1.0003606876867698e-01  1.0004289448178776e-01  1.0002684240884016e-01  1.0005482944418591e-01  1.0000000000000003e-01  9.9987178157355749e-02  1.0000000000000003e-01  9.9991966717878342e-02  9.9985886994481507e-02  9.9986781005575953e-02  9.9985908501908041e-02  9.9979874437929425e-02  9.9981384447013932e-02  9.9980709157695039e-02  9.9973232364184275e-02  9.9976208128505120e-02  9.9976167580917527e-02  9.9959891330825987e-02  9.9976807601589113e-02  9.9951274151091840e-02  9.9947226982624704e-02  9.9951209369413374e-02  9.9950308051555997e-02  9.9930770838807276e-02  9.9942777451117223e-02  9.9932480531840132e-02  9.9916665429236232e-02  9.9921348583814976e-02  9.9922854828743524e-02  9.9885088700694583e-02  9.9931599917103361e-02  9.9859640490364610e-02  9.9955757859589281e-02  9.9779876215726482e-02  1.0009290915558186e-01  9.9521431976850483e-02  9.9890055511358142e-02  1.0071975442593060e-01  1.0020151800921120e-01  1.0002636982607019e-01  1.0022822322337820e-01  9.9996027683538227e-02  1.0011273000237868e-01  1.0007840128173567e-01  1.0007109916212530e-01  1.0006958246573226e-01  1.0007854667409595e-01  1.0005729016244384e-01  1.0006274173839487e-01  1.0006132747399432e-01  1.0005167058068505e-01  1.0005114518770956e-01  1.0005075949170582e-01  1.0004394669857931e-01  1.0004334376574195e-01  1.0004259836732719e-01  1.0003810147455122e-01  1.0003748683072890e-01  1.0003585205557854e-01  1.0003401543592794e-01  1.0003099743338445e-01  1.0003317927302152e-01  1.0002535104625614e-01  1.0003419141041225e-01  1.0001649984695302e-01  1.0004200847132332e-01  1.0000000000000003e-01  9.9984815089761425e-02  1.0000000000000003e-01  9.9989289966389949e-02  9.9985188455954263e-02  9.9985968055554389e-02  9.9978998327700019e-02  9.9980707773267549e-02  9.9979310668045343e-02  9.9970978787386811e-02  9.9974287666518794e-02  9.9974206574031832e-02  9.9959978055511045e-02  9.9968357321133822e-02  9.9960524163126743e-02  9.9959748784993654e-02  9.9939902228845093e-02  9.9947764944315440e-02  9.9924533510790448e-02  9.9939837562512873e-02  9.9932362189311799e-02  9.9908339928345122e-02  9.9925359513649351e-02  9.9909928209354612e-02  9.9895433307777282e-02  9.9893478818831760e-02  9.9913911816051540e-02  9.9837478068492885e-02  9.9957675512705943e-02  9.9750836214298019e-02  1.0010625495000222e-01  9.9446921115704370e-02  9.9763694242406886e-02  1.0080845256180437e-01  1.0027106789457574e-01  1.0010141043915119e-01  1.0011637570267609e-01  1.0013721823953167e-01  1.0009493707403892e-01  1.0008858277152485e-01  1.0007839562927787e-01  1.0010646200760255e-01  1.0006754172016681e-01  1.0008081335929726e-01  1.0007906949683383e-01  1.0006517179043424e-01  1.0006560866797790e-01  1.0006647130367118e-01  1.0005563863090061e-01  1.0005557730254748e-01  1.0005486959081351e-01  1.0004856836960416e-01  1.0004746157098517e-01  1.0004695823553339e-01  1.0004209891410888e-01  1.0004188720002452e-01  1.0003907049218393e-01  1.0003891666985068e-01  1.0003287452653986e-01  1.0004000881471566e-01  1.0002274588943237e-01  1.0004903010993765e-01  1.0000000000000003e-01  9.9982028000498907e-02  1.0000000000000003e-01  9.9989035515890515e-02  9.9984004527357909e-02  9.9980658996807664e-02  9.9980054577522764e-02  9.9979529130861014e-02  9.9971028852451280e-02  9.9973167008694450e-02  9.9973381926899196e-02  9.9961282070271898e-02  9.9966083322191979e-02  9.9963391492329856e-02  9.9950743172758316e-02  9.9953088208670757e-02  9.9969455712780569e-02  9.9913000538974381e-02  9.9942132045328536e-02  9.9931354856825264e-02  9.9910636475562850e-02  9.9926059046747423e-02  9.9921443414504610e-02  9.9885079932922893e-02  9.9918120883120201e-02  9.9886757466372739e-02  9.9894339335475452e-02  9.9853469849112947e-02  9.9957250128655070e-02  9.9726155328010435e-02  1.0014470037348081e-01  9.9388058372274393e-02  9.9789850868063315e-02  1.0076888378671740e-01  1.0033396779179816e-01  9.9990806464619109e-02  1.0015691608942194e-01  1.0012643744299222e-01  1.0013668937929852e-01  1.0004666557790996e-01  1.0013336956438308e-01  1.0005456618529089e-01  1.0008995299205568e-01  1.0008433381808525e-01  1.0006725569201259e-01  1.0006790599345550e-01  1.0007215683814936e-01  1.0005653084377414e-01  1.0005812087950812e-01  1.0005780857879748e-01  1.0004856724521165e-01  1.0004812930885687e-01  1.0004766429805960e-01  1.0004188272867669e-01  1.0004043201790758e-01  1.0004044424636911e-01  1.0003471980676364e-01  1.0003647946953974e-01  1.0002993556918363e-01  1.0003618472512851e-01  1.0001960290835278e-01  1.0004408900830301e-01  1.0000000000000003e-01  9.9980515239189577e-02  1.0000000000000003e-01  9.9988545076238514e-02  9.9979244743940834e-02  9.9981431594360348e-02  9.9979322905046589e-02  9.9972005011366452e-02  9.9972880400820793e-02  9.9973089885452698e-02  9.9961116577339484e-02  9.9966145241772705e-02  9.9964292324321483e-02  9.9948281676700557e-02  9.9954924531755196e-02  9.9958766689156625e-02  9.9929099901499771e-02  9.9964373846773383e-02  9.9920650380990836e-02  9.9909377919967943e-02  9.9924606454095649e-02  9.9920303259110665e-02  9.9889922560283811e-02  9.9909973443430555e-02  9.9908224954717198e-02  9.9856554026928016e-02  9.9916926871428266e-02  9.9842729920869774e-02  9.9931877062137284e-02  9.9737579139851831e-02  1.0014586992881033e-01  9.9333953073975564e-02  9.9814736990030697e-02  1.0083539537191566e-01  1.0026542142134467e-01  1.0002933291252632e-01  1.0020062346619588e-01  1.0007463613708634e-01  1.0011687591523891e-01  1.0017489788004741e-01  1.0004299702350819e-01  1.0010680422147941e-01  1.0009061098274062e-01  1.0007916102233912e-01  1.0007486126357942e-01  1.0008553953303900e-01  1.0006301050567878e-01  1.0006690527826648e-01  1.0006755842378359e-01  1.0005590903766323e-01  1.0005503699852515e-01  1.0005533199001317e-01  1.0004704204535135e-01  1.0004659949142618e-01  1.0004528696177019e-01  1.0004109362725246e-01  1.0003824428456549e-01  1.0003962318040892e-01  1.0003157971573884e-01  1.0003840855004016e-01  1.0002200802144749e-01  1.0004590391656537e-01  1.0000000000000003e-01  9.9979109726287763e-02  1.0000000000000003e-01  9.9986034851237873e-02  9.9979525536279812e-02  9.9981156184275555e-02  9.9972951117621250e-02  9.9974286249429445e-02  9.9973366366153144e-02  9.9962465078216226e-02  9.9966467403024992e-02  9.9965993029259639e-02  9.9949691326728984e-02  9.9956083388997252e-02  9.9956320535595528e-02  9.9933514410519397e-02  9.9952583224145186e-02  9.9940350156075511e-02  9.9938977224545089e-02  9.9911554656253412e-02  9.9925241039482249e-02  9.9884208770289917e-02  9.9919620843054849e-02  9.9902270464897566e-02  9.9875893894441861e-02  9.9888095536352819e-02  9.9911041282399124e-02  9.9810104031385363e-02  9.9962538705406265e-02  9.9724255117175128e-02  1.0013634022537327e-01  9.9322890688146259e-02  9.9735627239901814e-02  1.0090448972661144e-01  1.0030448111142057e-01  1.0006498887866994e-01  1.0013981431609136e-01  1.0008407640118595e-01  1.0016271809615528e-01  1.0008216689213895e-01  1.0014596545316963e-01  1.0007562145715843e-01  1.0009320879574907e-01  1.0006878340913206e-01  1.0009944085464402e-01  1.0006328453473685e-01  1.0007244001892375e-01  1.0007330257482269e-01  1.0005878580642255e-01  1.0005885156468178e-01  1.0006069889040545e-01  1.0004925328720021e-01  1.0004872090154626e-01  1.0004875647579115e-01  1.0004139254274218e-01  1.0004116488007690e-01  1.0003870095590396e-01  1.0003694828731992e-01  1.0003083594759338e-01  1.0003748115737963e-01  1.0002038272058400e-01  1.0004372261608828e-01  1.0000000000000003e-01  9.9977106854031508e-02  1.0000000000000003e-01  9.9986354131239477e-02  9.9979249308594434e-02  9.9976393646546216e-02  9.9974554231810703e-02  9.9974958696207594e-02  9.9964633138720574e-02  9.9967012771942768e-02  9.9967067208720783e-02  9.9953373218639910e-02  9.9957078132536223e-02  9.9957362749683851e-02  9.9936615985903268e-02  9.9948654052168739e-02  9.9946515927567744e-02  9.9926103441258837e-02  9.9933901173046583e-02  9.9958972584610631e-02  9.9872594118372959e-02  9.9919075519127806e-02  9.9907841951306253e-02  9.9866679273569861e-02  9.9911020914137658e-02  9.9882702085257236e-02  9.9870047224958541e-02  9.9848705061434506e-02  9.9955474181395831e-02  9.9688265105789736e-02  1.0017083924508917e-01  9.9297384346278675e-02  9.9738219586262125e-02  1.0088336081144544e-01  1.0035019606119351e-01  1.0000483191501726e-01  1.0016223567714662e-01  1.0012797588648518e-01  1.0010338481353691e-01  1.0010550063333046e-01  1.0013406972591612e-01  1.0012544383241737e-01  1.0005291424419895e-01  1.0011909303836347e-01  1.0005925944206497e-01  1.0008220321979820e-01  1.0008030570774955e-01  1.0006433654582819e-01  1.0006314456090803e-01  1.0006820878811427e-01  1.0005353838837530e-01  1.0005422388485911e-01  1.0005412950697939e-01  1.0004525273465269e-01  1.0004379556353708e-01  1.0004432144427802e-01  1.0003689856714487e-01  1.0003824881453943e-01  1.0003249130685087e-01  1.0003675006397557e-01  1.0002128803014335e-01  1.0004390640048429e-01  1.0000000000000003e-01  9.9976312932350139e-02  1.0000000000000003e-01  9.9986388853739464e-02  9.9975312722312693e-02  9.9977736736649309e-02  9.9975053561243199e-02  9.9967588031821444e-02  9.9968148823070396e-02  9.9968351852425960e-02  9.9955815811234458e-02  9.9959669980721075e-02  9.9959660989168142e-02  9.9940105859696662e-02  9.9948641489187362e-02  9.9949237130936869e-02  9.9925362794669015e-02  9.9938187936435705e-02  9.9946302709340448e-02  9.9899163000679136e-02  9.9957254122683470e-02  9.9893017616609237e-02  9.9875467590304620e-02  9.9900018154223988e-02  9.9905995433236569e-02  9.9837237402313803e-02  9.9917529662883017e-02  9.9842660799413285e-02  9.9911739916159370e-02  9.9730222716329531e-02  1.0016720559965901e-01  9.9254073946161009e-02  9.9759561449409936e-02  1.0091431099117286e-01  1.0030890093661557e-01  1.0001538793140752e-01  1.0020274507548779e-01  1.0007431867155128e-01  1.0012006372662922e-01  1.0012878054752630e-01  1.0010091848209295e-01  1.0009309251505484e-01  1.0015587180679174e-01  1.0004118458396703e-01  1.0009461666353904e-01  1.0007865958365916e-01  1.0007191278965050e-01  1.0006441865985412e-01  1.0007515759620493e-01  1.0005541430095620e-01  1.0005741840230618e-01  1.0005928019179983e-01  1.0004824321585232e-01  1.0004693305539178e-01  1.0004677511000432e-01  1.0004000970131541e-01  1.0003744562649346e-01  1.0003895262470840e-01  1.0003019196214896e-01  1.0003622239961138e-01  1.0002109612100489e-01  1.0004220278087657e-01  1.0000000000000003e-01  9.9975665406493192e-02  1.0000000000000003e-01  9.9984588233298560e-02  9.9976195424095957e-02  9.9978468936556528e-02  9.9969687731645746e-02  9.9970687065754515e-02  9.9969672211240049e-02  9.9959225073863248e-02  9.9961717284584875e-02  9.9962555984552101e-02  9.9945105861685909e-02  9.9951185344409915e-02  9.9951470897065645e-02  9.9928946838364674e-02  9.9941054421065531e-02  9.9943625134031253e-02  9.9909617463109876e-02  9.9939868763486026e-02  9.9925280768367319e-02  9.9916930472196908e-02  9.9890315151622153e-02  9.9902609056224362e-02  9.9852160981744126e-02  9.9891708963895195e-02  9.9908237355345167e-02  9.9793579546163219e-02  9.9962802801930720e-02  9.9729479249540454e-02  1.0011818211549130e-01  9.9298178566730053e-02  9.9708141047592638e-02  1.0097103636144943e-01  1.0031930459009937e-01  1.0004781476384149e-01  1.0015911794200304e-01  1.0008461806764095e-01  1.0015381851117662e-01  1.0009038992838613e-01  1.0009999726926368e-01  1.0012740364531973e-01  1.0008413369428155e-01  1.0012315861244589e-01  1.0006613837603047e-01  1.0008338985531910e-01  1.0005973240973109e-01  1.0008572893454569e-01  1.0005640477394032e-01  1.0006186575875617e-01  1.0006365202221658e-01  1.0005111849697952e-01  1.0005042478109559e-01  1.0005258557929704e-01  1.0004171387672882e-01  1.0004151202594008e-01  1.0003974506078619e-01  1.0003619885012155e-01  1.0003064325592453e-01  1.0003672589709697e-01  1.0002034934271048e-01  1.0004158004087116e-01  1.0000000000000003e-01  9.9974291859306300e-02  1.0000000000000003e-01  9.9985096802984702e-02  9.9976569421890829e-02  9.9974623125536635e-02  9.9971704159692421e-02  9.9972252684533178e-02  9.9962226619206632e-02  9.9963706257685886e-02  9.9964452924326597e-02  9.9950633796252852e-02  9.9953664465625619e-02  9.9954669466785384e-02  9.9934444328939540e-02  9.9942520509756244e-02  9.9945891695621458e-02  9.9916147407931130e-02  9.9935702920931097e-02  9.9934422623660923e-02  9.9904369504857760e-02  9.9918237807097465e-02  9.9956933039394499e-02  9.9829153739795812e-02  9.9912317655408242e-02  9.9878030687371472e-02  9.9852533363914406e-02  9.9858139220567591e-02  9.9956817377948010e-02  9.9674706341418839e-02  1.0017003330367157e-01  9.9304119096145851e-02  9.9689040396598982e-02  1.0095879100451353e-01  1.0035945245186638e-01  1.0000674257960447e-01  1.0016307258503912e-01  1.0011758463036408e-01  1.0011495554131994e-01  1.0009346933991350e-01  1.0013291239910417e-01  1.0008360003337921e-01  1.0009487768424929e-01  1.0010669576386050e-01  1.0011095932329289e-01  1.0004220172681660e-01  1.0009927124062688e-01  1.0005097793078298e-01  1.0006784348261306e-01  1.0006667393135883e-01  1.0005399280112985e-01  1.0005172429026365e-01  1.0005626962436905e-01  1.0004465083794126e-01  1.0004387479465227e-01  1.0004435985541699e-01  1.0003540374945631e-01  1.0003620991369130e-01  1.0003159069869073e-01  1.0003406846663940e-01  1.0002015165027311e-01  1.0004044874012519e-01  1.0000000000000003e-01  9.9974129958766339e-02  1.0000000000000003e-01  9.9985647894458018e-02  9.9973792516756588e-02  9.9976435008225520e-02  9.9973128365619945e-02  9.9966619524674616e-02  9.9966087346238838e-02  9.9966509875580797e-02  9.9954814883432441e-02  9.9957657134038758e-02  9.9957960448109034e-02  9.9940267418462819e-02  9.9945830601205723e-02  9.9949145909620410e-02  9.9923303963216845e-02  9.9935943787015605e-02  9.9940278159468557e-02  9.9905397667662280e-02  9.9926547808752042e-02  9.9938888662579300e-02  9.9873403706191063e-02  9.9953207999262758e-02  9.9880469055718013e-02  9