<?xml version="1.0"?>
<VTKFile type="UnstructuredGrid"  version="0.1"  >
<UnstructuredGrid>
<Piece  NumberOfPoints="1933" NumberOfCells="3640">
<Points>
<DataArray  type="Float64"  NumberOfComponents="3"  format="ascii">0.0002921222366577547 -0.002576861322700056 0  5.000292160550774 -0.002503117233172807 0  5.000181510652411 7.49749696096653 0  0.0001814675388277509 7.497423211379594 0  10.00029223236397 -0.002429423959660032 0  10.00018157650924 7.497570649604526 0  15.00029236480023 -0.002355751555419464 0  15.00018167054325 7.497644315738282 0  20.00029257443592 -0.002282057397709474 0  20.0001817947763 7.497718004315374 0  25.00029286861468 -0.002208294125301954 0  25.000181947691 7.497791763084423 0  30.0002932474221 -0.002134412633017369 0  30.00018212395398 7.497865640959231 0  35.000293705241 -0.002060362855155285 0  35.00018231419894 7.497939687677927 0  40.00029423169783 -0.001986093515369989 0  40.00018250478817 7.498013954186058 0  45.00029481204925 -0.001911551371529077 0  45.00018267745278 7.498088493417313 0  50.00029542709473 -0.001836680186354504 0  50.00018280873582 7.498163361310708 0  55.00029605267289 -0.001761419507864681 0  55.00018286917702 7.498238618003312 0  60.00029665875925 -0.001685703264889115 0  60.00018282217804 7.498314329197741 0  65.00029720813632 -0.00160945813375852 0  65.00018262247066 7.49839056774444 0  70.00029765455153 -0.00153260159267939 0  70.00018221408396 7.498467415511326 0  75.00029794021613 -0.001455039538143383 0  75.00018152766441 7.498544965645302 0  80.00029799239785 -0.001376663283283891 0  80.00018047694427 7.498623325367777 0  85.00029771871993 -0.001297345681401903 0  85.00017895407744 7.498702619489929 0  90.00029700053592 -0.001216936006911094 0  90.00017682346218 7.498782994882466 0  95.0002956833622 -0.001135253065936761 0  95.00017391355416 7.498864626175638 0  100.0002935626586 -0.001052075784720789 0  100.000170006068 7.498947722960857 0  105.0002903620553 -0.0009671302312807017 0  105.0001648219405 7.499032538623754 0  110.0002856989733 -0.0008800717034952712 0  110.000158003677 7.49911938043732 0  115.000279028714 -0.0007904603416990767 0  115.0001490946795 7.499208619191011 0  120.0002695510113 -0.0006977292624557439 0  120.0001375188533 7.499300693336996 0  125.000256050086 -0.000601147094111222 0  125.0001225703989 7.499396095083329 0  130.0002366154731 -0.000499786574281387 0  130.0001034387874 7.499495309278666 0  135.0002081474506 -0.000392540438654343 0  135.0000793268279 7.499598641087687 0  140.0001654714521 -0.0002783141017768901 0  140.0000497891844 7.499705800389036 0  145.0000997377094 -0.0001568028414351211 0  145.0000155626492 7.499815001165837 0  149.9999954779803 -3.124022523898959e-05 0  149.9999804644982 7.499921288086654 0  159.9999999999999 1.321718120367288e-18 0  165.0000173604151 -1.970142925274311e-05 0  165.0000040627889 7.499971075656541 0  159.999991733081 7.499978643128325 0  170.0000435097376 -1.3602514481866e-05 0  170.0000161483359 7.499982130072829 0  175.0000711349712 1.006378734274839e-05 0  175.0000288744865 7.500008059811929 0  180.0000972669475 4.610271176543058e-05 0  180.0000418855224 7.500045191314743 0  185.0001208367677 9.102398429925914e-05 0  185.0000546708162 7.50009065251516 0  190.0001416095659 0.0001424215117035538 0  190.000066837877 7.500142318181483 0  195.0001597016413 0.0001986079838225775 0  195.0000781462475 7.500198636304685 0  200.000175360359 0.0002583808369501596 0  200.0000884779506 7.500258471510029 0  205.0001888655485 0.0003208687178618978 0  205.0000977993524 7.500320986400278 0  210.0002004874313 0.0003854297666542277 0  210.0001061297181 7.500385556486142 0  215.0002104706424 0.0004515835836041509 0  215.000113518761 7.500451710342219 0  220.0002190300224 0.0005189651624033662 0  220.0001200317742 7.500519087638889 0  225.0002263514607 0.0005872932285597116 0  225.0001257402596 7.500587409557126 0  230.0002325946869 0.0006563481149005187 0  230.0001307162937 7.500656457727698 0  235.0002378966142 0.0007259560343798484 0  235.0001350293312 7.500726059055165 0  240.0002423746357 0.0007959777128433412 0  240.0001387445635 7.500796074640458 0  245.0002461296626 0.0008663000479388155 0  245.0001419222439 7.500866391595207 0  250.0002492488407 0.0009368299126004809 0  250.0001446176104 7.500936916930717 0  255.0002518079799 0.001007489516671859 0  255.0001468811721 7.501007572968232 0  260.0002538737309 0.001078212938033177 0  260.0001487592003 7.501078293898198 0  265.0002555055863 0.001148943573338347 0  265.0001502943377 7.501149023245378 0  270.0002567577379 0.001219632363569922 0  270.0001515262621 7.50121971209451 0  275.000257680863 0.001290236739359858 0  275.0001524923375 7.501290318012573 0  280.0002583238368 0.001360720320481858 0  280.0001532282261 7.501360804679026 0  285.0002587353722 0.001431053507240944 0  285.0001537683859 7.501431142313263 0  290.0002589654447 0.001501215232917755 0  290.0001541464036 7.501501309071767 0  295.0002590662173 0.001571196314845356 0  295.0001543951111 7.501571293672735 0  300.0002590917582 0.001641005024098311 0  300.0001545465022 7.501641099576275 0  305.0002590950885 0.001710675516989857 0  305.0001546317224 7.501710751084571 0  310.0002591194939 0.001780278784105776 0  310.0001546820443 7.501780301862367 0  5.000070779942353 14.99749711477413 0  7.074080479024802e-05 14.99742338651001 0  10.00007082197265 14.99757076931808 0  15.00007086615395 14.99764440295345 0  20.00007090802043 14.99771806400867 0  25.00007094073136 14.99779179978574 0  30.00007095507679 14.99786565763623 0  35.0000709390555 14.99793968556503 0  40.00007087732611 14.99801393287144 0  45.00007075059558 14.99808845092804 0  50.00007053492935 14.99816329409857 0  55.00007020094233 14.99823852078661 0  60.00006971282592 14.99831419462063 0  65.00006902716854 14.99839038579679 0  70.00006809152754 14.99846717261253 0  75.00006684272375 14.99854464323106 0  80.0000652048442 14.99862289771251 0  85.00006308698951 14.9987020503233 0  90.00006038089201 14.99878223207046 0  95.00005695871944 14.99886359325927 0  100.0000526717206 14.99894630556082 0  105.0000473510083 14.99903056244769 0  110.0000408128614 14.99911657562964 0  115.0000328727753 14.99920456279501 0  120.0000233753715 14.99929471768097 0  125.0000122514011 14.99938714590441 0  129.9999996178801 14.99948173726892 0  134.9999859399697 14.99957792591355 0  139.9999722642931 14.99967426560007 0  144.9999604879098 14.99976773182108 0  149.9999534818607 14.99985268475917 0  164.9999731932026 14.99994579719994 0  159.9999672001451 14.99992935979799 0  169.999977252576 14.99996971210007 0  174.9999811314263 15.00000229000858 0  179.999985454069 15.00004280448099 0  184.9999902815633 15.00008995801508 0  189.9999954593076 15.00014244450851 0  195.0000007846599 15.00019913600044 0  200.0000060757074 15.0002591167915 0  205.0000111925565 15.00032166344851 0  210.0000160381174 15.00038621061426 0  215.0000205514292 15.00045231745878 0  220.000024699363 15.00051963935223 0  225.0000284690329 15.0005879053879 0  230.0000318616418 15.00065690104356 0  235.0000348878067 15.00072645496559 0  240.0000375641465 15.00079642892945 0  245.0000399108727 15.00086671020603 0  250.0000419501362 15.0009372057448 0  255.0000437049292 15.00100783773732 0  260.0000451983793 15.00107854024849 0  265.0000464533176 15.00114925669694 0  270.0000474920303 15.00121993804171 0  275.0000483361235 15.00129054159147 0  280.0000490064577 15.00136103040014 0  285.0000495231462 15.00143137324863 0  290.0000499056281 15.00150154522722 0  295.0000501729529 15.00157152891115 0  300.0000503445116 15.00164131603077 0  305.0000504417309 15.00171090932229 0  310.0000504916318 15.00178032384446 0  4.99996011142848 22.49749735968037 0  -3.992296486554636e-05 22.49742371932339 0  9.999960135086805 22.49757093547272 0  14.99996014145001 22.49764450045491 0  19.99996012294723 22.49771810213393 0  24.99996007078914 22.49779178537104 0  29.99995997475062 22.49786559437001 0  34.99995982279107 22.49793957382072 0  39.99995960058623 22.4980137697126 0  44.99995929102895 22.49808823006149 0  49.99995887372514 22.49816300564807 0  54.99995832448865 22.4982381508011 0  59.99995761484124 22.49831372423167 0  64.99995671153518 22.49838978991108 0  69.99995557613873 22.49846641796907 0  74.9999541647699 22.49854368556387 0  79.99995242812207 22.49862167762676 0  84.99995031203125 22.49870048729606 0  89.99994775898443 22.49878021570272 0  94.99994471120273 22.49886097050478 0  99.99994111626799 22.49894286211947 0  104.9999369367278 22.4990259958619 0  109.9999321656963 22.49911045700445 0  114.9999268510814 22.49919628392959 0  119.9999211313974 22.49928342189058 0  124.9999152854531 22.49937164652591 0  129.9999097949818 22.49946044321873 0  134.9999054106605 22.49954882924269 0  139.9999031936007 22.49963512028861 0  144.9999044719497 22.4997166959856 0  149.9999106101114 22.4997899697555 0  164.9999238197149 22.49991607836547 0  159.9999223689482 22.49988212213144 0  169.9999236339145 22.49995231297918 0  174.9999228324991 22.49999279213126 0  179.9999221274039 22.50003810902239 0  184.9999218724118 22.50008807377139 0  189.9999221706331 22.50014214840926 0  194.9999229857952 22.50019969650574 0  199.9999242195391 22.50026010466146 0  204.9999257565833 22.50032283142217 0  209.9999274877873 22.50038741961464 0  214.9999293199735 22.50045349218985 0  219.9999311785561 22.50052074185817 0  224.9999330066456 22.50058891939943 0  229.9999347626901 22.50065782274632 0  234.9999364177334 22.50072728757768 0  239.9999379528055 22.50079717953765 0  244.999939356655 22.50086738794203 0  249.9999406238708 22.50093782075409 0  254.9999417533792 22.50100840061003 0  259.9999427472517 22.50107906170301 0  264.9999436097809 22.50114974737018 0  269.9999443467608 22.50122040826282 0  274.9999449649459 22.50129100100587 0  279.9999454716662 22.50136148726921 0  284.9999458746192 22.5014318331694 0  289.9999461818986 22.50150200888763 0  294.9999464023937 22.50157198830806 0  299.99
[...]
<PointData  Scalars="p"> 
<DataArray  type="Float64"  Name="p"  format="ascii">1.0000000000000001e-01  1.0000000000000003e-01  9.9996101362814171e-02  1.0000000000000003e-01  1.0000000000000003e-01  9.9995467692292603e-02  1.0000000000000003e-01  9.9993155690075261e-02  1.0000000000000003e-01  9.9991981705773156e-02  1.0000000000000003e-01  9.9990315138396013e-02  1.0000000000000003e-01  9.9987577668921135e-02  1.0000000000000003e-01  9.9986353071792516e-02  1.0000000000000003e-01  9.9984476702672700e-02  1.0000000000000003e-01  9.9981389453871361e-02  1.0000000000000003e-01  9.9980933095217883e-02  1.0000000000000003e-01  9.9973275534064224e-02  1.0000000000000003e-01  9.9969049131796911e-02  1.0000000000000003e-01  9.9964528677076350e-02  1.0000000000000003e-01  9.9960885268074340e-02  1.0000000000000003e-01  9.9953508295719820e-02  1.0000000000000003e-01  9.9950525111286076e-02  1.0000000000000003e-01  9.9945098108113722e-02  1.0000000000000003e-01  9.9936770084801160e-02  1.0000000000000003e-01  9.9934304197718496e-02  1.0000000000000003e-01  9.9926007052969626e-02  1.0000000000000003e-01  9.9920951949922787e-02  1.0000000000000003e-01  9.9911890936065589e-02  1.0000000000000003e-01  9.9914022528312274e-02  1.0000000000000003e-01  9.9891348398858562e-02  1.0000000000000003e-01  9.9912113385088056e-02  1.0000000000000003e-01  9.9865840641402262e-02  1.0000000000000003e-01  9.9918416028150006e-02  1.0000000000000003e-01  9.9830592006705202e-02  1.0000000000000003e-01  9.9935654406252183e-02  1.0000000000000001e-01  9.9770846488786161e-02  1.0000000000000001e-01  1.0000000000000003e-01  1.0018602479459381e-01  1.0038243152518846e-01  1.0000000000000003e-01  1.0005421610930407e-01  1.0000000000000003e-01  1.0014695631724048e-01  1.0000000000000003e-01  1.0009711347612520e-01  1.0000000000000003e-01  1.0011209327222446e-01  1.0000000000000003e-01  1.0009924045284704e-01  1.0000000000000003e-01  1.0010533693820152e-01  1.0000000000000003e-01  1.0009447631940065e-01  1.0000000000000003e-01  1.0009611636228882e-01  1.0000000000000003e-01  1.0009245651957679e-01  1.0000000000000003e-01  1.0008928544453195e-01  1.0000000000000003e-01  1.0008695926997255e-01  1.0000000000000003e-01  1.0008541720129827e-01  1.0000000000000003e-01  1.0008220659180814e-01  1.0000000000000003e-01  1.0008069613553544e-01  1.0000000000000003e-01  1.0007904728879909e-01  1.0000000000000003e-01  1.0007700174967439e-01  1.0000000000000003e-01  1.0007550219505786e-01  1.0000000000000003e-01  1.0007451405723003e-01  1.0000000000000003e-01  1.0007257338728465e-01  1.0000000000000003e-01  1.0007216372775687e-01  1.0000000000000003e-01  1.0007006476737516e-01  1.0000000000000003e-01  1.0007086765837940e-01  1.0000000000000003e-01  1.0006667870114115e-01  1.0000000000000003e-01  1.0007171901874798e-01  1.0000000000000003e-01  1.0006097087288129e-01  1.0000000000000003e-01  1.0007699791933609e-01  1.0000000000000003e-01  1.0004862405038470e-01  1.0000000000000003e-01  1.0009713069015402e-01  1.0000000000000001e-01  1.0000000000000003e-01  9.9993581053009886e-02  1.0000000000000003e-01  9.9993639644153948e-02  9.9993181848891569e-02  9.9992295220002608e-02  9.9989980383816485e-02  9.9990150618177079e-02  9.9989715927466832e-02  9.9986366821702213e-02  9.9987916661866044e-02  9.9986576231277782e-02  9.9983518127019860e-02  9.9975620144221636e-02  9.9977906355462776e-02  9.9969368145699719e-02  9.9973110421907860e-02  9.9969817584065299e-02  9.9963104845386896e-02  9.9965013852239035e-02  9.9962808736904343e-02  9.9952753195371391e-02  9.9959058881583615e-02  9.9950228502907620e-02  9.9951019899560289e-02  9.9940779370052163e-02  9.9959907736517181e-02  9.9913954963529686e-02  9.9989027711490278e-02  9.9858252766478028e-02  1.0005779781691536e-01  9.9767489224594955e-02  9.9838388523982871e-02  1.0058601265409069e-01  1.0017588506817256e-01  1.0002789649660584e-01  1.0005170598956470e-01  1.0004157638832989e-01  1.0006177238854884e-01  1.0003805680369281e-01  1.0004976054943868e-01  1.0004680773484680e-01  1.0004209505276303e-01  1.0004186829894660e-01  1.0004245506515783e-01  1.0003756264693557e-01  1.0003746896881144e-01  1.0003692029923826e-01  1.0003407890360042e-01  1.0003352710240872e-01  1.0003298288518966e-01  1.0003122005729441e-01  1.0003034841136375e-01  1.0003035631512680e-01  1.0002814698061860e-01  1.0002911777535635e-01  1.0002604701701380e-01  1.0002953221456758e-01  1.0002127640054564e-01  1.0003484058048794e-01  1.0001012529733948e-01  1.0004736328934556e-01  1.0000000000000003e-01  9.9990520804620495e-02  1.0000000000000003e-01  9.9993590250283815e-02  9.9990459194818568e-02  9.9988071904261039e-02  9.9987617210388000e-02  9.9987139416806703e-02  9.9982258147719813e-02  9.9983413273432367e-02  9.9983146168682938e-02  9.9977577625221137e-02  9.9976395645738472e-02  9.9980068614813650e-02  9.9957164128828352e-02  9.9965008313463388e-02  9.9960221846820713e-02  9.9949823260227957e-02  9.9954581132119719e-02  9.9950282897265472e-02  9.9937156236507257e-02  9.9942209573411683e-02  9.9938997671398258e-02  9.9920562138904614e-02  9.9935912084363102e-02  9.9915448648522309e-02  9.9927632047065340e-02  9.9895837440319268e-02  9.9953475964710783e-02  9.9829381429194924e-02  1.0005351966140441e-01  9.9635165637857390e-02  9.9883274133892183e-02  1.0054234171161860e-01  1.0028229216820922e-01  1.0005869112588869e-01  1.0007392264237083e-01  1.0012043903148990e-01  1.0005707359743010e-01  1.0009274760861532e-01  1.0008495954416091e-01  1.0007549243781111e-01  1.0007669595876570e-01  1.0007943297754188e-01  1.0006939873402423e-01  1.0007065872356045e-01  1.0006998334932860e-01  1.0006435663629959e-01  1.0006369224544416e-01  1.0006332215778473e-01  1.0005939462389689e-01  1.0005885132551430e-01  1.0005795091834582e-01  1.0005590237903671e-01  1.0005433448745656e-01  1.0005502716501249e-01  1.0005091127875379e-01  1.0005423076927425e-01  1.0004686685026933e-01  1.0005714971656161e-01  1.0003570379585282e-01  1.0007496100179920e-01  1.0000000000000003e-01  9.9988639076368346e-02  1.0000000000000003e-01  9.9992724330506558e-02  9.9987365421389710e-02  9.9987915916378609e-02  9.9987379174496002e-02  9.9982308344314264e-02  9.9983653650438473e-02  9.9983665010458661e-02  9.9977405702334543e-02  9.9980007916357583e-02  9.9980289825598451e-02  9.9966884817928772e-02  9.9978880193803049e-02  9.9960328499255402e-02  9.9954318934217828e-02  9.9958113117070715e-02  9.9957991141350622e-02  9.9942153802741768e-02  9.9952787558168277e-02  9.9946202244201060e-02  9.9933687369387736e-02  9.9938875805789473e-02  9.9942619696850990e-02  9.9912021540476556e-02  9.9952380229041696e-02  9.9894472740171145e-02  9.9974972999510983e-02  9.9828800007796717e-02  1.0008919779953690e-01  9.9612649371293355e-02  9.9879335932489363e-02  1.0066895659152388e-01  1.0018755018596505e-01  1.0001773583825264e-01  1.0019065908127180e-01  9.9998607031937817e-02  1.0009210055965055e-01  1.0006762926776995e-01  1.0006261091944572e-01  1.0006186687300339e-01  1.0007127373627139e-01  1.0005485210897594e-01  1.0005970344043087e-01  1.0005958433963943e-01  1.0005220669808380e-01  1.0005194414697326e-01  1.0005209958325317e-01  1.0004680999347421e-01  1.0004635275901147e-01  1.0004612787752495e-01  1.0004253359029286e-01  1.0004237482099447e-01  1.0004095266886327e-01  1.0004024826429143e-01  1.0003692165012112e-01  1.0004082819830835e-01  1.0003136043101651e-01  1.0004439194793706e-01  1.0002094626628928e-01  1.0005701267713911e-01  1.0000000000000003e-01  9.9986706608598305e-02  1.0000000000000003e-01  9.9990728213596197e-02  9.9986997668280675e-02  9.9987844259822198e-02  9.9981743222193817e-02  9.9983277921501551e-02  9.9982533383574324e-02  9.9975735211224645e-02  9.9978696804086067e-02  9.9979251640261210e-02  9.9967591676503958e-02  9.9974093455007504e-02  9.9968853536414354e-02  9.9965477317754001e-02  9.9951667806322961e-02  9.9956426009148391e-02  9.9937302341025866e-02  9.9949937071239989e-02  9.9945923234333267e-02  9.9926196058471251e-02  9.9941773832040851e-02  9.9931455989476795e-02  9.9920558394821363e-02  9.9920266473049829e-02  9.9940808638307330e-02  9.9876958658546802e-02  9.9979731284632931e-02  9.9806707940962122e-02  1.0010440433534733e-01  9.9549556366967648e-02  9.9767134008879071e-02  1.0075801054519050e-01  1.0024218952244936e-01  1.0007886251429331e-01  1.0010828412592056e-01  1.0011106426461951e-01  1.0008154809040753e-01  1.0007712902496654e-01  1.0006798273266157e-01  1.0009413470175882e-01  1.0006366748206753e-01  1.0007493691821068e-01  1.0007525449460086e-01  1.0006476722327473e-01  1.0006533502575994e-01  1.0006691729161285e-01  1.0005849837167823e-01  1.0005853256538730e-01  1.0005835945256945e-01  1.0005352446331026e-01  1.0005264233425000e-01  1.0005274681073005e-01  1.0004872205631998e-01  1.0004929044135190e-01  1.0004642184023062e-01  1.0004806098695970e-01  1.0004078384771393e-01  1.0005163578494047e-01  1.0002923506855663e-01  1.0006639713392693e-01  1.0000000000000003e-01  9.9984414279778236e-02  1.0000000000000003e-01  9.9990648620204292e-02  9.9986438850563311e-02  9.9983717060395327e-02  9.9983175543367650e-02  9.9983082025479314e-02  9.9976098314559059e-02  9.9978074706391640e-02  9.9979114681691725e-02  9.9969178721316249e-02  9.9973356203622965e-02  9.9972264333994323e-02  9.9960979601877789e-02  9.9963763262002236e-02  9.9975696493333654e-02  9.9931749922017477e-02  9.9952880405821204e-02  9.9946153044945071e-02  9.9928248146867127e-02  9.9942374458794919e-02  9.9941238135095770e-02  9.9911600652432528e-02  9.9940985386920853e-02  9.9917765724734264e-02  9.9925844293282010e-02  9.9891773747325427e-02  9.9983680124323557e-02  9.9785963882171910e-02  1.0014150059325515e-01  9.9498332766942366e-02  9.9775190135060393e-02  1.0073461931644040e-01  1.0029545005230599e-01  9.9983025713266380e-02  1.0013193779993661e-01  1.0010550025730489e-01  1.0011434496420106e-01  1.0003636786781608e-01  1.0011095211804685e-01  1.0004785855116545e-01  1.0007677465589658e-01  1.0007478577685618e-01  1.0006202293295333e-01  1.0006286663990828e-01  1.0006772283066696e-01  1.0005560452643562e-01  1.0005703954258063e-01  1.0005751903564022e-01  1.0005026717236845e-01  1.0005005152742824e-01  1.0004999335446318e-01  1.0004575800900922e-01  1.0004445670128730e-01  1.0004543054584106e-01  1.0004010498194341e-01  1.0004354165327337e-01  1.0003573569833694e-01  1.0004604955574260e-01  1.0002445453616658e-01  1.0005925782002939e-01  1.0000000000000003e-01  9.9983159703493113e-02  1.0000000000000003e-01  9.9990487775703657e-02  9.9982611155210482e-02  9.9984642359461473e-02  9.9983175266066565e-02  9.9977203270592341e-02  9.9977867812673760e-02  9.9978907319308183e-02  9.9969030260207481e-02  9.9973428145625348e-02  9.9973178702636695e-02  9.9959681871287523e-02  9.9965572741342920e-02  9.9969472680502464e-02  9.9945521301985515e-02  9.9971714269457501e-02  9.9940974611451114e-02  9.9927477145155250e-02  9.9941221267954669e-02  9.9939352856873873e-02  9.9914842176873200e-02  9.9932657312633011e-02  9.9935170297474174e-02  9.9892278200453002e-02  9.9945711367360718e-02  9.9884991628812481e-02  9.9963833813204617e-02  9.9794935342624305e-02  1.0014894859298813e-01  9.9447204377013279e-02  9.9791985263515903e-02  1.0079319807787264e-01  1.0024112103239595e-01  1.0000666090888402e-01  1.0016925516732438e-01  1.0006107510961265e-01  1.0009972792871286e-01  1.0014369266126488e-01  1.0003759041766831e-01  1.0008849288297467e-01  1.0007785439240760e-01  1.0007016845315948e-01  1.0006698332638962e-01  1.0007759653607341e-01  1.0006024336469228e-01  1.0006369135959152e-01  1.0006519092249203e-01  1.0005627796777025e-01  1.0005566597967935e-01  1.0005648962976621e-01  1.0004996379114758e-01  1.0004991263175567e-01  1.0004900496178289e-01  1.0004642999724254e-01  1.0004356566706100e-01  1.0004662872430679e-01  1.0003785045904023e-01  1.0004841861195850e-01  1.0002731533162097e-01  1.0006153688060848e-01  1.0000000000000003e-01  9.9982064388602104e-02  1.0000000000000003e-01  9.9988468269473565e-02  9.9982948275925701e-02  9.9984859312483645e-02  9.9978100434242781e-02  9.9979361879541165e-02  9.9979255692423705e-02  9.9970213516881276e-02  9.9973760785161250e-02  9.9974373437641956e-02  9.9960996950230738e-02  9.9966613146683897e-02  9.9968036244911671e-02  9.9949301782722003e-02  9.9964716648173066e-02  9.9957496924582667e-02  9.9952235951237298e-02  9.9934375235087830e-02  9.9943730865817801e-02  9.9909902581733448e-02  9.9939599604797813e-02  9.9928788434723095e-02  9.9907543195867490e-02  9.9918896273296032e-02  9.9943429846080803e-02  9.9857058033173907e-02  9.9990862711905437e-02  9.9784647530221302e-02  1.0014465903000686e-01  9.9431675919822993e-02  9.9722655006432348e-02  1.0085578303980666e-01  1.0026958921037248e-01  1.0003409386584614e-01  1.0011731016159536e-01  1.0006209121144394e-01  1.0013491181698937e-01  1.0007143360643561e-01  1.0011906172616006e-01  1.0006246170266900e-01  1.0007862153533205e-01  1.0005818818282369e-01  1.0008554418081625e-01  1.0005754921073486e-01  1.0006526935565561e-01  1.0006744183130191e-01  1.0005646343595365e-01  1.0005664358035241e-01  1.0005894665767802e-01  1.0005016801098121e-01  1.0004971608916333e-01  1.0005041018005019e-01  1.0004447607244772e-01  1.0004505190285548e-01  1.0004266240812432e-01  1.0004315380496923e-01  1.0003601304399928e-01  1.0004640143792368e-01  1.0002500073938658e-01  1.0005821972689770e-01  1.0000000000000003e-01  9.9980406201083893e-02  1.0000000000000003e-01  9.9988773517993595e-02  9.9983000651705733e-02  9.9980997484745676e-02  9.9979549356184416e-02  9.9980612955620413e-02  9.9972107675027511e-02  9.9974306668439664e-02  9.9975157095151423e-02  9.9963853478907405e-02  9.9967161753594019e-02  9.9968732580684616e-02  9.9951582189871852e-02  9.9961719168015536e-02  9.9962206145394417e-02  9.9944290557580015e-02  9.9952465849547673e-02  9.9971377931831515e-02  9.9904310442829353e-02  9.9938698263238063e-02  9.9933120761188987e-02  9.9897639944186434e-02  9.9936839659163529e-02  9.9916480079634912e-02  9.9908187320330397e-02  9.9888752659148206e-02  9.9987996017611838e-02  9.9752159029957252e-02  1.0017702464413109e-01  9.9405491507965849e-02  9.9719149505195712e-02  1.0084213184182042e-01  1.0030845171444804e-01  9.9983276541503144e-02  1.0013186905503554e-01  1.0009675952390676e-01  1.0008566904759723e-01  1.0008519798592092e-01  1.0011446631183255e-01  1.0010469854680798e-01  1.0004372144712692e-01  1.0009960311321559e-01  1.0005218538574681e-01  1.0007105351677421e-01  1.0007142381467607e-01  1.0005959316160128e-01  1.0005883572760517e-01  1.0006415366784484e-01  1.0005279393503229e-01  1.0005357082257349e-01  1.0005410452945131e-01  1.0004740952242239e-01  1.0004612259634069e-01  1.0004751086552249e-01  1.0004109005423928e-01  1.0004395612751697e-01  1.0003736001495757e-01  1.0004558668029706e-01  1.0002586633879564e-01  1.0005815091101739e-01  1.0000000000000003e-01  9.9979759498471460e-02  1.0000000000000003e-01  9.9988952333260467e-02  9.9979732225345883e-02  9.9982143419773364e-02  9.9980420513576376e-02  9.9974511348609782e-02  9.9975152639885712e-02  9.9976219324299509e-02  9.9965921458635809e-02  9.9969086042044047e-02  9.9970367644463390e-02  9.9954053562295239e-02  9.9961314503071913e-02  9.9963782032762696e-02  9.9943763656916762e-02  9.9955268314818171e-02  9.9963523837880888e-02  9.9925560115445330e-02  9.9969566279271199e-02  9.9924883201640516e-02  9.9904551955694920e-02  9.9926361763620880e-02  9.9934567568418009e-02  9.9877092444641338e-02  9.9947083570656375e-02  9.9885888678707166e-02  9.9950182093472992e-02  9.9785669069988273e-02  1.0017868299279109e-01  9.9362077884272385e-02  9.9734454693010580e-02  1.0086630123672699e-01  1.0027490710271364e-01  9.9987878583982351e-02  1.0016458759087291e-01  1.0005175228710328e-01  1.0009442103986578e-01  1.0010300007875664e-01  1.0008507062564445e-01  1.0007971253835764e-01  1.0012916581119492e-01  1.0003567915357345e-01  1.0007887282560633e-01  1.0006736855795882e-01  1.0006339655921158e-01  1.0005760732359283e-01  1.0006777931950284e-01  1.0005269735926688e-01  1.0005455022704125e-01  1.0005693772669756e-01  1.0004848469761569e-01  1.0004777513967608e-01  1.0004791419901345e-01  1.0004327806141704e-01  1.0004068056794982e-01  1.0004379801826041e-01  1.0003479760297267e-01  1.0004429870736066e-01  1.0002518658849407e-01  1.0005571489450399e-01  1.0000000000000003e-01  9.9979253596620618e-02  1.0000000000000003e-01  9.9987428331891920e-02  9.9980409409812801e-02  9.9983011566724428e-02  9.9975900029752984e-02  9.9977046484779550e-02  9.9976965597195988e-02  9.9968567102433431e-02  9.9970755029567204e-02  9.9972496613956852e-02  9.9957936541152898e-02  9.9963025700680525e-02  9.9964737802112666e-02  9.9946042377822647e-02  9.9956638085339111e-02  9.9960942532418176e-02  9.9933069394594121e-02  9.9957718198674508e-02  9.9950214663272849e-02  9.9937493918786077e-02  9.9922541940371909e-02  9.9930486017319450e-02  9.9888950068847293e-02  9.9921254280393196e-02  9.9941773186739552e-02  9.9842444505587699e-02  9.9991874152010662e-02  9.9786505702889175e-02  1.0013730427273669e-01  9.9393796333392223e-02  9.9692597630694976e-02  1.0090859257172684e-01  1.0028169559235998e-01  1.0001339545559536e-01  1.0012912136978130e-01  1.0005713899669816e-01  1.0012170810913680e-01  1.0007041987360921e-01  1.0008099918587095e-01  1.0010594815155288e-01  1.0007490331519862e-01  1.0010234544590088e-01  1.0005597660026030e-01  1.0007123428759723e-01  1.0005169825110385e-01  1.0007450626215755e-01  1.0005193950647287e-01  1.0005666285261688e-01  1.0005924223762823e-01  1.0004994155097212e-01  1.0004943551128953e-01  1.0005210517732475e-01  1.0004358477460672e-01  1.0004401861267871e-01  1.0004237309282979e-01  1.0004121835015188e-01  1.0003485926705330e-01  1.0004428340758245e-01  1.0002445018032002e-01  1.0005460186353193e-01  1.0000000000000003e-01  9.9978101153131327e-02  1.0000000000000003e-01  9.9987807701680739e-02  9.9980872941659096e-02  9.9979734156009137e-02  9.9977469158891649e-02  9.9978734089381890e-02  9.9970641764336607e-02  9.9972137534568822e-02  9.9973751500597466e-02  9.9962325737463484e-02  9.9964944961605920e-02  9.9966879372812290e-02  9.9949977761471603e-02  9.9956800812764549e-02  9.9961706717311083e-02  9.9937245327876498e-02  9.9953712036126338e-02  9.9956134578618905e-02  9.9929737121419837e-02  9.9943604242373835e-02  9.9973768034711419e-02  9.9873731304500252e-02  9.9937769378525110e-02  9.9913805809397516e-02  9.9892027127180830e-02  9.9895301396801972e-02  9.9988777916567351e-02  9.9738098161597288e-02  1.0017953050365931e-01  9.9398625824044295e-02  9.9678391853604192e-02  1.0089154224820435e-01  1.0031235277191967e-01  9.9979929310989327e-02  1.0013052911785433e-01  1.0008345749760011e-01  1.0008992689268584e-01  1.0007028911955637e-01  1.0010645178011278e-01  1.0006941611591834e-01  1.0007976255432399e-01  1.0009278041111258e-01  1.0009419016333461e-01  1.0003622336840001e-01  1.0008389930541739e-01  1.0004557530890136e-01  1.0005954517523968e-01  1.0006000926959904e-01  1.0005072386546564e-01  1.0004919127550661e-01  1.0005379596327713e-01  1.0004509528550684e-01  1.0004451563286337e-01  1.0004599318941311e-01  1.0003845331580574e-01  1.0004061855358737e-01  1.0003524040429948e-01  1.0004150768927671e-01  1.0002391367985003e-01  1.0005279027591567e-01  1.0000000000000003e-01  9.9977876266786059e-02  1.0000000000000003e-01  9.9988261915517587e-02  9.9978389307386673e-02  9.9981032497691427e-02  9.9978782986137341e-02  9.9973768621345244e-02  9.9973535399031976e-02  9.9974830058756389e-02  9.9965310757784850e-02  9.9967769878694532e-02  9.9969155779397370e-02  9.9954385017881370e-02  9.9958789281488866e-02  9.9963200580864955e-02  9.9941721165705794e-02  9.9952485005048303e-02  9.9959018445140463e-02  9.9929731924789877e-02  9.9948323127958816e-02  9.9960905792631130e-02  9.9907897062754394e-02  9.9968555117845095e-02  9.9920594128401291e-02  9