<?xml version="1.0"?>
<VTKFile type="UnstructuredGrid"  version="0.1"  >
<UnstructuredGrid>
<Piece  NumberOfPoints="1933" NumberOfCells="3640">
<Points>
<DataArray  type="Float64"  NumberOfComponents="3"  format="ascii">-0.2939996415010099 0.0005817455405343495 0  4.706000375960928 0.0005511023511692232 0  4.706046373914406 7.500551165872778 0  -0.2939536657262443 7.500581770044143 0  9.706000394632254 0.0005203965569081032 0  9.706046448789294 7.500520474853574 0  14.70600044785772 0.0004895882086033137 0  14.70604657885621 7.500489671579181 0  19.70600057452091 0.0004586671823187892 0  19.70604678423416 7.50045875185541 0  24.70600081245152 0.0004276416437939787 0  24.70604708546624 7.500427726476159 0  29.70600119659205 0.0003965314527734974 0  29.70604750307682 7.500396616507737 0  34.70600175909164 0.0003653643709340761 0  34.70604805725191 7.500365450274373 0  39.70600253013406 0.0003341740246393638 0  39.70604876775438 7.500334261673911 0  44.70600353899373 0.0003029990311854283 0  44.70604965401374 7.500303089472458 0  49.70600481511784 0.0002718829460508238 0  49.70605073530518 7.500271977334301 0  54.70600638916338 0.0002408748437297693 0  54.70605203094394 7.500240974444312 0  59.70600829397658 0.0002100304501978271 0  59.70605356043368 7.50021013666141 0  64.70601056552157 0.0001794138245737817 0  64.70605534350948 7.500179528209736 0  69.7060132437645 0.0001490996569654148 0  69.70605740001089 7.500149223976813 0  74.70601637351315 0.0001191763215031058 0  74.70605974949865 7.500119312553488 0  79.70602000518167 8.974991100326791e-05 0  79.70606241049126 7.500089900229818 0  84.70602419541279 6.094959822824605e-05 0  84.70606539914128 7.500061116263407 0  89.70602900739817 3.293484039836546e-05 0  89.70606872708208 7.500033119876926 0  94.70603451059498 5.905202110903214e-06 0  94.70607239805278 7.500006109635406 0  99.70604077923538 -1.988603026183405e-05 0  99.70607640274106 7.499980336118283 0  104.7060478884796 -4.411264994078675e-05 0  104.7060807110818 7.499956119148865 0  109.7060559059823 -6.634798600257838e-05 0  109.7060852610636 7.499933871252603 0  114.7060648745598 -8.602475247808446e-05 0  114.7060899431126 7.499914129382018 0  119.7060747775524 -0.0001023757553958381 0  119.7060945797988 7.499897596926067 0  124.7060854704378 -0.0001143456766446656 0  124.7060989031503 7.499885196724188 0  129.7060965463487 -0.0001204602067307717 0  129.7061025390729 7.499878131111582 0  134.7061070714908 -0.0001186368012753557 0  134.7061050268599 7.499877932509518 0  139.706115062186 -0.0001059350607932969 0  139.7061059471111 7.499886461046 0  144.7061164380011 -7.834304560225196e-05 0  144.7061053427305 7.499905769523139 0  149.7061028517733 -3.124022309408654e-05 0  149.7061049096986 7.499937843497252 0  159.7061073738538 1.169022420860078e-18 0  164.7060310190406 -0.0001061314456860791 0  164.7060941104035 7.499877739384995 0  159.7061160921357 7.499961377999977 0  169.7059893820219 -0.0001963281802803131 0  169.7060716250576 7.499795586653971 0  174.7059663132101 -0.0002751550334339841 0  174.7060531348968 7.499720396534109 0  179.7059536191556 -0.0003451218846749868 0  179.7060391089223 7.499652307628233 0  184.7059469005182 -0.0004081322618251813 0  184.7060289210761 7.499590333328128 0  189.7059437085901 -0.0004656825190388797 0  189.706021751685 7.499533376960833 0  194.7059426387636 -0.0005189293818559601 0  194.7060168623948 7.499480480802065 0  199.7059428611707 -0.0005687566368131551 0  199.7060136601278 7.499430866642254 0  204.7059438705123 -0.0006158387112353437 0  204.7060116909699 7.499383917894128 0  209.7059453497483 -0.0006606935796968773 0  209.7060106148837 7.499339148961384 0  214.7059470942088 -0.0007037234439690007 0  214.7060101792015 7.49929617612838 0  219.7059489683424 -0.00074524478926522 0  219.7060101963799 7.499254693689648 0  224.7059508804165 -0.0007855102160594639 0  224.7060105268441 7.499214455479717 0  229.7059527673021 -0.000824724243944239 0  229.7060110662715 7.499175260920898 0  234.7059545850597 -0.0008630548086418017 0  234.7060117363339 7.499136944560634 0  239.7059563029474 -0.0009006417108430342 0  239.7060124780064 7.499099368210409 0  244.7059578995207 -0.0009376029075746805 0  244.7060132467353 7.499062414995492 0  249.7059593600374 -0.0009740392671506858 0  249.7060140089442 7.499025984803231 0  254.7059606747299 -0.001010038218311987 0  254.7060147395102 7.498989990759528 0  259.7059618376576 -0.001045676590954644 0  259.7060154199361 7.49895435646974 0  264.7059628459976 -0.001081022851296961 0  264.7060160370424 7.498919013840303 0  269.7059636996623 -0.001116138863720502 0  269.7060165820498 7.498883901359256 0  274.7059644012214 -0.001151081252624387 0  274.7060170499427 7.498848962766172 0  279.7059649560924 -0.001185902378421106 0  279.7060174390605 7.498814146092498 0  284.7059653730277 -0.001220650867489862 0  284.7060177508334 7.498779403111257 0  289.7059656648828 -0.001255371523426187 0  289.7060179896087 7.498744689309747 0  294.705965849653 -0.001290104256084871 0  294.7060181625059 7.498709964600948 0  299.7059659516016 -0.001324881320115607 0  299.7060182792577 7.498675195126447 0  304.7059660019557 -0.001359721512243774 0  304.7060183521508 7.4986403566675 0  309.7059660377328 -0.001394618785525011 0  309.7060183966533 7.498605440334812 0  4.70609216036721 15.0005513171386 0  -0.2939078843689863 15.00058183220748 0  9.706092239367468 15.00052065780768 0  14.70609237065144 15.00048986040384 0  19.70609256700824 15.00045893658551 0  24.70609283925281 15.00042790477966 0  29.70609319751266 15.00039678956838 0  34.70609365159933 15.00036562077549 0  39.70609421100254 15.00033443283748 0  44.70609488473847 15.00030326461947 0  49.7060956811323 15.00027215969257 0  54.70609660754211 15.00024116705866 0  59.70609766999732 15.00021034232283 0  64.70609887270749 15.00017974934304 0  69.70610021738197 15.00014946242464 0  74.7061017022923 15.00011956917072 0  79.70610332099295 15.00009017414882 0  84.70610506061166 15.00006140359111 0  89.70610689962241 15.00003341140586 0  94.70610880505262 15.00000638683226 0  99.70611072917906 14.99998056408868 0  104.7061126060243 14.99995623427849 0  109.7061143484775 14.99993375947701 0  114.7061158478943 14.99991358801532 0  119.7061169798895 14.99989626786959 0  124.7061176232454 14.99988245051069 0  129.7061177038549 14.99987286816646 0  134.7061172821624 14.99986824853635 0  139.7061167073698 14.99986909287928 0  144.7061168508236 14.99987516036504 0  149.7061193533544 14.99988427330116 0  164.7061297442006 14.99983402058093 0  159.7061329108151 14.99989403742053 0  169.7061219953782 14.99976910700888 0  174.706112498497 14.99970446845012 0  179.7061031786159 14.99964261590225 0  184.7060949447477 14.99958432704184 0  189.7060880937509 14.999529574698 0  194.7060826133735 14.99947802003323 0  199.7060783573425 14.99942923973355 0  204.706075136564 14.99938282142923 0  209.706072762694 14.99933839815334 0  214.7060710664773 14.99929565603775 0  219.7060699034639 14.99925433119624 0  224.7060691538495 14.99921420299299 0  229.7060687199107 14.99917508677706 0  234.7060685227368 14.99913682726925 0  239.7060684990204 14.99909929294762 0  244.7060685982195 14.99906237143049 0  249.7060687801757 14.99902596573294 0  254.7060690131716 14.99898999124462 0  259.7060692723711 14.99895437329114 0  264.7060695385796 14.99891904516537 0  269.7060697972608 14.99888394654549 0  274.7060700377504 14.9988490222443 0  279.7060702526163 14.99881422126125 0  284.7060704371363 14.99877949613263 0  289.7060705888554 14.998744802588 0  294.7060707072707 14.99871009950602 0  299.7060707937314 14.99867534906725 0  304.7060708518394 14.99864051669386 0  309.7060708888765 14.99860556950352 0  4.706137702701989 22.50055163293998 0  -0.2938623418004347 22.50058206034865 0  9.706137770036433 22.50052100462061 0  14.70613787391397 22.50049020873798 0  19.70613802239053 22.50045927382081 0  24.70613822033629 22.50042822790965 0  29.70613847089889 22.50039710065469 0  34.70613877618551 22.50036592427986 0  39.70613913744748 22.50033473411467 0  44.70613955496906 22.50030356907453 0  49.70614002778077 22.50027247228266 0  54.70614055325052 22.50024149193233 0  59.70614112657176 22.50021068244981 0  64.70614174014641 22.50018010600936 0  69.70614238285005 22.50014983445558 0  74.70614303917506 22.50011995169947 0  79.7061436882579 22.5000905566615 0  84.70614430283793 22.50006176683183 0  89.70614484826135 22.5000337224888 0  94.70614528176414 22.50000659153417 0  99.70614555246854 22.49998057471746 0  104.7061456028513 22.49995591064611 0  109.7061453729286 22.49993287925534 0  114.7061448090923 22.49991180109066 0  119.706143880369 22.4998930274303 0  124.7061426056216 22.49987691236284 0  129.7061410951008 22.49986375174023 0  134.7061396068945 22.49985366506166 0  139.7061386091682 22.49984638635414 0  144.7061388147781 22.49984092856675 0  149.7061411039956 22.49983513693729 0  164.7061582315116 22.4997854206995 0  159.7061527072402 22.49983082485408 0  169.7061593847456 22.49973395815129 0  174.7061574446336 22.49967992562701 0  179.7061537398362 22.49962572276133 0  184.7061493029337 22.4995727235737 0  189.706144803307 22.49952156569625 0  194.7061406185191 22.4994724438139 0  199.7061369280215 22.49942531634951 0  204.7061337895455 22.49938003061115 0  209.7061311920903 22.49933639226393 0  214.7061290896655 22.49929420121353 0  219.7061274215278 22.49925326854644 0  224.7061261236627 22.49921342330115 0  229.7061251348663 22.49917451405056 0  234.7061243996324 22.49913640801474 0  239.7061238692231 22.49909898913957 0  244.7061235017554 22.49906215586845 0  249.706123261788 22.49902581895434 0  254.7061231196977 22.49898989946212 0  259.7061230509786 22.49895432701217 0  264.70612303556 22.49891903826923 0  269.7061230571612 22.49888397566207 0  274.7061231027092 22.49884908631209 0  279.7061231618115 22.49881432114516 0  284.7061232262957 22.49877963415098 0  289.7061232898323 22.49874498172397 0  294.7061233476945 2
[...]
<PointData  Scalars="p"> 
<DataArray  type="Float64"  Name="p"  format="ascii">1.0000000000000001e-01  1.0000000000000003e-01  1.0000258760653774e-01  1.0000000000000003e-01  1.0000000000000003e-01  1.0000370450283617e-01  1.0000000000000003e-01  1.0000559153497528e-01  1.0000000000000003e-01  1.0000685830083217e-01  1.0000000000000003e-01  1.0000827570306460e-01  1.0000000000000003e-01  1.0001010241149393e-01  1.0000000000000003e-01  1.0001128359175955e-01  1.0000000000000003e-01  1.0001253893812954e-01  1.0000000000000003e-01  1.0001455346099371e-01  1.0000000000000003e-01  1.0001579774997971e-01  1.0000000000000003e-01  1.0001899367407645e-01  1.0000000000000003e-01  1.0002237560314854e-01  1.0000000000000003e-01  1.0002488691960885e-01  1.0000000000000003e-01  1.0002734260941816e-01  1.0000000000000003e-01  1.0003093006617148e-01  1.0000000000000003e-01  1.0003271132473038e-01  1.0000000000000003e-01  1.0003487934414861e-01  1.0000000000000003e-01  1.0003839639206781e-01  1.0000000000000003e-01  1.0003902728169468e-01  1.0000000000000003e-01  1.0004157731782572e-01  1.0000000000000003e-01  1.0004283031447797e-01  1.0000000000000003e-01  1.0004519050922325e-01  1.0000000000000003e-01  1.0004266901512668e-01  1.0000000000000003e-01  1.0005003545625417e-01  1.0000000000000003e-01  1.0003998227428816e-01  1.0000000000000003e-01  1.0005578195117579e-01  1.0000000000000003e-01  1.0003375213871253e-01  1.0000000000000003e-01  1.0006529412713240e-01  1.0000000000000003e-01  1.0002385781323628e-01  1.0000000000000001e-01  1.0008442508675806e-01  1.0000000000000001e-01  1.0000000000000003e-01  9.9898410514026259e-02  9.9828270834406860e-02  1.0000000000000003e-01  9.9955295280688208e-02  1.0000000000000003e-01  9.9917108473142835e-02  1.0000000000000003e-01  9.9934426125064896e-02  1.0000000000000003e-01  9.9927543989330667e-02  1.0000000000000003e-01  9.9931599526564163e-02  1.0000000000000003e-01  9.9927617002867453e-02  1.0000000000000003e-01  9.9930964401280742e-02  1.0000000000000003e-01  9.9929577011895018e-02  1.0000000000000003e-01  9.9930184612848444e-02  1.0000000000000003e-01  9.9930901624081719e-02  1.0000000000000003e-01  9.9931495486781291e-02  1.0000000000000003e-01  9.9931762606097818e-02  1.0000000000000003e-01  9.9932876246883073e-02  1.0000000000000003e-01  9.9933431110096518e-02  1.0000000000000003e-01  9.9934065839258943e-02  1.0000000000000003e-01  9.9934891454632982e-02  1.0000000000000003e-01  9.9935670666969706e-02  1.0000000000000003e-01  9.9936066406039178e-02  1.0000000000000003e-01  9.9937191113845344e-02  1.0000000000000003e-01  9.9937221362431897e-02  1.0000000000000003e-01  9.9938797904324778e-02  1.0000000000000003e-01  9.9937738651437555e-02  1.0000000000000003e-01  9.9941275049895195e-02  1.0000000000000003e-01  9.9936582497441820e-02  1.0000000000000003e-01  9.9946000205621582e-02  1.0000000000000003e-01  9.9931522942111176e-02  1.0000000000000003e-01  9.9956763736279639e-02  1.0000000000000003e-01  9.9913246924924620e-02  1.0000000000000001e-01  1.0000000000000003e-01  1.0000350432462557e-01  1.0000000000000003e-01  1.0000389866280696e-01  1.0000424720774732e-01  1.0000479097342960e-01  1.0000591251517370e-01  1.0000592810548772e-01  1.0000599723441427e-01  1.0000747493134031e-01  1.0000702911907415e-01  1.0000744017414744e-01  1.0000986443628243e-01  1.0001227624950526e-01  1.0001289570408961e-01  1.0001640889713845e-01  1.0001532988770274e-01  1.0001590004506643e-01  1.0001874122908251e-01  1.0001739537944571e-01  1.0001723792838174e-01  1.0002087851005272e-01  1.0001734659251033e-01  1.0001938692403563e-01  1.0001827185147759e-01  1.0002118015450034e-01  1.0001185386237688e-01  1.0002967976425281e-01  9.9999009055820265e-02  1.0004996776075285e-01  9.9972487893776926e-02  1.0008642638126222e-01  1.0005991820046690e-01  9.9712213778974795e-02  9.9931977683599973e-02  9.9983254289933904e-02  9.9976846015346316e-02  9.9981187074256933e-02  9.9970480472196227e-02  9.9979126210755623e-02  9.9973932682903152e-02  9.9973536918368744e-02  9.9974667208941215e-02  9.9974379963762683e-02  9.9973382737146621e-02  9.9974932022723478e-02  9.9974845011121055e-02  9.9974718357992792e-02  9.9975690871966338e-02  9.9975821323168249e-02  9.9975909534748442e-02  9.9976418299186839e-02  9.9976859912799698e-02  9.9976476188459590e-02  9.9977729634864329e-02  9.9976516754031478e-02  9.9978898100438099e-02  9.9975273420928379e-02  9.9982310270844310e-02  9.9969838813041154e-02  9.9991571471155713e-02  9.9957939170974314e-02  1.0000000000000003e-01  1.0000481021635871e-01  1.0000000000000003e-01  1.0000365414126455e-01  1.0000559093603550e-01  1.0000684496902013e-01  1.0000737129661322e-01  1.0000743713866844e-01  1.0000967638035797e-01  1.0000925216074803e-01  1.0000903222722779e-01  1.0001193801840426e-01  1.0001221726262989e-01  1.0001223394383157e-01  1.0002051966053264e-01  1.0001978633123684e-01  1.0002095720767486e-01  1.0002609889903667e-01  1.0002361843861701e-01  1.0002417349684879e-01  1.0002922662670978e-01  1.0002617080893272e-01  1.0002528879267709e-01  1.0003205002226900e-01  1.0002397408175960e-01  1.0002980401682050e-01  1.0002357388461809e-01  1.0003507240876723e-01  1.0000923487274205e-01  1.0005993613881195e-01  9.9969188980997839e-02  1.0013754343765879e-01  1.0006999292304125e-01  9.9696473109751924e-02  9.9859154312066559e-02  9.9966173288077026e-02  9.9964206492131003e-02  9.9939407728020499e-02  9.9964957912682992e-02  9.9950492598098600e-02  9.9950371572992011e-02  9.9952934578733887e-02  9.9951833341801632e-02  9.9949063878517222e-02  9.9952285006114208e-02  9.9951472381876058e-02  9.9950960496201335e-02  9.9952839805625970e-02  9.9953041153910474e-02  9.9952807201705934e-02  9.9954223652985036e-02  9.9954311874937196e-02  9.9954576544097506e-02  9.9955043891267026e-02  9.9955976021002549e-02  9.9954836914332074e-02  9.9957576761246211e-02  9.9954126023605969e-02  9.9960177558710755e-02  9.9950351124268394e-02  9.9969026863153204e-02  9.9933442252470611e-02  1.0000000000000003e-01  1.0000554329969365e-01  1.0000000000000003e-01  1.0000373302788730e-01  1.0000632188239759e-01  1.0000632808340394e-01  1.0000632456305826e-01  1.0000849789490360e-01  1.0000783139609909e-01  1.0000713931873810e-01  1.0000979320552320e-01  1.0000855874562672e-01  1.0000806425408290e-01  1.0001348336639207e-01  1.0001098737944894e-01  1.0001548065340671e-01  1.0002115860115404e-01  1.0001900091057056e-01  1.0001829807599234e-01  1.0002438981012585e-01  1.0001918571480471e-01  1.0001954693554774e-01  1.0002398208572436e-01  1.0002026791755812e-01  1.0001571423255018e-01  1.0002746736730073e-01  1.0000865802220829e-01  1.0003042393107443e-01  9.9996246591314189e-02  1.0005695066940029e-01  9.9948525480551720e-02  1.0014834494819011e-01  1.0008549835464577e-01  9.9636558329778843e-02  9.9897850865748594e-02  9.9997667161680834e-02  9.9919611840109904e-02  9.9998270060300681e-02  9.9963655425446510e-02  9.9968930405544346e-02  9.9969752238011411e-02  9.9969440251002781e-02  9.9963175463646359e-02  9.9968496766354970e-02  9.9966094368050193e-02  9.9964869650835508e-02  9.9967151895666378e-02  9.9967049515172976e-02  9.9966410088983479e-02  9.9968157581600534e-02  9.9968293903448996e-02  9.9967911509242766e-02  9.9969232219297433e-02  9.9968874074629135e-02  9.9969541744699020e-02  9.9968844335404150e-02  9.9971212844433374e-02  9.9967068224083827e-02  9.9974570642085897e-02  9.9962308028626462e-02  9.9982582378821572e-02  9.9949686304015295e-02  1.0000000000000003e-01  1.0000630287613332e-01  1.0000000000000003e-01  1.0000428456723953e-01  1.0000621476638070e-01  1.0000562905213886e-01  1.0000853176012985e-01  1.0000775945853843e-01  1.0000756795100996e-01  1.0001023904077430e-01  1.0000875565639251e-01  1.0000777886451813e-01  1.0001242141674367e-01  1.0001027963425632e-01  1.0001092965196182e-01  1.0001561818731369e-01  1.0001812244811814e-01  1.0001828640058356e-01  1.0002600295973592e-01  1.0002085863419045e-01  1.0001988002840735e-01  1.0002778070743412e-01  1.0001958752924936e-01  1.0002085578744309e-01  1.0002399211027725e-01  1.0002251162601863e-01  1.0000969632062261e-01  1.0003660192503881e-01  9.9990458964980808e-02  1.0006366691726895e-01  9.9937249224527056e-02  1.0017595572378897e-01  1.0014081322919263e-01  9.9580985517833093e-02  9.9878928833997530e-02  9.9973774814792665e-02  9.9941061471095854e-02  9.9957449298268441e-02  9.9962930988989104e-02  9.9963731840005926e-02  9.9968353061440196e-02  9.9954087142854656e-02  9.9964478934214118e-02  9.9959509398867899e-02  9.9957247484282211e-02  9.9960321672518476e-02  9.9959837299510787e-02  9.9958135680189242e-02  9.9960927518926379e-02  9.9960809177443141e-02  9.9960380018392234e-02  9.9961903688439463e-02  9.9962224410271583e-02  9.9961551263078374e-02  9.9963206996396201e-02  9.9962074493745848e-02  9.9963902652978012e-02  9.9961093282216029e-02  9.9966834835714252e-02  9.9956395736837497e-02  9.9975406168063247e-02  9.9941511684321027e-02  1.0000000000000003e-01  1.0000722130045844e-01  1.0000000000000003e-01  1.0000415690094665e-01  1.0000593199958534e-01  1.0000699627547215e-01  1.0000726673922736e-01  1.0000689459832275e-01  1.0000969666909300e-01  1.0000863675235441e-01  1.0000717036200436e-01  1.0001115106522529e-01  1.0000919247795578e-01  1.0000827057189199e-01  1.0001388556797441e-01  1.0001172695167668e-01  1.0000878447325387e-01  1.0002345189684354e-01  1.0001838576391243e-01  1.0001849833022537e-01  1.0002675350944465e-01  1.0001931340162598e-01  1.0001653727243015e-01  1.0002813497381489e-01  1.0001361703111625e-01  1.0001983647712862e-01  1.0001433467495155e-01  1.0002861400430496e-01  9.9983639446222225e-02  1.0007255523920408e-01  9.9915647279713332e-02  1.0020000615261260e-01  1.0015399956602364e-01  9.9579188655206166e-02  9.9855589750827270e-02  1.0001830716711362e-01  9.9943312716343602e-02  9.9955665559070150e-02  9.9951599836286070e-02  9.9987798149051718e-02  9.9953779600002957e-02  9.9977097590238484e-02  9.9965683541462791e-02  9.9963279137920968e-02  9.9966856565841075e-02  9.9966139170227772e-02  9.9962525867951998e-02  9.9966511702982375e-02  9.9965776822014588e-02  9.9964685545185422e-02  9.9967180424377980e-02  9.9967090306612577e-02  9.9966718627872916e-02  9.9967791722342145e-02  9.9968447865363866e-02  9.9966882844823191e-02  9.9969780461145422e-02  9.9965974820906509e-02  9.9972071044550095e-02  9.9961617720224896e-02  9.9980004805582459e-02  9.9948132144138307e-02  1.0000000000000003e-01  1.0000773501668950e-01  1.0000000000000003e-01  1.0000392520367281e-01  1.0000736354330229e-01  1.0000626885898249e-01  1.0000653303552849e-01  1.0000888187671467e-01  1.0000868104819909e-01  1.0000721039409453e-01  1.0001122159008975e-01  1.0000913354810217e-01  1.0000768660446559e-01  1.0001351932216170e-01  1.0001062948020205e-01  1.0000816324983783e-01  1.0001725897065863e-01  1.0001014281879175e-01  1.0001617203992774e-01  1.0002674096278577e-01  1.0001972561196670e-01  1.0001844819811936e-01  1.0002773021029179e-01  1.0001894878341988e-01  1.0001313294837973e-01  1.0003087612936146e-01  1.0000476676546641e-01  1.0002885118455823e-01  9.9990377487126275e-02  1.0006946007951212e-01  9.9904755662959116e-02  1.0022865488380686e-01  1.0015173769981349e-01  9.9550840564700621e-02  9.9874956930491754e-02  1.0001859919207440e-01  9.9926602658002170e-02  9.9975765519247986e-02  9.9955431273008474e-02  9.9942314401297389e-02  9.9982143140289137e-02  9.9963567036208525e-02  9.9964590015683211e-02  9.9965579323319953e-02  9.9966433864694101e-02  9.9959929746641640e-02  9.9965485259896750e-02  9.9963796691111648e-02  9.9962019191993767e-02  9.9964793756489811e-02  9.9964910397973492e-02  9.9963870211085590e-02  9.9966142135986397e-02  9.9965781654161825e-02  9.9965938453870071e-02  9.9965912285405092e-02  9.9967701039816406e-02  9.9964119808515786e-02  9.9970290034570627e-02  9.9960005474642594e-02  9.9977777490875164e-02  9.9946256862522162e-02  1.0000000000000003e-01  1.0000809881115601e-01  1.0000000000000003e-01  1.0000468169923386e-01  1.0000709585209611e-01  1.0000564050132549e-01  1.0000837135494485e-01  1.0000766686121761e-01  1.0000691927054522e-01  1.0001065188130087e-01  1.0000891364435086e-01  1.0000744950306505e-01  1.0001279617350538e-01  1.0001009963503618e-01  1.0000803656023380e-01  1.0001554989387670e-01  1.0000967222399237e-01  1.0000912728886657e-01  1.0001626650673451e-01  1.0001775101233393e-01  1.0001629841644204e-01  1.0003001000477357e-01  1.0001735900452710e-01  1.0001750842343134e-01  1.0002550716213618e-01  1.0001933758939099e-01  1.0000257430120091e-01  1.0004142718577402e-01  9.9977291389596976e-02  1.0007278978438283e-01  9.9902154476975966e-02  1.0024273476162195e-01  1.0018486497255845e-01  9.9518626657512904e-02  9.9867933895914668e-02  1.0000986266427991e-01  9.9949866899658069e-02  9.9983567868850778e-02  9.9944316252723139e-02  9.9966527469119104e-02  9.9953247377185542e-02  9.9974514811467713e-02  9.9965946357635310e-02  9.9974595303897767e-02  9.9960972137325591e-02  9.9970125116752240e-02  9.9966783119478125e-02  9.9964125261855649e-02  9.9967375116482127e-02  9.9967147087761055e-02  9.9965263944173266e-02  9.9968025386417469e-02  9.9968223537986262e-02  9.9967134335252311e-02  9.9969375624014645e-02  9.9968215198171839e-02  9.9969620745025786e-02  9.9967070693587678e-02  9.9972521596796815e-02  9.9962344843310041e-02  9.9979900049110351e-02  9.9949447679195974e-02  1.0000000000000003e-01  1.0000877650525791e-01  1.0000000000000003e-01  1.0000450562793134e-01  1.0000673273901965e-01  1.0000712583399461e-01  1.0000762704107817e-01  1.0000631322606464e-01  1.0000975155210659e-01  1.0000857309180355e-01  1.0000725225074387e-01  1.0001185217576396e-01  1.0001020287402430e-01  1.0000794800424576e-01  1.0001495676900647e-01  1.0001058974909921e-01  1.0000766704682459e-01  1.0001624779251422e-01  1.0001081539633916e-01  1.0000528293351817e-01  1.0002744389255822e-01  1.0001827168992440e-01  1.0001606733349355e-01  1.0003232187097472e-01  1.0001321999429162e-01  1.0001785761643982e-01  1.0001860984088246e-01  1.0002873367718534e-01  9.9974866910327267e-02  1.0008937598816005e-01  9.9884264069719758e-02  1.0025962031805899e-01  1.0019312828054255e-01  9.9519629453309888e-02  9.9850744284118623e-02  1.0003196553447413e-01  9.9948725492877963e-02  9.9971354318516392e-02  9.9964680794016408e-02  9.9967579572370097e-02  9.9948771902195685e-02  9.9955971715381009e-02  9.9982138084712929e-02  9.9957868268534214e-02  9.9974782659855835e-02  9.9967186720276782e-02  9.9964685940906434e-02  9.9967863073709473e-02  9.9967894682751829e-02  9.9964347941570095e-02  9.9968062154754456e-02  9.9967488359375190e-02  9.9966528279293337e-02  9.9968486823427752e-02  9.9969112773846999e-02  9.9967390655188948e-02  9.9970362365457338e-02  9.9967071836502136e-02  9.9971995830366783e-02  9.9962932342005498e-02  9.9979403633385935e-02  9.9949743394612087e-02  1.0000000000000003e-01  1.0000902656939448e-01  1.0000000000000003e-01  1.0000425007998549e-01  1.0000808348471676e-01  1.0000661262604424e-01  1.0000671513104099e-01  1.0000881514266846e-01  1.0000833712906079e-01  1.0000681582677726e-01  1.0001094537913977e-01  1.0000967796427578e-01  1.0000759713982502e-01  1.0001444397335699e-01  1.0001122873591345e-01  1.0000783395894282e-01  1.0001635616494850e-01  1.0001056255195748e-01  1.0000532041175017e-01  1.0001961902274584e-01  1.0000649010426077e-01  1.0001457410218625e-01  1.0002992200313468e-01  1.0001917660391964e-01  1.0001187479190765e-01  1.0003613151379763e-01  1.0000314225269956e-01  1.0002732949854040e-01  9.9992321779476659e-02  1.0007710433429948e-01  9.9877941771651990e-02  1.0028657845336118e-01  1.0018967010490164e-01  9.9511527722725895e-02  9.9863757527647021e-02  1.0003507569070653e-01  9.9936278182005067e-02  9.9990549862665340e-02  9.9967196916705275e-02  9.9962041369384080e-02  9.9963193785568921e-02  9.9964050368768612e-02  9.9946794399187119e-02  9.9983422711996436e-02  9.9966944143556905e-02  9.9969605558543922e-02  9.9969286453555947e-02  9.9971160702723258e-02  9.9965432202219720e-02  9.9970097737154914e-02  9.9969100830000587e-02  9.9967095809767786e-02  9.9969739422064732e-02  9.9969576337599148e-02  9.9969192907304286e-02  9.9969930642867882e-02  9.9971572654810326e-02  9.9968031993724851e-02  9.9973844481515042e-02  9.9964490342130008e-02  9.9980312544549185e-02  9.9951984772403885e-02  1.0000000000000003e-01  1.0000919558858808e-01  1.0000000000000003e-01  1.0000491493844860e-01  1.0000786832287689e-01  1.0000593897317145e-01  1.0000866331165428e-01  1.0000780967111010e-01  1.0000692569640078e-01  1.0001007134102086e-01  1.0000902226963300e-01  1.0000704448713663e-01  1.0001315763853419e-01  1.0001100115766495e-01  1.0000851812374423e-01  1.0001624984617355e-01  1.0001120918254640e-01  1.0000681708549020e-01  1.0001791719255829e-01  1.0000827694849686e-01  1.0000583720942030e-01  1.0001806995425845e-01  1.0001565366473932e-01  1.0001509593333176e-01  1.0003186093495206e-01  1.0001913212091194e-01  1.0000244897986502e-01  1.0004855213798912e-01  9.9975909171558838e-02  1.0007501560388529e-01  9.9895871000268421e-02  1.0027936476961478e-01  1.0020596006143760e-01  9.9499896756536477e-02  9.9863191482365804e-02  1.0002619481366699e-01  9.9950063564975891e-02  9.9992134144175154e-02  9.9956785824619407e-02  9.9976386454071087e-02  9.9968860437840243e-02  9.9955889431274203e-02  9.9962870378957264e-02  9.9957491075314403e-02  9.9975520186522310e-02  9.9968077093116114e-02  9.9976039830303259e-02  9.9965117814497781e-02  9.9972317514313389e-02  9.9970131591922168e-02  9.9967740150124426e-02  9.9970258588901864e-02  9.9970382835013916e-02  9.9968220755519088e-02  9.9971139628652908e-02  9.9970234642297193e-02  9.9971132452024908e-02  9.9969453782361356e-02  9.9974195857967393e-02  9.9965018988627419e-02  9.9980757661788211e-02  9.9953164814391315e-02  1.0000000000000003e-01  1.0000968510748817e-01  1.0000000000000003e-01  1.0000480873154910e-01  1.0000749090799603e-01  1.0000739603350178e-01  1.0000813871397750e-01  1.0000664359735910e-01  1.0000971286798903e-01  1.0000877255539461e-01  1.0000690841536933e-01  1.0001158071824152e-01  1.0001037236376981e-01  1.0000824887409604e-01  1.0001537671928656e-01  1.0001240990528869e-01  1.0000784450471324e-01  1.0001768664746674e-01  1.0001059183199960e-01  1.0000539519777288e-01  1.0001806022608707e-01  1.0000948642096734e-01  9.9999368744975448e-02  1.0003348576478653e-01  1.0001300793903493e-01  1.0001751372784573e-01  1.0002724602344933e-01  1.0002757035908995e-01  9.9974939818921513e-02  1.0009858126358635e-01  9.9879376873685630e-02  1.0027750948772923e-01  1.0020979312109647e-01  9.9515372335358385e-02  9.9853742670127518e-02  1.0003928540911221e-01  9.9951746275571546e-02  9.9982502453129063e-02  9.9969369956973225e-02  9.9979680904008703e-02  9.9960578803505062e-02  9.9971214299226965e-02  9.9965744497300973e-02  9.9956495983395108e-02  9.9958488146482644e-02  9.9983554401395239e-02  9.9963456657267663e-02  9.9977193269000869e-02  9.9971446858033150e-02  9.9969523512655992e-02  9.9971869990537920e-02  9.9972080365013219e-02  9.9969170808924673e-02  9.9971633639927934e-02  9.9971795468936614e-02  9.9969887461145379e-02  9.9973136658376524e-02  9.9970436604757143e-02  9.9974526984602949e-02  9.9966855354347905e-02  9.9981428846224490e-02  9.9954967538678940e-02  1.0000000000000003e-01  1.0000988534243224e-01  1.0000000000000003e-01  1.0000462425724344e-01  1.0000873196058889e-01  1.0000710561374701e-01  1.0000743596535867e-01  1.0000904519193450e-01  1.0000888916662436e-01  1.0000721859109371e-01  1.0001092912848696e-01  1.0000979183765091e-01  1.0000785404816438e-01  1.0001406578554424e-01  1.0001250055428761e-01  1.0000867946379097e-01  1.0001759816908276e-01  1.0001281698256448e-01  1.0000658102100948e-01  1.0001909507269079e-01  1.0001015627534879e-01  1.0000213860661657e-01  1.0002243836909779e-01  1.0000407396943521e-01  1.0000896121940180e-01  1