<?xml version="1.0"?>
<VTKFile type="UnstructuredGrid"  version="0.1"  >
<UnstructuredGrid>
<Piece  NumberOfPoints="1933" NumberOfCells="3640">
<Points>
<DataArray  type="Float64"  NumberOfComponents="3"  format="ascii">-0.000263553386596338 0.001731823781560088 0  4.999736460868217 0.001660269460702923 0  4.999843855771023 7.50166034277995 0  -0.0001561918323683686 7.501731837461031 0  9.999736465940623 0.001588633343815441 0  9.999843951346589 7.501588731472474 0  14.99973650537631 0.001516842587818615 0  14.99984412453182 7.50151695079126 0  19.99973663494311 0.001444867124441074 0  19.99984440635293 7.501444979239292 0  24.99973691181728 0.001372704119608533 0  24.99984482968356 7.501372817993918 0  29.99973739104741 0.00130036858113519 0  29.99984542864085 7.501300484026666 0  34.99973812519152 0.001227887652699541 0  34.99984623815482 7.501228005475735 0  39.99973916531131 0.001155297331539777 0  39.99984729391409 7.501155418875568 0  44.99974056251029 0.001082640853522147 0  44.99984863262569 7.501082767798675 0  49.99974236966862 0.001009968283001583 0  49.99985029247975 7.501010102579605 0  54.99974464324463 0.0009373370408512381 0  54.99985231372155 7.500937480917133 0  59.99974744511533 0.0008648132443889844 0  59.99985473925494 7.500864969259231 0  64.99975084447723 0.0007924738422740923 0  64.99985761520752 7.500792644969344 0  69.99975491984272 0.0007204096241717045 0  69.99986099138945 7.500720599360871 0  74.99975976117962 0.0006487292851262504 0  74.99986492155573 7.50064894177997 0  79.99976547222435 0.0005775648452506093 0  79.99986946334123 7.500577805029867 0  84.99977217298567 0.0005070788879699842 0  84.99987467767529 7.500507352577888 0  89.99978000238889 0.0004374743157330088 0  89.99988062737079 7.50043778819202 0  94.99978912090906 0.0003690076790597588 0  94.9998873744259 7.500369368946791 0  99.99979971278593 0.000302007691283701 0  99.99989497534867 7.500302422957603 0  104.9998119869349 0.0002369014256498593 0  104.9999034734967 7.500237373796436 0  109.9998261746461 0.0001742521154488212 0  109.9999128870571 7.50017477434832 0  114.9998425201195 0.0001148147880069145 0  114.9999231910006 7.500115353879716 0  119.9998612556854 5.961971224189419e-05 0  119.999934291543 7.500060083115762 0  124.999882545024 1.009964903092064e-05 0  124.9999459935334 7.500010262504399 0  129.9999063602031 -3.171388686992564e-05 0  129.9999579677084 7.499967636800853 0  134.9999322222773 -6.288811313374726e-05 0  134.9999697433498 7.499934530776414 0  139.9999586589391 -7.913907060720753e-05 0  139.9999808011408 7.499913981324429 0  144.9999820617584 -7.427257859583811e-05 0  144.9999909711277 7.499909826279055 0  149.9999941853829 -4.016934925453293e-05 0  150.0000017089376 7.499926901080755 0  160.0000000000003 1.086229242154963e-18 0  164.9998745849691 -0.0001603761571534578 0  164.9999779003993 7.499817249413995 0  160.0000165266782 7.499946377243806 0  169.9998008729506 -0.0003039017442080311 0  169.9999386296266 7.499684752665735 0  174.999755837807 -0.000435104191313315 0  174.9999054539632 7.499558542243271 0  179.9997275566057 -0.0005562917347908829 0  179.999879210464 7.499439959118396 0  184.9997094621495 -0.0006693614026978775 0  184.9998590731801 7.499328346368022 0  189.9996977866459 -0.0007759097240921149 0  189.9998438771888 7.499222646032552 0  194.999690290511 -0.0008772237850431563 0  194.9998325382591 7.499121840963332 0  199.9996855946952 -0.0009743130966589701 0  199.9998241621005 7.499025066362055 0  204.9996828189862 -0.001067961757408822 0  204.9998180465435 7.498931618306965 0  209.9996813813283 -0.001158779937157922 0  209.9998136516157 7.498840932016557 0  214.9996808838037 -0.001247246599148378 0  214.9998105649315 7.498752554731073 0  219.9996810461364 -0.001333742348321393 0  219.9998084714159 7.498666121295322 0  224.9996816657755 -0.001418573834168578 0  224.9998071293101 7.498581334384846 0  229.9996825931822 -0.001501991650392299 0  229.9998063519793 7.498497949180567 0  234.9996837160367 -0.001584203461374743 0  234.9998059943899 7.49841576169364 0  239.9996849488231 -0.001665383700266365 0  239.9998059431244 7.498334599899116 0  244.9996862257678 -0.001745680823488039 0  244.9998061090147 7.498254316968049 0  249.9996874959249 -0.001825222823194879 0  249.9998064216845 7.498174786047091 0  254.9996887197036 -0.001904121491813051 0  254.9998068254991 7.498095896175726 0  259.9996898663855 -0.001982475785141116 0  259.9998072765434 7.498017549042331 0  264.9996909123786 -0.002060374525388962 0  264.999807740377 7.497939656365686 0  269.9996918400286 -0.002137898607708493 0  269.9998081903809 7.497862137755033 0  274.9996926369228 -0.002215122809784398 0  274.9998086065564 7.497784918958013 0  279.9996932956434 -0.002292117239828272 0  279.9998089746841 7.49770793046116 0  284.9996938140031 -0.002368948375143187 0  284.9998092857562 7.4976311064735 0  289.9996941957904 -0.002445679509704189 0  289.9998095355978 7.497554384413809 0  294.9996944521055 -0.002522370184726527 0  294.9998097246087 7.497477705154899 0  299.9996946032317 -0.002599073694606068 0  299.9998098575451 7.497401014470612 0  304.9996946807119 -0.002675830759370268 0  304.9998099434383 7.497324266376558 0  309.9996947283779 -0.002752655259678637 0  309.9998099962638 7.497247429253709 0  4.999950944260134 15.00166052929345 0  -4.911268374652167e-05 15.00173187657412 0  9.999951054203052 15.00158897919833 0  14.99995124576438 15.00151721855704 0  19.99995154056092 15.00144524972115 0  24.99995195789059 15.00137308603546 0  29.99995251675728 15.00130075052303 0  34.99995323659493 15.00122827425451 0  39.99995413743856 15.00115569515427 0  44.99995523988562 15.00108305746323 0  49.99995656497833 15.00101041188452 0  54.9999581340321 15.00093781639347 0  59.99995996838128 15.00086533771084 0  64.99996208898762 15.00079305348044 0  69.99996451582916 15.0007210552474 0  74.99996726697319 15.0006494524004 0  79.99997035720288 15.00057837732059 0  84.99997379604739 15.0005079920766 0  89.99997758503582 15.00043849712274 0  94.99998171399939 15.00037014258942 0  99.999986156296 15.00030324288478 0  104.9999908630354 15.00023819539087 0  109.9999957568433 15.00017550389451 0  115.0000007267367 15.00011580670642 0  120.0000056277028 15.00005990747205 0  125.0000102923147 15.0000088019362 0  130.0000145680927 14.99996368319309 0  135.0000184038767 14.99992588439696 0  140.0000220191064 14.99989666559797 0  145.0000261878957 14.99987662486984 0  150.0000325949787 14.9998641393607 0  165.0000434612956 14.99975648283789 0  160.0000504365887 14.9998558163272 0  170.0000298820136 14.99964706598344 0  175.000013626263 14.99953534762866 0  179.9999975218846 14.99942549682061 0  184.9999829748936 14.99931913896282 0  189.9999704980623 14.99921664020737 0  194.9999601344607 14.99911782277225 0  199.999951710663 14.9990223104149 0  204.9999449731146 14.99892968417054 0  209.9999396561859 14.99883954695877 0  214.9999355129859 14.99875154605364 0  219.9999323268917 14.99866537699374 0  224.9999299136509 14.9985807800177 0  229.9999281192671 14.99849753407266 0  234.9999268163261 14.99841545056851 0  239.9999259000224 14.99833436771268 0  244.9999252844573 14.99825414566149 0  249.9999248994179 14.99817466247544 0  254.9999246876694 14.99809581077498 0  259.9999246027312 14.99801749497666 0  264.9999246070641 14.99793962899912 0  269.9999246706043 14.99786213435189 0  274.9999247695753 14.99778493854522 0  279.9999248855003 14.99770797378626 0  284.9999250043866 14.99763117595298 0  289.9999251160065 14.99755448385351 0  294.9999252133103 14.99747783876123 0  299.9999252920309 14.99740118409745 0  304.9999253507558 14.99732446472136 0  309.999925392 14.99724762406467 0  5.000057627682662 22.50166094481585 0  5.75695418860156e-05 22.50173212494774 0  10.00005772530424 22.50158946966706 0  15.00005788615234 22.50151773422652 0  20.00005812540365 22.50144576768089 0  25.00005845362334 22.5013735993159 0  30.0000588791405 22.50130126117024 0  35.00005940924688 22.50122878918292 0  40.00006005064058 22.5011562237698 0  45.00006080941446 22.50108361034843 0  50.0000616907687 22.50101100008388 0  55.00006269853138 22.50093845099998 0  60.00006383451503 22.50086602954981 0  65.00006509769952 22.50079381272911 0  70.00006648320947 22.50072189082788 0  75.00006798105187 22.50065037094094 0  80.00006957457771 22.50057938138477 0  85.00007123866293 22.50050907719127 0  90.00007293766009 22.50043964685206 0  95.00007462328756 22.5003713204413 0  100.0000762328332 22.50030437909492 0  105.0000776884099 22.50023916546763 0  110.0000788985873 22.50017609403076 0  115.0000797646113 22.5001156585786 0  120.0000801946502 22.50005843148981 0  125.0000801309046 22.50000504419381 0  130.0000795952863 22.49995612948158 0  135.0000787576516 22.49991219199133 0  140.0000780212521 22.49987335254924 0  145.0000780920743 22.49983889193819 0  150.000079931557 22.49980654997261 0  165.0001034639261 22.49968942753277 0  160.0000952975656 22.49977125017361 0  170.0001052674407 22.49959731335975 0  175.0001024016188 22.49949978988715 0  180.000096735816 22.49940045066762 0  185.0000897829466 22.49930151766083 0  190.0000825623823 22.4992041633997 0  195.0000756783006 22.49910889517814 0  200.0000694430737 22.49901584199 0  205.0000639832403 22.49892493579652 0  210.0000593155301 22.49883601672801 0  215.0000553967749 22.49874889069496 0  220.0000521548519 22.49866335920583 0  225.000049506978 22.49857923364444 0  230.0000473699889 22.49849634116778 0  235.0000456657237 22.49841452626072 0  240.0000443235175 22.4983336501627 0  245.0000432810438 22.49825358934949 0  250.0000424842552 22.4981742336821 0  255.0000418868715 22.49809548452565 0  260.000041449655 22.49801725297726 0  265.000041139629 22.4979394582575 0  270.0000409292926 22.49786202627941 0  275.0000407958752 22.4977848883897 0  280.0000407206304 22.4977079802661 0  285.0000406881784 22.49763124094 0  290.000040685901 22.49755461187821 0  295.0000407034301 22.49747803597359 0  300.0000407322692 
[...]
<PointData  Scalars="p"> 
<DataArray  type="Float64"  Name="p"  format="ascii">1.0000000000000001e-01  1.0000000000000003e-01  1.0000389869304875e-01  1.0000000000000003e-01  1.0000000000000003e-01  1.0000453205752990e-01  1.0000000000000003e-01  1.0000684396023952e-01  1.0000000000000003e-01  1.0000801768071446e-01  1.0000000000000003e-01  1.0000968400500361e-01  1.0000000000000003e-01  1.0001242144804459e-01  1.0000000000000003e-01  1.0001364570733635e-01  1.0000000000000003e-01  1.0001552184345548e-01  1.0000000000000003e-01  1.0001860901562427e-01  1.0000000000000003e-01  1.0001906466053777e-01  1.0000000000000003e-01  1.0002672292271107e-01  1.0000000000000003e-01  1.0003094899484080e-01  1.0000000000000003e-01  1.0003546935320963e-01  1.0000000000000003e-01  1.0003911229759424e-01  1.0000000000000003e-01  1.0004648963055474e-01  1.0000000000000003e-01  1.0004947220416834e-01  1.0000000000000003e-01  1.0005489913113741e-01  1.0000000000000003e-01  1.0006322742228735e-01  1.0000000000000003e-01  1.0006569278341690e-01  1.0000000000000003e-01  1.0007398987669354e-01  1.0000000000000003e-01  1.0007904529384305e-01  1.0000000000000003e-01  1.0008810588403733e-01  1.0000000000000003e-01  1.0008597413652290e-01  1.0000000000000003e-01  1.0010864876422461e-01  1.0000000000000003e-01  1.0008788324904329e-01  1.0000000000000003e-01  1.0013415588381658e-01  1.0000000000000003e-01  1.0008158111951136e-01  1.0000000000000003e-01  1.0016940385151986e-01  1.0000000000000003e-01  1.0006434297852002e-01  1.0000000000000001e-01  1.0022914752618123e-01  1.0000000000000001e-01  1.0000000000000003e-01  9.9813970868574978e-02  9.9617560487366044e-02  1.0000000000000003e-01  9.9945781615512777e-02  1.0000000000000003e-01  9.9853039777427197e-02  1.0000000000000003e-01  9.9902883109839691e-02  1.0000000000000003e-01  9.9887902982043072e-02  1.0000000000000003e-01  9.9900756005119232e-02  1.0000000000000003e-01  9.9894659404395764e-02  1.0000000000000003e-01  9.9905520071682338e-02  1.0000000000000003e-01  9.9903880133454151e-02  1.0000000000000003e-01  9.9907539973099299e-02  1.0000000000000003e-01  9.9910711084963785e-02  1.0000000000000003e-01  9.9913037378188671e-02  1.0000000000000003e-01  9.9914579468762185e-02  1.0000000000000003e-01  9.9917790127189959e-02  1.0000000000000003e-01  9.9919300669576772e-02  1.0000000000000003e-01  9.9920949544631266e-02  1.0000000000000003e-01  9.9922995121283359e-02  1.0000000000000003e-01  9.9924494748249479e-02  1.0000000000000003e-01  9.9925482902741489e-02  1.0000000000000003e-01  9.9927423626051795e-02  1.0000000000000003e-01  9.9927833308720182e-02  1.0000000000000003e-01  9.9929932342601682e-02  1.0000000000000003e-01  9.9929129408133782e-02  1.0000000000000003e-01  9.9933318541515367e-02  1.0000000000000003e-01  9.9928278018913089e-02  1.0000000000000003e-01  9.9939026604255410e-02  1.0000000000000003e-01  9.9922998917527608e-02  1.0000000000000003e-01  9.9951373951972816e-02  1.0000000000000003e-01  9.9902865345608313e-02  1.0000000000000001e-01  1.0000000000000003e-01  1.0000641931449382e-01  1.0000000000000003e-01  1.0000636054853032e-01  1.0000681825200863e-01  1.0000770475909294e-01  1.0001001980719117e-01  1.0000984931802653e-01  1.0001028385243182e-01  1.0001363334701199e-01  1.0001208295479730e-01  1.0001342332826697e-01  1.0001648141751436e-01  1.0002438061147273e-01  1.0002209307745907e-01  1.0003063250448985e-01  1.0002688902917682e-01  1.0003018202792789e-01  1.0003689559275306e-01  1.0003498572081337e-01  1.0003719081145193e-01  1.0004724753214626e-01  1.0004094067966381e-01  1.0004977124179705e-01  1.0004898075592464e-01  1.0005922049005792e-01  1.0004009167702252e-01  1.0008604580982236e-01  1.0001097161485641e-01  1.0014174625755340e-01  9.9942202452568907e-02  1.0023250816183325e-01  1.0016161043124508e-01  9.9413976295940176e-02  9.9824110986411141e-02  9.9972101271096167e-02  9.9948291026206268e-02  9.9958421073133741e-02  9.9938224808419879e-02  9.9961940529836008e-02  9.9950236999690925e-02  9.9953189814363602e-02  9.9957902530332474e-02  9.9958129506657278e-02  9.9957542735363433e-02  9.9962435224287993e-02  9.9962529087429280e-02  9.9963077760120186e-02  9.9965919209389437e-02  9.9966471150649300e-02  9.9967015389492431e-02  9.9968778270134923e-02  9.9969650037309274e-02  9.9969642147383200e-02  9.9971851581305976e-02  9.9970880809712628e-02  9.9973951719992030e-02  9.9970466408798767e-02  9.9978722607262385e-02  9.9965157916778360e-02  9.9989874235510257e-02  9.9952634781079699e-02  1.0000000000000003e-01  1.0000947992339528e-01  1.0000000000000003e-01  1.0000640999394596e-01  1.0000954097120181e-01  1.0001192847418146e-01  1.0001238287771524e-01  1.0001286041684433e-01  1.0001774222126322e-01  1.0001658656610231e-01  1.0001685334502121e-01  1.0002242243488489e-01  1.0002360425897830e-01  1.0001992959188588e-01  1.0004283798100135e-01  1.0003499110004151e-01  1.0003977781652289e-01  1.0005017753959551e-01  1.0004541826547372e-01  1.0004971639109227e-01  1.0006284497984289e-01  1.0005778980134962e-01  1.0006100173179204e-01  1.0007943942715442e-01  1.0006408728865897e-01  1.0008455112563167e-01  1.0007236903448337e-01  1.0010416267703032e-01  1.0004652263535330e-01  1.0017062044728260e-01  9.9946478441818143e-02  1.0036483362557069e-01  1.0011672392764587e-01  9.9457643294719691e-02  9.9717700936595724e-02  9.9941303827460942e-02  9.9926073363475823e-02  9.9879555806568598e-02  9.9942921633974752e-02  9.9907247883960951e-02  9.9915035887605044e-02  9.9924503024886382e-02  9.9923299994028741e-02  9.9920562886587627e-02  9.9930597180847874e-02  9.9929337581993044e-02  9.9930012957222814e-02  9.9935639752087205e-02  9.9936304434641049e-02  9.9936674524894700e-02  9.9940602155207822e-02  9.9941145662114511e-02  9.9942046122603198e-02  9.9944094741762829e-02  9.9945662833090157e-02  9.9944970165225050e-02  9.9949086255168310e-02  9.9945766729273411e-02  9.9953131005509857e-02  9.9942847783038621e-02  9.9964294649085503e-02  9.9925035929620570e-02  1.0000000000000003e-01  1.0001136187370190e-01  1.0000000000000003e-01  1.0000727599994005e-01  1.0001263540659858e-01  1.0001208455572422e-01  1.0001262111323857e-01  1.0001769258672980e-01  1.0001634680266562e-01  1.0001633518043833e-01  1.0002259535884037e-01  1.0001999241587396e-01  1.0001971002827464e-01  1.0003311717385262e-01  1.0002111861157545e-01  1.0003967361965663e-01  1.0004568302799441e-01  1.0004188776637181e-01  1.0004200910596914e-01  1.0005784894132218e-01  1.0004721290689304e-01  1.0005379852594538e-01  1.0006631577405377e-01  1.0006112519361539e-01  1.0005738112065492e-01  1.0008798234650869e-01  1.0004762040437348e-01  1.0010552918574800e-01  1.0002502897607124e-01  1.0017120289298788e-01  9.9910799786978616e-02  1.0038735671019655e-01  1.0012066229421704e-01  9.9331024977515073e-02  9.9812441694652407e-02  9.9982259529231857e-02  9.9809334417709936e-02  1.0000138833962641e-01  9.9907894459064006e-02  9.9932365817516522e-02  9.9937384030497886e-02  9.9938128886989469e-02  9.9928721828703521e-02  9.9945143584668328e-02  9.9940292785359375e-02  9.9940411798892931e-02  9.9947789567576648e-02  9.9948052563596887e-02  9.9947897123706442e-02  9.9953186833567229e-02  9.9953644373379252e-02  9.9953869289397021e-02  9.9957463713084255e-02  9.9957622698144358e-02  9.9959044963898638e-02  9.9959749440801160e-02  9.9963076347192467e-02  9.9959169715542195e-02  9.9968637946825450e-02  9.9955606020695920e-02  9.9979052739601171e-02  9.9942984972547305e-02  1.0000000000000003e-01  1.0001329455305714e-01  1.0000000000000003e-01  1.0000927249624741e-01  1.0001300317563150e-01  1.0001215625246099e-01  1.0001825790960589e-01  1.0001672275908172e-01  1.0001746708140279e-01  1.0002426624127218e-01  1.0002130384399464e-01  1.0002074856579610e-01  1.0003241038161267e-01  1.0002590690205088e-01  1.0003114746117496e-01  1.0003452314717011e-01  1.0004833530696061e-01  1.0004357464533171e-01  1.0006270148594149e-01  1.0005006373490927e-01  1.0005407790715953e-01  1.0007380806429911e-01  1.0005822738596329e-01  1.0006854563430982e-01  1.0007944625646033e-01  1.0007973566226548e-01  1.0005919253983644e-01  1.0012304747673133e-01  1.0002026871048517e-01  1.0019329696132878e-01  9.9895594389544581e-02  1.0045045294928850e-01  1.0023286402827225e-01  9.9241964927001325e-02  9.9757801101332630e-02  9.9921131219445181e-02  9.9891707821347445e-02  9.9888929238371685e-02  9.9918446049679727e-02  9.9922864275798592e-02  9.9932011822153874e-02  9.9905859429247457e-02  9.9936326871789882e-02  9.9925058134300804e-02  9.9924740484496941e-02  9.9935227885698821e-02  9.9934660621073451e-02  9.9933078343669227e-02  9.9941497459393278e-02  9.9941463699413882e-02  9.9941636845950602e-02  9.9946471978208620e-02  9.9947354450775849e-02  9.9947250027346585e-02  9.9951274979925661e-02  9.9950706796270855e-02  9.9953575605221931e-02  9.9951936473371847e-02  9.9959214080708139e-02  9.9948361809132316e-02  9.9970763545565514e-02  9.9933600110464857e-02  1.0000000000000003e-01  1.0001558721432026e-01  1.0000000000000003e-01  1.0000935208360077e-01  1.0001356205336848e-01  1.0001628420577575e-01  1.0001682549021100e-01  1.0001691866741594e-01  1.0002390341282739e-01  1.0002192642199484e-01  1.0002088599374510e-01  1.0003082349388394e-01  1.0002664497619923e-01  1.0002773672748401e-01  1.0003902302408152e-01  1.0003623871423180e-01  1.0002430204047984e-01  1.0006825697486257e-01  1.0004712107546482e-01  1.0005384916943598e-01  1.0007175694055148e-01  1.0005762759077365e-01  1.0005876384125607e-01  1.0008840593276469e-01  1.0005901675627309e-01  1.0008223749157029e-01  1.0007416190838464e-01  1.0010823068523042e-01  1.0001632028811999e-01  1.0021404706447683e-01  9.9858494338507423e-02  1.0050168224134100e-01  1.0022481086853184e-01  9.9265348752665516e-02  9.9704537630750253e-02  1.0001696712065980e-01  9.9868054429263511e-02  9.9894492073781010e-02  9.9885646648696230e-02  9.9963626720421209e-02  9.9889040937613541e-02  9.9952135025837704e-02  9.9923219761708995e-02  9.9925208531608481e-02  9.9937971444886212e-02  9.9937128618818552e-02  9.9932272313357565e-02  9.9944390708693570e-02  9.9942956351510806e-02  9.9942476890077139e-02  9.9949728918646133e-02  9.9949945035051127e-02  9.9950003255933506e-02  9.9954238762507142e-02  9.9955540454299927e-02  9.9954566658018940e-02  9.9959892511852250e-02  9.9956455939125929e-02  9.9964262335257112e-02  9.9953948171907600e-02  9.9975544247203313e-02  9.9940739685604810e-02  1.0000000000000003e-01  1.0001684194580705e-01  1.0000000000000003e-01  1.0000951294785364e-01  1.0001739041094068e-01  1.0001535878167343e-01  1.0001682574842762e-01  1.0002279860399695e-01  1.0002213355236542e-01  1.0002109367209815e-01  1.0003097222901824e-01  1.0002657330130742e-01  1.0002682251982946e-01  1.0004032144630905e-01  1.0003442927835456e-01  1.0003052811349014e-01  1.0005448381170785e-01  1.0002828474919546e-01  1.0005903050054273e-01  1.0007252862428251e-01  1.0005878186129828e-01  1.0006064964685076e-01  1.0008516509427455e-01  1.0006734573683805e-01  1.0006483281344694e-01  1.0010773073343565e-01  1.0005429137645767e-01  1.0011501408053644e-01  1.0003617161144046e-01  1.0020507421787168e-01  9.9851044974187411e-02  1.0055282000403627e-01  1.0020801631893148e-01  9.9206765024968363e-02  9.9758863040355236e-02  9.9993333021652961e-02  9.9830734848024349e-02  9.9938915850601051e-02  9.9900264221414944e-02  9.9856298760277337e-02  9.9962402375636639e-02  9.9911500415508045e-02  9.9922138914877126e-02  9.9929824728191383e-02  9.9933011081651479e-02  9.9922397643891853e-02  9.9939751016400333e-02  9.9936303831542103e-02  9.9934804141088490e-02  9.9943717312608135e-02  9.9944329974629667e-02  9.9943506339665117e-02  9.9950032400415140e-02  9.9950083981753188e-02  9.9950991776886780e-02  9.9953566899356971e-02  9.9956431660771297e-02  9.9953368599562525e-02  9.9962147352642347e-02  9.9951578986570880e-02  9.9972683281868424e-02  9.9938460487505071e-02  1.0000000000000003e-01  1.0001793741809840e-01  1.0000000000000003e-01  1.0001153281958282e-01  1.0001705322446031e-01  1.0001514178881844e-01  1.0002190154550109e-01  1.0002063967586571e-01  1.0002074559134894e-01  1.0002978907124058e-01  1.0002624097644665e-01  1.0002562792725905e-01  1.0003900659172933e-01  1.0003338910216458e-01  1.0003196541609194e-01  1.0005070311854580e-01  1.0003528503250587e-01  1.0004250607268513e-01  1.0004776663551385e-01  1.0006563134235123e-01  1.0005627207123757e-01  1.0009010624275630e-01  1.0006040357145547e-01  1.0007121579012231e-01  1.0009246599890084e-01  1.0008110861391215e-01  1.0005657368095587e-01  1.0014295460330799e-01  1.0000913848570847e-01  1.0021536424337067e-01  9.9855338027525942e-02  1.0056835073940382e-01  1.0027734746713421e-01  9.9144170205769253e-02  9.9730394581765705e-02  9.9965898641136780e-02  9.9882677618194443e-02  9.9937900959515963e-02  9.9865078685920747e-02  9.9928556905130916e-02  9.9880930163163503e-02  9.9937531298739515e-02  9.9921370461018399e-02  9.9941805634076522e-02  9.9914449107311121e-02  9.9942444382780618e-02  9.9934725235513958e-02  9.9932552665408333e-02  9.9943531263587335e-02  9.9943351811421874e-02  9.9941048749774525e-02  9.9949827695105714e-02  9.9950280194297442e-02  9.9949586161178675e-02  9.9955520524937044e-02  9.9954945067676548e-02  9.9957334786113419e-02  9.9956843476258259e-02  9.9963984824932822e-02  9.9953596154587696e-02  9.9974997902916266e-02  9.9941777743992849e-02  1.0000000000000003e-01  1.0001959587988761e-01  1.0000000000000003e-01  1.0001122752935344e-01  1.0001700083214710e-01  1.0001900434932579e-01  1.0002045239968556e-01  1.0001938844313912e-01  1.0002789497190540e-01  1.0002569538337010e-01  1.0002484444556796e-01  1.0003614990977418e-01  1.0003284078230322e-01  1.0003126937873867e-01  1.0004842263589214e-01  1.0003828356952393e-01  1.0003779640251294e-01  1.0005571482920850e-01  1.0004753826712810e-01  1.0002862108637411e-01  1.0009570196694281e-01  1.0006130564707393e-01  1.0006688418102228e-01  1.0010237059129476e-01  1.0006316468057586e-01  1.0008352563346926e-01  1.0009182369578359e-01  1.0011125512381164e-01  1.0001200546029676e-01  1.0024786120847688e-01  9.9822966104014976e-02  1.0059454062057367e-01  1.0028085916027478e-01  9.9157810019097029e-02  9.9691527631970256e-02  1.0001671434697457e-01  9.9868119712901243e-02  9.9903230683174110e-02  9.9914319817262565e-02  9.9914793663448798e-02  9.9885524277569679e-02  9.9895291728683597e-02  9.9956272167994548e-02  9.9900389029882589e-02  9.9947807257183344e-02  9.9928940293879637e-02  9.9928569886237217e-02  9.9940400667550222e-02  9.9941159168129776e-02  9.9935841123096933e-02  9.9947200983993720e-02  9.9946424883813501e-02  9.9945891288373487e-02  9.9952586515656097e-02  9.9953874035219395e-02  9.9952485808070077e-02  9.9958906956809909e-02  9.9956041137449714e-02  9.9962637686952918e-02  9.9954410820850104e-02  9.9974132255341824e-02  9.9941846510273602e-02  1.0000000000000003e-01  1.0002024269602755e-01  1.0000000000000003e-01  1.0001104870225688e-01  1.0002026986886736e-01  1.0001785825032285e-01  1.0001958113506434e-01  1.0002549122124750e-01  1.0002484957658195e-01  1.0002378250326986e-01  1.0003408198791500e-01  1.0003091650393647e-01  1.0002963449056942e-01  1.0004595122497394e-01  1.0003868874080464e-01  1.0003622058642070e-01  1.0005624239153162e-01  1.0004473564857953e-01  1.0003647823536967e-01  1.0007444911560306e-01  1.0003043340362774e-01  1.0007512569440617e-01  1.0009545878757725e-01  1.0007364449468019e-01  1.0006543741677577e-01  1.0012292173466246e-01  1.0005292078091596e-01  1.0011412048045157e-01  1.0004982737386534e-01  1.0021434670050408e-01  9.9821306432720747e-02  1.0063796632727465e-01  1.0026555565015116e-01  9.9133634631827325e-02  9.9725067198215098e-02  1.0001211552449428e-01  9.9835398303586287e-02  9.9948236087619366e-02  9.9905569250041432e-02  9.9896989923939847e-02  9.9914918720254681e-02  9.9920279242935672e-02  9.9870824881125003e-02  9.9964313063572258e-02  9.9921120126826302e-02  9.9932624445991769e-02  9.9936596374378864e-02  9.9942387021302689e-02  9.9932214806441766e-02  9.9947297023346413e-02  9.9945445078327172e-02  9.9943057433909938e-02  9.9951510769912766e-02  9.9952221085746487e-02  9.9952082121577995e-02  9.9956718494394164e-02  9.9959316551557209e-02  9.9956199112380600e-02  9.9965200045971259e-02  9.9955698858077813e-02  9.9974811973502387e-02  9.9944282565674530e-02  1.0000000000000003e-01  1.0002074868570426e-01  1.0000000000000003e-01  1.0001257300020605e-01  1.0001959258255250e-01  1.0001698999026887e-01  1.0002410248494004e-01  1.0002295570908769e-01  1.0002303637707309e-01  1.0003143623136268e-01  1.0002924768956382e-01  1.0002750557444996e-01  1.0004206794774603e-01  1.0003697766345343e-01  1.0003526501743913e-01  1.0005396363381347e-01  1.0004336591845339e-01  1.0003906053339859e-01  1.0006693881900015e-01  1.0004228514030682e-01  1.0004979049250609e-01  1.0006251169948244e-01  1.0007746824706391e-01  1.0006951988228353e-01  1.0011106440455066e-01  1.0007875237256728e-01  1.0005823244477759e-01  1.0015757429538677e-01  1.0000812759016989e-01  1.0021351182319875e-01  9.9862692092406252e-02  1.0060624647432767e-01  1.0030741416201340e-01  9.9091330436723857e-02  9.9718279519995429e-02  9.9986597089981935e-02  9.9870861421793147e-02  9.9942851810983432e-02  9.9878279910321818e-02  9.9929568453450843e-02  9.9918991844720750e-02  9.9894042140494591e-02  9.9925086696997317e-02  9.9897646323692482e-02  9.9944016098652833e-02  9.9928757575590971e-02  9.9948295573849155e-02  9.9925487062277746e-02  9.9948054179092402e-02  9.9943331917934267e-02  9.9940752455498522e-02  9.9950053400642808e-02  9.9950560150580944e-02  9.9947890534347078e-02  9.9956411361787234e-02  9.9955978069474344e-02  9.9957623804525039e-02  9.9958778685020427e-02  9.9965138439356283e-02  9.9955714064922291e-02  9.9975548336576847e-02  9.9945395608121004e-02  1.0000000000000003e-01  1.0002190134780563e-01  1.0000000000000003e-01  1.0001219359166021e-01  1.0001912899967992e-01  1.0002026804623368e-01  1.0002253313960613e-01  1.0002126788425174e-01  1.0002936145258276e-01  1.0002786527724312e-01  1.0002625084212016e-01  1.0003767846105481e-01  1.0003505855225076e-01  1.0003312346214657e-01  1.0005002795286844e-01  1.0004320349248778e-01  1.0003829660231636e-01  1.0006276235889630e-01  1.0004629260172211e-01  1.0004386972609651e-01  1.0007027169386308e-01  1.0005640248486486e-01  1.0002623152085414e-01  1.0012628810035079e-01  1.0006223659341115e-01  1.0008620333485775e-01  1.0010798822184633e-01  1.0010470893565344e-01  1.0001122404306227e-01  1.0026193136441408e-01  9.9820455962859364e-02  1.0060142176835306e-01  1.0032162949522946e-01  9.9108366483224450e-02  9.9687616803615403e-02  1.0002006133228564e-01  9.9869456197928461e-02  9.9916531104377052e-02  9.9910058870133267e-02  9.9929701454582964e-02  9.9893537289856477e-02  9.9930573036320192e-02  9.9920229091083265e-02  9.9907210419454801e-02  9.9905800237811829e-02  9.9963770438774482e-02  9.9916093136041759e-02  9.9954417678113583e-02  9.9940449042112980e-02  9.9939984862993547e-02  9.9949270456030040e-02  9.9950804108417612e-02  9.9946199365748112e-02  9.9954900170364736e-02  9.9955480646473166e-02  9.9954003232958819e-02  9.9961543472678993e-02  9.9959378652011113e-02  9.9964757187142692e-02  9.9958489771334813e-02  9.9976084882069424e-02  9.9947207215684036e-02  1.0000000000000003e-01  1.0002212625913275e-01  1.0000000000000003e-01  1.0001173929936202e-01  1.0002161308417810e-01  1.0001896949221083e-01  1.0002121910506427e-01  1.0002623429387929e-01  1.0002646735328898e-01  1.0002517234951264e-01  1.0003469319094847e-01  1.0003223346166337e-01  1.0003084713148025e-01  1.0004562031240494e-01  1.0004121495611516e-01  1.0003680277539299e-01  1.0005828594144124e-01  1.0004752008593061e-01  1.0004098553220446e-01  1.0007027723430502e-01  1.0005168295744417e-01  1.0003909758149583e-01  1.0009211678825210e-01  1.0003144546054435e-01  1.0007941799629384e-01  1