<?xml version="1.0"?>
<VTKFile type="UnstructuredGrid"  version="0.1"  >
<UnstructuredGrid>
<Piece  NumberOfPoints="1933" NumberOfCells="3640">
<Points>
<DataArray  type="Float64"  NumberOfComponents="3"  format="ascii">-0.2935453205698491 -0.003165045375057163 0  4.706454732889183 -0.003077895189410736 0  4.70632397199052 7.496922219864525 0  -0.2936760925998526 7.496835053870185 0  9.706454829380633 -0.002990823979539281 0  9.706324073560785 7.497009288488522 0  14.70645501103597 -0.002903802533040548 0  14.70632422354542 7.497096303090789 0  19.70645530778075 -0.002816778767479226 0  19.70632442907292 7.497183320061034 0  24.70645573754625 -0.002729690465427102 0  24.70632469287361 7.497270402704332 0  29.70645630839575 -0.002642470576162804 0  29.70632501283621 7.497357618099655 0  34.70645702054881 -0.002555049056884395 0  34.70632538166817 7.497445035999757 0  39.70645786779279 -0.00246735299462156 0  39.70632578658051 7.497532728958893 0  44.70645883823212 -0.002379305817012342 0  44.70632620885727 7.497620773192837 0  49.70645991443859 -0.00229082596294191 0  49.70632662319258 7.497709249911537 0  54.70646107306359 -0.002201825160868621 0  54.7063269967006 7.497798247015978 0  59.7064622839302 -0.002112206337509412 0  59.70632728750635 7.49788786114722 0  64.70646350857263 -0.002021861097814458 0  64.70632744280326 7.497978200143569 0  69.70646469811531 -0.001930666649584165 0  69.70632739622943 7.498069386019064 0  74.70646579030515 -0.001838481974062202 0  74.70632706435386 7.498161558633871 0  79.70646670537357 -0.001745142951785157 0  79.70632634197806 7.498254880295492 0  84.7064673402155 -0.001650456024153753 0  84.7063250958501 7.498349541612428 0  89.70646756004237 -0.001554189784424451 0  89.70632315623321 7.498445769021269 0  94.70646718612859 -0.00145606361957989 0  94.70632030559045 7.49854383451176 0  99.70646597731474 -0.001355732133757869 0  99.70631626347472 7.498644068139384 0  104.7064636012675 -0.001252763547265885 0  104.7063106666152 7.498746873826637 0  109.7064595884652 -0.001146609599522666 0  109.7063030434702 7.498852748425604 0  114.7064532564009 -0.001036563867664008 0  114.7062927837519 7.498962302389882 0  119.7064435813909 -0.0009217055096316632 0  119.7062791070396 7.499076276208388 0  124.7064289767515 -0.0008008282991095369 0  124.7062610436734 7.499195536812713 0  129.7064069016411 -0.0006723664030786605 0  129.7062374622018 7.499321015886041 0  134.7063731611315 -0.0005343662221060082 0  134.7062072243769 7.499453504679553 0  139.7063206395916 -0.0003846731217936499 0  139.7061696490362 7.49959312790312 0  144.7062369822011 -0.0002218995132343393 0  144.7061256795771 7.499738179366578 0  149.7061002488971 -4.922242212409247e-05 0  149.7060806221189 7.499883016953518 0  159.7061073738531 9.407340466376802e-19 0  164.7061113656439 -5.121729320626713e-05 0  164.7061099755265 7.499933117988947 0  159.7060994687948 7.499964056364233 0  169.7061350781435 -6.552702582019701e-05 0  169.7061201639339 7.499927010746121 0  174.7061652075889 -5.440744643876875e-05 0  174.7061321593073 7.499941916264992 0  179.7061959243648 -2.513810424109911e-05 0  179.7061455990277 7.499973054195875 0  184.7062247712744 1.730697752239093e-05 0  184.7061596693462 7.500016451596611 0  189.7062508467139 6.944710730603914e-05 0  189.7061736642193 7.500069084553885 0  194.706273959699 0.0001288140141688973 0  194.7061870941848 7.500128707892718 0  199.706294229895 0.0001936343207873822 0  199.7061996635895 7.500193661036691 0  204.706311898419 0.000262615401861631 0  204.7062112197903 7.500262709557572 0  209.7063272398159 0.0003348005996242096 0  209.7062217062953 7.500334927275645 0  214.7063405227215 0.0004094710058797765 0  214.7062311272292 7.500409611464572 0  219.7063519938118 0.0004860783170109036 0  219.7062395226373 7.500486222534129 0  224.7063618727187 0.0005641983927424631 0  224.7062469521606 7.500564341107468 0  229.7063703519499 0.0006434986713550872 0  229.7062534846353 7.500643637271377 0  234.7063775989416 0.0007237149463117252 0  234.7062591917015 7.500723848322529 0  239.7063837588927 0.0008046345512941757 0  239.7062641440489 7.500804762473041 0  244.7063889577664 0.0008860840033909378 0  244.7062684093764 7.500886206779132 0  249.7063933051973 0.0009679198071596574 0  249.7062720514483 7.500968038105935 0  254.7063968972269 0.001050021552032347 0  254.7062751298569 7.50105013631878 0  259.7063998188567 0.001132286724867227 0  259.7062777002221 7.50113239915204 0  264.7064021464681 0.001214626862506631 0  264.7062798146679 7.501214738394151 0  269.7064039501415 0.001296964822554213 0  269.7062815224569 7.501297077168832 0  274.7064052959398 0.001379233080842942 0  274.7062828706885 7.501379348210565 0  279.7064062481691 0.001461373093532174 0  279.7062839049868 7.501461493141766 0  284.7064068716036 0.001543335912196704 0  284.7062846700878 7.501543462872912 0  289.7064072335002 0.001625084435266741 0  289.7062852102287 7.501625219371356 0  294.7064074050359 0.001706597939343211 0  294.7062855692706 7.501706739177885 0  299.706407461207 0.001787879846862623 0  299.7062857905584 7.501788019172073 0  304.7064074772096 0.00186896986231949 0  304.7062859169044 7.501869085171342 0  309.7064075170171 0.001949960609944932 0  309.7062859919906 7.501950004159843 0  4.706193060228621 14.99692245121007 0  -0.2938070004300887 14.99683529238364 0  9.706193132278894 14.99700948347304 0  14.70619321881104 14.99709645800046 0  19.70619331699214 14.99718343907268 0  24.70619342052875 14.99727049114237 0  29.70619351996771 14.99735768008437 0  34.70619360224318 14.99744507377699 0  39.70619364997555 14.99753274279721 0  44.70619364065664 14.99762076139582 0  49.7061935457177 14.99770920875844 0  54.70619332943067 14.99779817054074 0  59.7061929475769 14.9978877406875 0  64.70619234581909 14.99797802357242 0  69.70619145770692 14.99806913652058 0  74.70619020226165 14.99816121279501 0  79.70618848110044 14.99825440513677 0  84.70618617512281 14.99834888993138 0  89.70618314089667 14.99844487200854 0  94.70617920713413 14.99854258990664 0  99.70617417210536 14.99864232104261 0  104.7061678037257 14.99874438540392 0  109.7061598455681 14.99884914472943 0  114.7061500346812 14.99895699094546 0  119.7061381412605 14.99906831161801 0  124.7061240463331 14.99918340932906 0  129.7061078810873 14.99930233324829 0  134.7060902565924 14.99942455163668 0  139.7060726028589 14.99954835341258 0  144.7060575762246 14.99966982424862 0  149.7060492901608 14.99978120061547 0  164.7060792229557 14.99988961004455 0  159.7060721058857 14.99988321473104 0  169.7060826426487 14.99990443721249 0  174.7060853902079 14.99993054581794 0  179.706088747163 14.99996759618701 0  184.7060930132656 15.00001409012155 0  189.706098060781 15.0000683267235 0  194.7061036251497 15.00012876196257 0  199.7061094362682 15.00019410710337 0  204.7061152680735 15.00026332563854 0  209.7061209500913 15.00033559721484 0  214.7061263632228 15.00041027594034 0  219.7061314303702 15.00048685284954 0  224.7061361065631 15.0005649250841 0  229.7061403703553 15.00064417161559 0  234.7061442169749 15.00072433448089 0  239.7061476531239 15.00080520438652 0  244.706150693171 15.00088660968104 0  249.7061533564361 15.00096840789989 0  254.7061556652973 15.00105047927837 0  259.7061576439062 15.00113272179257 0  264.70615931733 15.00121504741562 0  269.7061607109947 15.00129737938285 0  274.7061618503274 15.0013796503417 0  279.7061627605167 15.0014618013315 0  284.7061634663917 15.00154378158907 0  289.7061639924125 15.00162554919969 0  294.7061643629643 15.00170707258111 0  299.7061646032755 15.00178833264956 0  304.7061647416832 15.00186932517184 0  309.7061648145369 15.00195006209668 0  4.7060621729406 22.49692283589165 0  -0.2939378815903828 22.49683576963188 0  9.706062218829333 22.49700977466548 0  14.7060622507251 22.4970966621054 0  19.70606226072093 22.49718356523542 0  24.70606223864554 22.49727054754793 0  29.70606217211391 22.49735767203322 0  34.70606204619318 22.49744500287436 0  39.70606184284195 22.49753260662399 0  44.70606154024262 22.49762055326134 0  49.7060611120851 22.49770891729998 0  54.70606052682039 22.49779777901196 0  59.70605974689458 22.49788722579233 0  64.70605872798362 22.49797735366825 0  69.70605741827934 22.4980682689382 0  74.70605575793041 22.49816008989804 0  79.70605367882899 22.49825294854908 0  84.70605110506816 22.49834699207242 0  89.70604795461377 22.49844238364981 0  94.70604414305929 22.49853930185277 0  99.70603959081437 22.49863793720105 0  104.7060342357575 22.49873848344923 0  109.7060280542574 22.49884111944654 0  114.7060210944308 22.49894597472001 0  119.7060135261564 22.49905306792797 0  124.7060057117166 22.4991622019997 0  129.7059982968283 22.49927279422939 0  134.7059923101287 22.49938361825503 0  139.7059892332846 22.49949245059079 0  144.7059909560826 22.49959568055724 0  149.7059994630752 22.49968814552554 0  164.7060226635612 22.49983910469027 0  159.7060192181684 22.49980630905037 0  169.7060228518068 22.4998732690621 0  174.706021441984 22.49991224247936 0  179.7060196986096 22.49995739846736 0  184.7060183406112 22.50000883282826 0  189.7060176694858 22.50006600706844 0  194.7060177333062 22.50012814626605 0  199.7060184506013 22.50019444757309 0  204.7060196878399 22.50026417425356 0  209.706021302383 22.50033668863038 0  214.7060231635203 22.50041145544321 0  219.7060251608588 22.50048803253418 0  224.7060272059932 22.50056605733488 0  229.7060292309515 22.50064523309201 0  234.7060311853633 22.50072531645025 0  239.70603303335 22.50080610689366 0  244.7060347506171 22.50088743804306 0  249.7060363219284 22.50096917061128 0  254.7060377390135 22.50105118676697 0  259.7060389988595 22.50113338567098 0  264.7060401023533 22.50121567998428 0  269.7060410531992 22.50129799318708 0  274.7060418570805 22.5013802575821 0  279.7060425210378 22.50146241287427 0  284.7060430530916 22.50154440521316 0  289.7060434621899 22.50162618653511 0  294.7060437586608 22.50170771392119 0  299.7060439554
[...]
<PointData  Scalars="p"> 
<DataArray  type="Float64"  Name="p"  format="ascii">1.0000000000000001e-01  1.0000000000000003e-01  9.9996279283508197e-02  1.0000000000000003e-01  1.0000000000000003e-01  9.9996371137142423e-02  1.0000000000000003e-01  9.9994517276929804e-02  1.0000000000000003e-01  9.9993884693980475e-02  1.0000000000000003e-01  9.9992605712566796e-02  1.0000000000000003e-01  9.9990003040008157e-02  1.0000000000000003e-01  9.9989203064130242e-02  1.0000000000000003e-01  9.9987422580844684e-02  1.0000000000000003e-01  9.9984441817361061e-02  1.0000000000000003e-01  9.9984948305993401e-02  1.0000000000000003e-01  9.9975753182822882e-02  1.0000000000000003e-01  9.9972296696386215e-02  1.0000000000000003e-01  9.9967493709371316e-02  1.0000000000000003e-01  9.9964054533267135e-02  1.0000000000000003e-01  9.9955705218599936e-02  1.0000000000000003e-01  9.9952660057925594e-02  1.0000000000000003e-01  9.9946046934734495e-02  1.0000000000000003e-01  9.9936088463609893e-02  1.0000000000000003e-01  9.9932729865132339e-02  1.0000000000000003e-01  9.9921854775723795e-02  1.0000000000000003e-01  9.9914927875082910e-02  1.0000000000000003e-01  9.9902627430551449e-02  1.0000000000000003e-01  9.9903554887718710e-02  1.0000000000000003e-01  9.9874233238434446e-02  1.0000000000000003e-01  9.9897778896819542e-02  1.0000000000000003e-01  9.9838707704097834e-02  1.0000000000000003e-01  9.9901746181775719e-02  1.0000000000000003e-01  9.9791186396392909e-02  1.0000000000000003e-01  9.9919744446300973e-02  1.0000000000000001e-01  9.9713647002976094e-02  1.0000000000000001e-01  1.0000000000000003e-01  1.0019940782359726e-01  1.0044706487135115e-01  1.0000000000000003e-01  1.0004302068347809e-01  1.0000000000000003e-01  1.0015489131640497e-01  1.0000000000000003e-01  1.0009156144100573e-01  1.0000000000000003e-01  1.0010891732550686e-01  1.0000000000000003e-01  1.0009217639757985e-01  1.0000000000000003e-01  1.0009805828632284e-01  1.0000000000000003e-01  1.0008383289342615e-01  1.0000000000000003e-01  1.0008509905322546e-01  1.0000000000000003e-01  1.0007978496352994e-01  1.0000000000000003e-01  1.0007537111006649e-01  1.0000000000000003e-01  1.0007220106978322e-01  1.0000000000000003e-01  1.0006997309534744e-01  1.0000000000000003e-01  1.0006589188157274e-01  1.0000000000000003e-01  1.0006400273127755e-01  1.0000000000000003e-01  1.0006196958624353e-01  1.0000000000000003e-01  1.0005948546613405e-01  1.0000000000000003e-01  1.0005783831322790e-01  1.0000000000000003e-01  1.0005663522872570e-01  1.0000000000000003e-01  1.0005461985392258e-01  1.0000000000000003e-01  1.0005398725975058e-01  1.0000000000000003e-01  1.0005216756779105e-01  1.0000000000000003e-01  1.0005240747767898e-01  1.0000000000000003e-01  1.0004916585632437e-01  1.0000000000000003e-01  1.0005262890020362e-01  1.0000000000000003e-01  1.0004465536183749e-01  1.0000000000000003e-01  1.0005611097669470e-01  1.0000000000000003e-01  1.0003544085863543e-01  1.0000000000000003e-01  1.0007041118941239e-01  1.0000000000000001e-01  1.0000000000000003e-01  9.9993117703541259e-02  1.0000000000000003e-01  9.9993607029997267e-02  9.9993214929830265e-02  9.9992324219450562e-02  9.9989700020441705e-02  9.9989991319098984e-02  9.9989357299032550e-02  9.9985415593167135e-02  9.9987478067434188e-02  9.9985720363536590e-02  9.9983196303635280e-02  9.9972827617435422e-02  9.9977147448757686e-02  9.9966844196138716e-02  9.9971821553926768e-02  9.9967063688737839e-02  9.9959042408910542e-02  9.9960786351668857e-02  9.9957060979191978e-02  9.9944429984806696e-02  9.9951102111455539e-02  9.9938854493676205e-02  9.9939018737909391e-02  9.9925358577966403e-02  9.9946982861603265e-02  9.9890454454630309e-02  9.9981255133354707e-02  9.9820615780275471e-02  1.0006600582578770e-01  9.9710215736583924e-02  9.9798425231601248e-02  1.0066041582201121e-01  1.0021656782633785e-01  1.0002839330083160e-01  1.0006051015608756e-01  1.0004846074558407e-01  1.0007043220335357e-01  1.0004070542557339e-01  1.0005444865441659e-01  1.0004927518999558e-01  1.0004278027469533e-01  1.0004212590785463e-01  1.0004207811004716e-01  1.0003571130860023e-01  1.0003547254100162e-01  1.0003445813828418e-01  1.0003083318755705e-01  1.0003007068167463e-01  1.0002927833184430e-01  1.0002693477475016e-01  1.0002596593292788e-01  1.0002559499986932e-01  1.0002327360498435e-01  1.0002363148761484e-01  1.0002104411872595e-01  1.0002305872249122e-01  1.0001673705057362e-01  1.0002621335957244e-01  1.0000795494163006e-01  1.0003457629055654e-01  1.0000000000000003e-01  9.9989471564944671e-02  1.0000000000000003e-01  9.9993282543941936e-02  9.9990153184698879e-02  9.9987544238908529e-02  9.9987335112876510e-02  9.9986628161261207e-02  9.9980968701378098e-02  9.9982414073262790e-02  9.9981762377724354e-02  9.9975657369437990e-02  9.9974024314719925e-02  9.9979985584297423e-02  9.9951206787924393e-02  9.9963168161639068e-02  9.9956594221364339e-02  9.9944909192973733e-02  9.9950128685856496e-02  9.9943729213906068e-02  9.9927540666735912e-02  9.9932663339744113e-02  9.9926584339775623e-02  9.9903513770493044e-02  9.9920276877535796e-02  9.9892996057035069e-02  9.9906477245511868e-02  9.9866532562205276e-02  9.9933956876508259e-02  9.9783866631951559e-02  1.0005578503492747e-01  9.9547227791435280e-02  9.9881123741428865e-02  1.0057402353382754e-01  1.0031591872158434e-01  1.0006114116261423e-01  1.0008381856247904e-01  1.0013428585940169e-01  1.0005730876775359e-01  1.0010056464767222e-01  1.0008784246004977e-01  1.0007508752942525e-01  1.0007593309947080e-01  1.0007759233206757e-01  1.0006457783201402e-01  1.0006580351014699e-01  1.0006419886424332e-01  1.0005697399121662e-01  1.0005610005049272e-01  1.0005526730652065e-01  1.0005032886626188e-01  1.0004953782419131e-01  1.0004834557913320e-01  1.0004549829865472e-01  1.0004389335078884e-01  1.0004387502650269e-01  1.0003995507628478e-01  1.0004187542191365e-01  1.0003601157955780e-01  1.0004282350309412e-01  1.0002679818108781e-01  1.0005473442239067e-01  1.0000000000000003e-01  9.9987159662047131e-02  1.0000000000000003e-01  9.9991960246909692e-02  9.9985877594570699e-02  9.9986774876909199e-02  9.9985903114612543e-02  9.9979870922171643e-02  9.9981381677436462e-02  9.9980708351541478e-02  9.9973233466682410e-02  9.9976210285267472e-02  9.9976172497906440e-02  9.9959899483320805e-02  9.9976815530782331e-02  9.9951288210513925e-02  9.9947242078468571e-02  9.9951224824306378e-02  9.9950325386076622e-02  9.9930788973636109e-02  9.9942793164523022e-02  9.9932498964310751e-02  9.9916681810551494e-02  9.9921365208014978e-02  9.9922869463688183e-02  9.9885110465896501e-02  9.9931606147053140e-02  9.9859674981779348e-02  9.9955748737217326e-02  9.9779940391735641e-02  1.0009285060045449e-01  9.9521593247434273e-02  9.9890254324276256e-02  1.0071898330897977e-01  1.0020132301230208e-01  1.0002636666205249e-01  1.0022810937425081e-01  9.9996020234246391e-02  1.0011268083272111e-01  1.0007836070386697e-01  1.0007106303152613e-01  1.0006954629961477e-01  1.0007850230684286e-01  1.0005725297417155e-01  1.0006269960997957e-01  1.0006128228738280e-01  1.0005162727793265e-01  1.0005109961913448e-01  1.0005071170267260e-01  1.0004390044265622e-01  1.0004329664499964e-01  1.0004255036972733e-01  1.0003805534111886e-01  1.0003744009998126e-01  1.0003580659052487e-01  1.0003396940045874e-01  1.0003095507080220e-01  1.0003313146009483e-01  1.0002531431267124e-01  1.0003413750270761e-01  1.0001647502647669e-01  1.0004193685080003e-01  1.0000000000000003e-01  9.9984792167234646e-02  1.0000000000000003e-01  9.9989281571274541e-02  9.9985175387467443e-02  9.9985959906107730e-02  9.9978990167004719e-02  9.9980701543079489e-02  9.9979305626975629e-02  9.9970975922270375e-02  9.9974285370835442e-02  9.9974206891135425e-02  9.9959981152468902e-02  9.9968361229126432e-02  9.9960532410679093e-02  9.9959758134555585e-02  9.9939915505732113e-02  9.9947780691700364e-02  9.9924551006508364e-02  9.9939853400218479e-02  9.9932380167691112e-02  9.9908358152361779e-02  9.9925373602607975e-02  9.9909947040995081e-02  9.9895447084846864e-02  9.9893497312099427e-02  9.9913920815870749e-02  9.9837510048368328e-02  9.9957662266490291e-02  9.9750909290204567e-02  1.0010617732482478e-01  9.9447115133064465e-02  9.9764021113838142e-02  1.0080751339467822e-01  1.0027081104574194e-01  1.0010138018289069e-01  1.0011627645295290e-01  1.0013715948051970e-01  1.0009488329436558e-01  1.0008853487197006e-01  1.0007835583044342e-01  1.0010640499944708e-01  1.0006749997459351e-01  1.0008076393859888e-01  1.0007901596576572e-01  1.0006512147854238e-01  1.0006555526344098e-01  1.0006641381502535e-01  1.0005558350327143e-01  1.0005552003527127e-01  1.0005481074839476e-01  1.0004851120161033e-01  1.0004740427481805e-01  1.0004690013809295e-01  1.0004204355897579e-01  1.0004183052964401e-01  1.0003901701656373e-01  1.0003885985402083e-01  1.0003282632572358e-01  1.0003994633460633e-01  1.0002271074272498e-01  1.0004894697417756e-01  1.0000000000000003e-01  9.9982001121132161e-02  1.0000000000000003e-01  9.9989025104911269e-02  9.9983988384710787e-02  9.9980648329858951e-02  9.9980042816457726e-02  9.9979519781747406e-02  9.9971020798123575e-02  9.9973159381705812e-02  9.9973376321579724e-02  9.9961278550228183e-02  9.9966080367107218e-02  9.9963392091409961e-02  9.9950746097084153e-02  9.9953092413234745e-02  9.9969461771292845e-02  9.9913013179272023e-02  9.9942142203537601e-02  9.9931369293793967e-02  9.9910650300531617e-02  9.9926070619221541e-02  9.9921456186542190e-02  9.9885094249184680e-02  9.9918126734176618e-02  9.9886775250161708e-02  9.9894341077901433e-02  9.9853495746805007e-02  9.9957232314361003e-02  9.9726226893512973e-02  1.0014460254133249e-01  9.9388279529166748e-02  9.9790236598833168e-02  1.0076788139831210e-01  1.0033365308525297e-01  9.9990846504103767e-02  1.0015679978540297e-01  1.0012637421033321e-01  1.0013662103417750e-01  1.0004664708300592e-01  1.0013330943463788e-01  1.0005454012760714e-01  1.0008991215543592e-01  1.0008428984169813e-01  1.0006721676609605e-01  1.0006786357591128e-01  1.0007210784667156e-01  1.0005648598678404e-01  1.0005807231097834e-01  1.0005775682272317e-01  1.0004851790759341e-01  1.0004807838002075e-01  1.0004761253320299e-01  1.0004183262999509e-01  1.0004038283701105e-01  1.0004039349165759e-01  1.0003467394744747e-01  1.0003642885401751e-01  1.0002989438423508e-01  1.0003612952482091e-01  1.0001957417852111e-01  1.0004401557030083e-01  1.0000000000000003e-01  9.9980484682583179e-02  1.0000000000000003e-01  9.9988533148377065e-02  9.9979225827792062e-02  9.9981418195156990e-02  9.9979308735050273e-02  9.9971993730023467e-02  9.9972868650325869e-02  9.9973080489776447e-02  9.9961108562648726e-02  9.9966137549750547e-02  9.9964287410642880e-02  9.9948279357764555e-02  9.9954922605100652e-02  9.9958768098255796e-02  9.9929104995669857e-02  9.9964376072940911e-02  9.9920661506755645e-02  9.9909389381731509e-02  9.9924615669304676e-02  9.9920316033323867e-02  9.9889933576708653e-02  9.9909982487701221e-02  9.9908232977743011e-02  9.9856568804462989e-02  9.9916922876242681e-02  9.9842758229609530e-02  9.9931852972490909e-02  9.9737649559228675e-02  1.0014576407180556e-01  9.9334190892688731e-02  9.9815146539722135e-02  1.0083432438053562e-01  1.0026511957462998e-01  1.0002937880678939e-01  1.0020047270505654e-01  1.0007459479436712e-01  1.0011680121653824e-01  1.0017482055285037e-01  1.0004297246927742e-01  1.0010675704166333e-01  1.0009056674425663e-01  1.0007912036135111e-01  1.0007481999182394e-01  1.0008548855786940e-01  1.0006296615274088e-01  1.0006685568521047e-01  1.0006750464893135e-01  1.0005585771548117e-01  1.0005498342917574e-01  1.0005527590137867e-01  1.0004698869271209e-01  1.0004654500286563e-01  1.0004523304975869e-01  1.0004104041886573e-01  1.0003819417771639e-01  1.0003956908456645e-01  1.0003153536507187e-01  1.0003835062161480e-01  1.0002197589296792e-01  1.0004582803492497e-01  1.0000000000000003e-01  9.9979076033853809e-02  1.0000000000000003e-01  9.9986021602151615e-02  9.9979503656375701e-02  9.9981140964732693e-02  9.9972934722253284e-02  9.9974271746780197e-02  9.9973352735196905e-02  9.9962453318791389e-02  9.9966455568281334e-02  9.9965983285897467e-02  9.9949683865085959e-02  9.9956075901488722e-02  9.9956316281676963e-02  9.9933513027042578e-02  9.9952580595114804e-02  9.9940353007254845e-02  9.9938979356428523e-02  9.9911560861743451e-02  9.9925249442994593e-02  9.9884219251142978e-02  9.9919625293263578e-02  9.9902281316719577e-02  9.9875898744170022e-02  9.9888103968796479e-02  9.9911038551551951e-02  9.9810129037281620e-02  9.9962505691775991e-02  9.9724331244669451e-02  1.0013621880386195e-01  9.9323142735610243e-02  9.9736093046822072e-02  1.0090338797542391e-01  1.0030415986485244e-01  1.0006503010127561e-01  1.0013969142867012e-01  1.0008403956870639e-01  1.0016261638741070e-01  1.0008211800247714e-01  1.0014589991301200e-01  1.0007558602375966e-01  1.0009316583180254e-01  1.0006875118490000e-01  1.0009939125607989e-01  1.0006324757655713e-01  1.0007239590928357e-01  1.0007325326442058e-01  1.0005873974752759e-01  1.0005880247048360e-01  1.0006064574561518e-01  1.0004920289043331e-01  1.0004866920228152e-01  1.0004870299183748e-01  1.0004134254237097e-01  1.0004111345178616e-01  1.0003865251197358e-01  1.0003689752534768e-01  1.0003079388284075e-01  1.0003742616146154e-01  1.0002035336183145e-01  1.0004365152049428e-01  1.0000000000000003e-01  9.9977070405460333e-02  1.0000000000000003e-01  9.9986339470002988e-02  9.9979225342306674e-02  9.9976376914374485e-02  9.9974535035283446e-02  9.9974942661053806e-02  9.9964617755771562e-02  9.9966997979700059e-02  9.9967053845248594e-02  9.9953362046770591e-02  9.9957066513362669e-02  9.9957354107107849e-02  9.9936609711011412e-02  9.9948646922882300e-02  9.9946512790296108e-02  9.9926102137467651e-02  9.9933899360083081e-02  9.9958972486443406e-02  9.9872601670499134e-02  9.9919078594436841e-02  9.9907849210668184e-02  9.9866688058518005e-02  9.9911019838514206e-02  9.9882714034737294e-02  9.9870042079794899e-02  9.9848724075609088e-02  9.9955443254430343e-02  9.9688340283332053e-02  1.0017070484710242e-01  9.9297654735661170e-02  9.9738676013315986e-02  1.0088231829871566e-01  1.0034985575049432e-01  1.0000491074990640e-01  1.0016210569216881e-01  1.0012792180374805e-01  1.0010330697307676e-01  1.0010543993785202e-01  1.0013399037068668e-01  1.0012538603664911e-01  1.0005288667205108e-01  1.0011903609619241e-01  1.0005922725116581e-01  1.0008215915385311e-01  1.0008025763240357e-01  1.0006429253904459e-01  1.0006309747634591e-01  1.0006815540291446e-01  1.0005348929081090e-01  1.0005417169528065e-01  1.0005407502558197e-01  1.0004520072317263e-01  1.0004374376698001e-01  1.0004426786557062e-01  1.0003685024670166e-01  1.0003819686193011e-01  1.0003244772234771e-01  1.0003669548138501e-01  1.0002125756668345e-01  1.0004383596548018e-01  1.0000000000000003e-01  9.9976273950093605e-02  1.0000000000000003e-01  9.9986373292975481e-02  9.9975286985219680e-02  9.9977718036299387e-02  9.9975032884632567e-02  9.9967570667865102e-02  9.9968130639665337e-02  9.9968335843438519e-02  9.9955801297872807e-02  9.9959655196967520e-02  9.9959648690160219e-02  9.9940095750407160e-02  9.9948630586072937e-02  9.9949229365471209e-02  9.9925357249492086e-02  9.9938180982145533e-02  9.9946298926639074e-02  9.9899163208515232e-02  9.9957247410385835e-02  9.9893023842343845e-02  9.9875471615171754e-02  9.9900020679738563e-02  9.9905997937980870e-02  9.9837247750669517e-02  9.9917517574372311e-02  9.9842684901739170e-02  9.9911705028742415e-02  9.9730294014328008e-02  1.0016706848999837e-01  9.9254353695471406e-02  9.9759977973344072e-02  1.0091333206350002e-01  1.0030859942726995e-01  1.0001546317568974e-01  1.0020260050606344e-01  1.0007429664361113e-01  1.0011998240697821e-01  1.0012870736552437e-01  1.0010085102349998e-01  1.0009303522740697e-01  1.0015579672760234e-01  1.0004116026939903e-01  1.0009456918432409e-01  1.0007861635524082e-01  1.0007187077541244e-01  1.0006437641807295e-01  1.0007510666402716e-01  1.0005536912144915e-01  1.0005736924430857e-01  1.0005922740263085e-01  1.0004819359946718e-01  1.0004688162435667e-01  1.0004672307026474e-01  1.0003995924148223e-01  1.0003739785539519e-01  1.0003890132503165e-01  1.0003015040328343e-01  1.0003616944806069e-01  1.0002106666150470e-01  1.0004213579231425e-01  1.0000000000000003e-01  9.9975624315435038e-02  1.0000000000000003e-01  9.9984571941208952e-02  9.9976167629927309e-02  9.9978449259577537e-02  9.9969665810370076e-02  9.9970667524789267e-02  9.9969653012273910e-02  9.9959208120832435e-02  9.9961699831428913e-02  9.9962540743357031e-02  9.9945092592320400e-02  9.9951171694968269e-02  9.9951459729056183e-02  9.9928938010018203e-02  9.9941043766360246e-02  9.9943617822629505e-02  9.9909612554940186e-02  9.9939860175225825e-02  9.9925278344804136e-02  9.9916926679101709e-02  9.9890313642628334e-02  9.9902613778496949e-02  9.9852162690902302e-02  9.9891712012827941e-02  9.9908231119575128e-02  9.9793602235081186e-02  9.9962760578483745e-02  9.9729557383701220e-02  1.0011803827013620e-01  9.9298462167738383e-02  9.9708540032504595e-02  1.0097014378473593e-01  1.0031901705037446e-01  1.0004786973489663e-01  1.0015900454297719e-01  1.0008459398543136e-01  1.0015372445402496e-01  1.0009033892693878e-01  1.0009992811533154e-01  1.0012732554159602e-01  1.0008407589686755e-01  1.0012309646130808e-01  1.0006609882050566e-01  1.0008334406174331e-01  1.0005969499416327e-01  1.0008567736573179e-01  1.0005636335636731e-01  1.0006181877827901e-01  1.0006360091150659e-01  1.0005107050468078e-01  1.0005037522575000e-01  1.0005253267779739e-01  1.0004166495807094e-01  1.0004146134710075e-01  1.0003969642501338e-01  1.0003614928429491e-01  1.0003060149577925e-01  1.0003667344093421e-01  1.0002032031658753e-01  1.0004151493705772e-01  1.0000000000000003e-01  9.9974248913997379e-02  1.0000000000000003e-01  9.9985079613000363e-02  9.9976540332143413e-02  9.9974602657377301e-02  9.9971680343398858e-02  9.9972232398958361e-02  9.9962206638804091e-02  9.9963686958714118e-02  9.9964434944939159e-02  9.9950617910441061e-02  9.9953648230542633e-02  9.9954655610043297e-02  9.9934432832198661e-02  9.9942507412500090e-02  9.9945881370935435e-02  9.9916139279009997e-02  9.9935691456402562e-02  9.9934415615721722e-02  9.9904363306455024e-02  9.9918229767126068e-02  9.9956925504342403e-02  9.9829158603234699e-02  9.9912310206664107e-02  9.9878039718644895e-02  9.9852525924030044e-02  9.9858154303040736e-02  9.9956781884763535e-02  9.9674784063012847e-02  1.0016987940705316e-01  9.9304415386803319e-02  9.9689377067298260e-02  1.0095804817482970e-01  1.0035917749438628e-01  1.0000681355179955e-01  1.0016296248932241e-01  1.0011754784723233e-01  1.0011488867758715e-01  1.0009341932701793e-01  1.0013283104999642e-01  1.0008354222912560e-01  1.0009481065184639e-01  1.0010662590768363e-01  1.0011089970137674e-01  1.0004217087470928e-01  1.0009921515681627e-01  1.0005094236453205e-01  1.0006779822130807e-01  1.0006662585212822e-01  1.0005394831681119e-01  1.0005167781335701e-01  1.0005621881109392e-01  1.0004460373700284e-01  1.0004382681532953e-01  1.0004430936153434e-01  1.0003535852124459e-01  1.0003616145470486e-01  1.0003154943164295e-01  1.0003401867326187e-01  1.0002012338972859e-01  1.0004038647377103e-01  1.0000000000000003e-01  9.9974085254001990e-02  1.0000000000000003e-01  9.9985630180746826e-02  9.9973762282456094e-02  9.9976413213516649e-02  9.9973103704647084e-02  9.9966598648241575e-02  9.9966065404790860e-02  9.9966490150012396e-02  9.9954796440953189e-02  9.9957638701694107e-02  9.9957944005264088e-02  9.9940253430034362e-02  9.9945815527044110e-02  9.9949133344217081e-02  9.9923293419817122e-02  9.9935930626627908e-02  9.9940267735437155e-02  9.9905389319356844e-02  9.9926535239057396e-02  9.9938880204572325e-02  9.9873398656300988e-02  9.9953194527302280e-02  9.9880468615659343e-02  9