<?xml version="1.0"?>
<VTKFile type="UnstructuredGrid"  version="0.1"  >
<UnstructuredGrid>
<Piece  NumberOfPoints="1933" NumberOfCells="3640">
<Points>
<DataArray  type="Float64"  NumberOfComponents="3"  format="ascii">-0.2940041997936171 0.0007391977051479446 0  4.705995808236792 0.000707842910300388 0  4.706042868623397 7.500707880139262 0  -0.2939571552020794 7.500739206809672 0  9.705995813421616 0.0006764476779265486 0  9.706042915857848 7.500676496303469 0  14.70599583729608 0.0006449792530140437 0  14.70604300059355 7.500645032302058 0  19.70599590664317 0.0006134254532240702 0  19.7060431374128 7.500613480058714 0  24.70599604847897 0.0005817870587340505 0  24.70604334158915 7.500581842245701 0  29.7059962884701 0.0005500732820014433 0  29.70604362878622 7.500550128985273 0  34.7059966508184 0.0005182990515886541 0  34.70604401484159 7.500518355656246 0  39.705997158755 0.000486483470011124 0  39.7060445157263 7.50048654159681 0  44.70599783526525 0.0004546490690747194 0  44.70604514764765 7.500454709480934 0  49.70599870388514 0.0004228216355488901 0  49.70604592724024 7.500422885206284 0  54.70599978951071 0.0003910304772889429 0  54.70604687179871 7.500391098193991 0  59.70600111920852 0.0003593090682182374 0  59.70604799951386 7.500359382053287 0  64.70600272303582 0.0003276960629555177 0  64.70604932967862 7.500327775609025 0  69.70600463488468 0.0002962367176358824 0  69.70605088282913 7.500296324331552 0  74.70600689336719 0.0002649848004835496 0  74.70605268077563 7.500265082252177 0  79.70600954275019 0.0002340051320919346 0  79.70605474645934 7.500234114499614 0  84.70601263393388 0.0002033769712879615 0  84.70605710353855 7.500203500661366 0  89.70601622543646 0.000173198572285549 0  89.70605977555581 7.500173339268259 0  94.70602038428613 0.000143593404986891 0  94.70606278446432 7.500143753834031 0  99.70602518658842 0.0001147187886704008 0  99.70606614818418 7.500114901071273 0  104.7060307172837 8.677809838138976e-05 0  104.7060698767169 7.500086982169299 0  109.7060370680891 6.003835861562081e-05 0  109.7060739661883 7.500060258369092 0  114.706044331576 3.485609405103009e-05 0  114.7060783900915 7.500035072487175 0  119.7060525872303 1.171600266841881e-05 0  119.7060830871773 7.500011878402851 0  124.70606187109 -8.7102977311661e-06 0  124.7060879465059 7.499991280454102 0  129.7060721119396 -2.547412125388778e-05 0  129.7060927936126 7.499974083190536 0  134.7060829994487 -3.721144642210967e-05 0  134.7060973912157 7.499961346745467 0  139.7060937131379 -4.193686449979371e-05 0  139.7061014923308 7.499954430307914 0  144.7061023617889 -3.677538347494499e-05 0  144.706105046161 7.499954986083031 0  149.7061047905557 -1.784637387546842e-05 0  149.7061088255921 7.499964896577746 0  159.7061073738537 1.032036479369932e-18 0  164.7060493549694 -7.513296342595045e-05 0  164.7060969099923 7.499914126394819 0  159.7061143760442 7.499973718494652 0  169.7060156415244 -0.0001416918036648846 0  169.7060790032969 7.499852930716775 0  174.7059953087958 -0.0002021587955722318 0  174.7060639175782 7.499794849727582 0  179.7059827473198 -0.0002577347622425357 0  179.7060520554619 7.499740506625338 0  184.7059748824506 -0.0003093632822095275 0  184.7060430270057 7.499689564408393 0  189.7059699563245 -0.0003578246753850203 0  189.7060362837864 7.499641501434692 0  194.7059669273646 -0.0004037440452344526 0  194.706031316974 7.499595820836807 0  199.705965156351 -0.0004476107285553448 0  199.7060277080245 7.499552101623514 0  204.7059642368242 -0.000489804813556646 0  204.7060251291427 7.499510001453544 0  209.705963901166 -0.0005306223862849306 0  209.7060233288889 7.49946924557099 0  214.7059639673169 -0.0005702962274958694 0  214.7060221157433 7.499429613495838 0  219.7059643077467 -0.0006090116484701686 0  219.7060213437997 7.499390927164506 0  224.7059648308544 -0.0006469182337580031 0  224.7060209014587 7.499353041365271 0  229.7059654694724 -0.00068413845247347 0  229.7060207028728 7.499315836336709 0  234.7059661735336 -0.0007207739776684056 0  234.7060206815969 7.499279212129609 0  239.7059669052472 -0.0007569103610580358 0  239.7060207859106 7.499243084322575 0  244.7059676358383 -0.000792620535103719 0  244.7060209753703 7.499207380748213 0  249.7059683432878 -0.0008279674778275396 0  249.7060212182622 7.499172038965379 0  254.7059690107459 -0.0008630062760012064 0  254.7060214897184 7.499137004281303 0  259.7059696254072 -0.0008977857513876239 0  259.706021770313 7.499102228181305 0  264.7059701777322 -0.0009323497639664696 0  264.706022045028 7.499067667065228 0  269.7059706609302 -0.0009667382681484664 0  269.7060223024944 7.499033281222083 0  274.705971070677 -0.001000988166297733 0  274.7060225344435 7.498999034002399 0  279.7059714050436 -0.001035133971542151 0  279.7060227353309 7.498964891175375 0  284.7059716646518 -0.001069208249704716 0  284.7060229020741 7.498930820490849 0  289.7059718530646 -0.001103241743009289 0  289.7060230338857 7.498896791511221 0  294.7059719774347 -0.001137262957367397 0  294.7060231321443 7.498862775843276 0  299.7059720493586 -0.001171296762126015 0  299.7060232002812 7.498828747992585 0  304.7059720857249 -0.00120536107976779 0  304.7060232437314 7.498794687179359 0  309.7059721088487 -0.001239459748225206 0  309.7060232702764 7.49876058055179 0  4.70608978228312 15.0007079735514 0  -0.2939102457429342 15.00073923220051 0  9.706089835240906 15.00067661684078 0  14.70608992650103 15.00064516072617 0  19.70609006599079 15.00061360842989 0  24.70609026243816 15.00058196829893 0  29.70609052431724 15.00055025322222 0  34.70609086016815 15.00051847987809 0  39.70609127865433 15.00048666818559 0  44.70609178852024 15.00045484106537 0  49.70609239851099 15.00042302452171 0  54.70609311726368 15.00039124803486 0  59.70609395315682 15.0003595452616 0  64.70609491409088 15.00032795506144 0  69.70609600716125 15.00029652289169 0  74.70609723818011 15.00026530264527 0  79.70609861098497 15.00023435904095 0  84.70610012647035 15.00020377071893 0  89.70610178126196 15.00017363424597 0  94.70610356596484 15.00014406928956 0  99.70610546294733 15.00011522526983 0  104.7061074437334 15.00008728980867 0  109.7061094663168 15.00006049919296 0  114.7061114732292 15.00003515068769 0  119.7061133921918 15.00001161551839 0  124.7061151429802 14.9999903489526 0  129.7061166571312 14.99997188862566 0  134.7061179214159 14.99995682089775 0  139.7061190602559 14.99994567047625 0  144.706120469144 14.99993861162571 0  149.706122971192 14.99993474112615 0  164.7061266932422 14.99988556617379 0  159.7061297759828 14.99993139951602 0  169.7061205600722 14.99983523075742 0  174.706113171635 14.99978397674843 0  179.7061058514069 14.99973374131311 0  184.7060992573392 14.99968526677941 0  189.7060936273243 14.99963870493344 0  194.7060889789839 14.99959395496718 0  199.7060852290003 14.99955082594522 0  204.7060822571619 14.99950910949352 0  209.7060799381798 14.99946860960099 0  214.7060781559988 14.99942915271435 0  219.7060768090788 14.99939058922065 0  224.7060758112825 14.99935279150583 0  229.7060750908104 14.9993156509378 0  234.7060745884272 14.99927907477682 0  239.706074255563 14.99924298339254 0  244.7060740525519 14.99920730789009 0  249.7060739471074 14.99917198813316 0  254.7060739130428 14.99913697111192 0  259.7060739292221 14.99910220959713 0  264.7060739787067 14.99906766102737 0  269.7060740480691 14.9990332865883 0  274.7060741268314 14.99899905045601 0  279.7060742070043 14.99896491918946 0  284.7060742827035 14.99893086127055 0  289.7060743498138 14.9988968467972 0  294.7060744057233 14.99886284732613 0  299.7060744491628 14.99882883580172 0  304.7060744803015 14.99879478630488 0  309.706074501384 14.99876067276491 0  4.706136509141118 22.50070817800366 0  -0.293863519255824 22.50073936221732 0  9.706136555611536 22.50067685287721 0  14.70613663102983 22.50064540539751 0  19.70613674221187 22.50061385131364 0  24.70613689375702 22.50058220633608 0  29.70613708915158 22.50055048744666 0  34.70613733131588 22.50051871346854 0  39.70613762279557 22.50048690535372 0  44.70613796573939 22.50045508644055 0  49.70613836174924 22.50042328281177 0  54.70613881164173 22.50039152382069 0  59.70613931513483 22.50035984282828 0  64.70613987045608 22.50032827818861 0  69.70614047385919 22.50029687452402 0  74.70614111903519 22.50026568434277 0  79.70614179640633 22.50023477006216 0  84.70614249230684 22.50020420650862 0  89.70614318808569 22.50017408396213 0  94.70614385922322 22.50014451178537 0  99.70614447466079 22.50011562259607 0  104.7061449967152 22.50008757675851 0  109.7061453822335 22.50006056659266 0  114.7061455860589 22.50003481896866 0  119.7061455684358 22.5000105936012 0  124.7061453085867 22.49998817195709 0  129.7061448269661 22.49996782762922 0  134.7061442176247 22.49994976265462 0  139.7061436873064 22.49993398563021 0  144.7061435843191 22.49992010094452 0  149.7061443692667 22.49990699917462 0  164.7061538016034 22.49985406878599 0  159.7061500387317 22.49989162832882 0  169.7061546303619 22.49981187496869 0  174.7061533066057 22.49976730425724 0  179.7061506948748 22.4997220158355 0  184.7061474973809 22.49967703216216 0  189.7061441868429 22.49963288620274 0  194.7061410422204 22.49958980092913 0  199.7061382063843 22.4995478238929 0  204.7061357357676 22.49950691214667 0  209.7061336359526 22.49946698136812 0  214.706131884987 22.49942793262255 0  219.7061304477948 22.49938966610222 0  224.7061292846668 22.49935208760946 0  229.7061283560016 22.49931511114531 0  234.7061276247673 22.49927865949319 0  239.7061270576202 22.49924266383197 0  244.7061266252597 22.49920706292736 0  249.7061263023693 22.49917180218563 0  254.7061260673529 22.49913683270784 0  259.7061259019757 22.49910211040822 0  264.7061257909833 22.49906759522032 0  269.7061257217203 22.49903325039678 0  274.7061256837735 22.49899904189976 0  279.7061256686326 22.49896493787353 0  284.7061256693816 22.49893090818364 0  289.7061256804196 22.49889692398862 0  294.7061256972412 22.498862
[...]
<PointData  Scalars="p"> 
<DataArray  type="Float64"  Name="p"  format="ascii">1.0000000000000001e-01  1.0000000000000003e-01  1.0000258761167519e-01  1.0000000000000003e-01  1.0000000000000003e-01  1.0000370450905538e-01  1.0000000000000003e-01  1.0000559154344776e-01  1.0000000000000003e-01  1.0000685831101873e-01  1.0000000000000003e-01  1.0000827571560110e-01  1.0000000000000003e-01  1.0001010242588119e-01  1.0000000000000003e-01  1.0001128360823452e-01  1.0000000000000003e-01  1.0001253895645983e-01  1.0000000000000003e-01  1.0001455348116825e-01  1.0000000000000003e-01  1.0001579777178191e-01  1.0000000000000003e-01  1.0001899369631334e-01  1.0000000000000003e-01  1.0002237562664484e-01  1.0000000000000003e-01  1.0002488694410891e-01  1.0000000000000003e-01  1.0002734263505431e-01  1.0000000000000003e-01  1.0003093009290674e-01  1.0000000000000003e-01  1.0003271135334217e-01  1.0000000000000003e-01  1.0003487937420506e-01  1.0000000000000003e-01  1.0003839642382549e-01  1.0000000000000003e-01  1.0003902731657942e-01  1.0000000000000003e-01  1.0004157735554356e-01  1.0000000000000003e-01  1.0004283035604138e-01  1.0000000000000003e-01  1.0004519055599467e-01  1.0000000000000003e-01  1.0004266906940226e-01  1.0000000000000003e-01  1.0005003551779716e-01  1.0000000000000003e-01  1.0003998233964667e-01  1.0000000000000003e-01  1.0005578204345451e-01  1.0000000000000003e-01  1.0003375220170778e-01  1.0000000000000003e-01  1.0006529424924844e-01  1.0000000000000003e-01  1.0002385784682893e-01  1.0000000000000001e-01  1.0008442519922306e-01  1.0000000000000001e-01  1.0000000000000003e-01  9.9898410815559516e-02  9.9828270424329249e-02  1.0000000000000003e-01  9.9955295709986486e-02  1.0000000000000003e-01  9.9917108645291505e-02  1.0000000000000003e-01  9.9934426411070545e-02  1.0000000000000003e-01  9.9927544211519934e-02  1.0000000000000003e-01  9.9931599750216815e-02  1.0000000000000003e-01  9.9927617198230137e-02  1.0000000000000003e-01  9.9930964608060641e-02  1.0000000000000003e-01  9.9929577191908314e-02  1.0000000000000003e-01  9.9930184789576562e-02  1.0000000000000003e-01  9.9930901794924740e-02  1.0000000000000003e-01  9.9931495646271393e-02  1.0000000000000003e-01  9.9931762757600809e-02  1.0000000000000003e-01  9.9932876394638145e-02  1.0000000000000003e-01  9.9933431248231730e-02  1.0000000000000003e-01  9.9934065971321151e-02  1.0000000000000003e-01  9.9934891582455665e-02  1.0000000000000003e-01  9.9935670787749592e-02  1.0000000000000003e-01  9.9936066521969166e-02  1.0000000000000003e-01  9.9937191225584837e-02  1.0000000000000003e-01  9.9937221469710194e-02  1.0000000000000003e-01  9.9938798006406121e-02  1.0000000000000003e-01  9.9937738752302344e-02  1.0000000000000003e-01  9.9941275143146768e-02  1.0000000000000003e-01  9.9936582594275278e-02  1.0000000000000003e-01  9.9946000287644735e-02  1.0000000000000003e-01  9.9931523041879786e-02  1.0000000000000003e-01  9.9956763799135651e-02  1.0000000000000003e-01  9.9913247049178061e-02  1.0000000000000001e-01  1.0000000000000003e-01  1.0000350433248076e-01  1.0000000000000003e-01  1.0000389866887741e-01  1.0000424721426317e-01  1.0000479098059967e-01  1.0000591252277506e-01  1.0000592811374234e-01  1.0000599724288640e-01  1.0000747494023872e-01  1.0000702912849881e-01  1.0000744018330621e-01  1.0000986444530920e-01  1.0001227625736384e-01  1.0001289571228235e-01  1.0001640890505667e-01  1.0001532989741198e-01  1.0001590005480074e-01  1.0001874123970567e-01  1.0001739539265068e-01  1.0001723794294325e-01  1.0002087852533810e-01  1.0001734661235412e-01  1.0001938694600924e-01  1.0001827187521038e-01  1.0002118017592504e-01  1.0001185389819740e-01  1.0002967976647055e-01  9.9999009085666155e-02  1.0004996773053884e-01  9.9972487906058977e-02  1.0008642622858353e-01  1.0005991882417316e-01  9.9712213576090156e-02  9.9931977368251906e-02  9.9983254446251349e-02  9.9976846088576460e-02  9.9981187118607914e-02  9.9970480489895666e-02  9.9979126286235898e-02  9.9973932706476809e-02  9.9973536956143777e-02  9.9974667258057731e-02  9.9974379999548266e-02  9.9973382771748776e-02  9.9974932067432909e-02  9.9974845045653488e-02  9.9974718392240328e-02  9.9975690910717785e-02  9.9975821356294139e-02  9.9975909566923274e-02  9.9976418334043013e-02  9.9976859943942467e-02  9.9976476219564916e-02  9.9977729666110543e-02  9.9976516784956213e-02  9.9978898128114849e-02  9.9975273453295530e-02  9.9982310293473903e-02  9.9969838850886727e-02  9.9991571480603295e-02  9.9957939225014183e-02  1.0000000000000003e-01  1.0000481022771543e-01  1.0000000000000003e-01  1.0000365414741173e-01  1.0000559094640918e-01  1.0000684497890562e-01  1.0000737130787354e-01  1.0000743715068627e-01  1.0000967639389695e-01  1.0000925217496159e-01  1.0000903224212457e-01  1.0001193803395395e-01  1.0001221727824794e-01  1.0001223395937904e-01  1.0002051967361443e-01  1.0001978634657678e-01  1.0002095722239213e-01  1.0002609891444991e-01  1.0002361845719203e-01  1.0002417351593106e-01  1.0002922664573567e-01  1.0002617083254392e-01  1.0002528881782539e-01  1.0003205004436377e-01  1.0002397410941881e-01  1.0002980404365169e-01  1.0002357390787246e-01  1.0003507240964236e-01  1.0000923492897060e-01  1.0005993605738159e-01  9.9969189112259868e-02  1.0013754325311812e-01  1.0006999307737931e-01  9.9696473648279840e-02  9.9859154253504875e-02  9.9966173627429183e-02  9.9964206607895054e-02  9.9939407826963048e-02  9.9964958144330596e-02  9.9950492681092837e-02  9.9950371695811099e-02  9.9952934719822681e-02  9.9951833446894692e-02  9.9949063979823061e-02  9.9952285128382848e-02  9.9951472477948985e-02  9.9950960590849736e-02  9.9952839908807919e-02  9.9953041242205484e-02  9.9952807286777537e-02  9.9954223742263829e-02  9.9954311954698227e-02  9.9954576620875979e-02  9.9955043969857604e-02  9.9955976092727522e-02  9.9954836985055473e-02  9.9957576828897207e-02  9.9954126091318929e-02  9.9960177617134396e-02  9.9950351192368878e-02  9.9969026906386677e-02  9.9933442337912959e-02  1.0000000000000003e-01  1.0000554331402092e-01  1.0000000000000003e-01  1.0000373303557304e-01  1.0000632189359855e-01  1.0000632809382484e-01  1.0000632457463565e-01  1.0000849790699202e-01  1.0000783140872971e-01  1.0000713933238427e-01  1.0000979321947576e-01  1.0000855875992284e-01  1.0000806426801361e-01  1.0001348337918127e-01  1.0001098739347970e-01  1.0001548066338742e-01  1.0002115861206010e-01  1.0001900092332325e-01  1.0001829808940162e-01  1.0002438982317163e-01  1.0001918573272359e-01  1.0001954695344593e-01  1.0002398210156702e-01  1.0002026793752711e-01  1.0001571425441627e-01  1.0002746737416668e-01  1.0000865804389614e-01  1.0003042392142664e-01  9.9996246629347391e-02  1.0005695055907966e-01  9.9948525699924157e-02  1.0014834453271466e-01  1.0008549837792104e-01  9.9636558721660690e-02  9.9897851130349505e-02  9.9997667263396095e-02  9.9919611719074833e-02  9.9998270368939143e-02  9.9963655415172534e-02  9.9968930498583228e-02  9.9969752344691118e-02  9.9969440314620933e-02  9.9963175519497557e-02  9.9968496864241210e-02  9.9966094426220578e-02  9.9964869713497981e-02  9.9967151974390364e-02  9.9967049574894273e-02  9.9966410146821699e-02  9.9968157649195838e-02  9.9968293958357241e-02  9.9967911562660508e-02  9.9969232276855502e-02  9.9968874125141369e-02  9.9969541792561512e-02  9.9968844386114392e-02  9.9971212887691396e-02  9.9967068269985984e-02  9.9974570678566951e-02  9.9962308075584122e-02  9.9982582400250403e-02  9.9949686360262815e-02  1.0000000000000003e-01  1.0000630289375266e-01  1.0000000000000003e-01  1.0000428457581761e-01  1.0000621477957947e-01  1.0000562906332044e-01  1.0000853177406263e-01  1.0000775947197008e-01  1.0000756796561466e-01  1.0001023905605048e-01  1.0000875567313727e-01  1.0000777888101074e-01  1.0001242143291929e-01  1.0001027965120286e-01  1.0001092966723704e-01  1.0001561820304908e-01  1.0001812246124384e-01  1.0001828641428737e-01  1.0002600297236050e-01  1.0002085865214481e-01  1.0001988004586709e-01  1.0002778072323952e-01  1.0001958755120413e-01  1.0002085580822608e-01  1.0002399212390212e-01  1.0002251164164755e-01  1.0000969634510788e-01  1.0003660190308941e-01  9.9990459020298544e-02  1.0006366682003855e-01  9.9937249455133562e-02  1.0017595526887807e-01  1.0014081346032862e-01  9.9580986076234793e-02  9.9878928955407259e-02  9.9973774851629393e-02  9.9941061748720167e-02  9.9957449302063447e-02  9.9962931111621495e-02  9.9963732004043085e-02  9.9968353162371959e-02  9.9954087205088096e-02  9.9964479078671648e-02  9.9959509472261940e-02  9.9957247565707119e-02  9.9960321780366929e-02  9.9959837378352595e-02  9.9958135755241220e-02  9.9960927611296990e-02  9.9960809249838925e-02  9.9960380088010073e-02  9.9961903766377605e-02  9.9962224475805064e-02  9.9961551326231982e-02  9.9963207062214662e-02  9.9962074553123198e-02  9.9963902707526003e-02  9.9961093339983959e-02  9.9966834882235608e-02  9.9956395790639876e-02  9.9975406199603670e-02  9.9941511747288769e-02  1.0000000000000003e-01  1.0000722132103405e-01  1.0000000000000003e-01  1.0000415691056801e-01  1.0000593201461698e-01  1.0000699628818871e-01  1.0000726675314876e-01  1.0000689461270085e-01  1.0000969668451758e-01  1.0000863676805496e-01  1.0000717037824673e-01  1.0001115108260952e-01  1.0000919249510748e-01  1.0000827058812213e-01  1.0001388558423581e-01  1.0001172696821149e-01  1.0000878449019784e-01  1.0002345190693555e-01  1.0001838577970308e-01  1.0001849834402657e-01  1.0002675352264979e-01  1.0001931342196115e-01  1.0001653729166785e-01  1.0002813498637454e-01  1.0001361705323225e-01  1.0001983649289163e-01  1.0001433468515837e-01  1.0002861399627874e-01  9.9983639509957409e-02  1.0007255511807656e-01  9.9915647548431769e-02  1.0020000566407646e-01  1.0015399949337164e-01  9.9579189503656254e-02  9.9855589864501909e-02  1.0001830743504182e-01  9.9943312760217215e-02  9.9955665608551708e-02  9.9951599945198769e-02  9.9987798280138970e-02  9.9953779608203244e-02  9.9977097766453291e-02  9.9965683580384407e-02  9.9963279203658426e-02  9.9966856670015106e-02  9.9966139233189255e-02  9.9962525925917881e-02  9.9966511792944912e-02  9.9965776881247970e-02  9.9964685603214101e-02  9.9967180497690725e-02  9.9967090362289304e-02  9.9966718680593633e-02  9.9967791783571985e-02  9.9968447914563927e-02  9.9966882892909018e-02  9.9969780509474984e-02  9.9965974866018353e-02  9.9972071080119879e-02  9.9961617764891417e-02  9.9980004827354169e-02  9.9948132191926886e-02  1.0000000000000003e-01  1.0000773504008843e-01  1.0000000000000003e-01  1.0000392521424296e-01  1.0000736356044188e-01  1.0000626887230012e-01  1.0000653305103195e-01  1.0000888189165527e-01  1.0000868106443980e-01  1.0000721041047587e-01  1.0001122160750668e-01  1.0000913356565153e-01  1.0000768662263057e-01  1.0001351933966149e-01  1.0001062949818944e-01  1.0000816326791445e-01  1.0001725898666247e-01  1.0001014283931085e-01  1.0001617205205866e-01  1.0002674097515971e-01  1.0001972562968850e-01  1.0001844821533046e-01  1.0002773022336088e-01  1.0001894880648868e-01  1.0001313296808056e-01  1.0003087613534335e-01  1.0000476679041237e-01  1.0002885118306921e-01  9.9990377529555585e-02  1.0006945999237986e-01  9.9904755929351774e-02  1.0022865438388477e-01  1.0015173757678433e-01  9.9550841257562445e-02  9.9874957302295148e-02  1.0001859924310931e-01  9.9926602711019122e-02  9.9975765728468002e-02  9.9955431361176364e-02  9.9942314358977477e-02  9.9982143375630189e-02  9.9963567069251302e-02  9.9964590095208500e-02  9.9965579435385518e-02  9.9966433934101165e-02  9.9959929801369155e-02  9.9965485362301237e-02  9.9963796751328216e-02  9.9962019252502379e-02  9.9964793838251353e-02  9.9964910456795383e-02  9.9963870266928850e-02  9.9966142203705033e-02  9.9965781707372400e-02  9.9965938503802199e-02  9.9965912341435911e-02  9.9967701084720167e-02  9.9964119853648586e-02  9.9970290074093832e-02  9.9960005517132577e-02  9.9977777513699961e-02  9.9946256908670414e-02  1.0000000000000003e-01  1.0000809883722923e-01  1.0000000000000003e-01  1.0000468171090128e-01  1.0000709587069746e-01  1.0000564051586802e-01  1.0000837137184337e-01  1.0000766687682799e-01  1.0000691928676099e-01  1.0001065189869768e-01  1.0000891366198128e-01  1.0000744952069009e-01  1.0001279619129676e-01  1.0001009965392874e-01  1.0000803657831452e-01  1.0001554991139548e-01  1.0000967224428646e-01  1.0000912730638925e-01  1.0001626652526854e-01  1.0001775102698419e-01  1.0001629843140829e-01  1.0003001001533371e-01  1.0001735902612161e-01  1.0001750844117682e-01  1.0002550717249620e-01  1.0001933761041990e-01  1.0000257432414045e-01  1.0004142717142857e-01  9.9977291449209374e-02  1.0007278971050451e-01  9.9902154705749133e-02  1.0024273431704889e-01  1.0018486501830889e-01  9.9518627317424085e-02  9.9867934087159244e-02  1.0000986266811468e-01  9.9949867134853099e-02  9.9983567936003562e-02  9.9944316262942548e-02  9.9966527665632549e-02  9.9953247355056174e-02  9.9974514911042645e-02  9.9965946461647345e-02  9.9974595384942716e-02  9.9960972165466594e-02  9.9970125227984458e-02  9.9966783167806272e-02  9.9964125311990823e-02  9.9967375197740779e-02  9.9967147140291965e-02  9.9965263991481548e-02  9.9968025454161002e-02  9.9968223585307797e-02  9.9967134380028536e-02  9.9969375677637362e-02  9.9968215240750072e-02  9.9969620782535393e-02  9.9967070737159616e-02  9.9972521627256256e-02  9.9962344878542705e-02  9.9979900067980493e-02  9.9949447715640446e-02  1.0000000000000003e-01  1.0000877653402745e-01  1.0000000000000003e-01  1.0000450564032970e-01  1.0000673275935411e-01  1.0000712585000164e-01  1.0000762705896851e-01  1.0000631324248480e-01  1.0000975157011523e-01  1.0000857310885050e-01  1.0000725226889799e-01  1.0001185219454094e-01  1.0001020289231528e-01  1.0000794802231021e-01  1.0001495678839593e-01  1.0001058976902032e-01  1.0000766706599928e-01  1.0001624781183241e-01  1.0001081541703734e-01  1.0000528295497377e-01  1.0002744390169135e-01  1.0001827170941700e-01  1.0001606734833075e-01  1.0003232188080381e-01  1.0001322001871829e-01  1.0001785763265553e-01  1.0001860984994700e-01  1.0002873368692543e-01  9.9974866965378370e-02  1.0008937590774715e-01  9.9884264299968911e-02  1.0025961992464605e-01  1.0019312816383331e-01  9.9519630277263793e-02  9.9850744442662592e-02  1.0003196571396275e-01  9.9948725582161474e-02  9.9971354331051393e-02  9.9964680992435273e-02  9.9967579618516600e-02  9.9948771948069517e-02  9.9955971790416875e-02  9.9982138201002421e-02  9.9957868275282746e-02  9.9974782801011255e-02  9.9967186756283730e-02  9.9964685988613411e-02  9.9967863160427162e-02  9.9967894732927581e-02  9.9964347983545712e-02  9.9968062228567245e-02  9.9967488404837102e-02  9.9966528321683207e-02  9.9968486881934090e-02  9.9969112814738401e-02  9.9967390693886174e-02  9.9970362409422475e-02  9.9967071872510582e-02  9.9971995858237919e-02  9.9962932377486796e-02  9.9979403649518989e-02  9.9949743426493654e-02  1.0000000000000003e-01  1.0000902660056005e-01  1.0000000000000003e-01  1.0000425009332511e-01  1.0000808350716056e-01  1.0000661264287862e-01  1.0000671515034167e-01  1.0000881516100302e-01  1.0000833714746372e-01  1.0000681584500543e-01  1.0001094539827833e-01  1.0000967798320133e-01  1.0000759715878417e-01  1.0001444399251122e-01  1.0001122875515900e-01  1.0000783397963341e-01  1.0001635618510585e-01  1.0001056257342657e-01  1.0000532043366848e-01  1.0001961903995363e-01  1.0000649012989966e-01  1.0001457411431991e-01  1.0002992201350762e-01  1.0001917662470393e-01  1.0001187480888732e-01  1.0003613151816017e-01  1.0000314228422962e-01  1.0002732950320897e-01  9.9992321815828136e-02  1.0007710428817868e-01  9.9877941981953794e-02  1.0028657808461813e-01  1.0018966992880418e-01  9.9511528409575084e-02  9.9863757850264231e-02  1.0003507572242461e-01  9.9936278221035429e-02  9.9990550037137763e-02  9.9967196975616901e-02  9.9962041392581358e-02  9.9963193927782037e-02  9.9964050442704303e-02  9.9946794353351409e-02  9.9983422893515903e-02  9.9966944164294982e-02  9.9969605614614140e-02  9.9969286533863319e-02  9.9971160752804419e-02  9.9965432233971627e-02  9.9970097812918490e-02  9.9969100869807828e-02  9.9967095847641893e-02  9.9969739480324102e-02  9.9969576376043132e-02  9.9969192941455551e-02  9.9969930688966910e-02  9.9971572685988053e-02  9.9968032024352435e-02  9.9973844510368837e-02  9.9964490369414960e-02  9.9980312557006748e-02  9.9951984798288068e-02  1.0000000000000003e-01  1.0000919562213964e-01  1.0000000000000003e-01  1.0000491495300949e-01  1.0000786834685506e-01  1.0000593899128143e-01  1.0000866333311903e-01  1.0000780969021823e-01  1.0000692571630640e-01  1.0001007136120467e-01  1.0000902228951380e-01  1.0000704450655840e-01  1.0001315765918155e-01  1.0001100117763369e-01  1.0000851814371144e-01  1.0001624986694330e-01  1.0001120920533366e-01  1.0000681710777297e-01  1.0001791721335891e-01  1.0000827697340577e-01  1.0000583722989694e-01  1.0001806997331919e-01  1.0001565368278051e-01  1.0001509594827213e-01  1.0003186094259238e-01  1.0001913214514649e-01  1.0000244900214247e-01  1.0004855212793190e-01  9.9975909236076729e-02  1.0007501555758679e-01  9.9895871179096679e-02  1.0027936446293556e-01  1.0020596003241075e-01  9.9499897362156489e-02  9.9863191686475936e-02  1.0002619478916500e-01  9.9950063762211952e-02  9.9992134192289320e-02  9.9956785840749365e-02  9.9976386604891346e-02  9.9968860501628162e-02  9.9955889439996601e-02  9.9962870529240577e-02  9.9957491058509790e-02  9.9975520268827112e-02  9.9968077170068129e-02  9.9976039896189625e-02  9.9965117830699848e-02  9.9972317599431815e-02  9.9970131627331912e-02  9.9967740183133841e-02  9.9970258650002003e-02  9.9970382871902588e-02  9.9968220786768230e-02  9.9971139676900231e-02  9.9970234674416722e-02  9.9971132478902811e-02  9.9969453818259751e-02  9.9974195879477090e-02  9.9965019011891310e-02  9.9980757674727652e-02  9.9953164834854030e-02  1.0000000000000003e-01  1.0000968514339273e-01  1.0000000000000003e-01  1.0000480874694263e-01  1.0000749093376761e-01  1.0000739605359206e-01  1.0000813873658629e-01  1.0000664361792901e-01  1.0000971289041084e-01  1.0000877257637153e-01  1.0000690843650155e-01  1.0001158074039876e-01  1.0001037238437346e-01  1.0000824889500631e-01  1.0001537674169066e-01  1.0001240992688729e-01  1.0000784452704663e-01  1.0001768667162418e-01  1.0001059185671757e-01  1.0000539522111983e-01  1.0001806024817522e-01  1.0000948644520515e-01  9.9999368768407051e-02  1.0003348577101512e-01  1.0001300796527815e-01  1.0001751373943039e-01  1.0002724603562958e-01  1.0002757037750025e-01  9.9974939875502461e-02  1.0009858119878959e-01  9.9879377079926293e-02  1.0027750919561502e-01  1.0020979299454623e-01  9.9515373064335416e-02  9.9853742807208143e-02  1.0003928552964013e-01  9.9951746362272012e-02  9.9982502447122076e-02  9.9969370109902866e-02  9.9979680954757913e-02  9.9960578812383752e-02  9.9971214442830095e-02  9.9965744539120743e-02  9.9956496022596195e-02  9.9958488194606052e-02  9.9983554499151764e-02  9.9963456656310790e-02  9.9977193376246623e-02  9.9971446882720930e-02  9.9969523543540537e-02  9.9971870053394293e-02  9.9972080399727464e-02  9.9969170834352861e-02  9.9971633692395603e-02  9.9971795497853580e-02  9.9969887487232290e-02  9.9973136694865863e-02  9.9970436629558221e-02  9.9974527001830751e-02  9.9966855379238842e-02  9.9981428854392582e-02  9.9954967553805202e-02  1.0000000000000003e-01  1.0000988538042167e-01  1.0000000000000003e-01  1.0000462427364927e-01  1.0000873198871706e-01  1.0000710563490993e-01  1.0000743598976745e-01  1.0000904521503495e-01  1.0000888919000250e-01  1.0000721861377397e-01  1.0001092915267369e-01  1.0000979186019282e-01  1.0000785407064265e-01  1.0001406580895478e-01  1.0001250057676053e-01  1.0000867948720883e-01  1.0001759819362821e-01  1.0001281700664884e-01  1.0000658104747477e-01  1.0001909509761198e-01  1.0001015630139054e-01  1.0000213863203339e-01  1.0002243838745110e-01  1.0000407399779358e-01  1.0000896123380604e-01  1