<?xml version="1.0"?>
<VTKFile type="UnstructuredGrid"  version="0.1"  >
<UnstructuredGrid>
<Piece  NumberOfPoints="1933" NumberOfCells="3640">
<Points>
<DataArray  type="Float64"  NumberOfComponents="3"  format="ascii">0.2940333999798994 -0.001514502301198358 0  5.294033439555782 -0.001480274472732128 0  5.293982095490668 7.498519824203506 0  0.2939820379217022 7.498485566826805 0  10.29403350384082 -0.001446124038061872 0  10.29398219243572 7.498553981037382 0  15.29403363409795 -0.001412055861425435 0  15.2939823457435 7.498588048084677 0  20.29403386770717 -0.001378046184965034 0  20.29398257007841 7.498622054657393 0  25.29403423478407 -0.001344055866997002 0  25.29398287786859 7.49865604189913 0  30.29403475839367 -0.001310036842494559 0  30.29398327882054 7.49869005853006 0  35.29403545572866 -0.001275935160861284 0  35.29398377955619 7.498724158636033 0  40.29403633933378 -0.00124169213088968 0  40.2939843833875 7.498758400850282 0  45.29403741807945 -0.001207244338314736 0  45.29398509011775 7.49879284846461 0  50.29403869781239 -0.001172522924886247 0  50.29398589575895 7.498827570195744 0  55.29404018167911 -0.001137452310829593 0  55.29398679207181 7.498862641470685 0  60.29404187012406 -0.001101948416639327 0  60.29398776584419 7.498898146191868 0  65.29404376054698 -0.001065916352275538 0  65.29398879781155 7.498934179017042 0  70.29404584656004 -0.001029247467230814 0  70.2939898611011 7.498970848253929 0  75.294048116738 -0.0009918155765221428 0  75.29399091903522 7.499008279536429 0  80.29405055266002 -0.0009534720798969839 0  80.29399192206219 7.499046620529036 0  85.2940531259145 -0.0009140395568796491 0  85.29399280348986 7.499086047006275 0  90.29405579350158 -0.000873303225220006 0  90.29399347356537 7.499126770782689 0  95.29405849068752 -0.0008309993619323115 0  95.29399381127524 7.499169050127529 0  100.2940611196616 -0.00078679935856366 0  100.2939936530576 7.499213203471063 0  105.2940635311139 -0.0007402874579635374 0  105.2939927774562 7.499259627336438 0  110.2940654935616 -0.0006909293438185932 0  110.2939908848121 7.499308819337299 0  115.2940666410469 -0.000638027635131226 0  115.2939875718051 7.499361406337687 0  120.294066381945 -0.0005806592374745372 0  120.293982303067 7.499418175456734 0  125.2940637368361 -0.000517589502063093 0  125.2939743885912 7.499480099244986 0  130.2940570455085 -0.0004471628413098551 0  130.2939629914131 7.499548331214771 0  135.2940434304345 -0.0003671904498676442 0  135.2939472262496 7.499624114523942 0  140.2940178031602 -0.0002749327365915998 0  140.2939264904486 7.499708480744205 0  145.2939709986853 -0.0001675593300518848 0  145.2939013480719 7.499801520681802 0  150.2938861653676 -4.463386180424498e-05 0  150.2938757106319 7.499901082580911 0  160.2938926261456 1.011881008024794e-18 0  165.2938557808687 -8.325459166322894e-05 0  165.2938869735401 7.499899570033225 0  160.293892496475 7.499959763838359 0  170.2938478886348 -0.0001372551615408891 0  170.2938810604151 7.499854361733671 0  175.293853124232 -0.0001709205736915537 0  175.2938782495117 7.499824714665 0  180.2938639880889 -0.0001897058335941899 0  180.2938785647951 7.499807954089974 0  185.2938768394801 -0.000197430003940223 0  185.293881217854 7.499801301509092 0  190.2938899186856 -0.0001968465390351871 0  190.2938853849568 7.499802468633209 0  195.2939024025498 -0.0001899549877686216 0  195.2938904084684 7.499809684946226 0  200.2939139371924 -0.0001782176864418137 0  200.29389581595 7.499821606389053 0  205.2939244027847 -0.0001627151676869638 0  205.2939012877776 7.499837215140704 0  210.2939337940623 -0.0001442561786394594 0  210.2939066173714 7.499855736344335 0  215.2939421593665 -0.0001234546933855152 0  215.2939116773428 7.499876574670235 0  220.2939495695628 -0.0001007836685554965 0  220.2939163940359 7.499899267615993 0  225.2939561023277 -7.661273110935783e-05 0  225.293920729461 7.499923451542028 0  230.2939618344056 -5.123485234169868e-05 0  230.2939246688772 7.499948836988835 0  235.2939668380189 -2.488546574615062e-05 0  235.2939282124317 7.499975190639435 0  240.293971179455 2.243635762859322e-06 0  240.2939313696072 7.500002322018374 0  245.2939749188028 2.99940511645769e-05 0  245.293934155598 7.500030073579451 0  250.293978110295 5.823311119661874e-05 0  250.2939365889889 7.500058313240601 0  255.2939808029878 8.684809023761582e-05 0  255.2939386903325 7.500086928713148 0  260.2939830416288 0.0001157418072954878 0  260.2939404813271 7.500115823176387 0  265.2939848676698 0.0001448292975191198 0  265.2939419844194 7.500144911996529 0  270.293986320385 0.0001740353591568734 0  270.2939432226921 7.500174120301407 0  275.2939874381233 0.0002032928850355543 0  275.293944219936 7.500203381316144 0  280.293988259685 0.0002325419912655277 0  280.2939450008275 7.500232635452936 0  285.2939888258292 0.0002617300789601055 0  285.2939455911302 7.500261830242247 0  290.2939891808084 0.0002908131325768234 0  290.2939460178251 7.500290921301318 0  295.2939893737217 0.0003197588035580891 0  295.2939463091126 7.500319874664018 0  300.2939894590575 0.0003485521829787611 0  300.2939464942552 7.500348670935887 0  305.2939894950473 0.0003772056010097674 0  305.293946603545 7.500377311870901 0  310.2939895366924 0.00040577385670434 0  310.2939466694173 7.50040583016529 0  5.293930554820482 14.99852003448271 0  0.293930496750219 14.99848573382445 0  10.29393063743789 14.99855418780984 0  15.29393075589286 14.99858823556993 0  20.29393091538769 14.99862221989472 0  25.29393111813973 14.99865618661593 0  30.29393136423039 14.99869018564184 0  35.29393165154674 14.99872427080061 0  40.29393197538361 14.99875849989856 0  45.29393232790447 14.99879293517142 0  50.29393269750078 14.99882764414093 0  55.29393306802636 14.99886270086265 0  60.29393341785523 14.99889818757059 0  65.293933718704 14.99893419675482 0  70.29393393414767 14.99897083374195 0  75.29393401776314 14.99900821988235 0  80.29393391083437 14.99904649647764 0  85.29393353958572 14.9990858296017 0  90.29393281197851 14.99912641596215 0  95.29393161426827 14.99916848987615 0  100.2939298078368 14.99921233121997 0  105.2939272274518 14.99925827369587 0  110.2939236832395 14.99930671164014 0  115.293918970687 14.99935810129909 0  120.2939128963324 14.99941294798272 0  125.2939053319453 14.99947176196624 0  130.2938963168436 14.99953495054214 0  135.2938862342945 14.99960258708466 0  140.2938760848811 14.99967395531693 0  145.293867840067 14.99974669986767 0  150.2938647032555 14.99981526977103 0  165.2938871521235 14.99985240949576 0  160.293884963728 14.99987913835532 0  170.2938849129144 14.99982797346641 0  175.2938814257356 14.99981010943041 0  180.2938784021858 14.99979990373831 0  185.2938764735596 14.99979689580953 0  190.293875715147 14.999800099846 0  195.2938759670873 14.99980846172485 0  200.293876998564 14.99982103070965 0  205.2938785824888 14.99983700603235 0  210.2938805241913 14.99985573363866 0  215.2938826682749 14.99987668616478 0  220.2938848961175 14.99989943983681 0  225.2938871201136 14.99992365340189 0  230.2938892774287 14.99994905054736 0  235.2938913244057 14.99997540581479 0  240.2938932319496 15.00000253352573 0  245.293894981898 15.00003027914293 0  250.2938965642527 15.00005851254669 0  255.293897975102 15.00008712280241 0  260.2938992150902 15.00011601409608 0  265.2939002882914 15.00014510260075 0  270.2939012013869 15.00017431411284 0  275.2939019630597 15.00020358235828 0  280.2939025835264 15.00023284792196 0  285.2939030742024 15.0002620577948 0  290.2939034474666 15.00029116555331 0  295.293903716663 15.00032013216064 0  300.293903896564 15.00034892725145 0  305.2939040048446 15.00037753040977 0  310.2939040655669 15.00040593110214 0  5.293878898298591 22.49852041782194 0  0.2938788437822009 22.49848612238902 0  10.29387896009589 22.49855453534674 0  15.29387903346115 22.49858853522102 0  20.29387911825234 22.49862247005341 0  25.29387921137046 22.49865639023163 0  30.29387930756317 22.49869034673088 0  35.29387939959964 22.4987243925745 0  40.29387947805453 22.49875858377617 0  45.29387953087589 22.49879298018766 0  50.29387954283295 22.49882764645056 0  55.29387949488299 22.49886265314043 0  60.29387936347392 22.49889807814856 0  65.29387911979305 22.49893400833052 0  70.29387872898519 22.4989705414417 0  75.29387814939722 22.49900778836931 0  80.29387733196121 22.49904587563878 0  85.29387621992738 22.49908494810727 0  90.29387474931553 22.49912517162532 0  95.29387285070315 22.49916673520005 0  100.2938704533462 22.49920985174269 0  105.2938674931836 22.49925475569324 0  110.293863927029 22.49930169446385 0  115.2938597561549 22.4993509084226 0  120.2938550632804 22.49940259065556 0  125.293850066989 22.49945681268973 0  130.2938451951924 22.49951339600862 0  135.2938411711126 22.4995717038715 0  140.2938390854944 22.49963033176358 0  145.2938403889383 22.49968671157961 0  150.2938466731993 22.49973678608828 0  165.2938687646978 22.49979875046515 0  160.2938641782871 22.49980291681649 0  170.2938692791241 22.49979224060422 0  175.2938673208812 22.49978714148403 0  180.2938642899439 22.49978546740091 0  185.2938611223885 22.49978797673129 0  190.2938583300495 22.49979468888121 0  195.2938561311258 22.49980526206877 0  200.2938545689638 22.4998192180851 0  205.29385359534 22.49983605984943 0  210.2938531220075 22.49985532560688 0  215.2938530498833 22.49987660909312 0  220.2938532841204 22.49989956281591 0  225.293853740883 22.49992389377027 0  230.2938543495316 22.49994935637201 0  235.2938550524592 22.49997574491632 0  240.2938558038445 22.50000288657632 0  245.2938565680247 22.5000306353078 0  250.293857317835 22.50005886672248 0  255.2938580330883 22.5000874738621 0  260.293858699239 22.50011636376407 0  265.2938593062562 22.50014545470492 0  270.2938598476746 22.50017467402243 0  275.2938603198155 22.50020395643207 0  280.2938607211608 22.50023324276348 0  285.2938610518999 22.50026247903358 0  290.2938613137001 22.5002916157306 0  295.2938615098334 22.50032060707901 0  300.2938616
[...]
<PointData  Scalars="p"> 
<DataArray  type="Float64"  Name="p"  format="ascii">1.0000000000000001e-01  1.0000000000000003e-01  9.9997412519628834e-02  1.0000000000000003e-01  1.0000000000000003e-01  9.9996295495705836e-02  1.0000000000000003e-01  9.9994408452534961e-02  1.0000000000000003e-01  9.9993141598155255e-02  1.0000000000000003e-01  9.9991724111566954e-02  1.0000000000000003e-01  9.9989897398826716e-02  1.0000000000000003e-01  9.9988716097711053e-02  1.0000000000000003e-01  9.9987460640838188e-02  1.0000000000000003e-01  9.9985446097599059e-02  1.0000000000000003e-01  9.9984201646634921e-02  1.0000000000000003e-01  9.9981005988186558e-02  1.0000000000000003e-01  9.9977624130690265e-02  1.0000000000000003e-01  9.9975112843079292e-02  1.0000000000000003e-01  9.9972657088763323e-02  1.0000000000000003e-01  9.9969069841038122e-02  1.0000000000000003e-01  9.9967288468400320e-02  1.0000000000000003e-01  9.9965120476156438e-02  1.0000000000000003e-01  9.9961603637768279e-02  1.0000000000000003e-01  9.9960972653055258e-02  1.0000000000000003e-01  9.9958422661665838e-02  1.0000000000000003e-01  9.9957169895348710e-02  1.0000000000000003e-01  9.9954809621965998e-02  1.0000000000000003e-01  9.9957331156293641e-02  1.0000000000000003e-01  9.9949964953545398e-02  1.0000000000000003e-01  9.9960018032851858e-02  1.0000000000000003e-01  9.9944218466634815e-02  1.0000000000000003e-01  9.9966248274940689e-02  1.0000000000000003e-01  9.9934706463954984e-02  1.0000000000000003e-01  9.9976142343220983e-02  1.0000000000000001e-01  9.9915575661672987e-02  1.0000000000000001e-01  1.0000000000000003e-01  1.0010158820657040e-01  1.0017172901651890e-01  1.0000000000000003e-01  1.0004470328055558e-01  1.0000000000000003e-01  1.0008289036321233e-01  1.0000000000000003e-01  1.0006557240625406e-01  1.0000000000000003e-01  1.0007245458136871e-01  1.0000000000000003e-01  1.0006839900471842e-01  1.0000000000000003e-01  1.0007238154328692e-01  1.0000000000000003e-01  1.0006903407014676e-01  1.0000000000000003e-01  1.0007042151062619e-01  1.0000000000000003e-01  1.0006981387607791e-01  1.0000000000000003e-01  1.0006909684581225e-01  1.0000000000000003e-01  1.0006850300184268e-01  1.0000000000000003e-01  1.0006823587493843e-01  1.0000000000000003e-01  1.0006712221810811e-01  1.0000000000000003e-01  1.0006656736682333e-01  1.0000000000000003e-01  1.0006593262948080e-01  1.0000000000000003e-01  1.0006510700169614e-01  1.0000000000000003e-01  1.0006432779896869e-01  1.0000000000000003e-01  1.0006393204972626e-01  1.0000000000000003e-01  1.0006280734702552e-01  1.0000000000000003e-01  1.0006277709043691e-01  1.0000000000000003e-01  1.0006120057574940e-01  1.0000000000000003e-01  1.0006225978939941e-01  1.0000000000000003e-01  1.0005872347649003e-01  1.0000000000000003e-01  1.0006341590597340e-01  1.0000000000000003e-01  1.0005399843278780e-01  1.0000000000000003e-01  1.0006847533120550e-01  1.0000000000000003e-01  1.0004323517513236e-01  1.0000000000000003e-01  1.0008675088456062e-01  1.0000000000000001e-01  1.0000000000000003e-01  9.9996495989484416e-02  1.0000000000000003e-01  9.9996101510636079e-02  9.9995752937601351e-02  9.9995209103086347e-02  9.9994087628687028e-02  9.9994071928172973e-02  9.9994002684747563e-02  9.9992525101362847e-02  9.9992970697043923e-02  9.9992559548315305e-02  9.9990135465932467e-02  9.9987724083751950e-02  9.9987104329862381e-02  9.9983591533764488e-02  9.9984670153786342e-02  9.9984099947209443e-02  9.9981259125109329e-02  9.9982604660570559e-02  9.9982762060620761e-02  9.9979121948516325e-02  9.9982653469177549e-02  9.9980613123224829e-02  9.9981728577657039e-02  9.9978819896942739e-02  9.9988146104523334e-02  9.9970320393413747e-02  1.0000099088947134e-01  9.9950031809172238e-02  1.0002751206610891e-01  9.9913573215553345e-02  9.9940079604971852e-02  1.0028778564464796e-01  1.0006802282473343e-01  1.0001674500591992e-01  1.0002315339313228e-01  1.0001881233880891e-01  1.0002951896375327e-01  1.0002087304578584e-01  1.0002606673720672e-01  1.0002646245704624e-01  1.0002533212682524e-01  1.0002561944055680e-01  1.0002661666653016e-01  1.0002506735604534e-01  1.0002515442732800e-01  1.0002528106914288e-01  1.0002430853430649e-01  1.0002417811247259e-01  1.0002408989227456e-01  1.0002358111127645e-01  1.0002313952416936e-01  1.0002352323241712e-01  1.0002226980449754e-01  1.0002348266468912e-01  1.0002110137782641e-01  1.0002472596287516e-01  1.0001768929612599e-01  1.0003016044158437e-01  1.0000842832876713e-01  1.0004205978141616e-01  1.0000000000000003e-01  9.9995190322654706e-02  1.0000000000000003e-01  9.9996346058452965e-02  9.9994409293196349e-02  9.9993155301378062e-02  9.9992628889357157e-02  9.9992562887048025e-02  9.9990323839174888e-02  9.9990747841411293e-02  9.9990967539807851e-02  9.9988061993723468e-02  9.9987782665006075e-02  9.9987765565747705e-02  9.9979481250639463e-02  9.9980213954146357e-02  9.9979042990676684e-02  9.9973901826222830e-02  9.9976381746811463e-02  9.9975826560042683e-02  9.9970774212406410e-02  9.9973829393819741e-02  9.9974711325828830e-02  9.9967950938413999e-02  9.9976026112365876e-02  9.9970196167586942e-02  9.9976426856857745e-02  9.9964927750569255e-02  9.9990765206296600e-02  9.9940064097762377e-02  1.0003081160331913e-01  9.9862456209089859e-02  9.9930005836331159e-02  1.0030352204107647e-01  1.0014084496764300e-01  1.0003382525114898e-01  1.0003579261542743e-01  1.0006059116985604e-01  1.0003504054870428e-01  1.0004950622006929e-01  1.0004962710363134e-01  1.0004706399751637e-01  1.0004816540266627e-01  1.0005093484440392e-01  1.0004771362307607e-01  1.0004852638440574e-01  1.0004903826182422e-01  1.0004715891565530e-01  1.0004695765201915e-01  1.0004719158722353e-01  1.0004577511229903e-01  1.0004568693719726e-01  1.0004542226629944e-01  1.0004495490125445e-01  1.0004402282564925e-01  1.0004516190402733e-01  1.0004242211989937e-01  1.0004587279181351e-01  1.0003982141678554e-01  1.0004964761025949e-01  1.0003097235178693e-01  1.0006655607835037e-01  1.0000000000000003e-01  9.9994457406711174e-02  1.0000000000000003e-01  9.9996267228283101e-02  9.9993678629456087e-02  9.9993672262559591e-02  9.9993675675619412e-02  9.9991502577642541e-02  9.9992168891965327e-02  9.9992860757042848e-02  9.9990207185074759e-02  9.9991441346427068e-02  9.9991935601593446e-02  9.9986517268140576e-02  9.9989012453823231e-02  9.9984520115498646e-02  9.9978842588053424e-02  9.9980999766650869e-02  9.9981702257398830e-02  9.9975611421802182e-02  9.9980814703156451e-02  9.9980453404060518e-02  9.9976019199183586e-02  9.9979732553411485e-02  9.9984286029560207e-02  9.9972533940184738e-02  9.9991342192173482e-02  9.9969576339971389e-02  1.0000375415783581e-01  9.9943049441688206e-02  1.0005147496486046e-01  9.9851654867501943e-02  9.9914502169844030e-02  1.0036343343956769e-01  1.0010214676032635e-01  1.0000233154317112e-01  1.0008038777458943e-01  1.0000172833051092e-01  1.0003634370247366e-01  1.0003106839358947e-01  1.0003024640977115e-01  1.0003055863493687e-01  1.0003682341835386e-01  1.0003150198023365e-01  1.0003390459001357e-01  1.0003512926442978e-01  1.0003284697326069e-01  1.0003294950105526e-01  1.0003358892511838e-01  1.0003184140398040e-01  1.0003170516850873e-01  1.0003208755119790e-01  1.0003076683559527e-01  1.0003112502440417e-01  1.0003045737829852e-01  1.0003115476091791e-01  1.0002878635151781e-01  1.0003293088200987e-01  1.0002542866283479e-01  1.0003769099590873e-01  1.0001741716893782e-01  1.0005031243917195e-01  1.0000000000000003e-01  9.9993697987890096e-02  1.0000000000000003e-01  9.9995715866288165e-02  9.9993785825785858e-02  9.9994371297088561e-02  9.9991468867511354e-02  9.9992240977856250e-02  9.9992432336581297e-02  9.9989761597657462e-02  9.9991244664275059e-02  9.9992221175465912e-02  9.9987579305538504e-02  9.9989720564880105e-02  9.9989070546357459e-02  9.9984382290676160e-02  9.9981878808614158e-02  9.9981714296929314e-02  9.9973998837898620e-02  9.9979142106056684e-02  9.9980120528466193e-02  9.9972221033152953e-02  9.9980413118300054e-02  9.9979144779058837e-02  9.9976009613109360e-02  9.9977489113458232e-02  9.9990303923319743e-02  9.9963399856810520e-02  1.0000954115793988e-01  9.9936333754982107e-02  1.0006275167809425e-01  9.9824044994662492e-02  9.9859188097665350e-02  1.0041900163313512e-01  1.0012106796721737e-01  1.0002622411968255e-01  1.0005893630125307e-01  1.0004254960466825e-01  1.0003706768426021e-01  1.0003626638416827e-01  1.0003164547504174e-01  1.0004591140014414e-01  1.0003551936511294e-01  1.0004048922185481e-01  1.0004275109199329e-01  1.0003967681616120e-01  1.0004016136207396e-01  1.0004186297862280e-01  1.0003907111488983e-01  1.0003918960078552e-01  1.0003961876063318e-01  1.0003809506731504e-01  1.0003777443931812e-01  1.0003844757773125e-01  1.0003679186428839e-01  1.0003792439876111e-01  1.0003609630569107e-01  1.0003890561244767e-01  1.0003316424854045e-01  1.0004360311041566e-01  1.0002459317598641e-01  1.0005848684515839e-01  1.0000000000000003e-01  9.9992779765523732e-02  1.0000000000000003e-01  9.9995843572487836e-02  9.9994068639122413e-02  9.9993004409972996e-02  9.9992733893008307e-02  9.9993105816975777e-02  9.9990304138858871e-02  9.9991363835363598e-02  9.9992829916188658e-02  9.9988849794030513e-02  9.9990808037336135e-02  9.9991729709932961e-02  9.9986115432751807e-02  9.9988273690656632e-02  9.9991215174164663e-02  9.9976550629355537e-02  9.9981615416443959e-02  9.9981502684154774e-02  9.9973248716036953e-02  9.9980687582607863e-02  9.9983463392851551e-02  9.9971867424888367e-02  9.9986383718738275e-02  9.9980164314740563e-02  9.9985667277496693e-02  9.9971387110661294e-02  1.0001636038410899e-01  9.9927447453358242e-02  1.0008435218461230e-01  9.9799996106841954e-02  9.9846004607969011e-02  1.0042079238259359e-01  1.0014440590177148e-01  9.9981691269432751e-02  1.0005668526311630e-01  1.0004433285533289e-01  1.0004839841632665e-01  1.0001220038849494e-01  1.0004621899673807e-01  1.0002290050372686e-01  1.0003431506806061e-01  1.0003671937751343e-01  1.0003314180615815e-01  1.0003385949158600e-01  1.0003747277721345e-01  1.0003348682100910e-01  1.0003422192716427e-01  1.0003531321796720e-01  1.0003281831365707e-01  1.0003290857818747e-01  1.0003328026185954e-01  1.0003220714620337e-01  1.0003155111563208e-01  1.0003311611617222e-01  1.0003021856880004e-01  1.0003402418080977e-01  1.0002792814131398e-01  1.0003838122381631e-01  1.0001999464574876e-01  1.0005186654498018e-01  1.0000000000000003e-01  9.9992266182457185e-02  1.0000000000000003e-01  9.9996075285062894e-02  9.9992637408992072e-02  9.9993731836332270e-02  9.9993467583302409e-02  9.9991119024376046e-02  9.9991319702773473e-02  9.9992790075187077e-02  9.9988779456133922e-02  9.9990867133869274e-02  9.9992313823592305e-02  9.9986481971783836e-02  9.9989371313936162e-02  9.9991836944403500e-02  9.9982742711450981e-02  9.9989857201955065e-02  9.9983829600539878e-02  9.9973261762255877e-02  9.9980275954939121e-02  9.9981552863154216e-02  9.9972272570007362e-02  9.9981052420256969e-02  9.9986867856574832e-02  9.9969126867268304e-02  9.9995233913779333e-02  9.9971150142969034e-02  1.0000962402907382e-01  9.9930542336144526e-02  1.0009524270395458e-01  9.9771351108201567e-02  9.9848268777166016e-02  1.0044913588836570e-01  1.0012503628655407e-01  9.9981400343108998e-02  1.0007339480812734e-01  1.0002423210798633e-01  1.0004456671248864e-01  1.0005768414570314e-01  1.0001785471750964e-01  1.0003643139923155e-01  1.0003540828554064e-01  1.0003441876144813e-01  1.0003356458178243e-01  1.0004006869557407e-01  1.0003451303544314e-01  1.0003620188705473e-01  1.0003797933590584e-01  1.0003520472338405e-01  1.0003508830778628e-01  1.0003612850603917e-01  1.0003385657815320e-01  1.0003421718011470e-01  1.0003406040686072e-01  1.0003408655465069e-01  1.0003229793509789e-01  1.0003587910592734e-01  1.0002970905492591e-01  1.0003999341658962e-01  1.0002222188561451e-01  1.0005374176117444e-01  1.0000000000000003e-01  9.9991902500401089e-02  1.0000000000000003e-01  9.9995318955663978e-02  9.9992905138226881e-02  9.9994360168684349e-02  9.9991629683180761e-02  9.9992333989622345e-02  9.9993081377177426e-02  9.9989349255799720e-02  9.9991087198099363e-02  9.9992551048742592e-02  9.9987205239222526e-02  9.9989901343900581e-02  9.9991964012010034e-02  9.9984451861838589e-02  9.9990328447586874e-02  9.9990873351476037e-02  9.9983734736323701e-02  9.9982251291800633e-02  9.9983703037466065e-02  9.9969993526984172e-02  9.9982642493457147e-02  9.9982492878715815e-02  9.9974496051793538e-02  9.9980663949745793e-02  9.9997426255392721e-02  9.9958576748872319e-02  1.0002270845828383e-01  9.9927213246198854e-02  1.0009784466873002e-01  9.9757272796980448e-02  9.9815142975255358e-02  1.0048134406198111e-01  1.0013205875223655e-01  9.9990137343138039e-02  1.0005012931560053e-01  1.0001643045798532e-01  1.0005568156959550e-01  1.0003346992203234e-01  1.0004675104355329e-01  1.0002548346572936e-01  1.0003405159387273e-01  1.0002540303511943e-01  1.0003902622085875e-01  1.0002987301013376e-01  1.0003321539359576e-01  1.0003587321097293e-01  1.0003262326580759e-01  1.0003285150583120e-01  1.0003473465768177e-01  1.0003197321520625e-01  1.0003177526264743e-01  1.0003286447553450e-01  1.0003062320501506e-01  1.0003178371867169e-01  1.0003037824005907e-01  1.0003292822956969e-01  1.0002747754750486e-01  1.0003765408135162e-01  1.0002009935621504e-01  1.0005055101133598e-01  1.0000000000000003e-01  9.9991224966263587e-02  1.0000000000000003e-01  9.9995495040994475e-02  9.9993268248980596e-02  9.9992875150817617e-02  9.9992373978980739e-02  9.9993687520276486e-02  9.9990249672344808e-02  9.9991427902995145e-02  9.9992748416122365e-02  9.9988149206380564e-02  9.9989798262926657e-02  9.9992052742371024e-02  9.9985045093433741e-02  9.9989411393691191e-02  9.9992333622709526e-02  9.9983754106108352e-02  9.9989185807367820e-02  9.9994716734845238e-02  9.9972560362231136e-02  9.9981730390602014e-02  9.9983934420207227e-02  9.9967682161521895e-02  9.9986781523613663e-02  9.9982143881549135e-02  9.9981393598295457e-02  9.9971268579021555e-02  1.0002513248888381e-01  9.9910630418310137e-02  1.0011573232106924e-01  9.9740389795948667e-02  9.9806883414798278e-02  1.0048033431275373e-01  1.0014924675777566e-01  9.9968034004248196e-02  1.0005127109815840e-01  1.0002864401094652e-01  1.0003531606641787e-01  1.0003241842038559e-01  1.0005122585651761e-01  1.0004402605198449e-01  1.0001786020787908e-01  1.0004212999229251e-01  1.0002521522005776e-01  1.0003281167877005e-01  1.0003531239170955e-01  1.0003213511951453e-01  1.0003210383834785e-01  1.0003565055881504e-01  1.0003193622665567e-01  1.0003251027419360e-01  1.0003347040243829e-01  1.0003151185027051e-01  1.0003088609414361e-01  1.0003260820252365e-01  1.0002963655002922e-01  1.0003292710249782e-01  1.0002800327496347e-01  1.0003706655018604e-01  1.0002059575549335e-01  1.0005025528063546e-01  1.0000000000000003e-01  9.9990974993437856e-02  1.0000000000000003e-01  9.9995750578009621e-02  9.9991917775573327e-02  9.9993388341007974e-02  9.9993285815409921e-02  9.9991186094327930e-02  9.9991664005566180e-02  9.9993185004224633e-02  9.9989056055649561e-02  9.9990323192629793e-02  9.9992403693330664e-02  9.9985557937626549e-02  9.9988772676783286e-02  9.9992166912212591e-02  9.9983646059644729e-02  9.9989438819400547e-02  9.9994679977403703e-02  9.9980383844776782e-02  9.9993510083580636e-02  9.9985428423666700e-02  9.9970082430924395e-02  9.9980825897840964e-02  9.9988126722504941e-02  9.9963873362787753e-02  9.9996858856142373e-02  9.9972672812196572e-02  1.0000768063438395e-01  9.9922900644315499e-02  1.0012205325263988e-01  9.9713437045437781e-02  9.9810344187192035e-02  1.0048843167627147e-01  1.0013623088718421e-01  9.9964925527152498e-02  1.0006371786413995e-01  1.0000944764854337e-01  1.0003280064192255e-01  1.0003795650685925e-01  1.0003680330634014e-01  1.0003594753115697e-01  1.0005320381498260e-01  1.0001657506551159e-01  1.0003305421038441e-01  1.0003039267137376e-01  1.0003071159863876e-01  1.0002883773986446e-01  1.0003456623186550e-01  1.0002990056782053e-01  1.0003089777008256e-01  1.0003290272783792e-01  1.0003025909523723e-01  1.0003042242614744e-01  1.0003080590592828e-01  1.0003006816467336e-01  1.0002842633625227e-01  1.0003196694190863e-01  1.0002615461508627e-01  1.0003550859650247e-01  1.0001968685119640e-01  1.0004801392993694e-01  1.0000000000000003e-01  9.9990806040517369e-02  1.0000000000000003e-01  9.9995085850019955e-02  9.9992132948392667e-02  9.9994061926909197e-02  9.9991338003711253e-02  9.9992191487095788e-02  9.9993075287706762e-02  9.9989930120691184e-02  9.9990978987232762e-02  9.9992956400085820e-02  9.9986844170179959e-02  9.9989000324529190e-02  9.9991482942928131e-02  9.9983752469890455e-02  9.9988792402108825e-02  9.9993183790140869e-02  9.9982085561233017e-02  9.9991724152734246e-02  9.9994163762199578e-02  9.9981932259594425e-02  9.9984349573796830e-02  9.9984906284081326e-02  9.9968144345745538e-02  9.9980870323164633e-02  9.9997552112292554e-02  9.9951454079638055e-02  1.0002409043996033e-01  9.9924989659758601e-02  1.0010412639787768e-01  9.9720651068228264e-02  9.9794055675194407e-02  1.0050005700590965e-01  1.0013679677645695e-01  9.9973806891121245e-02  1.0004993099652734e-01  1.0000786447147550e-01  1.0004321142861301e-01  1.0002361066878097e-01  1.0003113734016479e-01  1.0004410836375725e-01  1.0003712686024341e-01  1.0004250724118724e-01  1.0002447800761165e-01  1.0003192082245432e-01  1.0002395852201131e-01  1.0003488052782070e-01  1.0002768065093358e-01  1.0002986695167417e-01  1.0003225835202507e-01  1.0002973983621424e-01  1.0002961579367271e-01  1.0003177787953892e-01  1.0002885906394909e-01  1.0002976422512885e-01  1.0002886649582546e-01  1.0003054511270075e-01  1.0002580327563218e-01  1.0003497993999623e-01  1.0001924171652606e-01  1.0004683389622662e-01  1.0000000000000003e-01  9.9990316634299456e-02  1.0000000000000003e-01  9.9995192059772739e-02  9.9992510332913551e-02  9.9992605132719195e-02  9.9991862569682607e-02  9.9993357418375242e-02  9.9990288627681320e-02  9.9991228787370920e-02  9.9993092598185201e-02  9.9988420998561187e-02  9.9989629166539154e-02  9.9991752234604978e-02  9.9984625530868718e-02  9.9987591907651427e-02  9.9992156606787452e-02  9.9982316115181880e-02  9.9989409873293897e-02  9.9994605762427177e-02  9.9981942686949224e-02  9.9990515406810296e-02  1.0000063079988415e-01  9.9966520572156367e-02  9.9986994665932458e-02  9.9982489010582279e-02  9.9972759261524172e-02  9.9972432893251639e-02  1.0002505935525315e-01  9.9901428779681112e-02  1.0012061678707634e-01  9.9722508137547239e-02  9.9790226878529564e-02  1.0048457498240439e-01  1.0014624401390988e-01  9.9960715722816687e-02  1.0004824914864717e-01  1.0001749609289026e-01  1.0003062622549769e-01  1.0002031714817344e-01  1.0003941879955207e-01  1.0002878285502020e-01  1.0003425345848743e-01  1.0004350182420739e-01  1.0004150961214764e-01  1.0001644397317644e-01  1.0003654164081062e-01  1.0002280474118416e-01  1.0002855164859623e-01  1.0003047492911481e-01  1.0002812834473154e-01  1.0002791827269897e-01  1.0003082780794743e-01  1.0002836486224786e-01  1.0002820328738282e-01  1.0003011133812428e-01  1.0002686221497499e-01  1.0002956236193690e-01  1.0002547213625536e-01  1.0003314356648141e-01  1.0001857055805949e-01  1.0004503118738697e-01  1.0000000000000003e-01  9.9990116446644017e-02  1.0000000000000003e-01  9.9995376505029862e-02  9.9991269491259319e-02  9.9992895521535410e-02  9.9992565218943869e-02  9.9990956231588032e-02  9.9991112237259192e-02  9.9992782537821581e-02  9.9989072576298355e-02  9.9990209682381148e-02  9.9992147144596741e-02  9.9985936364178893e-02  9.9987501300276893e-02  9.9991321790023818e-02  9.9982404545184284e-02  9.9987185061465797e-02  9.9993420128605903e-02  9.9980908121309220e-02  9.9989845702152982e-02  9.9997861917714051e-02  9.9977565853020214e-02  9.9995926434512369e-02  9.9991041810711737e-02  9