<?xml version="1.0"?>
<VTKFile type="UnstructuredGrid"  version="0.1"  >
<UnstructuredGrid>
<Piece  NumberOfPoints="1933" NumberOfCells="3640">
<Points>
<DataArray  type="Float64"  NumberOfComponents="3"  format="ascii">0.293573084377003 0.002258990243814791 0  5.293573088047711 0.002173508952488401 0  5.293701378609219 7.502173559250752 0  0.2937013441767016 7.502258984791989 0  10.29357307503459 0.002087961410700776 0  10.29370145355762 7.502088036532141 0  15.29357308059493 0.002002270886157114 0  15.2937015960876 7.502002357113538 0  20.29357315415949 0.001916398590023531 0  20.29370183539038 7.501916489853847 0  25.2935733486678 0.00183033068748925 0  25.29370220324485 7.50183042466309 0  30.29357371670855 0.001744070016929638 0  30.2937027334991 7.501744166302566 0  35.29357430979469 0.001657630809715418 0  35.29370346170368 7.501657730031222 0  40.29357517908034 0.001571035481865977 0  40.29370442511046 7.501571138855327 0  45.2935763767297 0.001484312898975754 0  45.29370566300008 7.501484422032758 0  50.29357795758501 0.00139749772597515 0  50.29370721725218 7.501397614553765 0  55.29357998099427 0.001310630625585962 0  55.2937091330793 7.501310757416581 0  60.29358251276874 0.001223759184485002 0  60.29371145986638 7.501223898605144 0  65.29358562729512 0.001136939538549775 0  65.29371425206806 7.501137094756195 0  70.29358940985706 0.00105023875090272 0  70.29371757012366 7.501050413578742 0  75.29359395924419 0.000963738081140725 0  75.29372148133932 7.500963937169477 0  80.29359939073726 0.0008775373849802773 0  80.2937260606638 7.500877766465591 0  85.29360583957573 0.0007917610184831261 0  85.29373139124023 7.500792027205058 0  90.29361346501098 0.000706565816350019 0  90.2937375645393 7.500706877946428 0  95.29362245504231 0.0006221520114930335 0  95.2937446797572 7.500622520965864 0  100.2936330318597 0.0005387784331627258 0  100.2937528419705 7.500539217243942 0  105.2936454578436 0.000456784082966168 0  105.2937621582529 7.500457307346392 0  110.2936600415274 0.0003766194508877546 0  110.2937727305495 7.500377240878624 0  115.2936771419144 0.000298893065216849 0  115.2937846436071 7.500299618463553 0  120.2936971672741 0.0002244424276791329 0  120.2937979458101 7.500225251931931 0  125.2937205595739 0.0001544448382648026 0  125.2938126209902 7.500155250545994 0  130.293747744877 9.05946814890144e-05 0  130.2938285518702 7.500091143031304 0  135.293779006399 3.539243169344832e-05 0  135.293845485547 7.50003504540092 0  140.2938141841925 -7.38300954905244e-06 0  140.2938630413628 7.499989881326191 0  145.2938519809573 -3.194676937821294e-05 0  145.2938808894968 7.499959668710282 0  150.2938883194511 -2.975205148681613e-05 0  150.293899499113 7.499950049637452 0  160.2938926261462 1.301856786376301e-18 0  165.2937694007715 -0.0001471457636817389 0  165.2938702715201 7.499833815546327 0  160.2939099193312 7.499953835230622 0  170.2936930586631 -0.0002844757985641706 0  170.2938300146372 7.499705809792029 0  175.2936435341537 -0.0004144170736149498 0  175.2937953789955 7.499580056769786 0  180.2936102586196 -0.0005379087870938969 0  180.2937672533814 7.499458764735627 0  185.2935872752222 -0.0006558923849412989 0  185.2937449805493 7.499342027546279 0  190.2935710729354 -0.0007692862102003815 0  190.2937275521006 7.499229370239662 0  195.2935595008275 -0.0008788920305144968 0  195.2937139987273 7.499120213732418 0  200.2935511902497 -0.0009853686065228189 0  200.293703501005 7.499014019734398 0  205.2935452368762 -0.001089243374302959 0  205.2936954008054 7.498910328304326 0  210.2935410211909 -0.001190936044451473 0  210.2936891806854 7.498808758383984 0  215.2935381045231 -0.001290782178254731 0  215.2936844366389 7.498708996984393 0  220.2935361671394 -0.00138905284453596 0  220.2936808530941 7.498610786497584 0  225.2935349702343 -0.001485969852435707 0  225.2936781825008 7.498513913330558 0  230.2935343318279 -0.001581717196479885 0  230.2936762294896 7.498418198632673 0  235.2935341109691 -0.001676449573707725 0  235.2936748388463 7.498323491015048 0  240.2935341970423 -0.001770298740187437 0  240.2936738864568 7.498229660909202 0  245.293534502315 -0.001863378307635279 0  245.2936732724861 7.498136596192339 0  250.2935349565991 -0.001955787424904261 0  250.2936729162224 7.498044198761066 0  255.2935355033518 -0.002047613665987633 0  255.2936727521636 7.497952381803361 0  260.2935360967767 -0.002138935355537262 0  260.2936727270262 7.497861067578962 0  265.293536699672 -0.002229823497761616 0  265.2936727974632 7.497770185567036 0  270.2935372818384 -0.002320343426834162 0  270.2936729283332 7.497679670878829 0  275.2935378189838 -0.002410556258358494 0  275.2936730913943 7.497589462866427 0  280.2935382920641 -0.002500520182295097 0  280.2936732643579 7.49749950389265 0  285.2935386871104 -0.002590291583709756 0  285.2936734302232 7.497409738270861 0  290.2935389955919 -0.002679925882093031 0  290.2936735768363 7.497320111449151 0  295.2935392154625 -0.002769477787444128 0  295.2936736966115 7.49723056961916 0  300.2935393530121 -0.002859000255666534 0  300.293673786343 7.497141060096183 0  305.2935394255568 -0.002948540475267385 0  305.2936738471244 7.497051533042921 0  310.2935394645164 -0.003038128881880762 0  310.2936738847484 7.496961945264421 0  5.29382939517364 15.00217369998179 0  0.2938293508660609 15.00225897948574 0  10.29382948950529 15.00208824384634 0  15.29382966142367 15.0020025912124 0  20.2938299326666 15.00191673295022 0  25.29383032330455 15.00183067071415 0  30.2938308536736 15.00174441542294 0  35.29383154516602 15.00165798554842 0  40.29383242052246 15.00157140581187 0  45.29383350393875 15.00148470647397 0  50.29383482111683 15.00139792324244 0  55.2938363992931 15.00131109778069 0  60.29383826722842 15.00122427881346 0  65.29384045511766 15.0011375238621 0  70.29384299435176 15.00105090169102 0  75.29384591704796 15.00096449560879 0  80.29384925522861 15.00087840784293 0  85.29385303949887 15.00079276530432 0  90.2938572970245 15.00070772718304 0  95.29386204856958 15.00062349497677 0  100.2938673043209 15.00054032574807 0  105.2938730582657 15.00045854961641 0  110.2938792810651 15.00037859264468 0  115.2938859118996 15.00030100618304 0  120.2938928509785 15.00022650290881 0  125.2938999569398 15.00015599712697 0  130.2939070582079 15.0000906397907 0  135.2939139956953 15.0000318210719 0  140.2939207261743 14.99998106976189 0  145.2939275240633 14.99993966400671 0  150.2939352824769 14.99990741595116 0  165.2939396213031 14.99978255217399 0  160.293947839837 14.99988054068728 0  170.2939256733767 14.99967319397876 0  175.2939092476901 14.99955951650528 0  180.2938928661985 14.99944565504074 0  185.2938778455847 14.99933347411433 0  190.2938647090964 14.99922364491371 0  195.2938535465662 14.99911627820974 0  200.293844237542 14.99901124381458 0  205.2938365753199 14.99890832326822 0  210.2938303312539 14.99880727957669 0  215.2938252856055 14.99870788684228 0  220.293821240519 14.99860994101041 0  225.2938180238867 14.99851326208304 0  230.2938154888651 14.99841769275631 0  235.2938135115461 14.99832309579179 0  240.2938119880324 14.998229351147 0  245.2938108315214 14.99813635328005 0  250.2938099696566 14.99804400876307 0  255.2938093422316 14.99795223421521 0  260.2938088992495 14.99786095451958 0  265.2938085993104 14.99777010127432 0  270.2938084082804 14.99767961143125 0  275.2938082981917 14.9975894260853 0  280.2938082463241 14.99749948939155 0  285.2938082344255 14.99740974760299 0  290.29380824801 14.99732014823335 0  295.2938082757294 14.99723063933835 0  300.2938083088188 14.99714116881729 0  305.2938083407548 14.99705168329461 0  310.2938083674204 14.99696212507087 0  5.293957009563151 22.50217403828976 0  0.293956962979024 22.50225913711069 0  10.29395709649235 22.50208867239345 0  15.29395724806604 22.50200305994009 0  20.29395748062117 22.50191721766567 0  25.29395780636593 22.50183116305308 0  30.29395823570412 22.50174491639057 0  35.29395877847295 22.50165850158934 0  40.29395944448075 22.50157194653222 0  45.29396024361684 22.50148528339247 0  50.2939611857004 22.50139854915843 0  55.29396228014701 22.50131178649439 0  60.29396353547902 22.50122504502411 0  65.29396495866706 22.50113838311758 0  70.29396655426306 22.50105187027579 0  75.2939683232724 22.50096559023802 0  80.29397026169639 22.50087964497339 0  85.29397235868289 22.50079415976015 0  90.29397459423653 22.50070928959606 0  95.29397693649643 22.50062522720248 0  100.2939793387053 22.50054221285005 0  105.293981736223 22.50046054607357 0  110.293984044348 22.50038059891408 0  115.2939861584044 22.50030282935532 0  120.2939879586138 22.50022779159996 0  125.2939893237476 22.5001561358392 0  130.2939901591158 22.50008858261946 0  135.2939904448491 22.50002584329976 0  140.2939903059829 22.49996843536924 0  145.2939900872399 22.49991631046451 0  150.2939903625764 22.49986820704243 0  165.2940082946834 22.49972645505137 0  160.2940010839492 22.49981226115723 0  170.2940099269164 22.4996303904097 0  175.2940073183294 22.49952818383895 0  180.2940020532471 22.49942308268783 0  185.2939954720634 22.49931723559413 0  190.2939885118992 22.49921188507809 0  195.293981751994 22.49910766822498 0  200.293975511001 22.49900485810339 0  205.293969936018 22.49890352331061 0  210.2939650688142 22.49880362456768 0  215.2939608906291 22.49870507032603 0  220.2939573508022 22.49860774758697 0  225.293954384303 22.49851153832973 0  230.2939519220356 22.49841632781018 0  235.2939498966061 22.49832200837042 0  240.2939482453205 22.49822848082843 0  245.2939469115368 22.49813565460213 0  250.2939458450661 22.49804344720236 0  255.2939450020553 22.49795178343593 0  260.2939443445901 22.49786059449859 0  265.2939438401784 22.49776981704796 0  270.2939434611807 22.49767939230038 0  275.2939431842334 22.49758926516971 0  280.2939429896723 22.49749938345282 0  285.2939428609568 22.49740969705223 0  290.2939427840877 22.49732015720121 0  295.2939427470255 22.49723071559574 0  300.2939427390967 22.49714132319594 
[...]
<PointData  Scalars="p"> 
<DataArray  type="Float64"  Name="p"  format="ascii">1.0000000000000001e-01  1.0000000000000003e-01  1.0000372063139180e-01  1.0000000000000003e-01  1.0000000000000003e-01  1.0000362867650861e-01  1.0000000000000003e-01  1.0000548245174001e-01  1.0000000000000003e-01  1.0000611492479179e-01  1.0000000000000003e-01  1.0000739380774343e-01  1.0000000000000003e-01  1.0000999641361293e-01  1.0000000000000003e-01  1.0001079626943499e-01  1.0000000000000003e-01  1.0001257668959888e-01  1.0000000000000003e-01  1.0001555736469191e-01  1.0000000000000003e-01  1.0001505059235219e-01  1.0000000000000003e-01  1.0002424582767230e-01  1.0000000000000003e-01  1.0002770189909693e-01  1.0000000000000003e-01  1.0003250473042315e-01  1.0000000000000003e-01  1.0003594359624822e-01  1.0000000000000003e-01  1.0004429280478261e-01  1.0000000000000003e-01  1.0004733766199495e-01  1.0000000000000003e-01  1.0005395063267428e-01  1.0000000000000003e-01  1.0006390895304598e-01  1.0000000000000003e-01  1.0006726727969344e-01  1.0000000000000003e-01  1.0007814225951399e-01  1.0000000000000003e-01  1.0008506896702622e-01  1.0000000000000003e-01  1.0009736929997259e-01  1.0000000000000003e-01  1.0009644156420305e-01  1.0000000000000003e-01  1.0012576336662742e-01  1.0000000000000003e-01  1.0010221727492898e-01  1.0000000000000003e-01  1.0016128861312636e-01  1.0000000000000003e-01  1.0009825006616249e-01  1.0000000000000003e-01  1.0020880919112779e-01  1.0000000000000003e-01  1.0008025224481730e-01  1.0000000000000001e-01  1.0028634611129561e-01  1.0000000000000001e-01  1.0000000000000003e-01  9.9800589260799974e-02  9.9552933144050532e-02  1.0000000000000003e-01  9.9956978265143381e-02  1.0000000000000003e-01  9.9845105873831719e-02  1.0000000000000003e-01  9.9908436427280325e-02  1.0000000000000003e-01  9.9891080254643966e-02  1.0000000000000003e-01  9.9907821298279756e-02  1.0000000000000003e-01  9.9901939388509386e-02  1.0000000000000003e-01  9.9916164949937950e-02  1.0000000000000003e-01  9.9914898841657135e-02  1.0000000000000003e-01  9.9920213032454491e-02  1.0000000000000003e-01  9.9924627010537323e-02  1.0000000000000003e-01  9.9927797151213818e-02  1.0000000000000003e-01  9.9930025208841047e-02  1.0000000000000003e-01  9.9934106531365266e-02  1.0000000000000003e-01  9.9935995762462232e-02  1.0000000000000003e-01  9.9938028978650784e-02  1.0000000000000003e-01  9.9940513179364240e-02  1.0000000000000003e-01  9.9942160399729682e-02  1.0000000000000003e-01  9.9943363534508209e-02  1.0000000000000003e-01  9.9945378974076723e-02  1.0000000000000003e-01  9.9946011605242094e-02  1.0000000000000003e-01  9.9947831350743352e-02  1.0000000000000003e-01  9.9947591451549994e-02  1.0000000000000003e-01  9.9950833149508672e-02  1.0000000000000003e-01  9.9947370048381876e-02  1.0000000000000003e-01  9.9955343747990449e-02  1.0000000000000003e-01  9.9943887922250424e-02  1.0000000000000003e-01  9.9964558442644361e-02  1.0000000000000003e-01  9.9929587457506075e-02  1.0000000000000001e-01  1.0000000000000003e-01  1.0000688225670135e-01  1.0000000000000003e-01  1.0000639290389728e-01  1.0000678498179602e-01  1.0000767567398405e-01  1.0001029989720753e-01  1.0001000854982060e-01  1.0001064257902710e-01  1.0001458435675517e-01  1.0001252177769306e-01  1.0001427952827738e-01  1.0001680335713745e-01  1.0002717240895329e-01  1.0002285202229461e-01  1.0003315551942735e-01  1.0002817784754517e-01  1.0003293584435800e-01  1.0004095713856637e-01  1.0003921305897358e-01  1.0004293843478379e-01  1.0005556956265456e-01  1.0004889716155954e-01  1.0006114496179001e-01  1.0006098061883506e-01  1.0007464089516892e-01  1.0005301618160733e-01  1.0010954527853623e-01  1.0001874356497586e-01  1.0017938323192765e-01  9.9933993150723516e-02  1.0028978088458675e-01  1.0020157223369282e-01  9.9339588879837071e-02  9.9783428907393001e-02  9.9971605336851219e-02  9.9939487893226917e-02  9.9951537410781194e-02  9.9929565952021460e-02  9.9959293064905169e-02  9.9945549767684536e-02  9.9950723356819787e-02  9.9957218417577459e-02  9.9957872833326633e-02  9.9957920678680326e-02  9.9964287607219107e-02  9.9964526425384767e-02  9.9965540866451555e-02  9.9969165909520805e-02  9.9969928469451713e-02  9.9970720856939047e-02  9.9973064484559074e-02  9.9974033377936020e-02  9.9974404337886499e-02  9.9976725800076258e-02  9.9976367934644650e-02  9.9978955371576569e-02  9.9976940748008419e-02  9.9983262561854927e-02  9.9973786091053396e-02  9.9992044875984190e-02  9.9965423047606472e-02  1.0000000000000003e-01  1.0001052841717317e-01  1.0000000000000003e-01  1.0000671740823801e-01  1.0000984671404810e-01  1.0001245567970087e-01  1.0001266471595657e-01  1.0001337165958708e-01  1.0001903117689004e-01  1.0001758570896797e-01  1.0001823743238386e-01  1.0002434243469266e-01  1.0002597554029215e-01  1.0002001366003692e-01  1.0004879331362360e-01  1.0003683094872794e-01  1.0004340509701815e-01  1.0005509009017775e-01  1.0004987038329548e-01  1.0005626989316337e-01  1.0007245858747835e-01  1.0006733559735904e-01  1.0007341462453860e-01  1.0009648546033349e-01  1.0007972183021555e-01  1.0010700303878432e-01  1.0009352151999629e-01  1.0013346666702927e-01  1.0006604099992150e-01  1.0021613330365195e-01  9.9944211768025079e-02  1.0045277093637804e-01  1.0011886728264163e-01  9.9425988251405265e-02  9.9684080076456363e-02  9.9938855657294878e-02  9.9916178789063573e-02  9.9865711115246447e-02  9.9942688912456501e-02  9.9899432644177735e-02  9.9912155104944070e-02  9.9924910265919084e-02  9.9924064757255043e-02  9.9922405579701015e-02  9.9935420298633337e-02  9.9934194698535109e-02  9.9935799400166198e-02  9.9943024430979271e-02  9.9943898453206004e-02  9.9944731239594645e-02  9.9949669809197714e-02  9.9950460923407772e-02  9.9951653219786565e-02  9.9954500589141820e-02  9.9956105611528484e-02  9.9956123960463772e-02  9.9960044015554056e-02  9.9958123664236204e-02  9.9963987643572533e-02  9.9957175616217753e-02  9.9973201269986808e-02  9.9945264529459149e-02  1.0000000000000003e-01  1.0001284032176491e-01  1.0000000000000003e-01  1.0000803972545799e-01  1.0001412243453048e-01  1.0001322507257354e-01  1.0001409684746508e-01  1.0002012912638499e-01  1.0001861827720827e-01  1.0001929166483096e-01  1.0002676666499281e-01  1.0002378974164518e-01  1.0002382750905728e-01  1.0004010093445474e-01  1.0002318385311083e-01  1.0004871230067426e-01  1.0005275769406732e-01  1.0004877493502162e-01  1.0004967430795897e-01  1.0006921111613666e-01  1.0005720652246795e-01  1.0006750099295904e-01  1.0008331831141516e-01  1.0007863471181365e-01  1.0007713040526388e-01  1.0011489005257104e-01  1.0006839341796919e-01  1.0014032563124352e-01  1.0004425055980791e-01  1.0022006083400828e-01  9.9907146346074976e-02  1.0047840978773095e-01  1.0010973389853943e-01  9.9281031566663014e-02  9.9798678338616914e-02  9.9973628671372619e-02  9.9771887064103310e-02  1.0000397789660323e-01  9.9887316030997264e-02  9.9921636814364750e-02  9.9928934661102073e-02  9.9930451520479011e-02  9.9921495515971945e-02  9.9942745177883138e-02  9.9937298593772095e-02  9.9938715952360674e-02  9.9948371173323003e-02  9.9948898921144849e-02  9.9949286862417150e-02  9.9956098277142497e-02  9.9956702152541127e-02  9.9957448467968169e-02  9.9961943619793214e-02  9.9962558927621153e-02  9.9964192496019594e-02  9.9966029755096497e-02  9.9969044184434350e-02  9.9966867780218224e-02  9.9974685108325814e-02  9.9965861785232119e-02  9.9983524623091055e-02  9.9958062355627125e-02  1.0000000000000003e-01  1.0001520782502156e-01  1.0000000000000003e-01  1.0001071845564825e-01  1.0001482461560818e-01  1.0001404010728027e-01  1.0002100990814522e-01  1.0001929844599031e-01  1.0002069439540179e-01  1.0002902425326538e-01  1.0002571466762640e-01  1.0002579316986435e-01  1.0004001923638205e-01  1.0003163875130698e-01  1.0003946800243045e-01  1.0004024150675261e-01  1.0006008514277850e-01  1.0005221899322442e-01  1.0007544924771056e-01  1.0006014627705818e-01  1.0006761988275219e-01  1.0009164221653302e-01  1.0007462632805195e-01  1.0009005325932258e-01  1.0010455338937245e-01  1.0010650306442230e-01  1.0008607919271276e-01  1.0016249137365434e-01  1.0004233675189528e-01  1.0024909300180629e-01  9.9893819402387327e-02  1.0055288989357242e-01  1.0023596523580310e-01  9.9192505232991987e-02  9.9729190007985066e-02  9.9898613839031133e-02  9.9883721743295295e-02  9.9862835946912920e-02  9.9905114024446615e-02  9.9911462166546672e-02  9.9921641454385174e-02  9.9893592166459363e-02  9.9932497746617416e-02  9.9919233751438061e-02  9.9920981800250538e-02  9.9934876579254234e-02  9.9934442871723150e-02  9.9933584350928140e-02  9.9944414892622152e-02  9.9944478436855722e-02  9.9945187758321563e-02  9.9951487462923219e-02  9.9952594480584106e-02  9.9953098657002609e-02  9.9957955372613608e-02  9.9958168460525187e-02  9.9960982059037848e-02  9.9961139263180829e-02  9.9967172948519450e-02  9.9960052839205393e-02  9.9977288787587937e-02  9.9951052107304816e-02  1.0000000000000003e-01  1.0001799890248599e-01  1.0000000000000003e-01  1.0001097490476306e-01  1.0001601165974409e-01  1.0001935180195780e-01  1.0001995725864947e-01  1.0002048030926824e-01  1.0002897945129817e-01  1.0002684075131871e-01  1.0002662387094240e-01  1.0003872186402200e-01  1.0003391984648605e-01  1.0003660833360342e-01  1.0004925439630508e-01  1.0004690821529921e-01  1.0003053781550843e-01  1.0008698839553630e-01  1.0005785761020149e-01  1.0006863116236114e-01  1.0008935031001844e-01  1.0007392973703019e-01  1.0007854440306463e-01  1.0011490701076739e-01  1.0008187377187844e-01  1.0011322599139628e-01  1.0010566005352471e-01  1.0014650588165958e-01  1.0004276760974265e-01  1.0027377688475014e-01  9.9855393710525431e-02  1.0061172824232537e-01  1.0020974679295046e-01  9.9232140829944554e-02  9.9666348330174445e-02  1.0000914774198157e-01  9.9843197696403721e-02  9.9873621499582108e-02  9.9863375477238295e-02  9.9953350269966254e-02  9.9866687132094609e-02  9.9945457507089941e-02  9.9910085194344314e-02  9.9915707676193621e-02  9.9932781095041681e-02  9.9932134404279102e-02  9.9927890127922220e-02  9.9943512270952162e-02  9.9941926048856697e-02  9.9942241561301368e-02  9.9951480675922647e-02  9.9951920294156879e-02  9.9952386170352722e-02  9.9958166228808196e-02  9.9959616120842504e-02  9.9959605497371345e-02  9.9965325195590371e-02  9.9963570312037967e-02  9.9970104938695264e-02  9.9963869726210616e-02  9.9980425418064095e-02  9.9955983621202421e-02  1.0000000000000003e-01  1.0001951534710223e-01  1.0000000000000003e-01  1.0001146688919632e-01  1.0002077431527946e-01  1.0001858190096936e-01  1.0002069140942473e-01  1.0002800657076732e-01  1.0002713152175857e-01  1.0002691976584475e-01  1.0003889191071137e-01  1.0003386270181695e-01  1.0003571302039563e-01  1.0005172131190215e-01  1.0004507790691843e-01  1.0004123235391826e-01  1.0007089636870474e-01  1.0003562347797282e-01  1.0007934022900394e-01  1.0009061128089057e-01  1.0007538487147612e-01  1.0007968464651595e-01  1.0011006780325186e-01  1.0009001837929128e-01  1.0009176822844137e-01  1.0014343330871428e-01  1.0008307808207002e-01  1.0015724415101808e-01  1.0006814799973739e-01  1.0026235422434389e-01  9.9854232761891676e-02  1.0066581870922976e-01  1.0018483451134232e-01  9.9165699553517478e-02  9.9734883071582459e-02  9.9970613969968730e-02  9.9799524401562395e-02  9.9925401202008712e-02  9.9883195639297109e-02  9.9825174716261386e-02  9.9957025280950101e-02  9.9893239690123731e-02  9.9909430391538503e-02  9.9920877070078989e-02  9.9925177663804349e-02  9.9914509012113559e-02  9.9937031834571158e-02  9.9933142405411457e-02  9.9932493427263958e-02  9.9944140635753576e-02  9.9945015046217167e-02  9.9944722574398473e-02  9.9953009980829594e-02  9.9953453759937111e-02  9.9954765767770154e-02  9.9958958529790004e-02  9.9961804895078596e-02  9.9960430001561504e-02  9.9968463919498970e-02  9.9961648596225583e-02  9.9978023657871215e-02  9.9954171139384235e-02  1.0000000000000003e-01  1.0002092403038768e-01  1.0000000000000003e-01  1.0001397849901766e-01  1.0002049646420864e-01  1.0001885919084617e-01  1.0002706558556702e-01  1.0002572848807893e-01  1.0002664758043260e-01  1.0003754720411157e-01  1.0003354479017254e-01  1.0003401716403358e-01  1.0005031690571507e-01  1.0004392462055575e-01  1.0004368435937736e-01  1.0006648818587742e-01  1.0004741995525976e-01  1.0005964847518992e-01  1.0006102094972610e-01  1.0008844120416337e-01  1.0007475124440392e-01  1.0011578250762453e-01  1.0008037547805125e-01  1.0009772033297758e-01  1.0012410336162784e-01  1.0011189784358424e-01  1.0008896326704403e-01  1.0018987446990427e-01  1.0003749519496047e-01  1.0027567346454816e-01  9.9863779161610058e-02  1.0067686722451789e-01  1.0026388744785630e-01  9.9096635958291684e-02  9.9695842787392769e-02  9.9934961376757364e-02  9.9860306299927037e-02  9.9915955928974745e-02  9.9837379745312649e-02  9.9917878662287879e-02  9.9854096049768665e-02  9.9924411108912231e-02  9.9906831131431478e-02  9.9931246286213138e-02  9.9900605878992063e-02  9.9936750214155254e-02  9.9927601927483914e-02  9.9926744576370602e-02  9.9941258442453412e-02  9.9941195819734222e-02  9.9939352549735530e-02  9.9950795674197082e-02  9.9951329453914176e-02  9.9951295681209626e-02  9.9958656320625172e-02  9.9958885497246394e-02  9.9961346519796115e-02  9.9963101601446044e-02  9.9969205420937193e-02  9.9962573074040578e-02  9.9979646223849084e-02  9.9956347719461394e-02  1.0000000000000003e-01  1.0002292971206886e-01  1.0000000000000003e-01  1.0001366062352243e-01  1.0002077483324848e-01  1.0002362337605303e-01  1.0002546522431970e-01  1.0002505766557990e-01  1.0003538279101437e-01  1.0003300246102685e-01  1.0003294666896992e-01  1.0004663874040901e-01  1.0004293408214322e-01  1.0004264660547910e-01  1.0006339143100901e-01  1.0005135382185691e-01  1.0005348841455655e-01  1.0007389928076516e-01  1.0006610228538848e-01  1.0004102767813765e-01  1.0012740170962968e-01  1.0008092218066195e-01  1.0009215256040324e-01  1.0013331422899517e-01  1.0008898178539218e-01  1.0011728847462460e-01  1.0012996090333384e-01  1.0015127891573095e-01  1.0004455865019680e-01  1.0031166547156234e-01  9.9829293163798544e-02  1.0070235581276871e-01  1.0026130401035452e-01  9.9117706338901976e-02  9.9650145852543726e-02  9.9995080864124272e-02  9.9837891844031301e-02  9.9872072518829930e-02  9.9896689835620139e-02  9.9894556298159104e-02  9.9866005865534499e-02  9.9874609981813411e-02  9.9947110975982675e-02  9.9880960390668808e-02  9.9940770337545490e-02  9.9917838318355587e-02  9.9919739891853807e-02  9.9935705373688580e-02  9.9936900615542945e-02  9.9931842644205807e-02  9.9946509060679811e-02  9.9945826790931919e-02  9.9945923482011770e-02  9.9954797991200731e-02  9.9956255064906477e-02  9.9955730979942842e-02  9.9963148800235130e-02  9.9961802245408876e-02  9.9967551533393595e-02  9.9963303771572740e-02  9.9978742009770166e-02  9.9956163293575317e-02  1.0000000000000003e-01  1.0002372620401272e-01  1.0000000000000003e-01  1.0001362684117211e-01  1.0002471331142897e-01  1.0002228222743365e-01  1.0002496746288249e-01  1.0003242986993141e-01  1.0003186982346414e-01  1.0003166473187525e-01  1.0004419956059518e-01  1.0004034543843121e-01  1.0004035210793742e-01  1.0005990541499066e-01  1.0005137024731336e-01  1.0005077174285609e-01  1.0007464432012154e-01  1.0006182039691387e-01  1.0005370242419651e-01  1.0010083965271557e-01  1.0004275267566830e-01  1.0010697976234911e-01  1.0012453053540263e-01  1.0009998131961732e-01  1.0009400423533324e-01  1.0016275592084234e-01  1.0008248466965380e-01  1.0015731901234048e-01  1.0008829822134593e-01  1.0026971112989107e-01  9.9832930832764247e-02  1.0074565751807134e-01  1.0024000032944336e-01  9.9086692573707627e-02  9.9691402546195282e-02  9.9984528350946858e-02  9.9797395797449687e-02  9.9925698125249277e-02  9.9880014195886005e-02  9.9871288088165075e-02  9.9899145603354597e-02  9.9906961625180715e-02  9.9844198848470844e-02  9.9958837454115296e-02  9.9905427842703648e-02  9.9921380921909622e-02  9.9928126809292445e-02  9.9935621484386519e-02  9.9924891090803700e-02  9.9944629066364407e-02  9.9942629093634452e-02  9.9940770884217572e-02  9.9951804984961770e-02  9.9953117105860301e-02  9.9953275661874993e-02  9.9960039677348053e-02  9.9962601195750594e-02  9.9961097744574359e-02  9.9969848890188895e-02  9.9963829832575749e-02  9.9978932917480001e-02  9.9957863526280458e-02  1.0000000000000003e-01  1.0002437588972529e-01  1.0000000000000003e-01  1.0001542825853942e-01  1.0002383265419233e-01  1.0002155106617046e-01  1.0003033470406061e-01  1.0002933294039458e-01  1.0003034755295333e-01  1.0004079271353514e-01  1.0003830087650026e-01  1.0003746007515255e-01  1.0005490858894331e-01  1.0004882920867318e-01  1.0004854136172912e-01  1.0007106355600522e-01  1.0005895746947867e-01  1.0005638368216532e-01  1.0009038985917584e-01  1.0006014125328089e-01  1.0007472449840717e-01  1.0008307461360473e-01  1.0010969016046410e-01  1.0009738840736609e-01  1.0014784093956169e-01  1.0010829044982474e-01  1.0009177213865662e-01  1.0020640279318850e-01  1.0003724201082198e-01  1.0027044850241515e-01  9.9881962790728085e-02  1.0070154775200002e-01  1.0029143897942563e-01  9.9029877291739510e-02  9.9680985268895544e-02  9.9952120129610300e-02  9.9840992192399960e-02  9.9915400860388581e-02  9.9846271021588689e-02  9.9909656911744429e-02  9.9900068653180310e-02  9.9872670397759475e-02  9.9915921073680844e-02  9.9876899799601973e-02  9.9933898528440673e-02  9.9916653065937888e-02  9.9940302779087289e-02  9.9914320003036433e-02  9.9943634647518584e-02  9.9938179337151462e-02  9.9936397172360539e-02  9.9948927935289464e-02  9.9949623331809692e-02  9.9947465878627809e-02  9.9958333885632814e-02  9.9958537581040868e-02  9.9960302556624400e-02  9.9963849836526772e-02  9.9969397806358246e-02  9.9963325826005200e-02  9.9979679281763989e-02  9.9958484423914779e-02  1.0000000000000003e-01  1.0002575137168111e-01  1.0000000000000003e-01  1.0001492059479899e-01  1.0002346002002899e-01  1.0002539781054220e-01  1.0002832014065424e-01  1.0002776816217741e-01  1.0003779416767923e-01  1.0003631377171096e-01  1.0003556589821606e-01  1.0004938325704309e-01  1.0004635277324182e-01  1.0004534550688059e-01  1.0006556872932970e-01  1.0005749383528199e-01  1.0005412011614925e-01  1.0008386292820150e-01  1.0006431016464894e-01  1.0006558673556298e-01  1.0009563937148792e-01  1.0008177322892899e-01  1.0004307545709237e-01  1.0017084721396834e-01  1.0008769182805746e-01  1.0012196413077093e-01  1.0014747828466480e-01  1.0014184968788013e-01  1.0004322165938904e-01  1.0032522314531517e-01  9.9830121123702237e-02  1.0069559477644985e-01  1.0031060397561023e-01  9.9041970673358404e-02  9.9640822314814484e-02  9.9993176774085743e-02  9.9837034724697724e-02  9.9882445504801659e-02  9.9885107292574840e-02  9.9906576738653385e-02  9.9867164588326368e-02  9.9916454352499559e-02  9.9905186294023729e-02  9.9893370604863307e-02  9.9889096679024736e-02  9.9957827125484719e-02  9.9900781723108081e-02  9.9949055511063076e-02  9.9932199644757663e-02  9.9933372010203927e-02  9.9946049920907123e-02  9.9948320633650528e-02  9.9943779589694040e-02  9.9955394939400671e-02  9.9956172026253773e-02  9.9955689502082432e-02  9.9964640559537257e-02  9.9963837710738607e-02  9.9968449840774048e-02  9.9965980660257525e-02  9.9979876227802744e-02  9.9959612938224293e-02  1.0000000000000003e-01  1.0002591506918994e-01  1.0000000000000003e-01  1.0001437004814648e-01  1.0002623816809780e-01  1.0002358721139396e-01  1.0002689683315746e-01  1.0003340208430331e-01  1.0003393529249502e-01  1.0003351065800849e-01  1.0004520466525584e-01  1.0004236225160613e-01  1.0004205711516663e-01  1.0005974808699639e-01  1.0005418569789844e-01  1.0005086808091862e-01  1.0007670860783374e-01  1.0006407097767349e-01  1.0005973427684263e-01  1.0009461341480595e-01  1.0007346715407946e-01  1.0006112221083212e-01  1.0012660589282914e-01  1.0004680622343837e-01  1.0011953705777214e-01  1