<?xml version="1.0"?>
<VTKFile type="UnstructuredGrid"  version="0.1"  >
<UnstructuredGrid>
<Piece  NumberOfPoints="1933" NumberOfCells="3640">
<Points>
<DataArray  type="Float64"  NumberOfComponents="3"  format="ascii">-0.4754391346148239 -0.0007369437839721208 0  4.524560876683867 -0.0007157337459974497 0  4.524529051058151 7.49928428953815 0  -0.4754709616635204 7.499263077898438 0  9.524560898375613 -0.00069453930410677 0  9.524529070736909 7.49930548249575 0  14.52456093879067 -0.0006733510419156463 0  14.52452909900472 7.49932666877416 0  19.52456100295493 -0.0006521556559986551 0  19.52452913641781 7.499347862379734 0  24.52456109299456 -0.0006309383900411564 0  24.52452918240581 7.499369078181835 0  29.52456120873402 -0.0006096839599297494 0  29.52452923517808 7.499390331402002 0  34.52456134816107 -0.0005883768072197298 0  34.52452929164997 7.499411637494937 0  39.52456150770269 -0.0005670010420116216 0  39.52452934736316 7.499433012245714 0  44.52456168232762 -0.0005455402377897424 0  44.52452939636986 7.499454471982427 0  49.5245618655022 -0.0005239771502116579 0  49.52452943105791 7.499476033853494 0  54.52456204901728 -0.0005022933876653495 0  54.52452944189883 7.499497716148898 0  59.52456222269183 -0.0004804690382738138 0  59.52452941710163 7.499519538661995 0  64.52456237394502 -0.0004584822441952203 0  64.52452934215025 7.499541523100048 0  69.52456248721195 -0.0004363087036002375 0  69.52452919919597 7.499563693559862 0  74.52456254316081 -0.0004139210700959234 0  74.52452896626508 7.499586077092929 0  79.52456251763965 -0.0003912882059904189 0  79.52452861622432 7.499608704392746 0  84.52456238024178 -0.0003683742271203571 0  84.52452811543033 7.499631610646769 0  89.52456209230988 -0.0003451372501080802 0  89.5245274219576 7.499654836604884 0  94.52456160409024 -0.0003215277145995563 0  94.52452648327591 7.4996784299215 0  99.52456085055468 -0.000297486100461366 0  99.52452523321884 7.499702446817898 0  104.5245597450748 -0.0002729397942091487 0  104.5245235880884 7.499726954057102 0  109.5245581695385 -0.0002477987950396227 0  109.5245214418209 7.499752031060694 0  114.5245559584211 -0.0002219499444950544 0  114.5245186604355 7.499777771582496 0  119.5245528723772 -0.0001952495814483362 0  119.5245150767666 7.499804283373965 0  124.524548553352 -0.000167515421206976 0  124.5245104883781 7.499831682061803 0  129.5245424467276 -0.0001385212303107656 0  129.5245046658295 7.499860070602383 0  134.5245336642831 -0.0001080056024967415 0  134.5244973876823 7.499889485279516 0  139.5245207409126 -7.572675400518324e-05 0  139.5244885377551 7.499919767420961 0  144.5245012022414 -4.164910364464338e-05 0  144.5244783380426 7.499950275342675 0  149.5244708028492 -6.486914233962509e-06 0  149.5244678612809 7.499979261566014 0  159.5244717418524 3.834073192401036e-19 0  164.5244769510416 -5.153811201801664e-06 0  164.5244726456882 7.499992148580139 0  159.5244687089279 7.499992910183375 0  169.5244845274703 -2.898197730918497e-06 0  169.5244763137644 7.499995938294446 0  174.5244924270049 4.184261930470788e-06 0  174.5244800964235 7.500003657762289 0  179.5244998643386 1.462832079852632e-05 0  179.5244839223375 7.500014394339906 0  184.5245065695106 2.748770796153055e-05 0  184.5244876596558 7.500027394691066 0  189.5245124903177 4.211816684991014e-05 0  189.5244912058495 7.50004209425232 0  194.524517663872 5.806870889356173e-05 0  194.5244944987978 7.500058078485697 0  199.52452215964 7.50169440980394e-05 0  199.5244975088669 7.500075042612887 0  204.5245260543873 9.272796976942424e-05 0  204.5245002286363 7.500092760500336 0  209.5245294216597 0.0001110275023570049 0  209.5245026645212 7.500111062313212 0  214.5245323278836 0.0001297840088850848 0  214.5245048308465 7.500129818806546 0  219.5245348314182 0.0001488966278928684 0  219.5245067459455 7.500148930309099 0  224.5245369828573 0.0001682868614443226 0  224.5245084297151 7.500168318948445 0  229.5245388258051 0.0001878927560675904 0  229.5245099021509 7.500187923103313 0  234.5245403977766 0.0002076647517931242 0  234.5245111825198 7.50020769339273 0  239.52454173108 0.000227562668951494 0  239.5245122889382 7.500227589736385 0  244.5245428536269 0.0002475534864113646 0  244.5245132382036 7.500247579172343 0  249.5245437896595 0.0002676096828291235 0  249.5245140457826 7.500267634220124 0  254.5245445604055 0.0002877079893612648 0  254.5245147258942 7.500287731645916 0  259.5245451846696 0.0003078284539882498 0  259.524515291649 7.500307851534204 0  264.5245456793828 0.0003279537541794363 0  264.5245157552201 7.500327976604129 0  269.52454606012 0.0003480687228372157 0  269.5245161280285 7.50034809173506 0  274.5245463416027 0.0003681600771838988 0  274.5245164209251 7.500368183688264 0  279.5245465381882 0.0003882163657115969 0  279.5245166443631 7.500388241032677 0  284.5245466643402 0.0004082281785329374 0  284.5245168085337 7.500408254305326 0  289.5245467350415 0.0004281887056520207 0  289.5245169234537 7.500428216461422 0  294.5245467660546 0.0004480947785648077 0  294.5245169989888 7.500448123694507 0  299.5245467738207 0.0004679485864546825 0  299.5245170448132 7.500467976728061 0  304.5245467745467 0.0004877602674268698 0  304.5245170703943 7.500487782690694 0  309.5245467815459 0.000507551281951947 0  309.5245170852733 7.500507557727415 0  4.524497200973236 14.99928433603745 0  -0.4755028105089627 14.99926313122591 0  9.524497213296371 14.99930551829467 0  14.52449722621096 14.99932669435992 0  19.52449723831448 14.99934787924909 0  24.52449724745578 14.99936908767978 0  29.52449725073138 14.99939033438633 0  34.52449724435318 14.99941163428686 0  39.52449722348008 14.99943300265803 0  44.52449718203216 14.99945445534687 0  49.52449711248367 14.99947600901837 0  54.52449700562286 14.99949768143423 0  59.52449685026592 14.99951949176181 0  64.5244966329137 14.99954146091606 0  69.52449633734018 14.99956361193997 0  74.52449594410672 14.9995859704301 0  79.5244954299995 14.99960856501048 0  84.52449476740497 14.99963142784951 0  89.52449392366292 14.999654595193 0  94.52449286049153 14.99967810784104 0  99.52449153367752 14.99970201140264 0  104.5244898934013 14.9997263559796 0  109.5244878858729 14.99975119457856 0  114.5244854574605 14.99977657889009 0  119.5244825632761 14.99980254987048 0  124.5244791832776 14.9998291184469 0  129.5244753501492 14.99985622815908 0  134.5244711936191 14.99988368631445 0  139.5244670026636 14.99991104421628 0  144.5244632928004 14.99993740638283 0  149.5244608229622 14.99996117758377 0  164.5244638135461 14.99998567824047 0  159.5244620368046 14.99998074992075 0  169.5244651590161 14.99999275214683 0  174.5244664488324 15.00000219095011 0  179.5244678408696 15.00001380016626 0  184.5244693519283 15.00002723436489 0  189.524470941597 15.00004214280748 0  194.5244725564627 15.00005822110949 0  199.5244741485753 15.00007522117087 0  204.5244756811611 15.00009294608652 0  209.5244771288262 15.00011124111593 0  214.5244784757731 15.00012998479636 0  219.5244797135929 15.00014908143998 0  224.5244808392528 15.00016845517935 0  229.5244818534659 15.000188045369 0  234.5244827594563 15.00020780307275 0  239.5244835620557 15.00022768838739 0  244.5244842670673 15.00024766840011 0  249.5244848808288 15.00026771562601 0  254.5244854099231 15.00028780681183 0  259.5244858609914 15.00030792202522 0  264.5244862406199 15.00032804397343 0  269.5244865552737 15.00034815751598 0  274.5244868112607 15.00036824935123 0  279.524487014714 15.00038830787057 0  284.5244871715884 15.00040832318306 0  289.5244872876809 15.00042828731728 0  294.5244873687137 15.00044819460001 0  299.5244874205511 15.00046804218198 0  304.5244874497083 15.00048783061447 0  309.5244874644287 15.00050756425344 0  4.524465370723793 22.49928441040374 0  -0.4755346393102893 22.49926323300382 0  9.524465377470607 22.4993055680552 0  14.52446537893351 22.4993267225554 0  19.52446537280574 22.499347888642 0  24.5244653564004 22.49936908027182 0  29.52446532658221 22.49939031120875 0  34.52446527965205 22.49941159535364 0  39.52446521120689 22.49943294697121 0  44.52446511599175 22.49945438088719 0  49.52446498775281 22.49947591268401 0  54.52446481909181 22.49949755890349 0  59.52446460132495 22.4995193372559 0  64.52446432435099 22.49954126683177 0  69.52446397654097 22.49956336830551 0  74.52446354467472 22.49958566411436 0  79.5244630139656 22.49960817857949 0  84.52446236824512 22.49963093791193 0  89.52446159042056 22.49965397000096 0  94.52446066338391 22.49967730380729 0  99.52445957164097 22.49970096805844 0  104.5244583040549 22.49972498873709 0  109.5244568582533 22.49974938452647 0  114.5244552473977 22.49977415887856 0  119.524453510078 22.49979928666751 0  124.5244517238507 22.49982469253513 0  129.5244500219648 22.49985021737077 0  134.5244486103093 22.4998755700267 0  139.5244477764587 22.49990026643914 0  144.5244478739991 22.49992357540061 0  149.5244492555645 22.49994453645981 0  164.524450326757 22.49997812484569 0  159.524450018437 22.49996875057883 0  169.5244502865229 22.49998831712089 0  174.5244501345605 22.4999997764295 0  179.5244500335359 22.50001261974331 0  184.5244500640447 22.50002677690896 0  189.5244502464523 22.50004209313906 0  194.5244505670762 22.50005839064723 0  199.5244509972976 22.5000754993725 0  204.5244515049048 22.5000932693634 0  209.5244520598737 22.50011157375617 0  214.5244526367769 22.50013030750373 0  219.5244532153606 22.50014938452363 0  224.5244537802334 22.50016873453027 0  229.5244543201944 22.5001883000916 0  234.5244548274761 22.50020803409593 0  239.5244552970329 22.50022789765559 0  244.524455725926 22.50024785840774 0  249.5244561128159 22.50026788915473 0  254.5244564575553 22.50028796678531 0  259.5244567608671 22.50030807142706 0  264.5244570240929 22.50032818578936 0  269.524457248997 22.50034829466583 0  274.5244574376197 22.50036838457256 0  279.5244575921707 22.50038844350146 0  284.524457714975 22.50040846076735 0  289.524457808489 22.50042842691544 0  294.5244578754246 22.5004483336
[...]
<PointData  Scalars="p"> 
<DataArray  type="Float64"  Name="p"  format="ascii">1.0000000000000001e-01  1.0000000000000003e-01  1.0000028816687798e-01  1.0000000000000003e-01  1.0000000000000003e-01  1.0000146171327841e-01  1.0000000000000003e-01  1.0000220284668226e-01  1.0000000000000003e-01  1.0000307860429426e-01  1.0000000000000003e-01  1.0000370554075158e-01  1.0000000000000003e-01  1.0000392351580079e-01  1.0000000000000003e-01  1.0000461033892750e-01  1.0000000000000003e-01  1.0000476529893655e-01  1.0000000000000003e-01  1.0000493746807107e-01  1.0000000000000003e-01  1.0000649511791847e-01  1.0000000000000003e-01  1.0000400767636115e-01  1.0000000000000003e-01  1.0000525341815428e-01  1.0000000000000003e-01  1.0000479634369092e-01  1.0000000000000003e-01  1.0000512672239335e-01  1.0000000000000003e-01  1.0000355366571251e-01  1.0000000000000003e-01  1.0000345327540958e-01  1.0000000000000003e-01  1.0000153419224492e-01  1.0000000000000003e-01  9.9998896261578749e-02  1.0000000000000003e-01  9.9997451823312683e-02  1.0000000000000003e-01  9.9993280661962558e-02  1.0000000000000003e-01  9.9990252385080636e-02  1.0000000000000003e-01  9.9985010693016935e-02  1.0000000000000003e-01  9.9983062715183812e-02  1.0000000000000003e-01  9.9972306657976628e-02  1.0000000000000003e-01  9.9976806434632290e-02  1.0000000000000003e-01  9.9956097374470573e-02  1.0000000000000003e-01  9.9973028201899503e-02  1.0000000000000003e-01  9.9936239834351431e-02  1.0000000000000003e-01  9.9974257848793921e-02  1.0000000000000001e-01  9.9907449478559840e-02  1.0000000000000001e-01  1.0000000000000003e-01  1.0002167037095853e-01  1.0010458860668262e-01  1.0000000000000003e-01  9.9981895317366398e-02  1.0000000000000003e-01  1.0001285270606651e-01  1.0000000000000003e-01  9.9991028563561513e-02  1.0000000000000003e-01  9.9994873788374669e-02  1.0000000000000003e-01  9.9988582318301669e-02  1.0000000000000003e-01  9.9988235345700588e-02  1.0000000000000003e-01  9.9982790609176989e-02  1.0000000000000003e-01  9.9982185776205115e-02  1.0000000000000003e-01  9.9979508932871067e-02  1.0000000000000003e-01  9.9977497921526409e-02  1.0000000000000003e-01  9.9976132422285549e-02  1.0000000000000003e-01  9.9975022459706686e-02  1.0000000000000003e-01  9.9973613605273695e-02  1.0000000000000003e-01  9.9973000759099095e-02  1.0000000000000003e-01  9.9972378779296794e-02  1.0000000000000003e-01  9.9971668983011505e-02  1.0000000000000003e-01  9.9971430014608134e-02  1.0000000000000003e-01  9.9971082100737962e-02  1.0000000000000003e-01  9.9970961015257279e-02  1.0000000000000003e-01  9.9970600268507306e-02  1.0000000000000003e-01  9.9971051834272531e-02  1.0000000000000003e-01  9.9970141061837270e-02  1.0000000000000003e-01  9.9971673284886445e-02  1.0000000000000003e-01  9.9969121945602687e-02  1.0000000000000003e-01  9.9973609801324567e-02  1.0000000000000003e-01  9.9966215425088448e-02  1.0000000000000003e-01  9.9978676222945484e-02  1.0000000000000003e-01  9.9956781114449444e-02  1.0000000000000001e-01  1.0000000000000003e-01  9.9999251133893935e-02  1.0000000000000003e-01  9.9999947602671058e-02  1.0000005385381006e-01  1.0000004714265286e-01  9.9999546582952140e-02  9.9999742313440956e-02  9.9999419660663363e-02  9.9998460862242455e-02  9.9999290041788327e-02  9.9998614794933341e-02  9.9999478951045204e-02  9.9995481943642328e-02  9.9998771988652785e-02  9.9995916470299651e-02  9.9997914427533405e-02  9.9995543969913836e-02  9.9993427000687682e-02  9.9993159612641505e-02  9.9990699813605408e-02  9.9986532991438129e-02  9.9987125638777499e-02  9.9981596280548812e-02  9.9980582127458376e-02  9.9975048267801986e-02  9.9979087368126218e-02  9.9961974745904125e-02  9.9987424592073951e-02  9.9939100364692751e-02  1.0001328266386349e-01  9.9907328440558510e-02  9.9935339971721854e-02  1.0012039896898810e-01  1.0006583303770317e-01  1.0000080826873733e-01  1.0001425007100544e-01  1.0001114328775486e-01  1.0001401672505193e-01  1.0000428939385009e-01  1.0000758991083868e-01  1.0000399659874779e-01  1.0000111271674329e-01  1.0000042092575039e-01  9.9999394146358001e-02  9.9997008409764249e-02  9.9996773750427578e-02  9.9996020118507875e-02  9.9994752215501831e-02  9.9994411336242553e-02  9.9994009783624577e-02  9.9993070110604043e-02  9.9992912812847556e-02  9.9992299875879334e-02  9.9992118379884976e-02  9.9991126883781353e-02  9.9991908616704886e-02  9.9989529745882641e-02  9.9992658101578868e-02  9.9986045814525012e-02  9.9996489682319001e-02  9.9979317085753541e-02  1.0000000000000003e-01  9.9998303689613099e-02  1.0000000000000003e-01  9.9999502580640220e-02  9.9999505483196388e-02  9.9999146667297978e-02  9.9999543859182027e-02  9.9999172875585046e-02  9.9997913850039713e-02  9.9998383175475464e-02  9.9997760656614504e-02  9.9996892743637752e-02  9.9996162834036284e-02  9.9999864822180082e-02  9.9990361695418264e-02  9.9997022616470199e-02  9.9994130450366550e-02  9.9992049295465582e-02  9.9992795716012717e-02  9.9989395771809986e-02  9.9984442251378161e-02  9.9984553787386868e-02  9.9979914836219375e-02  9.9972415756914096e-02  9.9974701889754408e-02  9.9963670697337137e-02  9.9965771854507196e-02  9.9952582986526997e-02  9.9968418688227006e-02  9.9926353735150172e-02  1.0000366913322951e-01  9.9857708934852074e-02  9.9996527426647983e-02  1.0005126954337068e-01  1.0005442122090515e-01  1.0000397248232916e-01  1.0001601949208165e-01  1.0002241420736820e-01  1.0000038740264763e-01  1.0001265665811758e-01  1.0000467253903353e-01  9.9999352373954353e-02  9.9998773482076322e-02  9.9997029535147733e-02  9.9992207021810234e-02  9.9992151775979241e-02  9.9990648080093392e-02  9.9988062055619387e-02  9.9987723120913835e-02  9.9986974448134175e-02  9.9985338644779459e-02  9.9984937868306367e-02  9.9984465553382154e-02  9.9983173148199558e-02  9.9983113090652415e-02  9.9981962812023872e-02  9.9982279423804651e-02  9.9980016141791556e-02  9.9982442305706201e-02  9.9976827814822103e-02  9.9985595474268579e-02  9.9967283587308234e-02  1.0000000000000003e-01  9.9997608111022790e-02  1.0000000000000003e-01  9.9998764362103296e-02  9.9997593763338638e-02  9.9998154488349214e-02  9.9997612347588444e-02  9.9996056974856612e-02  9.9996324428243633e-02  9.9995216420395328e-02  9.9993249784433635e-02  9.9993855549565386e-02  9.9993338076185240e-02  9.9988698306376328e-02  9.9996659014162381e-02  9.9985373753644621e-02  9.9988550711607310e-02  9.9988855333599261e-02  9.9987597055129440e-02  9.9981612584112950e-02  9.9983829221702472e-02  9.9977828092204277e-02  9.9972485796042759e-02  9.9971667664689887e-02  9.9968044081038654e-02  9.9956457915948552e-02  9.9966387749966593e-02  9.9943695398636720e-02  9.9968896981557809e-02  9.9920941040280015e-02  1.0000591520563466e-01  9.9852661462653605e-02  1.0001767268676467e-01  1.0008095539038733e-01  1.0002229105592128e-01  1.0001397013715453e-01  1.0006060456987548e-01  9.9995817421204905e-02  1.0003330574578341e-01  1.0001736866016531e-01  1.0001368036915036e-01  1.0001243039801147e-01  1.0001170101935675e-01  1.0000388905200805e-01  1.0000485277463059e-01  1.0000275205037040e-01  9.9999067033851918e-02  9.9998638364680537e-02  9.9997759163060876e-02  9.9995296967615332e-02  9.9995059980972315e-02  9.9994216338116740e-02  9.9992758816624575e-02  9.9992020402005999e-02  9.9991678270758153e-02  9.9989845569482122e-02  9.9990350527811717e-02  9.9987551728005095e-02  9.9990221289896528e-02  9.9983414095717441e-02  9.9992768202232796e-02  9.9975615015110667e-02  1.0000000000000003e-01  9.9996904671739786e-02  1.0000000000000003e-01  9.9997660245208536e-02  9.9997052865631861e-02  9.9996951944450213e-02  9.9995546651107478e-02  9.9995832185761996e-02  9.9994778146050775e-02  9.9992300328359138e-02  9.9992862807944866e-02  9.9991837836816977e-02  9.9987686953385141e-02  9.9990725468255978e-02  9.9986536733467912e-02  9.9990746561478994e-02  9.9980986195802340e-02  9.9986012663925580e-02  9.9979369986079356e-02  9.9983685190382546e-02  9.9978087782458369e-02  9.9971139495303715e-02  9.9973464784058663e-02  9.9965198547257994e-02  9.9959371126513916e-02  9.9956687137322475e-02  9.9956495797676487e-02  9.9936171548394251e-02  9.9964293968860973e-02  9.9909713215898754e-02  1.0000287580916759e-01  9.9834237669182826e-02  9.9994965364833849e-02  1.0008010748636571e-01  1.0004631938654582e-01  1.0003644238207539e-01  1.0001293759764912e-01  1.0004223064346031e-01  1.0002158253661912e-01  1.0001846070998766e-01  1.0001678949730772e-01  1.0001985984750481e-01  1.0000620606213519e-01  1.0000943410520043e-01  1.0000609175877746e-01  1.0000057850750022e-01  1.0000036200011289e-01  9.9999190985429517e-02  9.9995289148248415e-02  9.9995131430931042e-02  9.9994263843010286e-02  9.9991894101461032e-02  9.9991530506656309e-02  9.9990545792160435e-02  9.9989199730264849e-02  9.9987935661194072e-02  9.9988024464798042e-02  9.9985118494512248e-02  9.9987129806650948e-02  9.9981093108775634e-02  9.9989447385356686e-02  9.9971774571586403e-02  1.0000000000000003e-01  9.9996098187668553e-02  1.0000000000000003e-01  9.9997374199422437e-02  9.9996036721505407e-02  9.9995036059623801e-02  9.9994932470219497e-02  9.9994237256215493e-02  9.9991785830978994e-02  9.9992047966387082e-02  9.9990716036221325e-02  9.9987218662081517e-02  9.9988228462331200e-02  9.9985645340643206e-02  9.9983443269052175e-02  9.9982735347602741e-02  9.9989911881478488e-02  9.9969686686153608e-02  9.9982626904976349e-02  9.9976081122089028e-02  9.9971528720923089e-02  9.9973621218446732e-02  9.9967993474397193e-02  9.9957114356814855e-02  9.9963015334624955e-02  9.9949857289060334e-02  9.9949029780721260e-02  9.9938065057638234e-02  9.9957209245111242e-02  9.9903342251684846e-02  1.0000502641763905e-01  9.9821919619204752e-02  1.0002434996856766e-01  1.0005382372918506e-01  1.0006182234625466e-01  1.0001265752473013e-01  1.0004023410696397e-01  1.0003378055277075e-01  1.0003604871913059e-01  1.0001663580045296e-01  1.0003618042460345e-01  1.0001081414949434e-01  1.0002126165604268e-01  1.0001538213257612e-01  1.0000840768108342e-01  1.0000808961499985e-01  1.0000709949079610e-01  1.0000143029917045e-01  1.0000167560694270e-01  1.0000038929870086e-01  9.9997174102123956e-02  9.9996812185831174e-02  9.9996152507929148e-02  9.9993653394664470e-02  9.9993413214944954e-02  9.9991854937047694e-02  9.9991217103532148e-02  9.9988496656015141e-02  9.9990552947116410e-02  9.9983955190805052e-02  9.9992106604955083e-02  9.9975345917413638e-02  1.0000000000000003e-01  9.9995674851307823e-02  1.0000000000000003e-01  9.9996838592588302e-02  9.9994524569142249e-02  9.9994784678517301e-02  9.9993745363784511e-02  9.9991572447473281e-02  9.9991912657235366e-02  9.9990573230311561e-02  9.9987184174234967e-02  9.9988204864092406e-02  9.9985614837246592e-02  9.9981552326537840e-02  9.9982769160231452e-02  9.9982680524765846e-02  9.9973440229809349e-02  9.9988126710254532e-02  9.9967135653225986e-02  9.9970736770759086e-02  9.9973133917899748e-02  9.9969199631977979e-02  9.9959700477092961e-02  9.9963313042602586e-02  9.9956416387491823e-02  9.9942224060145218e-02  9.9953421347429350e-02  9.9931665530213515e-02  9.9948258604900655e-02  9.9907307704761389e-02  9.9994855162371762e-02  9.9817130770064294e-02  1.0003748057417622e-01  1.0006654715585256e-01  1.0003883496811793e-01  1.0003676373606056e-01  1.0005051787940629e-01  1.0002187940427813e-01  1.0002763052277593e-01  1.0005037241844292e-01  1.0000871091349180e-01  1.0002955725429963e-01  1.0002057306713341e-01  1.0001448836106538e-01  1.0001268430893363e-01  1.0001277396472795e-01  1.0000440949249369e-01  1.0000512455961737e-01  1.0000374812458730e-01  9.9999324365717915e-02  9.9998900396068249e-02  9.9998040970002200e-02  9.9995190954417487e-02  9.9994556158516809e-02  9.9993901917828573e-02  9.9991284647893697e-02  9.9991313772577861e-02  9.9988582823856129e-02  9.9989786605154229e-02  9.9983716013793980e-02  9.9991364101295652e-02  9.9974591202695667e-02  1.0000000000000003e-01  9.9995168204750989e-02  1.0000000000000003e-01  9.9996042711711627e-02  9.9994428818597977e-02  9.9993985234600291e-02  9.9991643793400350e-02  9.9991765708738412e-02  9.9990450413456514e-02  9.9987445738256728e-02  9.9988181539649446e-02  9.9986425912607299e-02  9.9981697307432685e-02  9.9982952193062552e-02  9.9981038261251834e-02  9.9974455875592588e-02  9.9980364806702651e-02  9.9972262285057081e-02  9.9978551911872882e-02  9.9963089216905249e-02  9.9970099082196659e-02  9.9958447938096523e-02  9.9967683310950212e-02  9.9957112880251484e-02  9.9948802430352285e-02  9.9950178932950065e-02  9.9947592275876351e-02  9.9924070363296244e-02  9.9954120950632872e-02  9.9902404661788499e-02  9.9986353335219796e-02  9.9824379170638494e-02  1.0002174661219523e-01  1.0007702351677639e-01  1.0005594189688456e-01  1.0005006062854670e-01  1.0003621717276241e-01  1.0003551800513148e-01  1.0004483233600822e-01  1.0001729060267302e-01  1.0004343055783897e-01  1.0002123853842063e-01  1.0002353666117350e-01  1.0001709466237661e-01  1.0002240889857555e-01  1.0000922313233739e-01  1.0001153489728248e-01  1.0000940680876692e-01  1.0000368670022391e-01  1.0000349715751952e-01  1.0000275319953668e-01  9.9998442427478226e-02  9.9998310494283288e-02  9.9997242190028424e-02  9.9994934221309187e-02  9.9993632241687655e-02  9.9993516349181591e-02  9.9989882164374419e-02  9.9991559476448069e-02  9.9985483565506503e-02  9.9992483499583520e-02  9.9976436213858877e-02  1.0000000000000003e-01  9.9994606386897875e-02  1.0000000000000003e-01  9.9996063218506542e-02  9.9993893950696827e-02  9.9992525832585180e-02  9.9991888842684451e-02  9.9990827098477203e-02  9.9987883339783451e-02  9.9988176211745355e-02  9.9986890385241126e-02  9.9983026846007836e-02  9.9983667613314467e-02  9.9981591103589632e-02  9.9975776929376134e-02  9.9978850734177435e-02  9.9974609506682521e-02  9.9970573282064767e-02  9.9969961034211421e-02  9.9979927915695641e-02  9.9948700006026917e-02  9.9968257890400730e-02  9.9959113143150979e-02  9.9949923690014861e-02  9.9958225542203141e-02  9.9945367798886936e-02  9.9938284994042656e-02  9.9935234050610916e-02  9.9947332315324752e-02  9.9896740478242430e-02  9.9989782745494540e-02  9.9825506729183999e-02  1.0003160292968181e-01  1.0006501108033991e-01  1.0006699591338576e-01  1.0003500717986159e-01  1.0004892880736065e-01  1.0005042615299761e-01  1.0002854175269078e-01  1.0003275683460340e-01  1.0003159457750209e-01  1.0003347687036458e-01  1.0001483244642144e-01  1.0003144729431039e-01  1.0001139628827095e-01  1.0001797310462639e-01  1.0001429676969142e-01  1.0000760691605093e-01  1.0000689941100160e-01  1.0000647870486887e-01  1.0000112863500683e-01  1.0000097632758745e-01  9.9999956380193544e-02  9.9996430268927891e-02  9.9996155417231877e-02  9.9994757339155735e-02  9.9993144196996731e-02  9.9990686348130978e-02  9.9992055940438224e-02  9.9985619463845432e-02  9.9992546021764314e-02  9.9976845862450286e-02  1.0000000000000003e-01  9.9994364343322317e-02  1.0000000000000003e-01  9.9995828709986717e-02  9.9992810390666292e-02  9.9992841720661807e-02  9.9991284954857332e-02  9.9988772167238865e-02  9.9988640435940898e-02  9.9987246275257707e-02  9.9983627785820706e-02  9.9984742737026316e-02  9.9982658416293432e-02  9.9977418839224799e-02  9.9979479452876233e-02  9.9976455524814295e-02  9.9970221194500247e-02  9.9972354608515362e-02  9.9972131199350292e-02  9.9957293033302336e-02  9.9980068400600947e-02  9.9948455194818431e-02  9.9952952869362829e-02  9.9957383079650394e-02  9.9953776832600524e-02  9.9935535568570627e-02  9.9952164562019455e-02  9.9930097085403582e-02  9.9937749597325917e-02  9.9910401252819178e-02  9.9981215667431400e-02  9.9825692450734457e-02  1.0004130733925250e-01  1.0007608048641423e-01  1.0005451368661569e-01  1.0004463762404632e-01  1.0006150937466592e-01  1.0003647945400528e-01  1.0004136345836083e-01  1.0004159896374247e-01  1.0002553590504877e-01  1.0002156010187750e-01  1.0004309408486642e-01  1.0000886993957787e-01  1.0002540103822731e-01  1.0001820194375965e-01  1.0001371426265177e-01  1.0001095582709200e-01  1.0001185916075621e-01  1.0000432597236768e-01  1.0000456488462303e-01  1.0000370829105809e-01  9.9999532476484507e-02  9.9998558291296849e-02  9.9998076701149408e-02  9.9994634213790026e-02  9.9994692633893476e-02  9.9992081647296602e-02  9.9992484540708818e-02  9.9986852031503384e-02  9.9993336757054074e-02  9.9978036038627066e-02  1.0000000000000003e-01  9.9994132007209580e-02  1.0000000000000003e-01  9.9995380145460847e-02  9.9993139716916063e-02  9.9992620265148144e-02  9.9989915627134593e-02  9.9989681043689868e-02  9.9988170342798069e-02  9.9984859576895430e-02  9.9985350810855758e-02  9.9983893229224172e-02  9.9979221111759775e-02  9.9980822449833417e-02  9.9978518096048713e-02  9.9972328151229264e-02  9.9974770698617044e-02  9.9971970442259028e-02  9.9962050168984101e-02  9.9971107340517895e-02  9.9959654994473984e-02  9.9966724386623143e-02  9.9947858977804768e-02  9.9954905901013955e-02  9.9940483947558056e-02  9.9952203165835724e-02  9.9945731829908249e-02  9.9920977428286498e-02  9.9952897738262381e-02  9.9907856364701217e-02  9.9968838036442867e-02  9.9845739307473799e-02  1.0002580686683517e-01  1.0009956419380911e-01  1.0006038618987208e-01  1.0005578434454125e-01  1.0004835225626540e-01  1.0004442688997728e-01  1.0005180651101070e-01  1.0003223164915585e-01  1.0003063138450825e-01  1.0003459279600777e-01  1.0001484355116837e-01  1.0003358011165894e-01  1.0001638002566395e-01  1.0001959670252245e-01  1.0001294169931302e-01  1.0001807827726635e-01  1.0000716041491532e-01  1.0000834580647303e-01  1.0000705566109645e-01  1.0000182982826211e-01  1.0000152402090796e-01  1.0000069533273366e-01  9.9996897284433978e-02  9.9995866397848923e-02  9.9995672985807305e-02  9.9991802478868921e-02  9.9993114599995367e-02  9.9987692017058663e-02  9.9993320577441647e-02  9.9978832125065795e-02  1.0000000000000003e-01  9.9993771503454842e-02  1.0000000000000003e-01  9.9995587798372865e-02  9.9992992884423967e-02  9.9991699656694091e-02  9.9990636360624899e-02  9.9989482524953197e-02  9.9986354654366005e-02  9.9986329349394026e-02  9.9984927949075444e-02  9.9981059419623763e-02  9.9981724298741290e-02  9.9980224123744660e-02  9.9974851433878659e-02  9.9976875896627113e-02  9.9974396781193464e-02  9.9965853991382844e-02  9.9970845176078058e-02  9.9964860801086311e-02  9.9958948630524416e-02  9.9958946663031956e-02  9.9972749177649173e-02  9.9927888448080732e-02  9.9958810955416297e-02  9.9942134028571841e-02  9.9936093581182092e-02  9.9939898157709900e-02  9.9948234166824731e-02  9.9897560671164121e-02  9.9984392356528992e-02  9.9847559080815967e-02  1.0001779324955394e-01  1.0010757070668812e-01  1.0007575811255573e-01  1.0004350214332400e-01  1.0005248012887560e-01  1.0005516145990451e-01  1.0004038975043600e-01  1.0003742874113861e-01  1.0004268527806447e-01  1.0002285830828510e-01  1.0002435190151895e-01  1.0002240503594124e-01  1.0002703944174889e-01  1.0000962531765074e-01  1.0002478460633500e-01  1.0000868584524757e-01  1.0001335683035420e-01  1.0001070857548200e-01  1.0000521994326773e-01  1.0000402654218125e-01  1.0000392345434854e-01  9.9999207754484801e-02  9.9998888979239212e-02  9.9997279236732836e-02  9.9994996056917876e-02  9.9992792516947621e-02  9.9994031421572357e-02  9.9987887378254620e-02  9.9993869892530451e-02  9.9979937037725897e-02  1.0000000000000003e-01  9.9993870724652420e-02  1.0000000000000003e-01  9.9995743745925306e-02  9.9992516825395769e-02  9.9992528464408842e-02  9.9990813666514425e-02  9.9988401722914122e-02  9.9987916234926172e-02  9.9986508432638552e-02  9.9982990710664063e-02  9.9983610313722493e-02  9.9981861736034280e-02  9.9977138268769458e-02  9.9979011255436262e-02  9.9977241651966434e-02  9.9970187578044004e-02  9.9973217930036148e-02  9.9969663813140527e-02  9.9960617706011168e-02  9.9964750076172906e-02  9.9964364335143926e-02  9.9944186580822214e-02  9.9975147385391733e-02  9.9935082093699917e-02  9