<?xml version="1.0"?>
<VTKFile type="UnstructuredGrid"  version="0.1"  >
<UnstructuredGrid>
<Piece  NumberOfPoints="1933" NumberOfCells="3640">
<Points>
<DataArray  type="Float64"  NumberOfComponents="3"  format="ascii">-0.4752649936275795 -0.002224455439429872 0  4.524735035172516 -0.002158305138736647 0  4.524635775219247 7.497841748689964 0  -0.4753642535636847 7.497775600897316 0  9.524735091963354 -0.002092186178678487 0  9.524635816709351 7.497907861038505 0  14.52473519348736 -0.002026066023239678 0  14.52463587183167 7.497973974971821 0  19.52473534658187 -0.001959906904196837 0  19.52463593860082 7.498040129130975 0  24.52473555048384 -0.001893670399167981 0  24.5246360119622 7.498106361784314 0  29.52473579882078 -0.001827318755067244 0  29.5246360836369 7.498172710303526 0  34.5247360808976 -0.001760814865122303 0  34.52463614199609 7.498239211416842 0  39.52473638233735 -0.001694121698831508 0  39.5246361718748 7.49830590182657 0  44.52473668521014 -0.001627201522041259 0  44.52463615425358 7.498372818979805 0  49.52473696775879 -0.001560015039569505 0  49.5246360657591 7.498440001900629 0  54.52473720378354 -0.001492520497945549 0  54.52463587794709 7.498507492057436 0  59.52473736170337 -0.001424672739238408 0  59.52463555632778 7.49857533427451 0  64.52473740326913 -0.001356422170593356 0  64.52463505908108 7.498643577718457 0  69.52473728185777 -0.001287713594145977 0  69.52463433538766 7.498712277005276 0  74.52473694022665 -0.001218484820610875 0  74.52463332327113 7.498781493488331 0  79.52473630752995 -0.001148664961377954 0  79.52463194680664 7.498851296803045 0  84.52473529528814 -0.001078172253021334 0  84.52463011249743 7.498921766761221 0  89.52473379182165 -0.001006911208986802 0  89.52462770455583 7.498992995701489 0  94.52473165436307 -0.0009347688099781886 0  94.5246245787536 7.499065091399248 0  99.5247286975487 -0.0008616093347206275 0  99.52462055445133 7.499138180585679 0  104.5247246761073 -0.0007872673080769642 0  104.5246154044339 7.499212412941666 0  109.5247192579906 -0.0007115379599011866 0  109.5246088424227 7.499287964939512 0  114.5247119813786 -0.0006341647257412865 0  114.5246005089429 7.499365041714667 0  119.5247021839108 -0.0005548241897247698 0  119.5245899583334 7.49944387242229 0  124.5246888832896 -0.0004731118444557129 0  124.5245766546916 7.499524688515217 0  129.5246705717518 -0.0003885407732575925 0  129.5245599956944 7.499607661486523 0  134.5246448569577 -0.0003005897215448703 0  134.5245394070297 7.49969274989984 0  139.524607828513 -0.0002089051551867607 0  139.5245145991154 7.49977935308962 0  144.5245529343402 -0.0001139618086865121 0  144.5244861753925 7.499865578640162 0  149.5244689725148 -1.913156557483576e-05 0  149.524456973912 7.499946841645026 0  159.5244717418524 1.08511459903533e-18 0  164.524499501765 2.272308673202905e-06 0  164.5244774659469 7.499997417652476 0  159.524463158805 7.499988551328922 0  169.5245284346217 2.309690780466768e-05 0  169.5244915433499 7.500021000842304 0  174.5245553188916 5.63558068528147e-05 0  174.5245054121065 7.500055493978295 0  179.5245791517943 9.820746507858459e-05 0  179.524518714507 7.500097912751171 0  184.5245998292731 0.0001461271566536209 0  184.5245311455961 7.500146092277665 0  189.5246175882839 0.0001984098811363455 0  189.5245425288954 7.500198489918663 0  194.5246327697652 0.0002538786197717147 0  194.5245527976719 7.500254004774391 0  199.5246457210622 0.0003117040327175539 0  199.5245619598138 7.500311843893881 0  204.5246567593169 0.0003712902513158775 0  204.5245700677578 7.500371428960928 0  209.5246661610209 0.0004322012537536036 0  209.524577197228 7.500432332434759 0  214.5246741622487 0.0004941125787965283 0  214.5245834335408 7.500494233928753 0  219.5246809627644 0.0005567790668276586 0  219.524588863357 7.500556890209047 0  224.5246867311045 0.0006200128823914747 0  224.5245935700296 7.500620114318798 0  229.5246916094902 0.0006836682401355892 0  229.5245976312258 7.500683760845382 0  234.5246957181798 0.0007476305819013287 0  234.5246011179321 7.500747715364769 0  239.5246991591917 0.000811808769086518 0  239.5246040942813 7.500811886766895 0  244.5247020194564 0.0008761293621388652 0  244.5246066178438 7.500876201602023 0  249.5247043734845 0.0009405323795034093 0  249.5246087401751 7.500940599873888 0  254.5247062856517 0.001004968135002201 0  254.5246105074916 7.501005031894844 0  259.5247078121828 0.001069394890270455 0  259.524611961393 7.501069455947063 0  264.5247090029183 0.001133777155439617 0  264.5246131395935 7.501133836585049 0  269.5247099029104 0.001198084544874926 0  269.5246140766268 7.501198143483856 0  274.5247105539124 0.001262291158267171 0  274.5246148044952 7.501262350795099 0  279.5247109957621 0.001326375521010989 0  279.5246153532465 7.501326437026265 0  284.5247112676552 0.001390321190718008 0  284.5246157514248 7.501390385513032 0  289.5247114091923 0.001454118226641718 0  289.5246160263767 7.501454185610793 0  294.5247114609592 0.001517765826083457 0  294.5246162043634 7.501517834784383 0  299.5247114640758 0.001581276523754303 0  299.5246163105115 7.501581341809651 0  304.524711457583 0.001644682255926394 0  304.5246163688049 7.501644731301432 0  309.5247114713379 0.001708041552121962 0  309.5246164027865 7.501708049868794 0  4.524536485917498 14.99784185013752 0  -0.4754635385900304 14.99777573659252 0  9.524536506611438 14.99790792795511 0  14.52453651958387 14.99797401339186 0  19.52453651874225 14.99804014504022 0  24.52453649634855 14.99810635940127 0  29.52453644278888 14.99817269189292 0  34.52453634615089 14.99823917751407 0  39.52453619176462 14.99830585148693 0  44.52453596171829 14.99837274993177 0  49.52453563432168 14.99843991057143 0  54.52453518348184 14.99850737346038 0  59.52453457795895 14.99857518174168 0  64.52453378047541 14.99864338244303 0  69.52453274665365 14.99871202732549 0  74.52453142377381 14.99878117379635 0  79.52452974935191 14.99885088588433 0  84.52452764958971 14.99892123524455 0  89.5245250378139 14.99899230209575 0  94.52452181317628 14.99906417585852 0  99.52451786014824 14.99913695500197 0  104.5245130498213 14.99921074510213 0  109.5245072448296 14.99928565316391 0  114.5245003110418 14.99936177450422 0  119.5244921411962 14.99943916534398 0  124.5244826984559 14.99951778882563 0  129.5244720908583 14.99959741340089 0  134.524460688456 14.99967743003644 0  139.5244492864526 14.99975654192091 0  144.5244392814887 14.99983228379025 0  149.5244327215662 14.99990039685382 0  164.5244459913569 14.9999844969156 0  159.5244403494702 14.99996050122648 0  169.5244508765568 15.00001551395102 0  174.5244559002867 15.00005357813402 0  179.5244612363182 15.0000976634554 0  184.5244667790266 15.00014657779669 0  189.5244723526084 15.00019925923191 0  194.5244777952079 15.00025484420382 0  199.5244829848514 15.00031265661732 0  204.5244878411033 15.00037217523273 0  209.5244923182001 15.00043299991117 0  214.5244963964536 15.00049482297562 0  219.5245000745127 15.00055740668265 0  224.5245033632165 15.00062056607664 0  229.5245062810301 15.00068415611514 0  234.5245088508083 15.00074806203462 0  239.5245110975748 15.0008121921276 0  244.5245130470531 15.00087647230558 0  249.5245147247361 15.00094084199059 0  254.5245161553293 15.00100525100776 0  259.5245173624486 15.00106965724921 0  264.5245183684842 15.0011340249518 0  269.5245191945716 15.00119832348825 0  274.5245198606171 15.00126252661416 0  279.5245203853569 15.00132661214827 0  284.5245207864471 15.00139056208807 0  289.5245210806004 15.0014543631729 0  294.5245212838796 15.00151800789047 0  299.524521412326 15.00158149586212 0  304.5245214833077 15.00164483541578 0  309.5245215182526 15.00170804496999 0  4.524437293596625 22.4978419982295 0  -0.4755627269693345 22.49777597472031 0  9.524437300991565 22.49790800400283 0  14.52443728721419 22.49797403122633 0  19.52443724444063 22.49804011472881 0  24.52443716439908 22.49810628721094 0  29.52443703792086 22.49817258052551 0  34.52443685449801 22.49823902645374 0  39.5244366018577 22.49830565728196 0  44.52443626556513 22.49837250631306 0  49.52443582865476 22.49843960836006 0  54.52443527128371 22.49850700023039 0  59.52443457040862 22.49857472119476 0  64.52443369950076 22.49864281342449 0  69.52443262833546 22.49871132236652 0  74.52443132292623 22.49878029700318 0  79.52442974572239 22.49884978990117 0  84.52442785626587 22.49891985688339 0  89.52442561261827 22.49899055603458 0  94.52442297403488 22.49906194554992 0  99.52441990560686 22.49913407959896 0  104.5244163859114 22.49920700083664 0  109.5244124191025 22.4992807273419 0  114.5244080532459 22.49935523049178 0  119.524403406812 22.49943039852172 0  124.5243987045377 22.49950597848173 0  129.5243943212022 22.49958148796062 0  134.5243908252487 22.49965609039256 0  139.5243890007828 22.4997284419831 0  144.5243898042791 22.4997965631255 0  149.5243941875875 22.4998579038859 0  164.5244008742239 22.49996885995743 0  159.5244005938852 22.49993322849971 0  169.5244006101358 22.50000751032608 0  174.5244003956178 22.5000501398493 0  179.5244005686903 22.50009679572829 0  184.524401233425 22.50014707510504 0  189.5244023555501 22.50020042273449 0  194.5244038390401 22.5002562812946 0  199.5244055721852 22.50031415389984 0  204.5244074508753 22.50037362204332 0  209.5244093880768 22.50043434350522 0  214.524411315921 22.50049604268621 0  219.5244131842985 22.5005584991847 0  224.5244149581206 22.50062153706645 0  229.5244166143293 22.5006850156682 0  234.5244181391569 22.50074882206189 0  239.52441952581 22.50081286502481 0  244.5244207726036 22.50087707027567 0  249.524421881501 22.50094137674019 0  254.5244228569948 22.50100573364065 0  259.5244237052564 22.50107009824601 0  264.5244244334994 22.50113443415546 0  269.5244250495031 22.50119871002042 0  274.5244255612728 22.50126289863345 0  279.5244259768157 22.50132697632481 0  284.5244263040549 22.50139092260676 0  289.5244265509228 22.5014547199823 0  294.5244267257435 22.50151835377894 0  299.5244268380455 
[...]
<PointData  Scalars="p"> 
<DataArray  type="Float64"  Name="p"  format="ascii">1.0000000000000001e-01  1.0000000000000003e-01  9.9997878423998501e-02  1.0000000000000003e-01  1.0000000000000003e-01  9.9998660719001584e-02  1.0000000000000003e-01  9.9997973107978658e-02  1.0000000000000003e-01  9.9998123563850475e-02  1.0000000000000003e-01  9.9997720702342724e-02  1.0000000000000003e-01  9.9996246930154242e-02  1.0000000000000003e-01  9.9996177157275462e-02  1.0000000000000003e-01  9.9995172624535528e-02  1.0000000000000003e-01  9.9993436867375274e-02  1.0000000000000003e-01  9.9994712883865564e-02  1.0000000000000003e-01  9.9987492291225152e-02  1.0000000000000003e-01  9.9986126140968787e-02  1.0000000000000003e-01  9.9982875214011405e-02  1.0000000000000003e-01  9.9980954029018798e-02  1.0000000000000003e-01  9.9974821472759226e-02  1.0000000000000003e-01  9.9972877619352293e-02  1.0000000000000003e-01  9.9967604378875252e-02  1.0000000000000003e-01  9.9959819250913004e-02  1.0000000000000003e-01  9.9956850939962039e-02  1.0000000000000003e-01  9.9947551835395720e-02  1.0000000000000003e-01  9.9941398997534306e-02  1.0000000000000003e-01  9.9930557549785221e-02  1.0000000000000003e-01  9.9929926726539012e-02  1.0000000000000003e-01  9.9905157292191030e-02  1.0000000000000003e-01  9.9922490259578417e-02  1.0000000000000003e-01  9.9873183641442070e-02  1.0000000000000003e-01  9.9922606807610267e-02  1.0000000000000003e-01  9.9831541469327434e-02  1.0000000000000003e-01  9.9934490305348289e-02  1.0000000000000001e-01  9.9765826799772570e-02  1.0000000000000001e-01  1.0000000000000003e-01  1.0013662548792010e-01  1.0034093856931811e-01  1.0000000000000003e-01  1.0001539271305619e-01  1.0000000000000003e-01  1.0010366507240230e-01  1.0000000000000003e-01  1.0005103713184826e-01  1.0000000000000003e-01  1.0006414018196373e-01  1.0000000000000003e-01  1.0004990548385205e-01  1.0000000000000003e-01  1.0005332626951198e-01  1.0000000000000003e-01  1.0004116954779260e-01  1.0000000000000003e-01  1.0004157829105415e-01  1.0000000000000003e-01  1.0003663970619836e-01  1.0000000000000003e-01  1.0003266897249735e-01  1.0000000000000003e-01  1.0002986589391860e-01  1.0000000000000003e-01  1.0002780300423446e-01  1.0000000000000003e-01  1.0002441001294596e-01  1.0000000000000003e-01  1.0002286373884497e-01  1.0000000000000003e-01  1.0002122285548527e-01  1.0000000000000003e-01  1.0001924895999435e-01  1.0000000000000003e-01  1.0001808333515577e-01  1.0000000000000003e-01  1.0001712481626325e-01  1.0000000000000003e-01  1.0001580449906732e-01  1.0000000000000003e-01  1.0001519058449534e-01  1.0000000000000003e-01  1.0001434518086684e-01  1.0000000000000003e-01  1.0001393047355520e-01  1.0000000000000003e-01  1.0001287430861075e-01  1.0000000000000003e-01  1.0001343737934833e-01  1.0000000000000003e-01  1.0001128390734769e-01  1.0000000000000003e-01  1.0001379265962533e-01  1.0000000000000003e-01  1.0000872116441270e-01  1.0000000000000003e-01  1.0001679839452128e-01  1.0000000000000001e-01  1.0000000000000003e-01  9.9995283204338842e-02  1.0000000000000003e-01  9.9996016314548339e-02  9.9995839687100768e-02  9.9995285104149415e-02  9.9993353840332477e-02  9.9993654952968011e-02  9.9993063752947683e-02  9.9990034940382305e-02  9.9991822313568249e-02  9.9990318661288824e-02  9.9989292869181415e-02  9.9980413765324100e-02  9.9985117531845538e-02  9.9976984454316339e-02  9.9981295924483599e-02  9.9976890255892889e-02  9.9970624181030018e-02  9.9971537058396440e-02  9.9967714367832680e-02  9.9957332341740909e-02  9.9961822600874203e-02  9.9950835789694076e-02  9.9950310065621717e-02  9.9938448003155309e-02  9.9954308622797958e-02  9.9908796048171322e-02  9.9980642464058481e-02  9.9851497362562630e-02  1.0004900151985192e-01  9.9763632075742112e-02  9.9835453988960252e-02  1.0048256581632688e-01  1.0017453240841495e-01  1.0001804550816318e-01  1.0004620258858642e-01  1.0003683582074725e-01  1.0005219062574544e-01  1.0002780675312725e-01  1.0003834030427131e-01  1.0003292216238181e-01  1.0002712573600223e-01  1.0002629372481617e-01  1.0002562961464452e-01  1.0002022022416990e-01  1.0001992758086878e-01  1.0001883489200891e-01  1.0001581092465521e-01  1.0001512895139426e-01  1.0001439109723974e-01  1.0001236191886227e-01  1.0001166592211176e-01  1.0001105782173678e-01  1.0000951100840050e-01  1.0000911928221408e-01  1.0000800353140195e-01  1.0000777806673208e-01  1.0000580506797363e-01  1.0000757406262273e-01  1.0000274623501701e-01  1.0000858301602637e-01  1.0000000000000003e-01  9.9992443882052695e-02  1.0000000000000003e-01  9.9995540677620037e-02  9.9993608344038240e-02  9.9991774188103816e-02  9.9991890545605686e-02  9.9991224441381824e-02  9.9986948394704539e-02  9.9988131974619698e-02  9.9987344560546823e-02  9.9983034899445419e-02  9.9981574516422950e-02  9.9987547490671014e-02  9.9963886243870481e-02  9.9975396648087925e-02  9.9969546045702601e-02  9.9961037711587472e-02  9.9964725332743878e-02  9.9958668947286541e-02  9.9945601706004375e-02  9.9948837329676438e-02  9.9942213136507113e-02  9.9923319358613524e-02  9.9935093108843326e-02  9.9911414982319174e-02  9.9921044594434502e-02  9.9888207238249219e-02  9.9939664174920839e-02  9.9820906543293370e-02  1.0003674300970311e-01  9.9632234194412347e-02  9.9924381082706071e-02  1.0038644743993601e-01  1.0022887854890412e-01  1.0004023811883893e-01  1.0006170046861432e-01  1.0009684233990722e-01  1.0003565498429505e-01  1.0006997132484813e-01  1.0005717415270930e-01  1.0004600313487357e-01  1.0004616786807574e-01  1.0004611555525549e-01  1.0003509167908924e-01  1.0003581493607949e-01  1.0003389391177625e-01  1.0002783041197438e-01  1.0002708073570540e-01  1.0002610339407031e-01  1.0002204026504120e-01  1.0002130361322685e-01  1.0002027489392766e-01  1.0001771637391933e-01  1.0001668736727576e-01  1.0001596503201979e-01  1.0001373822021539e-01  1.0001352594703031e-01  1.0001140184399637e-01  1.0001214103367245e-01  1.0000765711002839e-01  1.0001360224879075e-01  1.0000000000000003e-01  9.9990584898786553e-02  1.0000000000000003e-01  9.9994267077398669e-02  9.9989783999253387e-02  9.9990685347137565e-02  9.9989811536295936e-02  9.9985121945068409e-02  9.9986221143965118e-02  9.9985120266869135e-02  9.9979284787005435e-02  9.9981499237090252e-02  9.9981156214044589e-02  9.9968230545873921e-02  9.9983606660084531e-02  9.9960853575863803e-02  9.9960316708663427e-02  9.9962966780707943e-02  9.9961633449115184e-02  9.9945859751363247e-02  9.9954649559877484e-02  9.9944578312175805e-02  9.9931500169560844e-02  9.9933889918309399e-02  9.9932579931897941e-02  9.9902082144713814e-02  9.9936955743087225e-02  9.9878475511024814e-02  9.9953426340899432e-02  9.9815134771138389e-02  1.0006103798855802e-01  9.9613271074482548e-02  9.9943093717623929e-02  1.0049438395273741e-01  1.0013819845886063e-01  1.0002492789950582e-01  1.0017843323882940e-01  9.9994953991194693e-02  1.0009022325248727e-01  1.0005916264886826e-01  1.0005237292566169e-01  1.0005066289857395e-01  1.0005574724532303e-01  1.0003778635109177e-01  1.0004174799368493e-01  1.0003957377899658e-01  1.0003132910757949e-01  1.0003073790222754e-01  1.0002995479318812e-01  1.0002422340190016e-01  1.0002370366060148e-01  1.0002272101470114e-01  1.0001904209477337e-01  1.0001820536245815e-01  1.0001698439507176e-01  1.0001471611784908e-01  1.0001316537459054e-01  1.0001278033200839e-01  1.0000959952255030e-01  1.0001084439697210e-01  1.0000571122712194e-01  1.0001084342355582e-01  1.0000000000000003e-01  9.9988686699789747e-02  1.0000000000000003e-01  9.9991928970752833e-02  9.9989015602285222e-02  9.9989438341367046e-02  9.9984262007435792e-02  9.9985496410492924e-02  9.9983982278127673e-02  9.9977302507713986e-02  9.9979695803747826e-02  9.9979013963600719e-02  9.9967655869615937e-02  9.9974713663000564e-02  9.9967285994017066e-02  9.9969409784014793e-02  9.9951112710634615e-02  9.9959081298560765e-02  9.9940617912808741e-02  9.9952743464385208e-02  9.9944665079941764e-02  9.9925523369733080e-02  9.9937477618677634e-02  9.9922834507146077e-02  9.9910270281565405e-02  9.9907407672825244e-02  9.9919911590497651e-02  9.9860125258432131e-02  9.9951764562029061e-02  9.9790252779891037e-02  1.0006739464132305e-01  9.9555854798604765e-02  9.9851044910925515e-02  1.0054857424714896e-01  1.0019599472544723e-01  1.0008517695774942e-01  1.0007985653693341e-01  1.0011086736552552e-01  1.0007197844912673e-01  1.0006612525408375e-01  1.0005880149649853e-01  1.0007803436334202e-01  1.0004555121759386e-01  1.0005574361868869e-01  1.0005259769106094e-01  1.0004060294311198e-01  1.0004073706186849e-01  1.0004054395618729e-01  1.0003143886188882e-01  1.0003130199102488e-01  1.0003032742788910e-01  1.0002496940575986e-01  1.0002406046017623e-01  1.0002314024572534e-01  1.0001930677993250e-01  1.0001839369061040e-01  1.0001670986003565e-01  1.0001481640462014e-01  1.0001233095603253e-01  1.0001299956828114e-01  1.0000751215222906e-01  1.0001280172709869e-01  1.0000000000000003e-01  9.9986463021741148e-02  1.0000000000000003e-01  9.9991593621188368e-02  9.9987653818735353e-02  9.9984971144788493e-02  9.9984532962172329e-02  9.9983780164483907e-02  9.9977012049363656e-02  9.9978496032770356e-02  9.9977807033293037e-02  9.9968168119349374e-02  9.9971760321106967e-02  9.9968502348397131e-02  9.9959325239335178e-02  9.9960337976844296e-02  9.9974891653314704e-02  9.9927501032816141e-02  9.9953503622518772e-02  9.9942799580350281e-02  9.9927180051603781e-02  9.9938004690636711e-02  9.9931674540749679e-02  9.9902476422073574e-02  9.9926540097359545e-02  9.9899031496198387e-02  9.9903194428388117e-02  9.9871175777549101e-02  9.9947119649174701e-02  9.9771058839923002e-02  1.0009247230835835e-01  9.9511878730785472e-02  9.9885408370840978e-02  1.0050783755944816e-01  1.0024441533261240e-01  1.0000216502506117e-01  1.0012177238707276e-01  1.0009898025363285e-01  1.0010671495057274e-01  1.0003911044118440e-01  1.0010474987120607e-01  1.0004039060701073e-01  1.0006870832809586e-01  1.0006159991267267e-01  1.0004673759565047e-01  1.0004694050271794e-01  1.0004895171418018e-01  1.0003579302077711e-01  1.0003692476941442e-01  1.0003593478308943e-01  1.0002823759065356e-01  1.0002774205721073e-01  1.0002704644508816e-01  1.0002192958058077e-01  1.0002088503073170e-01  1.0001992840449550e-01  1.0001599942015715e-01  1.0001540226720157e-01  1.0001263507841067e-01  1.0001241000267597e-01  1.0000721756092004e-01  1.0001196176821095e-01  1.0000000000000003e-01  9.9985263974639416e-02  1.0000000000000003e-01  9.9990958467377031e-02  9.9983775472406805e-02  9.9985291573204571e-02  9.9983345470962812e-02  9.9977481354542347e-02  9.9978232545357149e-02  9.9977535753056235e-02  9.9968041570851124e-02  9.9971780915946787e-02  9.9969036686419141e-02  9.9956631649452093e-02  9.9961489940886675e-02  9.9963812219871190e-02  9.9939766869330621e-02  9.9970645045678611e-02  9.9930651729631115e-02  9.9925910984847197e-02  9.9936803727487644e-02  9.9931715077948582e-02  9.9907065097134568e-02  9.9921690380619918e-02  9.9916346393904634e-02  9.9875643130612465e-02  9.9919865964168936e-02  9.9860583795851277e-02  9.9925900524109865e-02  9.9780569799082702e-02  1.0008690365552655e-01  9.9475488222222283e-02  9.9908919596938164e-02  1.0055676611814116e-01  1.0018785343520532e-01  1.0004087794909121e-01  1.0015511995262374e-01  1.0005962382603786e-01  1.0008926284848731e-01  1.0013917648187812e-01  1.0003194193958002e-01  1.0008424618811336e-01  1.0006868782480512e-01  1.0005785282940757e-01  1.0005407977675576e-01  1.0006072879027374e-01  1.0004163950512560e-01  1.0004448498315231e-01  1.0004403544864189e-01  1.0003410302563408e-01  1.0003330037876040e-01  1.0003294995285680e-01  1.0002606663277572e-01  1.0002539986766468e-01  1.0002418470085851e-01  1.0001997574214631e-01  1.0001823467987390e-01  1.0001739627285172e-01  1.0001317552485210e-01  1.0001363480828732e-01  1.0000824287244972e-01  1.0001261537322467e-01  1.0000000000000003e-01  9.9984080059242683e-02  1.0000000000000003e-01  9.9988914167217280e-02  9.9983887940865795e-02  9.9984626053774089e-02  9.9978106818233409e-02  9.9979008752044712e-02  9.9977627908925518e-02  9.9969034221346953e-02  9.9971962848720244e-02  9.9970585982337531e-02  9.9957589117406903e-02  9.9962315673226040e-02  9.9961281482336614e-02  9.9943118929099406e-02  9.9958556587822794e-02  9.9945991074682022e-02  9.9949029965364533e-02  9.9922525776196869e-02  9.9935319707671513e-02  9.9902758638468162e-02  9.9930350693700140e-02  9.9913098124146338e-02  9.9891654767958499e-02  9.9900050650900560e-02  9.9912626060843501e-02  9.9835721226316468e-02  9.9948469310024352e-02  9.9769307535020710e-02  1.0007574802244698e-01  9.9473139988016296e-02  9.9850338212431097e-02  1.0060592862076297e-01  1.0022255465551498e-01  1.0007113091484308e-01  1.0010871782087380e-01  1.0007389046735836e-01  1.0012821040082273e-01  1.0006143804704680e-01  1.0011701243241566e-01  1.0005984129565983e-01  1.0007212619490359e-01  1.0005305547588651e-01  1.0007527657582541e-01  1.0004478912339060e-01  1.0005187146914285e-01  1.0005108618866602e-01  1.0003858090339540e-01  1.0003850225308408e-01  1.0003918165199370e-01  1.0002944513502650e-01  1.0002903352565019e-01  1.0002839408596687e-01  1.0002241857104811e-01  1.0002147203824549e-01  1.0001987957011318e-01  1.0001654848400919e-01  1.0001381319679924e-01  1.0001415616309432e-01  1.0000793212700979e-01  1.0001241080876470e-01  1.0000000000000003e-01  9.9982493065289280e-02  1.0000000000000003e-01  9.9989123266724961e-02  9.9983385251269194e-02  9.9980779395988581e-02  9.9979247337043844e-02  9.9978843238899870e-02  9.9970642256732301e-02  9.9972294615757379e-02  9.9971534551202584e-02  9.9960684071562819e-02  9.9963369918969272e-02  9.9962264398376202e-02  9.9945849196129588e-02  9.9955189184243856e-02  9.9951248852086019e-02  9.9936138928809509e-02  9.9940579811030314e-02  9.9962237940898716e-02  9.9889552212130361e-02  9.9930367650468366e-02  9.9917774944217733e-02  9.9886654805325811e-02  9.9919186219067743e-02  9.9893745420953722e-02  9.9881533813178366e-02  9.9866475440576127e-02  9.9939908337432243e-02  9.9743560263145153e-02  1.0009918274057196e-01  9.9458083029025021e-02  9.9858024058936776e-02  1.0058548737238708e-01  1.0025763038424523e-01  1.0002467244847961e-01  1.0013042671696845e-01  1.0011022606748084e-01  1.0008148759807152e-01  1.0008541021796076e-01  1.0010233759239515e-01  1.0009818309365441e-01  1.0004185291855731e-01  1.0009300419862870e-01  1.0004364802109483e-01  1.0006188489446674e-01  1.0005843775637027e-01  1.0004443598636004e-01  1.0004325974639425e-01  1.0004612573641163e-01  1.0003375489273734e-01  1.0003408215255209e-01  1.0003339200319049e-01  1.0002572790589050e-01  1.0002465738610543e-01  1.0002411710885716e-01  1.0001853578398269e-01  1.0001784857836185e-01  1.0001514223930824e-01  1.0001378864837321e-01  1.0000852958456399e-01  1.0001277806306003e-01  1.0000000000000003e-01  9.9981851089021148e-02  1.0000000000000003e-01  9.9988999176813018e-02  9.9980281212371291e-02  9.9981803497362257e-02  9.9979181716233753e-02  9.9973016555683747e-02  9.9973281375279735e-02  9.9972546659152381e-02  9.9962562918447059e-02  9.9965634231949652e-02  9.9964342052622057e-02  9.9949018428943423e-02  9.9955567414586055e-02  9.9954068613865618e-02  9.9935460573675486e-02  9.9944705390910174e-02  9.9949585080564812e-02  9.9911280295820401e-02  9.9961258399592967e-02  9.9902023494089595e-02  9.9893955216865754e-02  9.9911867002454066e-02  9.9913332520101789e-02  9.9859565896764965e-02  9.9919455596645543e-02  9.9859567349972422e-02  9.9906951140045219e-02  9.9777933499389931e-02  1.0009164034849655e-01  9.9431432603200837e-02  9.9877187398139083e-02  1.0061149938770378e-01  1.0022442023729614e-01  1.0003714527027348e-01  1.0016323103187998e-01  1.0006846524634935e-01  1.0009971766930444e-01  1.0010525622846116e-01  1.0007811227714640e-01  1.0007082400072448e-01  1.0012292205589257e-01  1.0003092125353542e-01  1.0007414582844987e-01  1.0005983752914069e-01  1.0005289470550369e-01  1.0004655766626531e-01  1.0005374770291420e-01  1.0003689322388716e-01  1.0003827662798791e-01  1.0003889568785279e-01  1.0002949539048338e-01  1.0002808209077346e-01  1.0002768646794782e-01  1.0002137834460063e-01  1.0001983135399352e-01  1.0001914656152132e-01  1.0001398747962079e-01  1.0001422547906134e-01  1.0000890044415360e-01  1.0001246310294597e-01  1.0000000000000003e-01  9.9981305866963993e-02  1.0000000000000003e-01  9.9987608494368982e-02  9.9981028989455878e-02  9.9982118499853084e-02  9.9975017981254050e-02  9.9975492341822070e-02  9.9973931673234262e-02  9.9965429717831303e-02  9.9967273554701724e-02  9.9966892553597766e-02  9.9953220575918378e-02  9.9957967839817169e-02  9.9956721725357384e-02  9.9938975740844330e-02  9.9947967861899190e-02  9.9947828237167011e-02  9.9920678810864846e-02  9.9944972519419445e-02  9.9928881321980953e-02  9.9928089387661109e-02  9.9899979465523966e-02  9.9911938575019649e-02  9.9871841433021705e-02  9.9903530490496939e-02  9.9909739704617015e-02  9.9823592825912216e-02  9.9947869829226890e-02  9.9775904478195718e-02  1.0005368534650044e-01  9.9471083680988032e-02  9.9835815942789799e-02  1.0066113259632467e-01  1.0023448802359247e-01  1.0006406436426489e-01  1.0012815691459477e-01  1.0007974045776578e-01  1.0012702715777928e-01  1.0007575446759756e-01  1.0008069068129011e-01  1.0010007212483896e-01  1.0006113651327468e-01  1.0009683177392277e-01  1.0005097576463157e-01  1.0006362151151994e-01  1.0004489211912235e-01  1.0006412484762107e-01  1.0003925991109743e-01  1.0004336369243383e-01  1.0004366783746940e-01  1.0003269359101395e-01  1.0003207461098132e-01  1.0003289576615450e-01  1.0002383158888496e-01  1.0002306829172486e-01  1.0002185804531322e-01  1.0001727329175007e-01  1.0001465571911637e-01  1.0001505627103691e-01  1.0000842922957053e-01  1.0001257155009677e-01  1.0000000000000003e-01  9.9980232846310441e-02  1.0000000000000003e-01  9.9988050570970141e-02  9.9981168503447460e-02  9.9979171887614737e-02  9.9976708501623837e-02  9.9976336755915191e-02  9.9968206849597160e-02  9.9969106330478702e-02  9.9968702590169017e-02  9.9957771607071907e-02  9.9960055684031934e-02  9.9959751235862870e-02  9.9943931266632161e-02  9.9950173420121829e-02  9.9950726621980276e-02  9.9927063584371326e-02  9.9942233479653073e-02  9.9937746213914561e-02  9.9915517440095913e-02  9.9924086775104767e-02  9.9956535436414654e-02  9.9849837477093223e-02  9.9920344560713623e-02  9.9888855999767934e-02  9.9869351740190251e-02  9.9875184725611438e-02  9.9941292011296992e-02  9.9735685283131217e-02  1.0009534120241516e-01  9.9475885930326663e-02  9.9819015161194471e-02  1.0065861235320345e-01  1.0026881296885040e-01  1.0003109990502772e-01  1.0013315342826024e-01  1.0010674334503808e-01  1.0009597022142255e-01  1.0008086966536912e-01  1.0010847695792954e-01  1.0006576061717352e-01  1.0007364693722379e-01  1.0007974665047029e-01  1.0008525204503443e-01  1.0003201234292006e-01  1.0007663681926753e-01  1.0003685282224677e-01  1.0005015655240057e-01  1.0004779543547135e-01  1.0003656783473192e-01  1.0003442659290671e-01  1.0003716941051143e-01  1.0002707623287604e-01  1.0002639874137671e-01  1.0002570193931933e-01  1.0001875885773882e-01  1.0001789278242715e-01  1.0001580839760207e-01  1.0001353643311781e-01  1.0000864709481179e-01  1.0001255721362053e-01  1.0000000000000003e-01  9.9980192944090482e-02  1.0000000000000003e-01  9.9988487207815988e-02  9.9979157112330574e-02  9.9980803153458087e-02  9.9977697743392283e-02  9.9972186508387281e-02  9.9971556959172217e-02  9.9970949495733041e-02  9.9961547706031911e-02  9.9963687566144932e-02  9.9962795609430014e-02  9.9948942046377373e-02  9.9953537669240325e-02  9.9954494666006394e-02  9.9934163619882874e-02  9.9943847558503926e-02  9.9944331565320343e-02  9.9917182850820824e-02  9.9932806861867493e-02  9.9940198903178151e-02  9.9887254411737764e-02  9.9955711590227508e-02  9.9885996777982891e-02  9