<?xml version="1.0"?>
<VTKFile type="UnstructuredGrid"  version="0.1"  >
<UnstructuredGrid>
<Piece  NumberOfPoints="1933" NumberOfCells="3640">
<Points>
<DataArray  type="Float64"  NumberOfComponents="3"  format="ascii">0.0002911089239497344 -0.002541873097090158 0  5.000291145145489 -0.002468287105309399 0  5.000180731288206 7.497531785256543 0  0.0001806916857383101 7.497458196188179 0  10.00029121396492 -0.002394747003491383 0  10.00018079100595 7.497605319972004 0  15.00029133988184 -0.002321221246232443 0  15.00018087496945 7.497678839314168 0  20.00029153678363 -0.002247667668249759 0  20.00018098397018 7.497752387367913 0  25.00029180961093 -0.002174040549581187 0  25.00018111531981 7.497826010077044 0  30.00029215638806 -0.002100293151134357 0  30.00018126260483 7.497899753923353 0  35.00029256973183 -0.002026378259028174 0  35.00018141549267 7.497973665768202 0  40.00029303772373 -0.001952247824449796 0  40.00018155950305 7.498047793321676 0  45.00029354422287 -0.001877852179826238 0  45.00018167565108 7.498122185941428 0  50.00029406871522 -0.001803139036483777 0  50.00018173989313 7.498196895618357 0  55.00029458575926 -0.001728052335026517 0  55.0001817223199 7.498271978097606 0  60.00029506404618 -0.001652530949180369 0  60.00018158604145 7.498347494137442 0  65.00029546504595 -0.001576507200713373 0  65.00018128569133 7.498423510944056 0  70.00029574115622 -0.001499905108705133 0  70.00018076545356 7.498500103848251 0  75.00029583321165 -0.001422638259836162 0  75.00017995647461 7.498577358317083 0  80.00029566711385 -0.001344607138829418 0  80.00017877346964 7.498655372425055 0  85.00029514921013 -0.001265695690952793 0  85.00017711026069 7.498734259945616 0  90.00029415981561 -0.001185766791267031 0  90.00017483389271 7.498814154262485 0  95.00029254390695 -0.001104656155806957 0  95.00017177686919 7.498895213327949 0  100.0002900973606 -0.001022164036812829 0  100.0001677269566 7.498977625874222 0  105.0002865459801 -0.0009380437982227368 0  105.0001624139961 7.499061618923942 0  110.0002815125341 -0.0008519862148835163 0  110.0001554934126 7.499147466131432 0  115.0002744633809 -0.0007635982629561484 0  115.0001465270686 7.499235495144881 0  120.0002646196209 -0.0006723758358496555 0  120.000134964688 7.499326088969855 0  125.0002508056002 -0.0005776728284924541 0  125.0001201353686 7.499419669036148 0  130.0002311854449 -0.0004786787832483601 0  130.0001012729447 7.499516631795199 0  135.0002027979829 -0.0003744461061880041 0  135.0000776298759 7.499617177458029 0  140.0001607271381 -0.0002640924287727315 0  140.0000487991392 7.499720904582367 0  145.000096609631 -0.0001475656775093718 0  145.000015496698 7.499825938128692 0  149.9999959088121 -2.826383525431611e-05 0  149.9999813346815 7.499927299866564 0  160 1.49749563080254e-18 0  165.0000214350074 -1.281283919654388e-05 0  165.0000046848969 7.499979161659175 0  159.9999913517231 7.499981385443417 0  170.0000493450806 -1.461022179100033e-06 0  170.0000177878696 7.499994873216131 0  175.0000775783004 2.628528368006741e-05 0  175.0000312705106 7.500024605012721 0  180.0001037397133 6.552221644211982e-05 0  180.0000447623594 7.500064791174315 0  185.0001270547947 0.0001129728244807857 0  185.0000578052592 7.500112703988244 0  190.0001474421977 0.0001663901335775169 0  190.000070066996 7.500166346005175 0  195.0001650988945 0.0002242049718389118 0  195.0000813581161 7.500224267627455 0  200.0001803146158 0.0002853024309853523 0  200.0000915994261 7.500285412861598 0  205.0001933911552 0.0003488765664082855 0  205.0001007853179 7.500349005253674 0  210.0002046097168 0.0004143348267149135 0  210.0001089547441 7.500414467167761 0  215.00021421996 0.0004812344612733365 0  215.000116171006 7.500481363453085 0  220.0002224385077 0.0005492396135355248 0  220.0001225086491 7.50054936214497 0  225.0002294512784 0.0006180919014485999 0  225.0001280453915 7.500618206858661 0  230.0002354171043 0.0006875898912981012 0  230.0001328574152 7.500687697184189 0  235.000240471537 0.0007575745210979026 0  235.0001370168156 7.500757674582499 0  240.0002447304027 0.0008279185720438904 0  240.0001405904069 7.500828012102855 0  245.0002482929836 0.0008985189472640458 0  245.0001436393557 7.500898606791917 0  250.0002512448087 0.0009692909397769246 0  250.0001462193138 7.50096937403249 0  255.0002536601134 0.001040163946547329 0  255.0001483808471 7.501040243297277 0  260.0002556040234 0.001111078269498648 0  260.00015017002 7.501111154972311 0  265.0002571345383 0.001181982773348793 0  265.000151629067 7.501182058025368 0  270.0002583043606 0.001252833267970591 0  270.00015279709 7.501252908385873 0  275.000259162635 0.001323591566673944 0  275.0001537107303 7.50132366797881 0  280.0002597566046 0.001394225255294671 0  280.0001544047867 7.501394304425384 0  285.0002601331751 0.001464708303144016 0  285.0001549127145 7.501464791495395 0  290.0002603402571 0.001535022768239024 0  290.0001552669594 7.501535110473139 0  295.0002604276041 0.001605162002101006 0  295.0001554990772 7.50160525267543 0  300.0002604464693 0.001675135916952303 0  300.0001556396617 7.501675223421041 0  305.0002604466876 0.001744978863341601 0  305.0001557183352 7.501745047776367 0  310.0002604682774 0.001814759635166817 0  310.0001557646629 7.501814778525578 0  5.000070251013555 14.99753192621304 0  7.021558589731525e-05 14.99745836315223 0  10.00007028725987 14.99760542582042 0  15.00007032255004 14.99767891311227 0  20.00007035178231 14.99775243454232 0  25.00007036765222 14.9978260351726 0  30.00007036058246 14.9978997597562 0  35.0000703182893 14.99797365337681 0  40.0000702252478 14.99804776210763 0  45.00007006210465 14.99812213377806 0  50.00006980501865 14.99819681884814 0  55.00006942488898 14.9982718713833 0  60.00006888642921 14.99834735013468 0  65.00006814704801 14.99842331974325 0  70.00006715549981 14.99849985209584 0  75.00006585028119 14.99857702786456 0  80.00006415776453 14.99865493825434 0  85.00006199010991 14.99873368695567 0  90.00005924308364 14.99881339223309 0  95.00005579409326 14.99889418893158 0  100.000051501075 14.99897622987825 0  105.0000462034758 14.99905968554978 0  110.0000397275983 14.99914473970289 0  115.0000319003111 14.99923157645551 0  120.0000225778156 14.99932035026648 0  125.000011699973 14.99941112315131 0  129.9999993850539 14.99950374166979 0  134.9999860818467 14.99959760855092 0  139.9999727870208 14.99969128276588 0  144.999961291885 14.99978183204998 0  149.9999542857564 14.99986389980358 0  164.9999725151405 14.99995725175017 0  159.9999665034625 14.99993766243581 0  169.9999769335106 14.99998440626382 0  174.9999812808584 15.00001995854375 0  179.9999860478236 15.00006305462949 0  184.999991239678 15.00011238916249 0  189.9999966887176 15.00016669580688 0  195.0000021989388 15.00022489949577 0  200.000007602418 15.00028613616845 0  205.0000127745679 15.00034972772352 0  210.0000176323102 15.00041514679363 0  215.0000221265058 15.00048198372975 0  220.0000262335603 15.0005499192961 0  225.0000299480695 15.00061870325747 0  230.0000332769963 15.00068813798482 0  235.0000362353302 15.00075806602223 0  240.0000388429646 15.00082836067673 0  245.0000411225278 15.00089891888301 0  250.0000430979199 15.00096965577919 0  255.0000447933621 15.00104050057923 0  260.000046232804 15.00111139344701 0  265.0000474395779 15.00118228316691 0  270.0000484362166 15.00125312547747 0  275.0000492443673 15.00132388199031 0  280.0000498847667 15.00139451966151 0  285.0000503772698 15.00146501081549 0  290.0000507409465 15.00153533373549 0  295.0000509943779 15.00160547381413 0  300.000051156373 15.00167542517374 0  305.0000512475954 15.00174519247469 0  310.0000512939471 15.00181479228942 0  4.999959845672356 22.49753214638058 0  -4.018514550579999e-05 22.49745867416578 0  9.999959864697464 22.49760556736359 0  14.99995986473941 22.49767898758309 0  19.99995983795179 22.49775245170619 0  24.99995977548521 22.4978260018541 0  29.99995966718983 22.49789967941545 0  34.99995950120581 22.49797352610217 0  39.99995926349656 22.49804758470873 0  44.99995893736939 22.49812189978939 0  49.99995850300166 22.49819651833813 0  54.99995793697368 22.49827149049705 0  59.99995721181276 22.49834687029612 0  64.99995629556587 22.4984227164133 0  69.99995515144101 22.49849909292898 0  74.99995373760048 22.49857607002308 0  79.99995200724574 22.49865372451507 0  84.99994990923418 22.49873214006248 0  89.99994738960928 22.49881140668558 0  94.99994439464662 22.4988916190337 0  99.99994087633279 22.49897287238361 0  104.9999368016247 22.49905525466296 0  109.9999321673771 22.49913883167385 0  114.9999270233763 22.4992236209816 0  119.9999215061854 22.49930954749147 0  124.9999158858044 22.49939637070304 0  129.9999106240111 22.49948357105203 0  134.9999064350285 22.49957018415291 0  139.9999043218722 22.49965458671144 0  144.9999055316743 22.49973428978804 0  149.9999113355748 22.49980593910385 0  164.9999228351413 22.49993133346486 0  159.9999217758146 22.49989563396641 0  169.9999225772075 22.49996962781968 0  174.9999219127253 22.50001220962371 0  179.9999214504965 22.5000595075333 0  184.9999214708922 22.50011125354248 0  189.9999220333227 22.5001668864222 0  194.999923079604 22.50022577602723 0  199.9999245032482 22.50028732876363 0  204.9999261886848 22.50035102756415 0  209.9999280304582 22.50041643970231 0  214.9999299407321 22.50048321060872 0  219.9999318506237 22.50055105279489 0  224.9999337086446 22.50061973409919 0  229.999935478043 22.5006890669939 0  234.9999371339677 22.5007588995053 0  239.9999386608696 22.50082910777378 0  244.9999400502932 22.50089959007572 0  249.999941299077 22.50097026207518 0  254.9999424079309 22.50104105308313 0  259.9999433803202 22.50111190313585 0  264.9999442216072 22.50118276074138 0  269.9999449383919 22.50125358117858 0  274.9999455380195 22.50132432525926 0  279.9999460282384 22.50139495847963 0  284.999946417025 22.50146545048426 0  289.999946712635 22.50153577473529 0  294.9999469240068 22.50160590820427 0  299.9999470616991 22
[...]
<PointData  Scalars="p"> 
<DataArray  type="Float64"  Name="p"  format="ascii">1.0000000000000001e-01  1.0000000000000003e-01  9.9996101361531253e-02  1.0000000000000003e-01  1.0000000000000003e-01  9.9995467689988626e-02  1.0000000000000003e-01  9.9993155686392346e-02  1.0000000000000003e-01  9.9991981700982363e-02  1.0000000000000003e-01  9.9990315132599941e-02  1.0000000000000003e-01  9.9987577661759822e-02  1.0000000000000003e-01  9.9986353063562627e-02  1.0000000000000003e-01  9.9984476693630406e-02  1.0000000000000003e-01  9.9981389443320010e-02  1.0000000000000003e-01  9.9980933083786805e-02  1.0000000000000003e-01  9.9973275522558316e-02  1.0000000000000003e-01  9.9969049118951284e-02  1.0000000000000003e-01  9.9964528663913671e-02  1.0000000000000003e-01  9.9960885254607681e-02  1.0000000000000003e-01  9.9953508281075507e-02  1.0000000000000003e-01  9.9950525096423146e-02  1.0000000000000003e-01  9.9945098093363993e-02  1.0000000000000003e-01  9.9936770068733041e-02  1.0000000000000003e-01  9.9934304182137348e-02  1.0000000000000003e-01  9.9926007036956074e-02  1.0000000000000003e-01  9.9920951933634816e-02  1.0000000000000003e-01  9.9911890918660567e-02  1.0000000000000003e-01  9.9914022512503795e-02  1.0000000000000003e-01  9.9891348378096323e-02  1.0000000000000003e-01  9.9912113370632827e-02  1.0000000000000003e-01  9.9865840614289603e-02  1.0000000000000003e-01  9.9918416018503695e-02  1.0000000000000003e-01  9.9830591976631605e-02  1.0000000000000003e-01  9.9935654410956073e-02  1.0000000000000001e-01  9.9770846485029124e-02  1.0000000000000001e-01  1.0000000000000003e-01  1.0018602479258081e-01  1.0038243168644921e-01  1.0000000000000003e-01  1.0005421604041759e-01  1.0000000000000003e-01  1.0014695635018525e-01  1.0000000000000003e-01  1.0009711346736799e-01  1.0000000000000003e-01  1.0011209328666819e-01  1.0000000000000003e-01  1.0009924046565193e-01  1.0000000000000003e-01  1.0010533696106652e-01  1.0000000000000003e-01  1.0009447633576035e-01  1.0000000000000003e-01  1.0009611638727428e-01  1.0000000000000003e-01  1.0009245654366837e-01  1.0000000000000003e-01  1.0008928546875016e-01  1.0000000000000003e-01  1.0008695929632377e-01  1.0000000000000003e-01  1.0008541722844677e-01  1.0000000000000003e-01  1.0008220661816773e-01  1.0000000000000003e-01  1.0008069616340272e-01  1.0000000000000003e-01  1.0007904731675579e-01  1.0000000000000003e-01  1.0007700177725561e-01  1.0000000000000003e-01  1.0007550222320728e-01  1.0000000000000003e-01  1.0007451408547556e-01  1.0000000000000003e-01  1.0007257341497776e-01  1.0000000000000003e-01  1.0007216375598604e-01  1.0000000000000003e-01  1.0007006479495931e-01  1.0000000000000003e-01  1.0007086768656392e-01  1.0000000000000003e-01  1.0006667872784232e-01  1.0000000000000003e-01  1.0007171904791617e-01  1.0000000000000003e-01  1.0006097089758445e-01  1.0000000000000003e-01  1.0007699795123022e-01  1.0000000000000003e-01  1.0004862407046179e-01  1.0000000000000003e-01  1.0009713073074770e-01  1.0000000000000001e-01  1.0000000000000003e-01  9.9993581051907560e-02  1.0000000000000003e-01  9.9993639642443413e-02  9.9993181846899343e-02  9.9992295217824198e-02  9.9989980380704738e-02  9.9990150614775952e-02  9.9989715924195546e-02  9.9986366817198594e-02  9.9987916657167400e-02  9.9986576226945206e-02  9.9983518121268322e-02  9.9975620139460819e-02  9.9977906351031917e-02  9.9969368139568068e-02  9.9973110416041677e-02  9.9969817578926923e-02  9.9963104838109634e-02  9.9965013845417339e-02  9.9962808730936353e-02  9.9952753186587473e-02  9.9959058874172654e-02  9.9950228494197019e-02  9.9951019890635456e-02  9.9940779359651025e-02  9.9959907728260022e-02  9.9913954954586368e-02  9.9989027708091913e-02  9.9858252773867090e-02  1.0005779781215744e-01  9.9767489317660371e-02  9.9838388330151587e-02  1.0058601276935572e-01  1.0017588519302127e-01  1.0002789648255397e-01  1.0005170599194722e-01  1.0004157640176066e-01  1.0006177241307848e-01  1.0003805680346210e-01  1.0004976056885777e-01  1.0004680774837421e-01  1.0004209506139865e-01  1.0004186831227105e-01  1.0004245507842109e-01  1.0003756265594169e-01  1.0003746898124700e-01  1.0003692031120309e-01  1.0003407891344977e-01  1.0003352711398335e-01  1.0003298289652408e-01  1.0003122006741152e-01  1.0003034842225138e-01  1.0003035632607800e-01  1.0002814699042964e-01  1.0002911778630165e-01  1.0002604702668970e-01  1.0002953222596565e-01  1.0002127640866663e-01  1.0003484059500502e-01  1.0001012530124750e-01  1.0004736330998011e-01  1.0000000000000003e-01  9.9990520803108843e-02  1.0000000000000003e-01  9.9993590248609529e-02  9.9990459192361589e-02  9.9988071900655701e-02  9.9987617206082222e-02  9.9987139412575560e-02  9.9982258141583555e-02  9.9983413266946791e-02  9.9983146162580930e-02  9.9977577616693694e-02  9.9976395637493887e-02  9.9980068607307654e-02  9.9957164119813730e-02  9.9965008304505193e-02  9.9960221839279120e-02  9.9949823249058697e-02  9.9954581121974986e-02  9.9950282888375708e-02  9.9937156224237850e-02  9.9942209562068091e-02  9.9938997662113740e-02  9.9920562125254020e-02  9.9935912074822650e-02  9.9915448636253956e-02  9.9927632039597480e-02  9.9895837431598120e-02  9.9953475959165844e-02  9.9829381438128542e-02  1.0005351964389771e-01  9.9635165703775092e-02  9.9883274102743613e-02  1.0054234163979826e-01  1.0028229226917165e-01  1.0005869106140518e-01  1.0007392266145901e-01  1.0012043906490686e-01  1.0005707357251400e-01  1.0009274763976296e-01  1.0008495955902043e-01  1.0007549244401648e-01  1.0007669597757334e-01  1.0007943299669157e-01  1.0006939874411819e-01  1.0007065874264241e-01  1.0006998336759813e-01  1.0006435665044375e-01  1.0006369226413714e-01  1.0006332217649756e-01  1.0005939464006382e-01  1.0005885134443603e-01  1.0005795093712472e-01  1.0005590239669870e-01  1.0005433450620954e-01  1.0005502718447706e-01  1.0005091129653330e-01  1.0005423078977023e-01  1.0004686686792925e-01  1.0005714973959950e-01  1.0003570381001065e-01  1.0007496103446827e-01  1.0000000000000003e-01  9.9988639074657312e-02  1.0000000000000003e-01  9.9992724328972077e-02  9.9987365418588159e-02  9.9987915913118536e-02  9.9987379171495708e-02  9.9982308339652742e-02  9.9983653645423345e-02  9.9983665006119674e-02  9.9977405695688137e-02  9.9980007909714605e-02  9.9980289820286936e-02  9.9966884809958911e-02  9.9978880185894931e-02  9.9960328494863276e-02  9.9954318925479207e-02  9.9958113109459429e-02  9.9957991135293925e-02  9.9942153792284771e-02  9.9952787549285757e-02  9.9946202236678744e-02  9.9933687358447335e-02  9.9938875795265114e-02  9.9942619690148546e-02  9.9912021527940958e-02  9.9952380224070950e-02  9.9894472731706638e-02  9.9974972994937225e-02  9.9828800020947350e-02  1.0008919776115627e-01  9.9612649474745421e-02  9.9879335902807731e-02  1.0066895665731931e-01  1.0018755016094853e-01  1.0001773583777653e-01  1.0019065916935441e-01  9.9998606965889927e-02  1.0009210060688822e-01  1.0006762927661103e-01  1.0006261092041706e-01  1.0006186688889669e-01  1.0007127375444019e-01  1.0005485211020348e-01  1.0005970345630950e-01  1.0005958435285936e-01  1.0005220670477528e-01  1.0005194416025529e-01  1.0005209959630776e-01  1.0004681000240152e-01  1.0004635277201948e-01  1.0004612789042340e-01  1.0004253360088083e-01  1.0004237483409793e-01  1.0004095268156095e-01  1.0004024827663478e-01  1.0003692166254988e-01  1.0004082821303671e-01  1.0003136044189398e-01  1.0004439196600994e-01  1.0002094627438300e-01  1.0005701270299938e-01  1.0000000000000003e-01  9.9986706606697520e-02  1.0000000000000003e-01  9.9990728211659066e-02  9.9986997665341762e-02  9.9987844257234060e-02  9.9981743217702743e-02  9.9983277916828997e-02  9.9982533379425739e-02  9.9975735204659244e-02  9.9978696797320535e-02  9.9979251634755975e-02  9.9967591668048195e-02  9.9974093446916074e-02  9.9968853530443810e-02  9.9965477306885264e-02  9.9951667799157512e-02  9.9956426003263515e-02  9.9937302330406236e-02  9.9949937061550240e-02  9.9945923227449412e-02  9.9926196045554236e-02  9.9941773822012109e-02  9.9931455980357839e-02  9.9920558384092029e-02  9.9920266460760410e-02  9.9940808634271877e-02  9.9876958646438641e-02  9.9979731282814566e-02  9.9806707940610653e-02  1.0010440430834394e-01  9.9549556450302251e-02  9.9767133865466109e-02  1.0075801061147209e-01  1.0024218958919312e-01  1.0007886254355147e-01  1.0010828408700204e-01  1.0011106431112446e-01  1.0008154810371592e-01  1.0007712901920147e-01  1.0006798274622490e-01  1.0009413473000864e-01  1.0006366747688383e-01  1.0007493693905541e-01  1.0007525451112192e-01  1.0006476722926999e-01  1.0006533504186345e-01  1.0006691730800263e-01  1.0005849838092648e-01  1.0005853258138059e-01  1.0005835946841503e-01  1.0005352447553514e-01  1.0005264235012488e-01  1.0005274682690288e-01  1.0004872207019259e-01  1.0004929045797831e-01  1.0004642185600580e-01  1.0004806100381319e-01  1.0004078386276606e-01  1.0005163580599002e-01  1.0002923507999564e-01  1.0006639716428298e-01  1.0000000000000003e-01  9.9984414277417069e-02  1.0000000000000003e-01  9.9990648618223488e-02  9.9986438848173181e-02  9.9983717056816843e-02  9.9983175539313449e-02  9.9983082022121833e-02  9.9976098308967115e-02  9.9978074700594569e-02  9.9979114677169870e-02  9.9969178713513393e-02  9.9973356196363661e-02  9.9972264329047628e-02  9.9960979592387214e-02  9.9963763253747812e-02  9.9975696486690024e-02  9.9931749913398579e-02  9.9952880397461308e-02  9.9946153040060187e-02  9.9928248135037159e-02  9.9942374448591512e-02  9.9941238129067300e-02  9.9911600638541945e-02  9.9940985378039304e-02  9.9917765715110199e-02  9.9925844286482046e-02  9.9891773734673409e-02  9.9983680123035074e-02  9.9785963878218892e-02  1.0014150057084137e-01  9.9498332828074451e-02  9.9775190083465928e-02  1.0073461931142884e-01  1.0029545013130360e-01  9.9983025638249581e-02  1.0013193784701907e-01  1.0010550028496448e-01  1.0011434496764149e-01  1.0003636786799314e-01  1.0011095216215943e-01  1.0004785852936128e-01  1.0007677468442336e-01  1.0007478579343197e-01  1.0006202293454723e-01  1.0006286665616217e-01  1.0006772284766645e-01  1.0005560453105740e-01  1.0005703955808279e-01  1.0005751905044097e-01  1.0005026718098475e-01  1.0005005154206491e-01  1.0004999336896370e-01  1.0004575802018575e-01  1.0004445671561266e-01  1.0004543056082403e-01  1.0004010499418967e-01  1.0004354166938416e-01  1.0003573571143455e-01  1.0004604957433502e-01  1.0002445454607009e-01  1.0005925784790327e-01  1.0000000000000003e-01  9.9983159700820209e-02  1.0000000000000003e-01  9.9990487774082606e-02  9.9982611151858775e-02  9.9984642356044054e-02  9.9983175262975579e-02  9.9977203265696563e-02  9.9977867807303597e-02  9.9978907315364837e-02  9.9969030253137803e-02  9.9973428138507375e-02  9.9973178697837589e-02  9.9959681862490060e-02  9.9965572733215186e-02  9.9969472674952875e-02  9.9945521291465084e-02  9.9971714258468375e-02  9.9940974608782887e-02  9.9927477133845921e-02  9.9941221259179355e-02  9.9939352851030602e-02  9.9914842164376627e-02  9.9932657300737290e-02  9.9935170292856895e-02  9.9892278184983585e-02  9.9945711361814252e-02  9.9884991616915567e-02  9.9963833812394098e-02  9.9794935329529835e-02  1.0014894858244593e-01  9.9447204411728496e-02  9.9791985211040046e-02  1.0079319816138645e-01  1.0024112102398217e-01  1.0000666091470119e-01  1.0016925522003740e-01  1.0006107507662977e-01  1.0009972795046670e-01  1.0014369271966861e-01  1.0003759038137720e-01  1.0008849291929847e-01  1.0007785440763409e-01  1.0007016845598177e-01  1.0006698334340119e-01  1.0007759655723734e-01  1.0006024336748720e-01  1.0006369137762461e-01  1.0006519093903234e-01  1.0005627797607852e-01  1.0005566599576483e-01  1.0005648964592831e-01  1.0004996380217616e-01  1.0004991264780787e-01  1.0004900497744819e-01  1.0004643001096057e-01  1.0004356568246177e-01  1.0004662874156081e-01  1.0003785047245124e-01  1.0004841863231413e-01  1.0002731534282094e-01  1.0006153690968655e-01  1.0000000000000003e-01  9.9982064385767774e-02  1.0000000000000003e-01  9.9988468267331196e-02  9.9982948272561462e-02  9.9984859309890997e-02  9.9978100429838859e-02  9.9979361874921166e-02  9.9979255688914886e-02  9.9970213510646541e-02  9.9973760778877707e-02  9.9974373433315583e-02  9.9960996942119185e-02  9.9966613139083060e-02  9.9968036240309463e-02  9.9949301772809612e-02  9.9964716638896001e-02  9.9957496919873129e-02  9.9952235937360606e-02  9.9934375228540692e-02  9.9943730862177158e-02  9.9909902569623371e-02  9.9939599595217962e-02  9.9928788428920556e-02  9.9907543184103331e-02  9.9918896259798162e-02  9.9943429845588405e-02  9.9857058015551683e-02  9.9990862712473247e-02  9.9784647514246372e-02  1.0014465902918464e-01  9.9431675924724933e-02  9.9722654881146636e-02  1.0085578313842598e-01  1.0026958927638817e-01  1.0003409387831332e-01  1.0011731014317372e-01  1.0006209122981917e-01  1.0013491186387538e-01  1.0007143357749823e-01  1.0011906177539645e-01  1.0006246171084349e-01  1.0007862154081884e-01  1.0005818819376294e-01  1.0008554420994577e-01  1.0005754920796302e-01  1.0006526937564048e-01  1.0006744184900561e-01  1.0005646344202088e-01  1.0005664359642849e-01  1.0005894667443098e-01  1.0005016801991663e-01  1.0004971610481013e-01  1.0005041019588568e-01  1.0004447608390785e-01  1.0004505191865540e-01  1.0004266242307955e-01  1.0004315381980736e-01  1.0003601305791372e-01  1.0004640145752641e-01  1.0002500074949290e-01  1.0005821975499007e-01  1.0000000000000003e-01  9.9980406197725954e-02  1.0000000000000003e-01  9.9988773515841595e-02  9.9983000648921280e-02  9.9980997481100620e-02  9.9979549351877278e-02  9.9980612952542028e-02  9.9972107669451374e-02  9.9974306662747967e-02  9.9975157091223482e-02  9.9963853471485328e-02  9.9967161746482389e-02  9.9968732576505459e-02  9.9951582180584669e-02  9.9961719159466028e-02  9.9962206141075538e-02  9.9944290545647657e-02  9.9952465840235871e-02  9.9971377925084523e-02  9.9904310433501398e-02  9.9938698253898645e-02  9.9933120759128719e-02  9.9897639929668339e-02  9.9936839650294471e-02  9.9916480073098196e-02  9.9908187312179389e-02  9.9888752641635742e-02  9.9987996024990658e-02  9.9752159004604518e-02  1.0017702465175905e-01  9.9405491490118569e-02  9.9719149440124374e-02  1.0084213188700920e-01  1.0030845178610520e-01  9.9983276486315942e-02  1.0013186909448410e-01  1.0009675955723984e-01  1.0008566902682761e-01  1.0008519801311287e-01  1.0011446633899630e-01  1.0010469855733563e-01  1.0004372144929205e-01  1.0009960315220831e-01  1.0005218537312706e-01  1.0007105354267816e-01  1.0007142383345763e-01  1.0005959316612591e-01  1.0005883574481314e-01  1.0006415368675552e-01  1.0005279394195270e-01  1.0005357083947877e-01  1.0005410454604695e-01  1.0004740953303183e-01  1.0004612261220745e-01  1.0004751088199842e-01  1.0004109006656758e-01  1.0004395614458864e-01  1.0003736002937035e-01  1.0004558669886006e-01  1.0002586634988023e-01  1.0005815093917753e-01  1.0000000000000003e-01  9.9979759494792902e-02  1.0000000000000003e-01  9.9988952331429071e-02  9.9979732221572859e-02  9.9982143416171884e-02  9.9980420510388190e-02  9.9974511343693478e-02  9.9975152634605671e-02  9.9976219320639131e-02  9.9965921451896075e-02  9.9969086035201341e-02  9.9970367640540334e-02  9.9954053553948666e-02  9.9961314494943984e-02  9.9963782028527154e-02  9.9943763646314535e-02  9.9955268305472966e-02  9.9963523833226986e-02  9.9925560103223565e-02  9.9969566266687987e-02  9.9924883201655185e-02  9.9904551943562805e-02  9.9926361753480603e-02  9.9934567567713933e-02  9.9877092428212064e-02  9.9947083564484687e-02  9.9885888669193221e-02  9.9950182093190759e-02  9.9785669041608904e-02  1.0017868301309313e-01  9.9362077841731358e-02  9.9734454636354289e-02  1.0086630133231238e-01  1.0027490711588792e-01  9.9987878583541634e-02  1.0016458763946905e-01  1.0005175225864890e-01  1.0009442106956450e-01  1.0010300010984666e-01  1.0008507061643168e-01  1.0007971255237041e-01  1.0012916586256379e-01  1.0003567912772246e-01  1.0007887285786471e-01  1.0006736857258089e-01  1.0006339656555847e-01  1.0005760733958685e-01  1.0006777934060483e-01  1.0005269736404716e-01  1.0005455024456160e-01  1.0005693774364047e-01  1.0004848470670717e-01  1.0004777515569728e-01  1.0004791421496374e-01  1.0004327807331836e-01  1.0004068058307798e-01  1.0004379803498033e-01  1.0003479761518100e-01  1.0004429872660135e-01  1.0002518659927381e-01  1.0005571492151441e-01  1.0000000000000003e-01  9.9979253592755196e-02  1.0000000000000003e-01  9.9987428329529865e-02  9.9980409405906814e-02  9.9983011563916965e-02  9.9975900025121550e-02  9.9977046480003370e-02  9.9976965593536263e-02  9.9968567096336544e-02  9.9970755023166144e-02  9.9972496609895753e-02  9.9957936533344754e-02  9.9963025693150312e-02  9.9964737798113046e-02  9.9946042367924981e-02  9.9956638076187723e-02  9.9960942528278598e-02  9.9933069382756617e-02  9.9957718187870276e-02  9.9950214660489062e-02  9.9937493902387819e-02  9.9922541933869721e-02  9.9930486015725156e-02  9.9888950056847170e-02  9.9921254267415008e-02  9.9941773190515670e-02  9.9842444484611464e-02  9.9991874152795396e-02  9.9786505681624976e-02  1.0013730428875678e-01  9.9393796276433105e-02  9.9692597529339608e-02  1.0090859267270681e-01  1.0028169564992202e-01  1.0001339546313812e-01  1.0012912136225333e-01  1.0005713901501863e-01  1.0012170814695484e-01  1.0007041985782664e-01  1.0008099920673513e-01  1.0010594818530345e-01  1.0007490329924784e-01  1.0010234548654884e-01  1.0005597660746590e-01  1.0007123429683142e-01  1.0005169826159292e-01  1.0007450628909785e-01  1.0005193950755124e-01  1.0005666287144570e-01  1.0005924225554340e-01  1.0004994155882152e-01  1.0004943552719221e-01  1.0005210519435349e-01  1.0004358478458300e-01  1.0004401862864229e-01  1.0004237310816491e-01  1.0004121836381978e-01  1.0003485928103309e-01  1.0004428342660214e-01  1.0002445019025759e-01  1.0005460189027736e-01  1.0000000000000003e-01  9.9978101148780682e-02  1.0000000000000003e-01  9.9987807699226203e-02  9.9980872938218016e-02  9.9979734152097113e-02  9.9977469154219789e-02  9.9978734085967275e-02  9.9970641758628506e-02  9.9972137528597266e-02  9.9973751496581650e-02  9.9962325730081958e-02  9.9964944954297974e-02  9.9966879368816111e-02  9.9949977752517030e-02  9.9956800804061177e-02  9.9961706713216095e-02  9.9937245316514919e-02  9.9953712025951269e-02  9.9956134575412622e-02  9.9929737107618141e-02  9.9943604231776770e-02  9.9973768031346208e-02  9.9873731292010826e-02  9.9937769370334495e-02  9.9913805808254361e-02  9.9892027116091950e-02  9.9895301378888329e-02  9.9988777928690445e-02  9.9738098127562083e-02  1.0017953052178127e-01  9.9398625768097104e-02  9.9678391794977561e-02  1.0089154230414328e-01  1.0031235283436178e-01  9.9979929271482706e-02  1.0013052915100144e-01  1.0008345752395448e-01  1.0008992688178485e-01  1.0007028913942398e-01  1.0010645181347973e-01  1.0006941610214205e-01  1.0007976257743924e-01  1.0009278043055986e-01  1.0009419017789205e-01  1.0003622336928593e-01  1.0008389933917079e-01  1.0004557530167459e-01  1.0005954519793608e-01  1.0006000928719196e-01  1.0005072387175930e-01  1.0004919129139993e-01  1.0005379598106365e-01  1.0004509529356694e-01  1.0004451564843433e-01  1.0004599320549140e-01  1.0003845332629399e-01  1.0004061856963416e-01  1.0003524041813899e-01  1.0004150770578379e-01  1.0002391369036633e-01  1.0005279030173904e-01  1.0000000000000003e-01  9.9977876262132018e-02  1.0000000000000003e-01  9.9988261913292437e-02  9.9978389302986484e-02  9.9981032493697733e-02  9.9978782982359501e-02  9.9973768616185607e-02  9.9973535393348217e-02  9.9974830054659541e-02  9.9965310750863082e-02  9.9967769871586648e-02  9.9969155775069096e-02  9.9954385009525915e-02  9.9958789273106766e-02  9.9963200576673364e-02  9.9941721155396346e-02  9.9952484994909635e-02  9.9959018441339795e-02  9.9929731912080183e-02  9.9948323117211954e-02  9.9960905789828233e-02  9.9907897048728128e-02  9.9968555104564177e-02  9.9920594132827986e-02  9