<?xml version="1.0"?>
<VTKFile type="UnstructuredGrid"  version="0.1"  >
<UnstructuredGrid>
<Piece  NumberOfPoints="1933" NumberOfCells="3640">
<Points>
<DataArray  type="Float64"  NumberOfComponents="3"  format="ascii">-0.475268532222278 -0.002102056266269264 0  4.524731489253312 -0.002036457333430042 0  4.524633052481057 7.497963576061705 0  -0.4753669640120989 7.497897988110486 0  9.524731535566126 -0.001970872499757478 0  9.52463307248326 7.49802915165554 0  14.52473161427318 -0.001905263632488739 0  14.52463309235713 7.498094753794345 0  19.52473172279981 -0.001839594563437876 0  19.52463310581067 7.498160418100708 0  24.52473185197184 -0.001773832613872283 0  24.52463310369034 7.498226176526871 0  29.52473198820161 -0.001707948311438378 0  29.52463307393633 7.498292057932993 0  34.52473211461219 -0.001641914530308476 0  34.52463300153719 7.498358088979076 0  39.52473221141847 -0.001575705536022213 0  39.52463286837836 7.498424295043548 0  44.52473225579827 -0.001509296105128028 0  44.52463265293361 7.498490701057672 0  49.52473222139605 -0.001442660762346827 0  49.52463232977518 7.498557332227296 0  54.52473207753045 -0.001375773128076521 0  54.52463186888639 7.498624214649248 0  59.52473178812413 -0.001308605351368656 0  59.52463123475562 7.498691375842722 0  64.52473131033248 -0.001241127598270979 0  64.52463038521798 7.498758845219521 0  69.52473059280669 -0.001173307563879277 0  69.52462926999439 7.498826654515841 0  74.52472957348385 -0.001105109974521489 0  74.52462782885708 7.498894838205568 0  79.52472817673434 -0.001036496042168638 0  79.52462598931922 7.498963433909882 0  84.52472630960978 -0.0009674228253930206 0  84.52462366371999 7.499032482808349 0  89.52472385679265 -0.000897842440150839 0  89.5246207455321 7.499102030034749 0  94.5247206736225 -0.0008277010522585401 0  94.52461710469133 7.499172124990994 0  99.52471657618773 -0.0007569375821221113 0  99.52461258173588 7.499242821400151 0  104.5247113268176 -0.0006854820913734699 0  104.5246069806101 7.499314176671168 0  109.5247046121716 -0.0006132539808233409 0  109.5246000602489 7.499386249608804 0  114.5246960091179 -0.0005401606137679217 0  114.5245915257806 7.499459094350731 0  119.5246849300623 -0.0004660982969165721 0  119.5245810219018 7.499532745983789 0  124.5246705331253 -0.0003909609617498339 0  124.5245681348399 7.499607188228618 0  129.5246515715811 -0.000314670518220622 0  129.5245524175332 7.499682283174435 0  134.5246261379694 -0.0002372645764237247 0  134.5245334694375 7.499757622023841 0  139.5245912265472 -0.0001591323966125951 0  139.5245111350657 7.499832214446737 0  144.5245419878548 -8.163305095285107e-05 0  144.5244859449749 7.499903856370793 0  149.524470480458 -8.713986806461612e-06 0  149.5244600192574 7.499967882584262 0  159.5244717418524 5.27004707063938e-19 0  164.5245137646624 2.638426622366657e-05 0  164.5244796436736 7.500025720728278 0  159.5244618237249 7.499998149951226 0  169.5245488614351 6.559595147303832e-05 0  169.524497282735 7.500065605732649 0  174.5245778746184 0.0001131368417287206 0  174.5245137998154 7.500113408011063 0  179.5246018112921 0.0001661835410835329 0  179.5245287855923 7.500166520088581 0  184.5246215977708 0.000222957941003281 0  184.5245421187591 7.500223282291304 0  189.5246380083686 0.0002823119487242082 0  189.5245538338113 7.500282599204332 0  194.524651666405 0.0003434820234190324 0  194.5245640425381 7.500343728359949 0  199.5246630675252 0.0004059456151787287 0  199.5245728885804 7.500406154636872 0  204.5246726057596 0.0004693357827039433 0  204.5245805224712 7.500469513017478 0  209.5246805960492 0.0005333890820136669 0  209.5245870888481 7.500533539945765 0  214.5246872920619 0.0005979128223137515 0  214.5245927205911 7.500598041994921 0  219.5246928998064 0.0006627638671814016 0  219.5245975367488 7.50066287520743 0  224.5246975879267 0.0007278345040254449 0  224.5246016424358 7.500727931145724 0  229.5247014955068 0.0007930427641456246 0  229.5246051296912 7.500793127254133 0  234.5247047380421 0.0008583256268003442 0  234.5246080787466 7.500858400055705 0  239.5247074120708 0.0009236341469427611 0  239.5246105594176 7.500923700259345 0  244.5247095988247 0.0009889299041165429 0  244.524612632473 7.500988989187848 0  249.5247113671557 0.001054182387041316 0  249.5246143509187 7.501054236145182 0  254.5247127759327 0.001119367064489769 0  254.52461576117 7.501119416473817 0  259.5247138760425 0.001184463982312251 0  259.524616904106 7.501184510140546 0  264.5247147121024 0.001249456788954479 0  264.5246178160114 7.501249500750499 0  269.5247153239523 0.001314332140018033 0  269.5246185294066 7.501314374935242 0  274.5247157479841 0.001379079474724156 0  274.5246190737646 7.501379122099596 0  279.5247160183225 0.001443691199895898 0  279.5246194761114 7.501443734547316 0  284.5247161678398 0.001508163364951376 0  284.5246197614843 7.501508208040817 0  289.5247162289106 0.001572496966120278 0  289.5246199532352 7.501572542883177 0  294.5247162336864 0.001636700070930503 0  294.5246200731607 7.501636745634936 0  299.5247162134374 0.001700790958911623 0  299.5246201414864 7.501700831577984 0  304.5247161960525 0.001764802247266475 0  304.5246201768682 7.50176482800288 0  309.5247161999533 0.001828784778533763 0  309.5246201968706 7.501828778438014 0  4.524534636743179 14.99796363252894 0  -0.4754653747785998 14.99789809522419 0  9.524534637191545 14.99802917004134 0  14.52453461904238 14.99809474525105 0  19.52453457397698 14.99816039018978 0  24.524534492634 14.99822613351926 0  29.52453436411329 14.99829200156313 0  34.52453417551335 14.99835801909644 0  39.52453391152127 14.99842421005034 0  44.52453355401359 14.99849059814414 0  49.52453308162621 14.99855720743786 0  54.52453246926054 14.99862406280267 0  59.52453168750338 14.99869119031098 0  64.52453070194697 14.99875861754742 0  69.52452947240262 14.99882637383591 0  74.52452795201411 14.99889449036485 0  79.52452608629498 14.99896300016946 0  84.52452381215336 14.99903193788886 0  89.52452105703314 14.99910133914247 0  94.52451773842328 14.99917123923895 0  99.52451376419899 14.99924167069209 0  104.5245090346189 14.9993126585903 0  109.5245034473981 14.99938421209983 0  114.5244969082092 14.99945630903663 0  119.5244893503187 14.99952886814078 0  124.5244807687757 14.99960169993956 0  129.5244712760102 14.99967442151571 0  134.5244611847783 14.9997463138763 0  139.5244511154598 14.99981609840528 0  144.5244420945926 14.99988163263201 0  149.5244355341773 14.99993964895268 0  164.5244436172884 15.00002459041179 0  159.5244379100694 14.9999895616732 0  169.5244497592053 15.00006694774835 0  174.5244564229419 15.0001154240588 0  179.5244633143764 15.00016854695366 0  184.5244701326108 15.00022509677478 0  189.524476655973 15.00028415075442 0  194.5244827458364 15.00034503044989 0  199.524488329189 15.00040724049287 0  204.5244933791681 15.00047041829963 0  209.5244978990515 15.00053429669242 0  214.5245019105287 15.00059867712531 0  219.5245054456237 15.00066341073256 0  224.5245085413609 15.00072838490795 0  229.5245112363698 15.00079351373436 0  234.524513568809 15.00085873108989 0  239.5245155751653 15.00092398562726 0  244.5245172896225 15.00098923708111 0  249.5245187437968 15.00105445353369 0  254.5245199666959 15.0011196093885 0  259.5245209848142 15.00118468388413 0  264.5245218222977 15.00124966003762 0  269.5245225011438 15.00131452395 0  274.5245230414045 15.00137926443742 0  279.5245234613835 15.00144387297629 0  284.5245237778327 15.00150834396656 0  289.5245240061741 15.00157267532335 0  294.5245241608302 15.00163686939551 0  299.5245242558062 15.00170093417684 0  304.5245243058008 15.00176488473063 0  309.5245243283241 15.0018287447743 0  4.524436362572806 22.49796369403232 0  -0.4755636454777714 22.49789825705297 0  9.524436353749685 22.49802915994358 0  14.52443631784507 22.49809468247158 0  19.52443624607045 22.49816028650578 0  24.52443612994325 22.49822599515716 0  29.52443596055818 22.49829183042565 0  34.52443572803956 22.49835781366991 0  39.52443542112125 22.49842396599402 0  44.52443502681835 22.49849030858564 0  49.52443453016524 22.49855686300425 0  54.5244339140012 22.49862365140417 0  59.52443315880169 22.49869069667214 0  64.52443224256902 22.49875802245283 0  69.52443114081679 22.49882565302029 0  74.52442982671299 22.49889361293245 0  79.52442827148479 22.49896192636455 0  84.52442644524821 22.49903061595606 0  89.52442431851148 22.4990997009034 0  94.52442186472071 22.4991691938701 0  99.52441906438281 22.49923909603231 0  104.5244159115078 22.49930938918613 0  109.5244124233425 22.49938002326086 0  114.5244086545286 22.49945089676816 0  119.5244047167101 22.4995218267179 0  124.5244008037965 22.49959250366292 0  129.5243972207314 22.49966242786092 0  134.5243944083786 22.49973082691779 0  139.5243929475202 22.4997965705633 0  144.5243935110944 22.49985813916624 0  149.5243967245405 22.4999137958063 0  164.5243974259812 22.50002225583275 0  159.5243985157514 22.49998052150962 0  169.5243969094008 22.50006811690035 0  174.5243971741737 22.50011810745451 0  179.5243981973429 22.50017169875209 0  184.5243998260251 22.50022821446462 0  189.5244018729854 22.50028701791218 0  194.5244041655002 22.50034757375314 0  199.5244065634024 22.50040945440974 0  204.5244089615668 22.50047232672198 0  209.5244112858547 22.50053593402859 0  214.5244134870902 22.50060007940549 0  219.524415535126 22.5006646117528 0  224.5244174137757 22.50072941483964 0  229.5244191167826 22.50079439889012 0  234.5244206447477 22.5008594941916 0  239.5244220028503 22.5009246462577 0  244.524423199192 22.50098981216889 0  249.5244242436105 22.50105495780343 0  254.5244251468422 22.50112005574515 0  259.5244259199361 22.50118508371395 0  264.5244265738517 22.50125002340711 0  269.5244271191884 22.50131485967264 0  274.5244275660199 22.50137957995723 0  279.5244279238182 22.50144417398338 0  284.5244282014831 22.50150863361152 0  289.5244284075144 22.50157295282817 0  294.5244285504072 22.50163712776689 0  299.5244286
[...]
<PointData  Vectors="v"> 
<DataArray  type="Float64"  Name="v"  NumberOfComponents="3" format="ascii">-4.3429156622152014e+00 -3.1203598442570120e+00 0.0000000000000000e+00  -4.5416638825206830e+00 -2.5905241620489083e+00 0.0000000000000000e+00  -3.8441678928743306e+00 -2.2925626682807172e+00 0.0000000000000000e+00  -3.6856368118568992e+00 -2.8819948254128986e+00 0.0000000000000000e+00  -4.7260540409936604e+00 -2.4351896813905971e+00 0.0000000000000000e+00  -4.0425903541225559e+00 -2.1587900411879666e+00 0.0000000000000000e+00  -4.8044919482886552e+00 -2.3342754626552806e+00 0.0000000000000000e+00  -4.2265149498456864e+00 -2.2170733134315328e+00 0.0000000000000000e+00  -4.7821502954361224e+00 -1.8161111510639363e+00 0.0000000000000000e+00  -4.3042474332736607e+00 -1.8500084115415305e+00 0.0000000000000000e+00  -4.7971449728810409e+00 -1.5148340881965630e+00 0.0000000000000000e+00  -4.2810457404569684e+00 -1.4926586978443654e+00 0.0000000000000000e+00  -4.7345167776773884e+00 -9.7780780289353120e-01 0.0000000000000000e+00  -4.2954280031784764e+00 -1.0721229104567032e+00 0.0000000000000000e+00  -4.6109830073035605e+00 -3.9297612494922940e-01 0.0000000000000000e+00  -4.2322066410839714e+00 -5.7822282776735945e-01 0.0000000000000000e+00  -4.7812154033916627e+00 -2.0702405292021062e-01 0.0000000000000000e+00  -4.1083006659064063e+00 4.8651850027733715e-02 0.0000000000000000e+00  -4.7565794616895642e+00 2.5549744469531099e-01 0.0000000000000000e+00  -4.2787458405602292e+00 2.1905478647923965e-01 0.0000000000000000e+00  -7.2563602301639314e+00 -3.0130969916816093e+00 0.0000000000000000e+00  -4.2547679632785753e+00 7.3782431961049233e-01 0.0000000000000000e+00  -8.4330247664521867e+00 -4.2206384151905638e+00 0.0000000000000000e+00  -6.7547699270388391e+00 -2.4545537006735638e+00 0.0000000000000000e+00  -8.7678000169300603e+00 -4.0741215601892424e+00 0.0000000000000000e+00  -7.9326861068505439e+00 -3.5691736470902860e+00 0.0000000000000000e+00  -8.7599230690718972e+00 -3.3546292658716714e+00 0.0000000000000000e+00  -8.2704139132482926e+00 -3.3624975525293554e+00 0.0000000000000000e+00  -8.5514363489057459e+00 -2.3494454126270776e+00 0.0000000000000000e+00  -8.2667013434952477e+00 -2.6566366097181628e+00 0.0000000000000000e+00  -8.2662568431553431e+00 -1.2630999594724113e+00 0.0000000000000000e+00  -8.0644986057093853e+00 -1.6845674160423265e+00 0.0000000000000000e+00  -7.9024915769786803e+00 -1.1025476945813127e-01 0.0000000000000000e+00  -7.7868485069175266e+00 -6.4747767504728437e-01 0.0000000000000000e+00  -7.4487593256183109e+00 1.0317877636561188e+00 0.0000000000000000e+00  -7.4321512206786595e+00 3.6128353794824558e-01 0.0000000000000000e+00  -6.8939763124396753e+00 2.2418939398932269e+00 0.0000000000000000e+00  -6.9903381243689378e+00 1.4212769262843710e+00 0.0000000000000000e+00  -6.2264034782912736e+00 3.4931264441034400e+00 0.0000000000000000e+00  -6.4491280459971225e+00 2.5064411054287450e+00 0.0000000000000000e+00  -5.4470844745630034e+00 4.8019362146150302e+00 0.0000000000000000e+00  -5.7981055638000418e+00 3.6496229783988579e+00 0.0000000000000000e+00  -4.5886408121254121e+00 6.0892245529688651e+00 0.0000000000000000e+00  -5.0383743580366094e+00 4.8214544812136477e+00 0.0000000000000000e+00  -3.6912208619874733e+00 7.4511350505672906e+00 0.0000000000000000e+00  -4.2036991746645578e+00 6.1273866763153153e+00 0.0000000000000000e+00  -2.7988677532447568e+00 8.5085467808760278e+00 0.0000000000000000e+00  -3.3317501646751366e+00 7.1978319780442712e+00 0.0000000000000000e+00  -1.9811880230685344e+00 9.6347519761268554e+00 0.0000000000000000e+00  -2.4730675018228823e+00 8.4357866020045851e+00 0.0000000000000000e+00  -1.2700895265507810e+00 9.9903741446781424e+00 0.0000000000000000e+00  -1.6874928926704269e+00 8.9618380283035748e+00 0.0000000000000000e+00  -7.2448248438420693e-01 1.0380621638845618e+01 0.0000000000000000e+00  -1.0223206231964272e+00 9.5944387626739349e+00 0.0000000000000000e+00  -3.3372692216441080e-01 9.2003224805953430e+00 0.0000000000000000e+00  -5.1499117236964942e-01 8.6653904121452889e+00 0.0000000000000000e+00  -1.2329071531405351e-01 8.1753010313624515e+00 0.0000000000000000e+00  -1.8545163034715489e-01 7.8947921954728608e+00 0.0000000000000000e+00  -2.2037328351439345e-02 3.9797720975698518e+00 0.0000000000000000e+00  -1.8313630938930851e-02 3.8955586790209340e+00 0.0000000000000000e+00  -1.0696893105876913e-05 -7.3884338607730504e-05 0.0000000000000000e+00  -7.4072150790855502e-04 -8.3733883028510941e-04 0.0000000000000000e+00  5.6619104021507801e-13 3.0141172164606072e-19 0.0000000000000000e+00  1.4489529748704784e+00 -7.1358972348641547e+00 0.0000000000000000e+00  -2.7285242612587361e-02 -9.3287822787130548e+00 0.0000000000000000e+00  -7.0761691702080629e-04 6.6112475566859662e-04 0.0000000000000000e+00  -1.9926472230550385e-01 -1.1844015104053698e+01 0.0000000000000000e+00  1.4506586975362563e+00 -9.4161196414113970e+00 0.0000000000000000e+00  -2.0601753165174569e-01 -1.1109118026154638e+01 0.0000000000000000e+00  -1.6209661143695708e-01 -1.1116614304602351e+01 0.0000000000000000e+00  -8.0999028892458069e-01 -1.1018759304361865e+01 0.0000000000000000e+00  -1.3784743576584579e-01 -1.0139347589848636e+01 0.0000000000000000e+00  -9.9495019254680694e-01 -8.8561139023145365e+00 0.0000000000000000e+00  -7.1598781808695067e-01 -8.5981009928057190e+00 0.0000000000000000e+00  -1.2561255107989029e+00 -7.2049794486827423e+00 0.0000000000000000e+00  -8.7810677993323683e-01 -6.8327150772089542e+00 0.0000000000000000e+00  -1.4045110284935298e+00 -5.3729068673771652e+00 0.0000000000000000e+00  -1.1177658016747831e+00 -5.1658258613088535e+00 0.0000000000000000e+00  -1.5671500714951114e+00 -4.0130122284897061e+00 0.0000000000000000e+00  -1.2480459753393418e+00 -3.7847536467352598e+00 0.0000000000000000e+00  -1.6349406773718520e+00 -2.9215330866903941e+00 0.0000000000000000e+00  -1.3942454798929373e+00 -2.8328998918454680e+00 0.0000000000000000e+00  -1.7539642027470685e+00 -2.3224510473372297e+00 0.0000000000000000e+00  -1.4469353023510130e+00 -2.1559542704558123e+00 0.0000000000000000e+00  -1.9013847662712855e+00 -1.9542016767820880e+00 0.0000000000000000e+00  -1.5527045951289722e+00 -1.7441057644021838e+00 0.0000000000000000e+00  -2.0275852392829230e+00 -1.7856824930668296e+00 0.0000000000000000e+00  -1.6881441278945377e+00 -1.6063304281563078e+00 0.0000000000000000e+00  -2.1238045251099082e+00 -1.7144852465718436e+00 0.0000000000000000e+00  -1.8032450644615126e+00 -1.5790416115174479e+00 0.0000000000000000e+00  -2.1926468087537332e+00 -1.6668675849396901e+00 0.0000000000000000e+00  -1.8896088243532674e+00 -1.5719586577290507e+00 0.0000000000000000e+00  -2.2134835246450244e+00 -1.6229811498468423e+00 0.0000000000000000e+00  -1.9494750475619880e+00 -1.5992733524446621e+00 0.0000000000000000e+00  -2.2107745097534885e+00 -1.5858687616670628e+00 0.0000000000000000e+00  -1.9619582656144614e+00 -1.5968691520718217e+00 0.0000000000000000e+00  -2.1943127828908868e+00 -1.5310220836085551e+00 0.0000000000000000e+00  -1.9516531873244729e+00 -1.5622811519670199e+00 0.0000000000000000e+00  -2.1564279539592630e+00 -1.4620376726008513e+00 0.0000000000000000e+00  -1.9281421734994124e+00 -1.5249970840007099e+00 0.0000000000000000e+00  -2.1094928705812359e+00 -1.3932817910588049e+00 0.0000000000000000e+00  -1.8835505906601429e+00 -1.4694545673858672e+00 0.0000000000000000e+00  -2.0640014830922397e+00 -1.2942283497755460e+00 0.0000000000000000e+00  -1.8303363273288473e+00 -1.3680735586211419e+00 0.0000000000000000e+00  -2.0045113622754376e+00 -1.2100568316983920e+00 0.0000000000000000e+00  -1.7788136353619031e+00 -1.3046549714380757e+00 0.0000000000000000e+00  -1.9430048087616161e+00 -1.0664388505845785e+00 0.0000000000000000e+00  -1.7134944964681069e+00 -1.1639564563693845e+00 0.0000000000000000e+00  -1.8724142287737202e+00 -9.7644102623674123e-01 0.0000000000000000e+00  -1.6462539336834452e+00 -1.0874405716187394e+00 0.0000000000000000e+00  -1.7908401197757948e+00 -7.2573430940757966e-01 0.0000000000000000e+00  -1.5701634675546980e+00 -8.5328310990352774e-01 0.0000000000000000e+00  -1.6842916793483196e+00 -6.7520669721925031e-01 0.0000000000000000e+00  -1.4828867260765339e+00 -8.3992949828699104e-01 0.0000000000000000e+00  -1.5526348589904748e+00 -1.8942003420570791e-01 0.0000000000000000e+00  -1.3710741599360148e+00 -3.9223579634625733e-01 0.0000000000000000e+00  -1.3791349748165138e+00 -2.9534337601399063e-01 0.0000000000000000e+00  -1.2334933757266595e+00 -5.6020658062996553e-01 0.0000000000000000e+00  -1.1022802443927482e+00 6.3772961040224674e-01 0.0000000000000000e+00  -1.0551723977514431e+00 2.1662985428935483e-01 0.0000000000000000e+00  -6.3494051612723279e-01 7.9405002466895092e-01 0.0000000000000000e+00  -7.7149858653336889e-01 8.9304223424756135e-02 0.0000000000000000e+00  4.6818962064231795e-01 2.8951314539870210e-01 0.0000000000000000e+00  -3.0143872574627933e-01 -1.3730763158270856e+00 0.0000000000000000e+00  -3.1297741628008979e+00 -2.0555495166581541e+00 0.0000000000000000e+00  -2.9448184277888347e+00 -2.6028907312655489e+00 0.0000000000000000e+00  -3.2868264874044049e+00 -1.8625387391056587e+00 0.0000000000000000e+00  -3.4826865298502256e+00 -1.9429032950764518e+00 0.0000000000000000e+00  -3.6633423584750053e+00 -1.7355296014912778e+00 0.0000000000000000e+00  -3.7372196072150019e+00 -1.5301277923354180e+00 0.0000000000000000e+00  -3.7095273070466055e+00 -1.0531443632124617e+00 0.0000000000000000e+00  -3.7192797233222046e+00 -6.7556053020285367e-01 0.0000000000000000e+00  -3.6516915632710623e+00 -1.3993929421786716e-01 0.0000000000000000e+00  -3.5236337344278770e+00 4.7301055395361563e-01 0.0000000000000000e+00  -3.6915324906764977e+00 7.0142087404904752e-01 0.0000000000000000e+00  -3.6655496531585232e+00 1.2917209523253250e+00 0.0000000000000000e+00  -6.1581735815406544e+00 -1.8069798111417517e+00 0.0000000000000000e+00  -7.3295884857678590e+00 -2.8565962829345315e+00 0.0000000000000000e+00  -7.6660940871862895e+00 -2.6626608606257580e+00 0.0000000000000000e+00  -7.6631020292043637e+00 -1.9852539863228178e+00 0.0000000000000000e+00  -7.4650220117828523e+00 -1.0604585483086535e+00 0.0000000000000000e+00  -7.1935983952726978e+00 -1.6670259848055721e-01 0.0000000000000000e+00  -6.8468864697067273e+00 7.6524399814637400e-01 0.0000000000000000e+00  -6.4163591872005643e+00 1.7031659927973197e+00 0.0000000000000000e+00  -5.8898635309394471e+00 2.6823102688821114e+00 0.0000000000000000e+00  -5.2564705194500378e+00 3.6960057606693111e+00 0.0000000000000000e+00  -4.5204579501710169e+00 4.8911689887050738e+00 0.0000000000000000e+00  -3.7145431436832896e+00 5.9105925499131580e+00 0.0000000000000000e+00  -2.8786324350761308e+00 7.1710845577211062e+00 0.0000000000000000e+00  -2.0629807581349837e+00 7.8170611076577075e+00 0.0000000000000000e+00  -1.3327153344835760e+00 8.6257010226723558e+00 0.0000000000000000e+00  -7.2675950434329395e-01 7.9589075134611118e+00 0.0000000000000000e+00  -3.0246290258760750e-01 7.4306426111493558e+00 0.0000000000000000e+00  -4.8363629893444553e-02 3.7330388575668314e+00 0.0000000000000000e+00  -2.4887802219085492e-03 -1.5921675784144463e-03 0.0000000000000000e+00  -5.5056473577517272e-02 -9.1714002899046818e+00 0.0000000000000000e+00  -2.4476035202006365e-03 1.2963747674063445e-03 0.0000000000000000e+00  -2.0800879650779022e-01 -1.1643837589595170e+01 0.0000000000000000e+00  1.3192973550182236e+00 -8.7382778848913070e+00 0.0000000000000000e+00  -2.3460573424573911e-01 -1.0202416400607914e+01 0.0000000000000000e+00  -1.6860856670760851e-01 -7.7546745402378843e+00 0.0000000000000000e+00  -7.0979139020573834e-01 -6.6050434931861570e+00 0.0000000000000000e+00  -8.4464471923771245e-01 -4.8243704228570534e+00 0.0000000000000000e+00  -1.0579903796330745e+00 -3.6017115248218068e+00 0.0000000000000000e+00  -1.1675762939498666e+00 -2.6248336978623943e+00 0.0000000000000000e+00  -1.2954936134264101e+00 -2.0874011471897855e+00 0.0000000000000000e+00  -1.3319127208378303e+00 -1.5943094494799792e+00 0.0000000000000000e+00  -1.4234078613204335e+00 -1.4106144121707698e+00 0.0000000000000000e+00  -1.5464898201988984e+00 -1.4137248546983365e+00 0.0000000000000000e+00  -1.6502310058614025e+00 -1.4484909175234180e+00 0.0000000000000000e+00  -1.7268160735514348e+00 -1.5146328640493198e+00 0.0000000000000000e+00  -1.7782545440352491e+00 -1.5830074735731130e+00 0.0000000000000000e+00  -1.7831684933246461e+00 -1.5818652226926491e+00 0.0000000000000000e+00  -1.7662664290765104e+00 -1.5638007087300179e+00 0.0000000000000000e+00  -1.7369772146389000e+00 -1.5397352002143812e+00 0.0000000000000000e+00  -1.6870466596847762e+00 -1.4509215726973799e+00 0.0000000000000000e+00  -1.6289575146124413e+00 -1.3846757599308908e+00 0.0000000000000000e+00  -1.5729098872149887e+00 -1.2647045728789159e+00 0.0000000000000000e+00  -1.5031539226350059e+00 -1.1908832515493066e+00 0.0000000000000000e+00  -1.4316235600389162e+00 -9.7005661582832126e-01 0.0000000000000000e+00  -1.3512169452777196e+00 -9.7335813324243825e-01 0.0000000000000000e+00  -1.2596597301932451e+00 -5.6281471656683679e-01 0.0000000000000000e+00  -1.1433347070558675e+00 -7.6884871519400388e-01 0.0000000000000000e+00  -1.0015389748552297e+00 -5.4200394187083292e-02 0.0000000000000000e+00  -8.1843190530494458e-01 -3.3790997481549762e-01 0.0000000000000000e+00  -5.3069429819644365e-01 -2.0818476136069504e+00 0.0000000000000000e+00  -2.2616789496708689e+00 -1.7798584342651567e+00 0.0000000000000000e+00  -2.0892086481880296e+00 -2.3416555693558676e+00 0.0000000000000000e+00  -2.4436763177137402e+00 -1.6302284314419302e+00 0.0000000000000000e+00  -2.5952654401365565e+00 -1.6532669339643065e+00 0.0000000000000000e+00  -2.7845105843293334e+00 -1.4700730512595894e+00 0.0000000000000000e+00  -2.9565599741710433e+00 -1.4258850008389174e+00 0.0000000000000000e+00  -3.0202512260380034e+00 -1.1018775538836922e+00 0.0000000000000000e+00  -2.9815698795033128e+00 -6.6885051956140928e-01 0.0000000000000000e+00  -2.9795456406285443e+00 -2.4903961874678940e-01 0.0000000000000000e+00  -2.9004955715576872e+00 2.7435152790761380e-01 0.0000000000000000e+00  -2.7631231543218648e+00 9.4855201386352272e-01 0.0000000000000000e+00  -2.9244913792606901e+00 1.2481465939765992e+00 0.0000000000000000e+00  -2.8878883777111630e+00 1.9191441951426447e+00 0.0000000000000000e+00  -5.3587845931524303e+00 -1.1140236069561698e+00 0.0000000000000000e+00  -6.5107663179352091e+00 -2.1634211577289761e+00 0.0000000000000000e+00  -6.8379988380962091e+00 -1.9917591759729987e+00 0.0000000000000000e+00  -6.8314773302981724e+00 -1.3563684937580649e+00 0.0000000000000000e+00  -6.6337215229591440e+00 -5.6987730010727877e-01 0.0000000000000000e+00  -6.3654773344239777e+00 2.5170219012843414e-01 0.0000000000000000e+00  -6.0257932972708304e+00 1.0663093402734654e+00 0.0000000000000000e+00  -5.6055582044046544e+00 1.9053372493033005e+00 0.0000000000000000e+00  -5.0937526153403185e+00 2.7639062488437851e+00 0.0000000000000000e+00  -4.4827213222886693e+00 3.8091715933920307e+00 0.0000000000000000e+00  -3.7758592511111884e+00 4.7343336824827817e+00 0.0000000000000000e+00  -3.0116869519169844e+00 5.9545873235107054e+00 0.0000000000000000e+00  -2.2282260561793512e+00 6.6487496390367102e+00 0.0000000000000000e+00  -1.4861126455902411e+00 7.5872600920387754e+00 0.0000000000000000e+00  -8.4098292189689783e-01 7.1439127584572324e+00 0.0000000000000000e+00  -3.5764284981388683e-01 6.8655873746556120e+00 0.0000000000000000e+00  -5.5373813217742006e-02 3.5150788242722979e+00 0.0000000000000000e+00  -5.2170326610805227e-03 -2.2756792181571209e-03 0.0000000000000000e+00  -6.4345113146805688e-02 -8.9259604277181008e+00 0.0000000000000000e+00  -5.1801283663020000e-03 1.8527797467199297e-03 0.0000000000000000e+00  -3.4697334102615207e-01 -1.1369556519324595e+01 0.0000000000000000e+00  -5.0414076028433774e-01 -1.1093018179123705e+01 0.0000000000000000e+00  1.1112103011475494e+00 -7.9460082107626873e+00 0.0000000000000000e+00  -3.4887255613347401e-01 -7.9022262804617371e+00 0.0000000000000000e+00  -2.1739180948832948e-01 -5.8382137472115456e+00 0.0000000000000000e+00  -7.0602587815093099e-01 -4.6525911232788344e+00 0.0000000000000000e+00  -8.0021774115623923e-01 -3.3105137109486464e+00 0.0000000000000000e+00  -9.7833577131688365e-01 -2.4834024541787008e+00 0.0000000000000000e+00  -1.0596554742279105e+00 -1.9156669649543590e+00 0.0000000000000000e+00  -1.1623544448015748e+00 -1.5568690067623252e+00 0.0000000000000000e+00  -1.1771983770971572e+00 -1.2889845882532247e+00 0.0000000000000000e+00  -1.2497046745661944e+00 -1.2425600337074052e+00 0.0000000000000000e+00  -1.3557810279896718e+00 -1.3049279115957395e+00 0.0000000000000000e+00  -1.4445937552910939e+00 -1.4102598640644504e+00 0.0000000000000000e+00  -1.5085055888142760e+00 -1.5147563823163896e+00 0.0000000000000000e+00  -1.5490473865796333e+00 -1.5821299869043768e+00 0.0000000000000000e+00  -1.5447609510408093e+00 -1.5958118532739847e+00 0.0000000000000000e+00  -1.5200995086046394e+00 -1.5893502287076877e+00 0.0000000000000000e+00  -1.4840869024060603e+00 -1.5308897853105652e+00 0.0000000000000000e+00  -1.4282238484549712e+00 -1.4764362595724594e+00 0.0000000000000000e+00  -1.3648116513231838e+00 -1.3531056493646278e+00 0.0000000000000000e+00  -1.3036810349197181e+00 -1.2996486752822829e+00 0.0000000000000000e+00  -1.2290188600010326e+00 -1.0816064279814059e+00 0.0000000000000000e+00  -1.1524688603815911e+00 -1.0980401817540217e+00 0.0000000000000000e+00  -1.0670743838246108e+00 -7.0472137278243374e-01 0.0000000000000000e+00  -9.7004834489366532e-01 -9.4735354128356131e-01 0.0000000000000000e+00  -8.4867448392213429e-01 -2.7212761297388915e-01 0.0000000000000000e+00  -7.0070033991728997e-01 -6.1590918592308275e-01 0.0000000000000000e+00  -5.1365862318026534e-01 -2.5191612623011017e+00 0.0000000000000000e+00  -1.6252380112697371e+00 -1.5235601540171042e+00 0.0000000000000000e+00  -1.4560628738444747e+00 -2.0844304999034784e+00 0.0000000000000000e+00  -1.7937959890197372e+00 -1.3617631558158942e+00 0.0000000000000000e+00  -1.9683580341722737e+00 -1.4323115202918846e+00 0.0000000000000000e+00  -2.1103124711643098e+00 -1.1943261327501438e+00 0.0000000000000000e+00  -2.2872099186680019e+00 -1.1776993069110848e+00 0.0000000000000000e+00  -2.4445254057004249e+00 -1.0181685626711643e+00 0.0000000000000000e+00  -2.4910108865396294e+00 -7.3982374812978902e-01 0.0000000000000000e+00  -2.4334535773621186e+00 -2.6560468957690897e-01 0.0000000000000000e+00  -2.4123027358612608e+00 1.4263843388056172e-01 0.0000000000000000e+00  -2.3157828304635215e+00 7.3225379983348682e-01 0.0000000000000000e+00  -2.1641144932501057e+00 1.4814719333679163e+00 0.0000000000000000e+00  -2.3126363399802723e+00 1.8506162200884737e+00 0.0000000000000000e+00  -2.2521486325110311e+00 2.5655395830871988e+00 0.0000000000000000e+00  -4.6823535049528742e+00 -4.6260664168952015e-01 0.0000000000000000e+00  -5.7998389723714832e+00 -1.5157539137699820e+00 0.0000000000000000e+00  -6.1071702430645169e+00 -1.3759569450604574e+00 0.0000000000000000e+00  -6.0873767820940570e+00 -8.7202654544331037e-01 0.0000000000000000e+00  -5.8817661802193744e+00 -1.5530716982135973e-01 0.0000000000000000e+00  -5.6071957955395861e+00 5.5486009462185826e-01 0.0000000000000000e+00  -5.2636061131121288e+00 1.2745376972461508e+00 0.0000000000000000e+00  -4.8427494420268422e+00 1.9991341677291019e+00 0.0000000000000000e+00  -4.3351322367153706e+00 2.8998321852102338e+00 0.0000000000000000e+00  -3.7346417017470444e+00 3.6906386809022433e+00 0.0000000000000000e+00  -3.0517906543429389e+00 4.8302026665131361e+00 0.0000000000000000e+00  -2.3230903010240378e+00 5.5169216675443868e+00 0.0000000000000000e+00  -1.6013155156032861e+00 6.5211457380833151e+00 0.0000000000000000e+00  -9.3734139333139299e-01 6.2682373652428671e+00 0.0000000000000000e+00  -4.1976532672712941e-01 6.2146731035750484e+00 0.0000000000000000e+00  -7.2964783547322151e-02 3.2485841443330772e+0