<?xml version="1.0"?>
<VTKFile type="UnstructuredGrid"  version="0.1"  >
<UnstructuredGrid>
<Piece  NumberOfPoints="1933" NumberOfCells="3640">
<Points>
<DataArray  type="Float64"  NumberOfComponents="3"  format="ascii">-0.2935529208621899 -0.002902634566746476 0  4.706447116905631 -0.002816670093163338 0  4.70631812628356 7.497183401181581 0  -0.2936819119766144 7.497097439055499 0  9.706447190946838 -0.002730747650040657 0  9.706318181813751 7.497269315407467 0  14.70644732371014 -0.002644826035072977 0  14.70631825627247 7.497355229093559 0  19.7064475249536 -0.002558856596797217 0  19.70631834756057 7.497441192159311 0  24.70644779458608 -0.002472789427294643 0  24.70631844962604 7.497527254373723 0  29.70644812521142 -0.002386575221494207 0  29.70631855225685 7.49761346457567 0  34.70644850380412 -0.002300165325226392 0  34.70631864091332 7.497699870942253 0  39.70644891256448 -0.002213511031992017 0  39.70631869648745 7.497786521761703 0  44.7064493291154 -0.002126562578594781 0  44.70631869489333 7.497873466429668 0  49.70644972617745 -0.002039268018413014 0  49.70631860642465 7.49796075654521 0  54.70645007080078 -0.001951572024251556 0  54.70631839482846 7.498048447069956 0  59.7064503231764 -0.00186341460950005 0  59.70631801604235 7.49813659756241 0  64.70645043499434 -0.001774729719834681 0  64.70631741652356 7.498225273529039 0  69.70645034725617 -0.001685443619541736 0  69.70631653107203 7.498314547955679 0  74.70644998738378 -0.001595472966211828 0  74.70631528000658 7.498404503103719 0  79.70644926536309 -0.001504722427230993 0  79.70631356550118 7.498495232679014 0  84.70644806851958 -0.001413081633675963 0  84.70631126681478 7.498586844507268 0  89.70644625427643 -0.001320421183578957 0  89.7063082340604 7.498679463872783 0  94.70644363986071 -0.00122658728817318 0  94.70630428006071 7.498773237680775 0  99.70643998723668 -0.001131394496529448 0  99.706299169758 7.498868339542978 0  104.7064349803726 -0.001034615748340379 0  104.7062926066631 7.498964975659664 0  109.7064281898532 -0.0009359688603256036 0  109.7062842161345 7.49906339074311 0  114.7064190161001 -0.0008350986784547085 0  114.706273526336 7.499163871687595 0  119.7064065956769 -0.0007315551872591825 0  119.7062599504901 7.499266743132596 0  124.7063896428435 -0.0006247716601153565 0  124.7062427806676 7.499372341172642 0  129.7063661761927 -0.0005140582997650781 0  129.7062212181438 7.499480934511453 0  134.7063330399269 -0.0003986590339891715 0  134.7061944970511 7.499592527247256 0  139.706285057101 -0.0002780108530252322 0  139.706162223574 7.499706409182879 0  144.7062135215535 -0.0001526210330005005 0  144.7061251848852 7.499820206463229 0  149.7061034800937 -2.689975244428297e-05 0  149.7060871484758 7.499928105261281 0  159.7061073738538 1.433216625481088e-18 0  164.7061419249875 4.467310081219974e-07 0  164.7061146413689 7.499993762499232 0  159.7060966086493 7.49998462340836 0  169.7061788431137 2.553359674499161e-05 0  169.7061324604451 7.500022583705408 0  174.7062135324676 6.725314662150216e-05 0  174.7061501294643 7.500066004611312 0  179.7062444700276 0.0001205075439284871 0  179.7061671752495 7.500120052478178 0  184.7062714063968 0.0001819226597637766 0  184.706183177585 7.500181836998233 0  189.706294591368 0.000249211181836272 0  189.7061978825014 7.500249292615245 0  194.7063144390033 0.0003207908694174659 0  194.7062111830654 7.500320942233232 0  199.7063313867135 0.0003955457574552213 0  199.7062230745024 7.500395720631451 0  204.7063458403474 0.0004726737835554171 0  204.7062336143587 7.500472850454464 0  209.7063581568203 0.0005515881029600654 0  209.7062428938012 7.500551756921774 0  214.7063686424513 0.0006318521753150007 0  214.7062510188622 7.500632009366262 0  219.7063775572846 0.000713136320120034 0  219.7062580989799 7.500713280934671 0  224.7063851211718 0.0007951880904404612 0  224.7062642404185 7.500795320507136 0  229.706391519888 0.000877811675611367 0  229.7062695428045 7.500877932865048 0  234.7063969106576 0.0009608533071944337 0  234.7062740975813 7.500960964478143 0  239.7064014269293 0.001044190734162777 0  239.7062779876117 7.501044293171176 0  244.7064051824495 0.001127725514871047 0  244.7062812874439 7.501127820513288 0  249.706408274723 0.001211377304667994 0  249.7062840639456 7.501211466156069 0  254.7064107879876 0.001295079596547909 0  254.7062863771333 7.501295163600905 0  259.7064127958024 0.001378776557839925 0  259.7062882810794 7.501378857049261 0  264.7064143633551 0.001462420735998101 0  264.7062898248406 7.501462499112308 0  269.7064155495517 0.00154597150542376 0  269.706291053365 7.50154604924903 0  274.7064164089664 0.0016293942121451 0  274.7062920083284 7.501629472879114 0  279.7064169936596 0.001712660057885382 0  279.7062927288811 7.501712741188129 0  284.7064173548533 0.001795746861843699 0  284.7062932522391 7.501795831714741 0  289.7064175443184 0.001878640958027822 0  289.7062936140803 7.501878729884916 0  294.7064176151588 0.00196134062947805 0  294.706293848696 7.501961431729192 0  299.7064176212602 0.002043861607227019 0  299.7062939889301 7.502043948067091 0  304.7064176139193 0.002126245052464394 0  304.7062940661746 7.502126310447593 0  309.7064176326068 0.00220856711411146 0  309.7062941113004 7.502208579250461 0  4.706189092755705 14.99718353614892 0  -0.2938109400819793 14.99709761632622 0  9.706189121429246 14.9972694064085 0  14.70618914128083 14.99735528338028 0  19.70618914470815 14.9974412172844 0  24.70618912193992 14.99752725577372 0  29.70618906076764 14.99761344523455 0  34.70618894600693 14.9976998316362 0  39.7061887589016 14.99778646136009 0  44.70618847649109 14.99787338208312 0  49.70618807090712 14.99796064371309 0  54.70618750855392 14.99804829936992 0  59.70618674912888 14.99813640641823 0  64.70618574444693 14.99822502756806 0  69.70618443703563 14.99831423206493 0  74.70618275848479 14.99840409698886 0  79.70618062755179 14.99849470866687 0  84.70617794808211 14.99858616416534 0  89.7061746068991 14.99867857274542 0  94.70617047201345 14.99877205699345 0  99.7061653918514 14.99886675299651 0  104.7061591968351 14.99896280827313 0  109.7061517057166 14.99906037491445 0  114.7061427408446 14.99915959306836 0  119.706132159265 14.99926055571335 0  124.7061199103326 14.99936323842019 0  129.7061061346442 14.99946736602924 0  134.7060913204741 14.99957217122486 0  139.7060765231751 14.99967598199571 0  144.706063605947 14.99977557583791 0  149.7060553193154 14.99986531336649 0  164.7060741374752 14.99997551838942 0  159.7060668807011 14.99994548359493 0  169.7060802496395 15.00001464270298 0  174.7060865109029 15.00006305911566 0  179.7060932002418 15.00011947160651 0  184.7061001990108 15.0001823230607 0  189.7061072812095 15.00025021082821 0  194.7061142320665 15.0003219875814 0  199.7061208863983 15.00039675187291 0  204.706127132939 15.00047380718236 0  209.7061329062997 15.00055261807954 0  214.7061381760421 15.00063277252912 0  219.7061429365818 15.00071395202064 0  224.706147199056 15.00079590873226 0  229.7061509852223 15.00087844833419 0  234.7061543230991 15.00096141709642 0  239.7061572439488 15.00104469221226 0  244.7061597802661 15.00112817450898 0  249.7061619644886 15.00121178293707 0  254.7061638282126 15.00129545040001 0  259.7061654017544 15.00137912061633 0  264.7061667139413 15.00146274580252 0  269.7061677920465 15.00154628504015 0  274.7061686618062 15.00162970324918 0  279.7061693474806 15.00171297073509 0  284.7061698719612 15.00179606331101 0  289.7061702569408 15.00187896300974 0  294.7061705232891 15.00196165937931 0  299.7061706918686 15.00204415127582 0  304.7061707852974 15.00212644889737 0  309.706170831528 15.00220857554547 0  4.706060179231395 22.49718373529562 0  -0.2939398484867802 22.49709793008113 0  9.706060190374037 22.49726951302033 0  14.70606017486322 22.49735531476094 0  19.70606012272564 22.49744118624217 0  24.70606002333919 22.49752717040634 0  29.70605986488375 22.4976133091301 0  34.70605963378214 22.49769964426201 0  39.70605931415083 22.49778621839239 0  44.7060588872801 22.49787307553908 0  49.70605833114625 22.49796026181506 0  54.70605761994892 22.49804782609275 0  59.70605672367572 22.49813582065877 0  64.70605560771315 22.49822430184037 0  69.70605423255058 22.49831333056606 0  74.70605255366965 22.4984029727942 0  79.70605052177341 22.49849329968805 0  84.70604808361517 22.4985843873228 0  89.70604518383431 22.49867631554995 0  94.70604176843439 22.49876916537597 0  99.70603779085999 22.49886301376728 0  104.7060332220605 22.49895792407225 0  109.7060280664598 22.49905392911288 0  114.706022386264 22.49915100228741 0  119.706016336718 22.49924900964351 0  124.7060102140371 22.49934763306757 0  129.7060045142735 22.4994462527475 0  134.7059999926578 22.49954377987656 0  139.7059976951311 22.49963844858145 0  144.7059989038627 22.49972763392087 0  149.7060049039165 22.49980791551771 0  164.7060152791451 22.49995351698 0  159.706014769546 22.49990764664407 0  169.7060149263882 22.50000312952358 0  174.7060145435503 22.50005787289783 0  179.7060146216513 22.50011788657219 0  184.7060153290369 22.5001826804256 0  189.7060166394536 22.50025154151927 0  194.7060184366426 22.50032374207025 0  199.7060205781669 22.50039862777169 0  204.7060229283287 22.50047564478963 0  209.7060253721243 22.50055433879729 0  214.7060278189028 22.50063434313117 0  219.7060302010462 22.50071536414171 0  224.7060324706539 22.50079716719975 0  229.7060345957561 22.50087956459872 0  234.7060365567701 22.50096240558924 0  239.7060383434723 22.50104556837735 0  244.7060399525375 22.50112895378842 0  249.7060413856023 22.50121248029125 0  254.7060426477739 22.50129608011537 0  259.7060437464904 22.50137969624529 0  264.7060446906643 22.50146328012381 0  269.7060454900421 22.5015467899381 0  274.7060461547382 22.5016301893925 0  279.7060466949311 22.50171344688959 0  284.7060471207342 22.50179653503912 0  289.706047442309 22.50187943038457 0  294.7060476703514 22.50196211316257 0  299.7060478171478 22.50204456676347
[...]
<PointData  Vectors="v"> 
<DataArray  type="Float64"  Name="v"  NumberOfComponents="3" format="ascii">-3.6598447929343387e+00 1.6120279282508805e+00 0.0000000000000000e+00  -3.5143135842825139e+00 1.8418708885231991e+00 0.0000000000000000e+00  -2.8972097429081773e+00 1.6235805348996573e+00 0.0000000000000000e+00  -3.0042931752714099e+00 1.4521443197651758e+00 0.0000000000000000e+00  -3.2698502437429724e+00 2.3558161265332687e+00 0.0000000000000000e+00  -2.7516145740393583e+00 1.9895409798530461e+00 0.0000000000000000e+00  -2.9643947927912722e+00 3.0875870501814333e+00 0.0000000000000000e+00  -2.5074535906715796e+00 2.6299037286798477e+00 0.0000000000000000e+00  -2.6061895884799258e+00 3.7989702377997414e+00 0.0000000000000000e+00  -2.2025242265915588e+00 3.2626987905724665e+00 0.0000000000000000e+00  -2.2001629562044216e+00 4.6401315350553149e+00 0.0000000000000000e+00  -1.8451754827661302e+00 4.0326326577741973e+00 0.0000000000000000e+00  -1.8044255783315208e+00 5.3961659477069102e+00 0.0000000000000000e+00  -1.4408249404402971e+00 4.8044264809636594e+00 0.0000000000000000e+00  -1.6323608631728652e+00 5.8178538527013579e+00 0.0000000000000000e+00  -1.0472913558056796e+00 5.5625312172339560e+00 0.0000000000000000e+00  -1.1328020381612958e+00 6.6812741292411806e+00 0.0000000000000000e+00  -8.7811594290556760e-01 5.9354139378039399e+00 0.0000000000000000e+00  -3.0273638574113986e+00 3.9528289339384082e+00 0.0000000000000000e+00  -3.8261293795809653e-01 6.7987827697381960e+00 0.0000000000000000e+00  1.3452202949486189e+00 1.0500003727645650e+01 0.0000000000000000e+00  -2.2821305060295303e+00 3.9461637072805065e+00 0.0000000000000000e+00  -2.9119499989310266e-02 8.1963350004687214e+00 0.0000000000000000e+00  2.0856262363752851e+00 1.0263439749527070e+01 0.0000000000000000e+00  -3.1635849576475839e-01 7.5274947212160841e+00 0.0000000000000000e+00  7.0476202416264788e-01 7.9662308256102445e+00 0.0000000000000000e+00  1.9563235704977668e-02 7.8348207792162343e+00 0.0000000000000000e+00  4.0849759846604644e-01 7.3407840665441402e+00 0.0000000000000000e+00  8.0890198612703512e-01 8.8198540028887766e+00 0.0000000000000000e+00  7.3333665908413781e-01 7.6481127991343385e+00 0.0000000000000000e+00  1.8665600206064015e+00 1.0148265678357124e+01 0.0000000000000000e+00  1.5083329784319159e+00 8.5754471224085815e+00 0.0000000000000000e+00  3.1365583293371913e+00 1.1677425657264832e+01 0.0000000000000000e+00  2.5494902232430681e+00 9.7891022147186888e+00 0.0000000000000000e+00  4.5742928136139822e+00 1.3367841957209762e+01 0.0000000000000000e+00  3.8006270866014167e+00 1.1230357006762949e+01 0.0000000000000000e+00  6.1349403041596648e+00 1.5034885477753702e+01 0.0000000000000000e+00  5.2155023863203658e+00 1.2715002253051836e+01 0.0000000000000000e+00  7.7828235771582293e+00 1.6672279254082945e+01 0.0000000000000000e+00  6.7509264291435311e+00 1.4225536302892582e+01 0.0000000000000000e+00  9.4776055234222945e+00 1.8196464909804462e+01 0.0000000000000000e+00  8.3697848302026525e+00 1.5681856817528029e+01 0.0000000000000000e+00  1.1152406113734283e+01 1.9505831531046116e+01 0.0000000000000000e+00  1.0031732838038069e+01 1.7025012590430819e+01 0.0000000000000000e+00  1.2744978437484876e+01 2.0417469287649844e+01 0.0000000000000000e+00  1.1668643029561919e+01 1.8062780947510138e+01 0.0000000000000000e+00  1.4202849186214648e+01 2.1030930996747241e+01 0.0000000000000000e+00  1.3221628579545516e+01 1.8884654680581018e+01 0.0000000000000000e+00  1.5452908399197954e+01 2.0830253364455430e+01 0.0000000000000000e+00  1.4630220357501360e+01 1.8994723114587597e+01 0.0000000000000000e+00  1.6476827453211580e+01 2.0154006332547773e+01 0.0000000000000000e+00  1.5833650918777877e+01 1.8670093524520517e+01 0.0000000000000000e+00  1.7227292841695881e+01 1.8270108803849446e+01 0.0000000000000000e+00  1.6794777800660821e+01 1.7188270705402264e+01 0.0000000000000000e+00  1.7742161506656448e+01 1.5446371038302539e+01 0.0000000000000000e+00  1.7492934145556820e+01 1.4740423329788857e+01 0.0000000000000000e+00  1.8011297834364825e+01 1.1401885302310035e+01 0.0000000000000000e+00  1.7928435317237994e+01 1.1043680803115310e+01 0.0000000000000000e+00  1.8136911202360825e+01 4.7602729975446092e+00 0.0000000000000000e+00  1.8141641695990078e+01 4.6562982497201446e+00 0.0000000000000000e+00  1.8163558466916790e+01 -3.2714290417774172e-05 0.0000000000000000e+00  1.8163235001880693e+01 -3.7069296824679784e-04 0.0000000000000000e+00  1.8163563200135812e+01 1.5886057239051703e-19 0.0000000000000000e+00  1.3886118985057161e+01 -1.1531136187727110e+01 0.0000000000000000e+00  1.8132911284113696e+01 -5.1502303671154435e+00 0.0000000000000000e+00  1.8163249643244907e+01 2.9279540735713678e-04 0.0000000000000000e+00  1.2624473060172638e+01 -2.0106251385925848e+01 0.0000000000000000e+00  1.3905163652604273e+01 -1.8282887433280624e+01 0.0000000000000000e+00  1.0751855092925421e+01 -2.3970145656747093e+01 0.0000000000000000e+00  1.2702177587308247e+01 -2.1197658347188476e+01 0.0000000000000000e+00  9.6679249335103190e+00 -2.4791530825253080e+01 0.0000000000000000e+00  1.0884199523959458e+01 -2.3213655802734301e+01 0.0000000000000000e+00  8.4449103792751572e+00 -2.4345513004508415e+01 0.0000000000000000e+00  9.8493095143392022e+00 -2.2550738663890051e+01 0.0000000000000000e+00  7.4351651482600989e+00 -2.2825722268824602e+01 0.0000000000000000e+00  8.6719906411978336e+00 -2.1351430725644072e+01 0.0000000000000000e+00  6.4867993335073413e+00 -2.1042499781542386e+01 0.0000000000000000e+00  7.7067975331287863e+00 -1.9655497173670312e+01 0.0000000000000000e+00  5.6348651868708517e+00 -1.9032424351975536e+01 0.0000000000000000e+00  6.7990691808489387e+00 -1.7790604574877246e+01 0.0000000000000000e+00  4.7466226604272741e+00 -1.7219286503958848e+01 0.0000000000000000e+00  5.9858758037707318e+00 -1.5919928669046424e+01 0.0000000000000000e+00  4.0371668303750177e+00 -1.5482437898203861e+01 0.0000000000000000e+00  5.1349234393736758e+00 -1.4450118179592129e+01 0.0000000000000000e+00  3.4056922314894016e+00 -1.3968041622541723e+01 0.0000000000000000e+00  4.4606250932121601e+00 -1.3051559888951148e+01 0.0000000000000000e+00  2.7530746745796120e+00 -1.2753581366869644e+01 0.0000000000000000e+00  3.8628017339772338e+00 -1.1804127641414132e+01 0.0000000000000000e+00  2.1582932000953226e+00 -1.1694406950198259e+01 0.0000000000000000e+00  3.2428284115616242e+00 -1.0830407065893866e+01 0.0000000000000000e+00  1.6211222831282748e+00 -1.0772233422489789e+01 0.0000000000000000e+00  2.6791910967586698e+00 -9.9939983565970536e+00 0.0000000000000000e+00  1.1396073047000521e+00 -9.9281777634274047e+00 0.0000000000000000e+00  2.1720572717215552e+00 -9.2324039121543180e+00 0.0000000000000000e+00  7.2319200611566115e-01 -9.1246741105793241e+00 0.0000000000000000e+00  1.7197678485351842e+00 -8.5257331809691141e+00 0.0000000000000000e+00  3.6686576638461588e-01 -8.3666820819601462e+00 0.0000000000000000e+00  1.3315805515538317e+00 -7.8573275233603157e+00 0.0000000000000000e+00  5.5145426685910055e-02 -7.6253484213796350e+00 0.0000000000000000e+00  1.0026807305228829e+00 -7.1822872422365593e+00 0.0000000000000000e+00  -2.0870115944366074e-01 -6.9001927005255332e+00 0.0000000000000000e+00  7.1787056526665050e-01 -6.5283450262223353e+00 0.0000000000000000e+00  -4.2960093010333333e-01 -6.1849038091753608e+00 0.0000000000000000e+00  4.8021904831729734e-01 -5.8771984622983116e+00 0.0000000000000000e+00  -6.1438425441123312e-01 -5.4805443534155005e+00 0.0000000000000000e+00  2.8512650669037848e-01 -5.2264906847830677e+00 0.0000000000000000e+00  -7.6365752279650057e-01 -4.7594523710128680e+00 0.0000000000000000e+00  1.2560097352436114e-01 -4.5585281074461621e+00 0.0000000000000000e+00  -8.7063095014407343e-01 -4.0807999564859934e+00 0.0000000000000000e+00  1.5230912249366757e-03 -3.9427523878138024e+00 0.0000000000000000e+00  -9.4532819849838301e-01 -3.3267512387475167e+00 0.0000000000000000e+00  -8.1134541547854058e-02 -3.2374838911527384e+00 0.0000000000000000e+00  -9.7376053596407364e-01 -2.6962800438974788e+00 0.0000000000000000e+00  -1.3074303806337179e-01 -2.6751536335515285e+00 0.0000000000000000e+00  -9.6026872658930207e-01 -1.8784567313759104e+00 0.0000000000000000e+00  -1.3601644200461446e-01 -1.9218747945228853e+00 0.0000000000000000e+00  -8.9585186518333371e-01 -1.3973235273366491e+00 0.0000000000000000e+00  -9.6744433409697780e-02 -1.5139633622424311e+00 0.0000000000000000e+00  -7.6613260917874160e-01 -4.2956052610292378e-01 0.0000000000000000e+00  -1.1402547084832541e-02 -6.4907607014652680e-01 0.0000000000000000e+00  -5.2193783874033239e-01 5.0703675025448661e-02 0.0000000000000000e+00  1.4750064394529377e-01 -3.3157052497205008e-01 0.0000000000000000e+00  5.9284623245346821e-02 2.8486480202527370e-01 0.0000000000000000e+00  4.0336859495432692e-01 -6.2043327898721645e-01 0.0000000000000000e+00  -2.0112055441753025e+00 1.4619486752935376e+00 0.0000000000000000e+00  -2.1190174014932848e+00 1.2926986325472190e+00 0.0000000000000000e+00  -1.9024411834127029e+00 1.7698176476467269e+00 0.0000000000000000e+00  -1.7546075991418872e+00 2.2624714531856012e+00 0.0000000000000000e+00  -1.5082610782771155e+00 2.8042031016210931e+00 0.0000000000000000e+00  -1.2014392920508508e+00 3.4954351791519782e+00 0.0000000000000000e+00  -8.4246278633272320e-01 4.1974354638754319e+00 0.0000000000000000e+00  -4.3735551388908206e-01 4.9725182827636925e+00 0.0000000000000000e+00  -4.4417165842304422e-02 5.6821728558261411e+00 0.0000000000000000e+00  1.2303991634683807e-01 6.0577179986821621e+00 0.0000000000000000e+00  6.1429440971497407e-01 6.7994985492781490e+00 0.0000000000000000e+00  -1.2904775817771668e+00 3.7118195273524579e+00 0.0000000000000000e+00  3.0780313090628963e+00 1.0036874235335636e+01 0.0000000000000000e+00  1.6967770270410436e+00 7.7893651395406973e+00 0.0000000000000000e+00  1.3933206087973622e+00 7.1659550945147128e+00 0.0000000000000000e+00  1.7073824569945149e+00 7.4226217343698204e+00 0.0000000000000000e+00  2.4659612264075448e+00 8.2391736508527238e+00 0.0000000000000000e+00  3.4864182009240232e+00 9.3669164981039597e+00 0.0000000000000000e+00  4.7132285895740793e+00 1.0610086761943492e+01 0.0000000000000000e+00  6.0982662369690006e+00 1.1942934031350386e+01 0.0000000000000000e+00  7.5983032349515671e+00 1.3275429222703384e+01 0.0000000000000000e+00  9.1772329345035821e+00 1.4560562998272161e+01 0.0000000000000000e+00  1.0790976476496034e+01 1.5638274893152740e+01 0.0000000000000000e+00  1.2373009568552302e+01 1.6592035906223906e+01 0.0000000000000000e+00  1.3862217402519086e+01 1.6921681737276693e+01 0.0000000000000000e+00  1.5198979087492637e+01 1.6917128300441959e+01 0.0000000000000000e+00  1.6316423029641680e+01 1.5791868648450896e+01 0.0000000000000000e+00  1.7188774924437752e+01 1.3768917791857024e+01 0.0000000000000000e+00  1.7771181661086487e+01 1.0433850617893675e+01 0.0000000000000000e+00  1.8104104999266237e+01 4.4495775808004261e+00 0.0000000000000000e+00  1.8162460747785609e+01 -7.0458682842471326e-04 0.0000000000000000e+00  1.8092156601303554e+01 -4.9542481886259333e+00 0.0000000000000000e+00  1.8162478951443603e+01 5.7391969576553318e-04 0.0000000000000000e+00  1.7901133328653643e+01 -1.1959829155855134e+01 0.0000000000000000e+00  1.3743892178115509e+01 -1.9450628781547231e+01 0.0000000000000000e+00  1.2627240023277892e+01 -2.0529125963898085e+01 0.0000000000000000e+00  1.0877260027478592e+01 -2.1038495115534179e+01 0.0000000000000000e+00  9.9058983946748462e+00 -1.9615176927599169e+01 0.0000000000000000e+00  8.7802749050547391e+00 -1.8240837021415459e+01 0.0000000000000000e+00  7.8657367858756277e+00 -1.6455199670550435e+01 0.0000000000000000e+00  7.0016465695858470e+00 -1.4724690555399974e+01 0.0000000000000000e+00  6.2288799588281956e+00 -1.3197274106135238e+01 0.0000000000000000e+00  5.4157696513333597e+00 -1.2061719649629167e+01 0.0000000000000000e+00  4.7768242518290274e+00 -1.0927166954501049e+01 0.0000000000000000e+00  4.2119283791236919e+00 -9.9201059882049361e+00 0.0000000000000000e+00  3.6236701260215316e+00 -9.1666882299313279e+00 0.0000000000000000e+00  3.0898168005535362e+00 -8.4886600968300563e+00 0.0000000000000000e+00  2.6107352676674385e+00 -7.8638491506923520e+00 0.0000000000000000e+00  2.1853403460798466e+00 -7.2906127019348901e+00 0.0000000000000000e+00  1.8226967464939121e+00 -6.7036582265112727e+00 0.0000000000000000e+00  1.5181209920701857e+00 -6.1155141715970371e+00 0.0000000000000000e+00  1.2568333803195046e+00 -5.5345387265536354e+00 0.0000000000000000e+00  1.0418736705329499e+00 -4.9470567647005739e+00 0.0000000000000000e+00  8.6868807013326055e-01 -4.3324127088275723e+00 0.0000000000000000e+00  7.3068957241109300e-01 -3.7691781136681937e+00 0.0000000000000000e+00  6.2750196472238040e-01 -3.1262176735907161e+00 0.0000000000000000e+00  5.6556318922743354e-01 -2.6125279524343137e+00 0.0000000000000000e+00  5.3595295331422876e-01 -1.9269528321427483e+00 0.0000000000000000e+00  5.5112246416827038e-01 -1.5830944526595310e+00 0.0000000000000000e+00  6.0908513184717039e-01 -7.9154440418329275e-01 0.0000000000000000e+00  7.1506117124535007e-01 -5.7725618451343519e-01 0.0000000000000000e+00  8.9131093630426395e-01 -1.0199333087049154e+00 0.0000000000000000e+00  -7.0233586391419678e-01 1.2979847542193323e+00 0.0000000000000000e+00  -7.9433881180088084e-01 1.1581401866897925e+00 0.0000000000000000e+00  -5.9081008074345176e-01 1.6028714054371025e+00 0.0000000000000000e+00  -4.7579448206792185e-01 2.0367706974208457e+00 0.0000000000000000e+00  -3.2167457135367439e-01 2.4302498858900718e+00 0.0000000000000000e+00  -6.8287524545892070e-02 3.0307868671941507e+00 0.0000000000000000e+00  2.4564889106315058e-01 3.6552875148994590e+00 0.0000000000000000e+00  6.1063068822808286e-01 4.3617226273808543e+00 0.0000000000000000e+00  1.0206691538052306e+00 5.0912632989818984e+00 0.0000000000000000e+00  1.4162969612714780e+00 5.8076521081242678e+00 0.0000000000000000e+00  1.5823324966048038e+00 6.0665634960155703e+00 0.0000000000000000e+00  2.0682766769510992e+00 6.5732969989881216e+00 0.0000000000000000e+00  1.6308776144599713e-01 3.4785636808829166e+00 0.0000000000000000e+00  4.5444285035961141e+00 9.8535711255021177e+00 0.0000000000000000e+00  3.1739349326705417e+00 7.6243535652811012e+00 0.0000000000000000e+00  2.8684502038461326e+00 6.9608353491167847e+00 0.0000000000000000e+00  3.1707698932803670e+00 7.1166492267405799e+00 0.0000000000000000e+00  3.9095860280872121e+00 7.8574851254457023e+00 0.0000000000000000e+00  4.9031585833269915e+00 8.7967479557811821e+00 0.0000000000000000e+00  6.0946932962771863e+00 9.8975465911108813e+00 0.0000000000000000e+00  7.4369427218401452e+00 1.1064390088019636e+01 0.0000000000000000e+00  8.8856932215008797e+00 1.2239574074738396e+01 0.0000000000000000e+00  1.0401041192037203e+01 1.3271408937458155e+01 0.0000000000000000e+00  1.1940661447775001e+01 1.4286910730501605e+01 0.0000000000000000e+00  1.3431621568907982e+01 1.4761885259052805e+01 0.0000000000000000e+00  1.4816203204179718e+01 1.5007666444965206e+01 0.0000000000000000e+00  1.6023072823749448e+01 1.4211700037793134e+01 0.0000000000000000e+00  1.6999162664859789e+01 1.2599930289912088e+01 0.0000000000000000e+00  1.7688086543429520e+01 9.6665657923401636e+00 0.0000000000000000e+00  1.8095461626099439e+01 4.1653602748317846e+00 0.0000000000000000e+00  1.8161252996574149e+01 -1.0064985508025657e-03 0.0000000000000000e+00  1.8071574342512367e+01 -4.6091651973450105e+00 0.0000000000000000e+00  1.8161269280150286e+01 8.1979698655392419e-04 0.0000000000000000e+00  1.7669858437779119e+01 -1.1609865181327068e+01 0.0000000000000000e+00  1.7468601359887309e+01 -1.3304001202988911e+01 0.0000000000000000e+00  1.3435039859185519e+01 -1.8962700287150312e+01 0.0000000000000000e+00  1.2457005315437488e+01 -1.8493427640011561e+01 0.0000000000000000e+00  1.0815204063644662e+01 -1.8235243639908393e+01 0.0000000000000000e+00  9.9371544618923160e+00 -1.6611502472366933e+01 0.0000000000000000e+00  8.8896672098483158e+00 -1.5140008435082811e+01 0.0000000000000000e+00  8.0458124529972839e+00 -1.3477377383343132e+01 0.0000000000000000e+00  7.2427670602154510e+00 -1.2082939805135645e+01 0.0000000000000000e+00  6.5264367784987014e+00 -1.0882819311128813e+01 0.0000000000000000e+00  5.7647490400749444e+00 -1.0007389000780226e+01 0.0000000000000000e+00  5.1736982289002746e+00 -9.1086315102529145e+00 0.0000000000000000e+00  4.6541047534646207e+00 -8.3184104030226305e+00 0.0000000000000000e+00  4.1086060694806825e+00 -7.7201026544970315e+00 0.0000000000000000e+00  3.6147268995650079e+00 -7.1754365724610656e+00 0.0000000000000000e+00  3.1733514920496053e+00 -6.6810178043442265e+00 0.0000000000000000e+00  2.7833789384447463e+00 -6.1868009147301795e+00 0.0000000000000000e+00  2.4540872523498827e+00 -5.6842540076298480e+00 0.0000000000000000e+00  2.1811603196354623e+00 -5.1671531038375926e+00 0.0000000000000000e+00  1.9500895375063438e+00 -4.6481533663868539e+00 0.0000000000000000e+00  1.7639714990275857e+00 -4.0954990650113867e+00 0.0000000000000000e+00  1.6188206035496977e+00 -3.5841067399822033e+00 0.0000000000000000e+00  1.5077764896374055e+00 -2.9933891150698462e+00 0.0000000000000000e+00  1.4312850397138241e+00 -2.5401935296991973e+00 0.0000000000000000e+00  1.3947431273260844e+00 -1.9042746476176884e+00 0.0000000000000000e+00  1.3912133853933213e+00 -1.6243934501855761e+00 0.0000000000000000e+00  1.4295592972616149e+00 -9.0143711779276570e-01 0.0000000000000000e+00  1.5144779961426682e+00 -7.5061243291154267e-01 0.0000000000000000e+00  1.6373327581634567e+00 -1.3086309354754981e+00 0.0000000000000000e+00  5.0265552637229594e-01 1.1567801057510512e+00 0.0000000000000000e+00  4.3090540173170827e-01 1.0552344342312237e+00 0.0000000000000000e+00  5.9981434159514502e-01 1.4297983905459213e+00 0.0000000000000000e+00  7.2082512821112044e-01 1.8565418261272038e+00 0.0000000000000000e+00  8.4723872402092948e-01 2.1903272460796654e+00 0.0000000000000000e+00  1.0145142920560337e+00 2.6413198129482751e+00 0.0000000000000000e+00  1.2817629897569258e+00 3.1744105168598549e+00 0.0000000000000000e+00  1.6099526516452416e+00 3.8049221891879172e+00 0.0000000000000000e+00  1.9883936970946523e+00 4.4682161557388778e+00 0.0000000000000000e+00  2.4093668284953003e+00 5.2084900668137291e+00 0.0000000000000000e+00  2.8115922109487714e+00 5.8164488438582165e+00 0.0000000000000000e+00  2.9791606120773921e+00 5.8453317394724378e+00 0.0000000000000000e+00  3.4651671025635027e+00 6.3306879978593535e+00 0.0000000000000000e+00  1.5745687092143923e+00 3.2589612535821728e+00 0.0000000000000000e+00  5.9922260890887484e+00 9.6560716632273742e+00 0.0000000000000000e+00  4.6523856577029070e+00 7.4096427103881624e+00 0.0000000000000000e+00  4.3591594521542110e+00 6.6626044456837059e+00 0.0000000000000000e+00  4.6615723171903962e+00 6.7575403806567582e+00 0.0000000000000000e+00  5.3884007205595648e+00 7.3198785683743806e+00 0.0000000000000000e+00  6.3620440205186357e+00 8.1312974887587863e+00 0.0000000000000000e+00  7.5246227353212145e+00 9.0780999332157997e+00 0.0000000000000000e+00  8.8278231835745000e+00 1.0101621261818885e+01 0.0000000000000000e+00  1.0225915062385491e+01 1.1042358746294854e+01 0.0000000000000000e+00  1.1677808339955208e+01 1.2036230169515257e+01 0.0000000000000000e+00  1.3133064894722086e+01 1.2592575180981241e+01 0.0000000000000000e+00  1.4522872585385528e+01 1.3025790460807150e+01 0.0000000000000000e+00  1.5772921374517473e+01 1.2499609708742872e+01 0.0000000000000000e+00  1.6827140851822943e+01 1.1287640130696808e+01 0.0000000000000000e+00  1.7594159745716045e+01 8.7553899186409083e+00 0.0000000000000000e+00  1.8073776757832313e+01 3.8096640232785552e+00 0.0000000000000000e+00  1.8159659579216676e+01 -1.2745114436926248e-03 0.0000000000000000e+00  1.8048157501353600e+01 -4.1731377583337226e+00 0.0000000000000000e+00  1.8159674384711685e+01 1.0367793321965431e-03 0.0000000000000000e+00  1.7543827350486442e+01 -1.0835777639722433e+01 0.