<?xml version="1.0"?>
<VTKFile type="UnstructuredGrid"  version="0.1"  >
<UnstructuredGrid>
<Piece  NumberOfPoints="1933" NumberOfCells="3640">
<Points>
<DataArray  type="Float64"  NumberOfComponents="3"  format="ascii">-0.2939879916067724 0.0001793641600353767 0  4.706012049957282 0.0001505396720426445 0  4.706055332572717 7.500150670384816 0  -0.2939447474837228 7.500179428015836 0  9.706012103093466 0.0001215959294320027 0  9.706055478083405 7.500121750051121 0  14.70601223132631 9.247459818773084e-05 0  14.7060557239958 7.500092635455949 0  19.70601250446295 6.317081477275662e-05 0  19.70605610457807 7.500063332326135 0  24.70601298796786 3.371161910868605e-05 0  24.70605665384 7.500033872210772 0  29.70601374048836 4.144080594190155e-06 0  29.7060574047276 7.500004304144269 0  34.70601481448335 -2.547124347098458e-05 0  34.70605838853979 7.499974689533411 0  39.70601625790401 -5.506361035824804e-05 0  39.70605963472919 7.499945099483946 0  44.70601811609725 -8.455329556277848e-05 0  44.70606117096015 7.499915613886142 0  49.7060204336162 -0.0001138513348563527 0  49.70606302325584 7.499886321807705 0  54.70602325584053 -0.0001428581391842258 0  54.70606521609538 7.499857322940636 0  59.70602663038652 -0.00017146111641549 0  59.70606777233742 7.499828730003913 0  64.70603060831355 -0.000199531285033656 0  64.7060707128468 7.499800672130795 0  69.7060352451107 -0.0002269187350060111 0  69.70607405568305 7.499773299385684 0  74.70604060141847 -0.0002534466551272536 0  74.70607781465844 7.499746788677979 0  79.70604674336175 -0.0002789034793736084 0  79.70608199698847 7.499721351487491 0  84.70605374225813 -0.0003030324774039222 0  84.70608659964465 7.499697244006111 0  89.70606167324264 -0.0003255177845639235 0  89.70609160382627 7.499674780557498 0  94.7060706119798 -0.0003459653722536473 0  94.70609696672403 7.499654351503902 0  99.70608062791443 -0.0003638767050121425 0  99.70610260943234 7.499636447306202 0  104.7060917712133 -0.0003786116727587112 0  104.7061083994928 7.499621690962792 0  109.7061040480377 -0.0003893356190344251 0  109.7061141263198 7.499610881614367 0  114.7061173740513 -0.0003949426450662003 0  114.7061194680558 7.499605052338101 0  119.7061314868883 -0.0003939436214964459 0  119.7061239503604 7.499605544158032 0  124.7061457805888 -0.0003843026608877873 0  124.7061269039529 7.49961409386109 0  129.7061589905008 -0.0003632021911722812 0  129.7061274445674 7.499632920344854 0  134.7061685895137 -0.0003267234411055584 0  134.7061245405133 7.499664762986995 0  139.7061696213042 -0.0002694854780825789 0  139.7061173317699 7.49971276208662 0  144.706152410773 -0.0001845708088568425 0  144.7061061007168 7.49977999416343 0  149.7060978972692 -6.546783356494141e-05 0  149.7060949024158 7.499868707971429 0  159.7061073738549 9.883806067188065e-19 0  164.7059841608667 -0.0001853476491046519 0  164.7060869556602 7.499784752852345 0  159.7061204774859 7.499929842608839 0  169.7059222746163 -0.0003359512752688807 0  169.706052769245 7.499649043897814 0  174.7058922134385 -0.0004616972281754917 0  174.7060255787959 7.499530130889101 0  179.7058791804514 -0.0005684404913739057 0  179.7060060229412 7.499426914105288 0  184.7058753909974 -0.0006605376674019066 0  184.7059928722083 7.499336746894348 0  189.7058766308704 -0.0007413149108963333 0  189.7059846137233 7.499257063100947 0  194.7058805677084 -0.0008132875041957557 0  194.7059799225646 7.499185727281296 0  199.7058858844216 -0.0008783472552180526 0  199.7059777596214 7.499121048350096 0  204.7058918231149 -0.0009379207827149376 0  204.7059773486758 7.499061708878354 0  209.7058979404422 -0.0009930931055519942 0  209.7059781232694 7.499006684460559 0  214.7059039739485 -0.001044699388476004 0  214.7059796744681 7.498955174226096 0  219.7059097675812 -0.001093391338384173 0  219.705981708321 7.498906546274774 0  224.7059152292694 -0.001139684818746605 0  224.7059840137603 7.498860296448663 0  229.7059203062047 -0.00118399403413848 0  229.7059864392481 7.498816017639569 0  234.7059249701049 -0.001226656258819857 0  234.7059888760887 7.498773376997129 0  239.7059292082431 -0.00126794993042993 0  239.7059912465899 7.498732098927473 0  244.7059330179058 -0.00130810806946827 0  244.7059934956939 7.498691952303203 0  249.7059364029495 -0.001347328375679992 0  249.7059955850646 7.49865274073945 0  254.705939371704 -0.001385780930168122 0  254.7059974889273 7.498614295120353 0  259.7059419357731 -0.001423614139798027 0  259.7059991911566 7.498576467801882 0  264.7059441094962 -0.001460959353988453 0  264.7060006832749 7.498539128095643 0  269.7059459099199 -0.001497934429821918 0  269.7060019631181 7.498502158775583 0  274.705947357228 -0.001534646392962927 0  274.7060030339859 7.498465453463873 0  279.705948475616 -0.00157119321401368 0  279.7060039041436 7.498428914861709 0  284.7059492946131 -0.001607664563395424 0  284.7060045865513 7.498392453912066 0  289.705949850821 -0.001644141179638857 0  289.7060050986798 7.498355990132231 0  294.7059501899478 -0.001680692116214279 0  294.7060054623217 7.498319453550787 0  299.7059503686245 -0.001717368501368012 0  299.7060057033122 7.498282788934673 0  304.7059504547252 -0.001754191365799839 0  304.7060058514472 7.498245963276751 0  309.7059505228373 -0.001791129400663958 0  309.7060059418404 7.49820897781461 0  4.706098238155121 15.00015096949739 0  -0.2939018492839504 15.00017958415212 0  9.706098383707486 15.00012209251322 0  14.70609861727364 15.00009297863593 0  19.70609895895617 15.00006366108297 0  24.70609942490329 15.00003418404111 0  29.7061000294679 15.00000460197498 0  34.70610078571067 14.99997497830216 0  39.70610170523285 14.99994538455921 0  44.70610279774503 14.99991590035799 0  49.70610407049932 14.99988661416242 0  54.7061055275851 14.99985762486282 0  59.70610716902845 14.99982904415417 0  64.70610898960682 14.9998009997791 0  69.70611097726476 14.99977363976541 0  74.70611311100399 14.99974713786401 0  79.70611535809924 14.99972170047792 0  84.70611767049712 14.9996975754627 0  89.70611998028309 14.99967506326564 0  94.70612219423033 14.99965453091967 0  99.70612418771479 14.99963642934918 0  104.7061257989206 14.9996213141097 0  109.7061268254689 14.99960986873513 0  114.7061270279295 14.99960292761397 0  119.7061261487541 14.99960149041795 0  124.7061239619608 14.9996067100263 0  129.7061203790167 14.99961981595842 0  134.7061156486415 14.99964189711283 0  139.7061106944825 14.99967339481864 0  144.706107603976 14.99971300742858 0  149.7061101077163 14.99975530021668 0  164.7061375407994 14.99970229662764 0  159.7061409220634 14.99979856057864 0  169.7061256629556 14.99960012778972 0  174.7061107777698 14.99950128439844 0  179.7060963476455 14.99940974381633 0  184.7060839231786 14.99932637402864 0  189.7060739519095 14.99925069052636 0  194.7060663452367 14.9991817461783 0  199.706060795998 14.99911852381952 0  204.7060569390642 14.99906008976204 0  209.7060544249499 14.99900564015506 0  214.7060529484453 14.99895450254995 0  219.7060522554391 14.99890612102988 0  224.70605214009 14.99886003723715 0  229.7060524384238 14.9988158722505 0  234.7060530212486 14.99877331096752 0  239.706053787595 14.99873208925392 0  244.7060546591248 14.99869198359471 0  249.7060555755645 14.9986528028357 0  254.7060564910606 14.99861438160918 0  259.7060573713231 14.99857657510256 0  264.7060581913903 14.99853925490256 0  269.7060589338938 14.99850230572324 0  274.7060595876926 14.99846562289297 0  279.7060601467788 14.99842911053655 0  284.7060606094003 14.99839268043991 0  289.7060609773439 14.99835625161313 0  294.7060612554977 14.99831975053516 0  299.7060614519028 14.99828311187879 0  304.7060615789318 14.99824627893832 0  309.7060616567412 14.99820920142395 0  4.706140753145265 22.50015156985544 0  -0.2938593325147814 22.50018006305375 0  9.706140873798057 22.50012272241934 0  14.70614105040385 22.50009359188384 0  19.70614129418763 22.50006423943667 0  24.70614161071156 22.5000347246285 0  29.70614200225775 22.50000510948398 0  34.70614246885548 22.49997546047343 0  39.7061430084481 22.49994584966871 0  44.70614361655535 22.49991635579303 0  49.70614428563636 22.49988706551726 0  54.70614500424539 22.49985807518116 0  59.7061457560136 22.49982949304426 0  64.70614651845477 22.49980144215434 0  69.70614726158982 22.49977406392371 0  74.70614794640292 22.49974752251462 0  79.7061485231889 22.49972201013287 0  84.70614892994446 22.49969775329793 0  89.70614909111987 22.4996750200613 0  94.70614891732571 22.49965412792408 0  99.70614830703538 22.49963545175008 0  104.7061471520216 22.49961943010105 0  109.7061453492872 22.49960656681752 0  114.7061428236255 22.49959742183754 0  119.7061395665038 22.49959258043498 0  124.7061356980888 22.49959258228769 0  129.70613155811 22.4995977801313 0  134.7061278238641 22.49960808253334 0  139.7061256315999 22.49962252183626 0  144.706126625814 22.49963859951817 0  149.706132759278 22.49965148936559 0  164.7061695521447 22.49960999121704 0  159.7061595266433 22.49967544334368 0  169.7061715344718 22.4995348416141 0  174.7061680191435 22.49945662879907 0  179.7061615209035 22.49937964457435 0  184.7061539165984 22.4993061613407 0  189.7061463781811 22.49923708418565 0  194.7061395351959 22.49917253549349 0  199.7061336605724 22.49911224590879 0  204.7061288153585 22.49905578227969 0  209.7061249461708 22.4990026691279 0  214.7061219455877 22.49895244784019 0  219.7061196872712 22.4989047017882 0  224.7061180450934 22.49885906383614 0  229.7061169026427 22.4988152153517 0  234.706116157201 22.49877288155916 0  239.7061157206899 22.49873182569778 0  244.7061155190701 22.49869184316434 0  249.7061154910276 22.49865275615303 0  254.7061155864242 22.4986144089691 0  259.706115764728 22.49857666403697 0  264.7061159935599 22.49853939855623 0  269.7061162473761 22.49850250173852 0  274.7061165063055 22.49846587255618 0  279.706116755144 22.49842941793232 0  284.7061169825091 22.49839305128434 0  289.7061171802107 22.4983566912759 0  294.7061173429564 22.49832026048764 
[...]
<PointData  Vectors="v"> 
<DataArray  type="Float64"  Name="v"  NumberOfComponents="3" format="ascii">-1.1011863690463330e+00 -7.6635478864986801e+00 0.0000000000000000e+00  -1.6583872495629275e+00 -7.1708869167109492e+00 0.0000000000000000e+00  -1.5282808262565057e+00 -6.3353411857794022e+00 0.0000000000000000e+00  -1.0981844165051666e+00 -7.0186589355601798e+00 0.0000000000000000e+00  -2.3520048632434842e+00 -7.7487261688753168e+00 0.0000000000000000e+00  -2.0850759794187850e+00 -6.7093039008926079e+00 0.0000000000000000e+00  -2.9730044973835037e+00 -8.7706785395530868e+00 0.0000000000000000e+00  -2.7774630810084857e+00 -7.8407646861634674e+00 0.0000000000000000e+00  -3.5164834366921052e+00 -9.0821183432564450e+00 0.0000000000000000e+00  -3.3964578008135531e+00 -8.2692199291898145e+00 0.0000000000000000e+00  -4.1974265633731713e+00 -9.9556165424256271e+00 0.0000000000000000e+00  -3.9371668725975395e+00 -8.9372499606268025e+00 0.0000000000000000e+00  -4.7364008430108315e+00 -1.0309330820971718e+01 0.0000000000000000e+00  -4.6144005187567885e+00 -9.5045162337244538e+00 0.0000000000000000e+00  -4.8154951859285502e+00 -1.0046339536909041e+01 0.0000000000000000e+00  -5.1488506844283393e+00 -9.9320871119729208e+00 0.0000000000000000e+00  -5.8992892638798295e+00 -1.1142099278438478e+01 0.0000000000000000e+00  -5.2226644168361407e+00 -9.5215647585723868e+00 0.0000000000000000e+00  -2.7934300599236619e+00 -5.9784513495831799e+00 0.0000000000000000e+00  -6.3002409189161517e+00 -1.0642755561618699e+01 0.0000000000000000e+00  -1.3915319310674681e+01 -2.1862846822560783e+01 0.0000000000000000e+00  -3.1874202408304431e+00 -5.1869838897361049e+00 0.0000000000000000e+00  -1.3595534535444894e+01 -2.0088746083627285e+01 0.0000000000000000e+00  -1.4301845453806722e+01 -2.0575570309739970e+01 0.0000000000000000e+00  -1.3672696515056240e+01 -1.8769136718158826e+01 0.0000000000000000e+00  -1.3973526651204169e+01 -1.8661561495010552e+01 0.0000000000000000e+00  -1.4203782528924467e+01 -1.8102118172223072e+01 0.0000000000000000e+00  -1.4040862683426230e+01 -1.7315019997401333e+01 0.0000000000000000e+00  -1.5143935963878116e+01 -1.8069200902903319e+01 0.0000000000000000e+00  -1.4560755269546116e+01 -1.6669891897142048e+01 0.0000000000000000e+00  -1.6394125300705557e+01 -1.8460706513597167e+01 0.0000000000000000e+00  -1.5487868355093582e+01 -1.6597407394485501e+01 0.0000000000000000e+00  -1.7860704779226356e+01 -1.9069565641744777e+01 0.0000000000000000e+00  -1.6723538270127985e+01 -1.6883128341925303e+01 0.0000000000000000e+00  -1.9453088871303098e+01 -1.9956602339363240e+01 0.0000000000000000e+00  -1.8174272198111730e+01 -1.7582727350775929e+01 0.0000000000000000e+00  -2.1080807790606201e+01 -2.0695731837750813e+01 0.0000000000000000e+00  -1.9748948386998357e+01 -1.8269675944205023e+01 0.0000000000000000e+00  -2.2667144571742686e+01 -2.1320480354273503e+01 0.0000000000000000e+00  -2.1357813292755289e+01 -1.8957916321249574e+01 0.0000000000000000e+00  -2.4148523059584960e+01 -2.1668392506714028e+01 0.0000000000000000e+00  -2.2923961324566786e+01 -1.9464052133434702e+01 0.0000000000000000e+00  -2.5469511769646616e+01 -2.1703696345768336e+01 0.0000000000000000e+00  -2.4383903113964330e+01 -1.9740876132032824e+01 0.0000000000000000e+00  -2.6594349773893629e+01 -2.0974390194362265e+01 0.0000000000000000e+00  -2.5682030456133752e+01 -1.9306255230654386e+01 0.0000000000000000e+00  -2.7509419302176219e+01 -2.0255233191350900e+01 0.0000000000000000e+00  -2.6784032121664776e+01 -1.8903239445495039e+01 0.0000000000000000e+00  -2.8209027405094439e+01 -1.8106444030834076e+01 0.0000000000000000e+00  -2.7673822845281688e+01 -1.7076440885863182e+01 0.0000000000000000e+00  -2.8715187553519325e+01 -1.6435983861070948e+01 0.0000000000000000e+00  -2.8349938717861392e+01 -1.5699140488529915e+01 0.0000000000000000e+00  -2.9046632327825936e+01 -1.2752876668697500e+01 0.0000000000000000e+00  -2.8828776582395609e+01 -1.2274453118545814e+01 0.0000000000000000e+00  -2.9247442635200404e+01 -1.0092142322703378e+01 0.0000000000000000e+00  -2.9137518186876143e+01 -9.8153642422616603e+00 0.0000000000000000e+00  -2.9342415270264677e+01 -5.2029725378283498e+00 0.0000000000000000e+00  -2.9308930986299622e+01 -5.0771593207437915e+00 0.0000000000000000e+00  -2.9381811203850653e+01 -1.2364585949769598e+00 0.0000000000000000e+00  -2.9383432847964389e+01 -1.2044019309417793e+00 0.0000000000000000e+00  -2.9389262608929457e+01 4.8236471446475267e-09 0.0000000000000000e+00  -2.9389940977066075e+01 -7.0928972236779361e-04 0.0000000000000000e+00  -2.9389262614653038e+01 4.1363325136956119e-19 0.0000000000000000e+00  -2.0123508596756601e+01 7.0746018808701079e+00 0.0000000000000000e+00  -2.9383913079398482e+01 -6.7982751912580373e+00 0.0000000000000000e+00  -2.9389929046753636e+01 6.7738889042255320e-04 0.0000000000000000e+00  -2.0747922732085080e+01 1.3371113161082878e+01 0.0000000000000000e+00  -2.0151222360091708e+01 1.4347930755530387e+01 0.0000000000000000e+00  -1.7729704795823483e+01 2.0813019949162587e+01 0.0000000000000000e+00  -2.0813301847089189e+01 1.6316518757199820e+01 0.0000000000000000e+00  -1.6952018952089471e+01 2.2299150754986091e+01 0.0000000000000000e+00  -1.7833398708551975e+01 2.1167460536265509e+01 0.0000000000000000e+00  -1.5272227667727977e+01 2.5077957059622257e+01 0.0000000000000000e+00  -1.7093278427464327e+01 2.2591303511328171e+01 0.0000000000000000e+00  -1.4060529317475353e+01 2.5292960266869262e+01 0.0000000000000000e+00  -1.5450524785043084e+01 2.3509142867065698e+01 0.0000000000000000e+00  -1.2765765585351454e+01 2.5373178948805421e+01 0.0000000000000000e+00  -1.4276111961577197e+01 2.3463496442828212e+01 0.0000000000000000e+00  -1.1650000199840784e+01 2.4321311652616920e+01 0.0000000000000000e+00  -1.3017833199712298e+01 2.2680616242464005e+01 0.0000000000000000e+00  -1.0322048681196641e+01 2.3153222631167683e+01 0.0000000000000000e+00  -1.1938166180634436e+01 2.1193561406458258e+01 0.0000000000000000e+00  -9.3664495348173844e+00 2.1311750097502514e+01 0.0000000000000000e+00  -1.0646122123867833e+01 1.9910380647557407e+01 0.0000000000000000e+00  -8.5833908912839405e+00 1.9455851627801799e+01 0.0000000000000000e+00  -9.7259591719517253e+00 1.8313083184002700e+01 0.0000000000000000e+00  -7.7316948642490546e+00 1.7762211074321176e+01 0.0000000000000000e+00  -8.9779646361134251e+00 1.6516224372238206e+01 0.0000000000000000e+00  -6.9250487872103799e+00 1.6162413016213172e+01 0.0000000000000000e+00  -8.1611277638698176e+00 1.4983624060518849e+01 0.0000000000000000e+00  -6.1673109091256100e+00 1.4746315776219495e+01 0.0000000000000000e+00  -7.3889247087653249e+00 1.3640703000467553e+01 0.0000000000000000e+00  -5.4219465472945743e+00 1.3450475212933462e+01 0.0000000000000000e+00  -6.6652649189715980e+00 1.2363079874037604e+01 0.0000000000000000e+00  -4.7438064878676318e+00 1.2209399990632038e+01 0.0000000000000000e+00  -5.9536728225833437e+00 1.1222509010193352e+01 0.0000000000000000e+00  -4.1406729610551425e+00 1.1070804451134277e+01 0.0000000000000000e+00  -5.3089152728718405e+00 1.0196140051103937e+01 0.0000000000000000e+00  -3.5750646995980295e+00 9.9819378974365307e+00 0.0000000000000000e+00  -4.7387548626207368e+00 9.1632698657781440e+00 0.0000000000000000e+00  -3.0723010601685763e+00 8.9189663243683537e+00 0.0000000000000000e+00  -4.2058382508966661e+00 8.1941850249282204e+00 0.0000000000000000e+00  -2.6414081035957095e+00 7.9210843091698928e+00 0.0000000000000000e+00  -3.7353000775332923e+00 7.3039226695495936e+00 0.0000000000000000e+00  -2.2463283064329618e+00 6.9167438053959946e+00 0.0000000000000000e+00  -3.3364087271020386e+00 6.3528521476761215e+00 0.0000000000000000e+00  -1.9054836692791242e+00 5.9815877377131397e+00 0.0000000000000000e+00  -2.9727670690738526e+00 5.4990005763923540e+00 0.0000000000000000e+00  -1.6184171478296228e+00 5.0284251749688735e+00 0.0000000000000000e+00  -2.6634141195763279e+00 4.6258106630926834e+00 0.0000000000000000e+00  -1.3658526100830699e+00 4.2132405081774200e+00 0.0000000000000000e+00  -2.4067940470453757e+00 3.8628537873955668e+00 0.0000000000000000e+00  -1.1477451867535384e+00 3.2742130473873270e+00 0.0000000000000000e+00  -2.1856008554119688e+00 2.9739425567697286e+00 0.0000000000000000e+00  -9.5693447277068722e-01 2.7362661345251929e+00 0.0000000000000000e+00  -1.9964456358272407e+00 2.4789353737310611e+00 0.0000000000000000e+00  -7.8079695071520638e-01 1.7857164595155444e+00 0.0000000000000000e+00  -1.8377702861693093e+00 1.5464277472691967e+00 0.0000000000000000e+00  -5.4320594261332689e-01 1.7288820306707149e+00 0.0000000000000000e+00  -1.6876833207782882e+00 1.4034468108410960e+00 0.0000000000000000e+00  -1.8294986451209838e-01 1.2033266999761565e+00 0.0000000000000000e+00  -1.4862892889668171e+00 6.8276940161223243e-01 0.0000000000000000e+00  6.6174400265802769e-01 7.4446256393609920e-03 0.0000000000000000e+00  -1.1405381353969901e+00 -1.2182159511569166e+00 0.0000000000000000e+00  -1.8057771529802840e+00 -5.6898024151035287e+00 0.0000000000000000e+00  -1.3318032340555497e+00 -6.3086411086760048e+00 0.0000000000000000e+00  -2.2362184821876525e+00 -5.8741980870229158e+00 0.0000000000000000e+00  -2.7925013485213306e+00 -6.8030690519943446e+00 0.0000000000000000e+00  -3.4831234752585765e+00 -7.3423894554839046e+00 0.0000000000000000e+00  -4.0989496001768497e+00 -8.1286236451182639e+00 0.0000000000000000e+00  -4.6350198837143841e+00 -8.4921351669982705e+00 0.0000000000000000e+00  -5.3059880485138287e+00 -9.1349479922952472e+00 0.0000000000000000e+00  -5.8324059343426882e+00 -9.4160830034796739e+00 0.0000000000000000e+00  -5.8967219035780305e+00 -9.0327543087661990e+00 0.0000000000000000e+00  -6.9632965434403911e+00 -9.8631618201410518e+00 0.0000000000000000e+00  -3.8387169234667549e+00 -3.9107985746937577e+00 0.0000000000000000e+00  -1.4942419776718141e+01 -1.9160398619642802e+01 0.0000000000000000e+00  -1.4602951707108099e+01 -1.7221823774853952e+01 0.0000000000000000e+00  -1.4656673814232631e+01 -1.5899021584746324e+01 0.0000000000000000e+00  -1.5160293177008999e+01 -1.5218170975954401e+01 0.0000000000000000e+00  -1.6067509324644213e+01 -1.5043124669841303e+01 0.0000000000000000e+00  -1.7279760406322012e+01 -1.5421594838675732e+01 0.0000000000000000e+00  -1.8704047701723407e+01 -1.5925073487950920e+01 0.0000000000000000e+00  -2.0248703221592514e+01 -1.6564111213820524e+01 0.0000000000000000e+00  -2.1824114310729332e+01 -1.7135362090009799e+01 0.0000000000000000e+00  -2.3354177764692000e+01 -1.7574215156116786e+01 0.0000000000000000e+00  -2.4774489273922796e+01 -1.7383488958140145e+01 0.0000000000000000e+00  -2.6030361636577325e+01 -1.7276452495859058e+01 0.0000000000000000e+00  -2.7087457629977653e+01 -1.5768489592715159e+01 0.0000000000000000e+00  -2.7930657210401414e+01 -1.4715048751426066e+01 0.0000000000000000e+00  -2.8557104462125498e+01 -1.1582455845576673e+01 0.0000000000000000e+00  -2.8988119013881317e+01 -9.3865196563258415e+00 0.0000000000000000e+00  -2.9243894783817588e+01 -4.8413993348366038e+00 0.0000000000000000e+00  -2.9371380927476572e+01 -1.1328398696607402e+00 0.0000000000000000e+00  -2.9391565324674072e+01 -1.3511140798474336e-03 0.0000000000000000e+00  -2.9362957311468509e+01 -6.8607153503213496e+00 0.0000000000000000e+00  -2.9391543566206661e+01 1.3313416255356246e-03 0.0000000000000000e+00  -2.9301253919604346e+01 5.1231800855504928e-01 0.0000000000000000e+00  -2.0102838403073132e+01 1.7336651205775652e+01 0.0000000000000000e+00  -2.0809444533460304e+01 1.6723330070225622e+01 0.0000000000000000e+00  -1.7872023598466647e+01 2.1507572075226381e+01 0.0000000000000000e+00  -1.7174943129448121e+01 2.1068080424340739e+01 0.0000000000000000e+00  -1.5571726392328507e+01 2.1726316655309745e+01 0.0000000000000000e+00  -1.4436721664147077e+01 2.0815530192225662e+01 0.0000000000000000e+00  -1.3215578202298397e+01 1.9595571793125035e+01 0.0000000000000000e+00  -1.2171744069846365e+01 1.7993495749853853e+01 0.0000000000000000e+00  -1.0914597899585974e+01 1.6953430740581240e+01 0.0000000000000000e+00  -1.0028540833841001e+01 1.5414140414711104e+01 0.0000000000000000e+00  -9.3138269472749897e+00 1.3778282266860080e+01 0.0000000000000000e+00  -8.5299218065214539e+00 1.2501905465714152e+01 0.0000000000000000e+00  -7.7900874531738857e+00 1.1296663498875207e+01 0.0000000000000000e+00  -7.0981801950140229e+00 1.0174019807164861e+01 0.0000000000000000e+00  -6.4178551539141342e+00 9.2475056184003925e+00 0.0000000000000000e+00  -5.8037551020849136e+00 8.3261151184675324e+00 0.0000000000000000e+00  -5.2636031889851314e+00 7.4125864466865767e+00 0.0000000000000000e+00  -4.7601079688441681e+00 6.6155692120048606e+00 0.0000000000000000e+00  -4.3184005395695939e+00 5.7714436479597317e+00 0.0000000000000000e+00  -3.9476344730076356e+00 4.9703642040188249e+00 0.0000000000000000e+00  -3.6116467452189136e+00 4.1778906257568584e+00 0.0000000000000000e+00  -3.3291545651332166e+00 3.4942306421044598e+00 0.0000000000000000e+00  -3.0990774385583628e+00 2.6571496614307071e+00 0.0000000000000000e+00  -2.9033130633783872e+00 2.2115895093532787e+00 0.0000000000000000e+00  -2.7399399689111306e+00 1.3212742810780007e+00 0.0000000000000000e+00  -2.6046800398578731e+00 1.1962946479631169e+00 0.0000000000000000e+00  -2.4802438921288728e+00 3.8978468617641782e-01 0.0000000000000000e+00  -2.3003619852179500e+00 -1.7174165832690649e+00 0.0000000000000000e+00  -2.5188485977035242e+00 -4.9779813242390754e+00 0.0000000000000000e+00  -2.0905514127722453e+00 -5.6676290001876239e+00 0.0000000000000000e+00  -2.9940627991316253e+00 -5.2276548250872290e+00 0.0000000000000000e+00  -3.4257910441798005e+00 -5.9689796943917770e+00 0.0000000000000000e+00  -3.9815298016164489e+00 -6.3082262338271828e+00 0.0000000000000000e+00  -4.6696253008274962e+00 -7.2083850097291879e+00 0.0000000000000000e+00  -5.2804749899946559e+00 -7.6937093881577221e+00 0.0000000000000000e+00  -5.8084822478187714e+00 -8.1362464380228623e+00 0.0000000000000000e+00  -6.4683703102198447e+00 -8.6365102379079275e+00 0.0000000000000000e+00  -6.9805939528076406e+00 -8.9486856395272039e+00 0.0000000000000000e+00  -7.0275303414603769e+00 -8.2773424817420302e+00 0.0000000000000000e+00  -8.0749319302004690e+00 -8.6117431674953995e+00 0.0000000000000000e+00  -4.9324909504732704e+00 -2.5173784502694803e+00 0.0000000000000000e+00  -1.6021800758677301e+01 -1.7741976203176879e+01 0.0000000000000000e+00  -1.5668302841409140e+01 -1.5832473834564732e+01 0.0000000000000000e+00  -1.5703737858877140e+01 -1.4481024731278326e+01 0.0000000000000000e+00  -1.6182643594137748e+01 -1.3705171062167633e+01 0.0000000000000000e+00  -1.7058407677715007e+01 -1.3631232929386703e+01 0.0000000000000000e+00  -1.8232296919353420e+01 -1.3821617893461273e+01 0.0000000000000000e+00  -1.9610874915172790e+01 -1.4284780426087760e+01 0.0000000000000000e+00  -2.1102946134921464e+01 -1.4814771926855927e+01 0.0000000000000000e+00  -2.2619139429314604e+01 -1.5326772633072572e+01 0.0000000000000000e+00  -2.4082496432721474e+01 -1.5304397392632415e+01 0.0000000000000000e+00  -2.5430043800715016e+01 -1.5449815184010248e+01 0.0000000000000000e+00  -2.6606075941977540e+01 -1.4242135041220116e+01 0.0000000000000000e+00  -2.7578756844119535e+01 -1.3515797409559948e+01 0.0000000000000000e+00  -2.8330742519173455e+01 -1.0705889928575225e+01 0.0000000000000000e+00  -2.8866233903464369e+01 -8.8137216753620962e+00 0.0000000000000000e+00  -2.9198819966167971e+01 -4.5141531322812840e+00 0.0000000000000000e+00  -2.9368822929770108e+01 -1.0256000521731408e+00 0.0000000000000000e+00  -2.9394100381298092e+01 -1.9321003738602539e-03 0.0000000000000000e+00  -2.9344749431851572e+01 -7.0218940341136893e+00 0.0000000000000000e+00  -2.9394081079265906e+01 1.9039451593225332e-03 0.0000000000000000e+00  -2.9151963214375044e+01 3.8991511608365748e-01 0.0000000000000000e+00  -2.9080610681899923e+01 3.5809895774951901e+00 0.0000000000000000e+00  -1.9939893742890334e+01 1.7838404916628981e+01 0.0000000000000000e+00  -2.0718998624259665e+01 1.7152388842880029e+01 0.0000000000000000e+00  -1.7850699926223275e+01 2.0074497494949778e+01 0.0000000000000000e+00  -1.7219584804447610e+01 1.9367819294081674e+01 0.0000000000000000e+00  -1.5677024095365224e+01 1.9157983175741347e+01 0.0000000000000000e+00  -1.4599398982707026e+01 1.7805702496646319e+01 0.0000000000000000e+00  -1.3431295049840042e+01 1.6467635517141023e+01 0.0000000000000000e+00  -1.2437968455391708e+01 1.5105858210392794e+01 0.0000000000000000e+00  -1.1229116929128947e+01 1.4122288029905164e+01 0.0000000000000000e+00  -1.0389829273133456e+01 1.2742444165752383e+01 0.0000000000000000e+00  -9.7208979037503305e+00 1.1361732520502626e+01 0.0000000000000000e+00  -8.9820250485179560e+00 1.0222045366347716e+01 0.0000000000000000e+00  -8.2863650157972319e+00 9.1706242469923023e+00 0.0000000000000000e+00  -7.6378356554877502e+00 8.2607765571179517e+00 0.0000000000000000e+00  -6.9999407901488286e+00 7.4380561681668889e+00 0.0000000000000000e+00  -6.4272520106521718e+00 6.6345948055410258e+00 0.0000000000000000e+00  -5.9274310112451598e+00 5.8918397696551859e+00 0.0000000000000000e+00  -5.4632319629699726e+00 5.1394809119375688e+00 0.0000000000000000e+00  -5.0595799803657355e+00 4.4442077520922441e+00 0.0000000000000000e+00  -4.7259528905505084e+00 3.7027050788712867e+00 0.0000000000000000e+00  -4.4256413420887109e+00 3.0991337074387846e+00 0.0000000000000000e+00  -4.1782262849744969e+00 2.3387359394803342e+00 0.0000000000000000e+00  -3.9811693083411264e+00 1.9457285643814450e+00 0.0000000000000000e+00  -3.8187625265614584e+00 1.0997236027330257e+00 0.0000000000000000e+00  -3.6847142566081192e+00 1.0220853562138967e+00 0.0000000000000000e+00  -3.5830829698357860e+00 2.2102296264481219e-01 0.0000000000000000e+00  -3.4796103844970441e+00 -1.9571328884131720e+00 0.0000000000000000e+00  -3.4385869697257840e+00 -4.3342022407785379e+00 0.0000000000000000e+00  -3.0484909626961953e+00 -5.0844655504503393e+00 0.0000000000000000e+00  -3.8689139194903901e+00 -4.5127853262615378e+00 0.0000000000000000e+00  -4.3474561655158803e+00 -5.3193162414242909e+00 0.0000000000000000e+00  -4.7820248395413190e+00 -5.4735981467524111e+00 0.0000000000000000e+00  -5.3390775291657331e+00 -6.1770638304604599e+00 0.0000000000000000e+00  -6.0257542573154659e+00 -6.7804357393958856e+00 0.0000000000000000e+00  -6.6318269293233429e+00 -7.3500969367442108e+00 0.0000000000000000e+00  -7.1510650802541047e+00 -7.6556446482716858e+00 0.0000000000000000e+00  -7.7976971577675700e+00 -8.1923478960942582e+00 0.0000000000000000e+00  -8.2923199469516948e+00 -8.2217367237826995e+00 0.0000000000000000e+00  -8.3185899147363749e+00 -7.0563046422634157e+00 0.0000000000000000e+00  -9.3452998218915404e+00 -7.2435672978843524e+00 0.0000000000000000e+00  -6.1878199709152293e+00 -1.1155438728490128e+00 0.0000000000000000e+00  -1.7270052080197356e+01 -1.6367621898683304e+01 0.0000000000000000e+00  -1.6910336962765978e+01 -1.4436550128533284e+01 0.0000000000000000e+00  -1.6933402130052269e+01 -1.3001717560363785e+01 0.0000000000000000e+00  -1.7390983570264186e+01 -1.2339905629737551e+01 0.0000000000000000e+00  -1.8234634107775651e+01 -1.2090141291798298e+01 0.0000000000000000e+00  -1.9366037042631149e+01 -1.2254125121894678e+01 0.0000000000000000e+00  -2.0691438481632670e+01 -1.2621254001355418e+01 0.0000000000000000e+00  -2.2119317087722695e+01 -1.3104687644266713e+01 0.0000000000000000e+00  -2.3560308705812247e+01 -1.3168878705843518e+01 0.0000000000000000e+00  -2.4938052795427023e+01 -1.3496730928072026e+01 0.0000000000000000e+00  -2.6187924899755632e+01 -1.2551306357124696e+01 0.0000000000000000e+00  -2.7257693220873588e+01 -1.2140317514272022e+01 0.0000000000000000e+00  -2.8112472481839092e+01 -9.6606245752173514e+00 0.0000000000000000e+00  -2.8743907274755724e+01 -8.1072268466481852e+00 0.0000000000000000e+00  -2.9147463789558124e+01 -4.0930066697491876e+00 0.0000000000000000e+00  -2.9362301916998842e+01 -8.8123702406619431e-01 0.0000000000000000e+00  -2