<?xml version="1.0"?>
<VTKFile type="UnstructuredGrid"  version="0.1"  >
<UnstructuredGrid>
<Piece  NumberOfPoints="1933" NumberOfCells="3640">
<Points>
<DataArray  type="Float64"  NumberOfComponents="3"  format="ascii">-0.2940041997936171 0.0007391977051479446 0  4.705995808236792 0.000707842910300388 0  4.706042868623397 7.500707880139262 0  -0.2939571552020794 7.500739206809672 0  9.705995813421616 0.0006764476779265486 0  9.706042915857848 7.500676496303469 0  14.70599583729608 0.0006449792530140437 0  14.70604300059355 7.500645032302058 0  19.70599590664317 0.0006134254532240702 0  19.7060431374128 7.500613480058714 0  24.70599604847897 0.0005817870587340505 0  24.70604334158915 7.500581842245701 0  29.7059962884701 0.0005500732820014433 0  29.70604362878622 7.500550128985273 0  34.7059966508184 0.0005182990515886541 0  34.70604401484159 7.500518355656246 0  39.705997158755 0.000486483470011124 0  39.7060445157263 7.50048654159681 0  44.70599783526525 0.0004546490690747194 0  44.70604514764765 7.500454709480934 0  49.70599870388514 0.0004228216355488901 0  49.70604592724024 7.500422885206284 0  54.70599978951071 0.0003910304772889429 0  54.70604687179871 7.500391098193991 0  59.70600111920852 0.0003593090682182374 0  59.70604799951386 7.500359382053287 0  64.70600272303582 0.0003276960629555177 0  64.70604932967862 7.500327775609025 0  69.70600463488468 0.0002962367176358824 0  69.70605088282913 7.500296324331552 0  74.70600689336719 0.0002649848004835496 0  74.70605268077563 7.500265082252177 0  79.70600954275019 0.0002340051320919346 0  79.70605474645934 7.500234114499614 0  84.70601263393388 0.0002033769712879615 0  84.70605710353855 7.500203500661366 0  89.70601622543646 0.000173198572285549 0  89.70605977555581 7.500173339268259 0  94.70602038428613 0.000143593404986891 0  94.70606278446432 7.500143753834031 0  99.70602518658842 0.0001147187886704008 0  99.70606614818418 7.500114901071273 0  104.7060307172837 8.677809838138976e-05 0  104.7060698767169 7.500086982169299 0  109.7060370680891 6.003835861562081e-05 0  109.7060739661883 7.500060258369092 0  114.706044331576 3.485609405103009e-05 0  114.7060783900915 7.500035072487175 0  119.7060525872303 1.171600266841881e-05 0  119.7060830871773 7.500011878402851 0  124.70606187109 -8.7102977311661e-06 0  124.7060879465059 7.499991280454102 0  129.7060721119396 -2.547412125388778e-05 0  129.7060927936126 7.499974083190536 0  134.7060829994487 -3.721144642210967e-05 0  134.7060973912157 7.499961346745467 0  139.7060937131379 -4.193686449979371e-05 0  139.7061014923308 7.499954430307914 0  144.7061023617889 -3.677538347494499e-05 0  144.706105046161 7.499954986083031 0  149.7061047905557 -1.784637387546842e-05 0  149.7061088255921 7.499964896577746 0  159.7061073738537 1.032036479369932e-18 0  164.7060493549694 -7.513296342595045e-05 0  164.7060969099923 7.499914126394819 0  159.7061143760442 7.499973718494652 0  169.7060156415244 -0.0001416918036648846 0  169.7060790032969 7.499852930716775 0  174.7059953087958 -0.0002021587955722318 0  174.7060639175782 7.499794849727582 0  179.7059827473198 -0.0002577347622425357 0  179.7060520554619 7.499740506625338 0  184.7059748824506 -0.0003093632822095275 0  184.7060430270057 7.499689564408393 0  189.7059699563245 -0.0003578246753850203 0  189.7060362837864 7.499641501434692 0  194.7059669273646 -0.0004037440452344526 0  194.706031316974 7.499595820836807 0  199.705965156351 -0.0004476107285553448 0  199.7060277080245 7.499552101623514 0  204.7059642368242 -0.000489804813556646 0  204.7060251291427 7.499510001453544 0  209.705963901166 -0.0005306223862849306 0  209.7060233288889 7.49946924557099 0  214.7059639673169 -0.0005702962274958694 0  214.7060221157433 7.499429613495838 0  219.7059643077467 -0.0006090116484701686 0  219.7060213437997 7.499390927164506 0  224.7059648308544 -0.0006469182337580031 0  224.7060209014587 7.499353041365271 0  229.7059654694724 -0.00068413845247347 0  229.7060207028728 7.499315836336709 0  234.7059661735336 -0.0007207739776684056 0  234.7060206815969 7.499279212129609 0  239.7059669052472 -0.0007569103610580358 0  239.7060207859106 7.499243084322575 0  244.7059676358383 -0.000792620535103719 0  244.7060209753703 7.499207380748213 0  249.7059683432878 -0.0008279674778275396 0  249.7060212182622 7.499172038965379 0  254.7059690107459 -0.0008630062760012064 0  254.7060214897184 7.499137004281303 0  259.7059696254072 -0.0008977857513876239 0  259.706021770313 7.499102228181305 0  264.7059701777322 -0.0009323497639664696 0  264.706022045028 7.499067667065228 0  269.7059706609302 -0.0009667382681484664 0  269.7060223024944 7.499033281222083 0  274.705971070677 -0.001000988166297733 0  274.7060225344435 7.498999034002399 0  279.7059714050436 -0.001035133971542151 0  279.7060227353309 7.498964891175375 0  284.7059716646518 -0.001069208249704716 0  284.7060229020741 7.498930820490849 0  289.7059718530646 -0.001103241743009289 0  289.7060230338857 7.498896791511221 0  294.7059719774347 -0.001137262957367397 0  294.7060231321443 7.498862775843276 0  299.7059720493586 -0.001171296762126015 0  299.7060232002812 7.498828747992585 0  304.7059720857249 -0.00120536107976779 0  304.7060232437314 7.498794687179359 0  309.7059721088487 -0.001239459748225206 0  309.7060232702764 7.49876058055179 0  4.70608978228312 15.0007079735514 0  -0.2939102457429342 15.00073923220051 0  9.706089835240906 15.00067661684078 0  14.70608992650103 15.00064516072617 0  19.70609006599079 15.00061360842989 0  24.70609026243816 15.00058196829893 0  29.70609052431724 15.00055025322222 0  34.70609086016815 15.00051847987809 0  39.70609127865433 15.00048666818559 0  44.70609178852024 15.00045484106537 0  49.70609239851099 15.00042302452171 0  54.70609311726368 15.00039124803486 0  59.70609395315682 15.0003595452616 0  64.70609491409088 15.00032795506144 0  69.70609600716125 15.00029652289169 0  74.70609723818011 15.00026530264527 0  79.70609861098497 15.00023435904095 0  84.70610012647035 15.00020377071893 0  89.70610178126196 15.00017363424597 0  94.70610356596484 15.00014406928956 0  99.70610546294733 15.00011522526983 0  104.7061074437334 15.00008728980867 0  109.7061094663168 15.00006049919296 0  114.7061114732292 15.00003515068769 0  119.7061133921918 15.00001161551839 0  124.7061151429802 14.9999903489526 0  129.7061166571312 14.99997188862566 0  134.7061179214159 14.99995682089775 0  139.7061190602559 14.99994567047625 0  144.706120469144 14.99993861162571 0  149.706122971192 14.99993474112615 0  164.7061266932422 14.99988556617379 0  159.7061297759828 14.99993139951602 0  169.7061205600722 14.99983523075742 0  174.706113171635 14.99978397674843 0  179.7061058514069 14.99973374131311 0  184.7060992573392 14.99968526677941 0  189.7060936273243 14.99963870493344 0  194.7060889789839 14.99959395496718 0  199.7060852290003 14.99955082594522 0  204.7060822571619 14.99950910949352 0  209.7060799381798 14.99946860960099 0  214.7060781559988 14.99942915271435 0  219.7060768090788 14.99939058922065 0  224.7060758112825 14.99935279150583 0  229.7060750908104 14.9993156509378 0  234.7060745884272 14.99927907477682 0  239.706074255563 14.99924298339254 0  244.7060740525519 14.99920730789009 0  249.7060739471074 14.99917198813316 0  254.7060739130428 14.99913697111192 0  259.7060739292221 14.99910220959713 0  264.7060739787067 14.99906766102737 0  269.7060740480691 14.9990332865883 0  274.7060741268314 14.99899905045601 0  279.7060742070043 14.99896491918946 0  284.7060742827035 14.99893086127055 0  289.7060743498138 14.9988968467972 0  294.7060744057233 14.99886284732613 0  299.7060744491628 14.99882883580172 0  304.7060744803015 14.99879478630488 0  309.706074501384 14.99876067276491 0  4.706136509141118 22.50070817800366 0  -0.293863519255824 22.50073936221732 0  9.706136555611536 22.50067685287721 0  14.70613663102983 22.50064540539751 0  19.70613674221187 22.50061385131364 0  24.70613689375702 22.50058220633608 0  29.70613708915158 22.50055048744666 0  34.70613733131588 22.50051871346854 0  39.70613762279557 22.50048690535372 0  44.70613796573939 22.50045508644055 0  49.70613836174924 22.50042328281177 0  54.70613881164173 22.50039152382069 0  59.70613931513483 22.50035984282828 0  64.70613987045608 22.50032827818861 0  69.70614047385919 22.50029687452402 0  74.70614111903519 22.50026568434277 0  79.70614179640633 22.50023477006216 0  84.70614249230684 22.50020420650862 0  89.70614318808569 22.50017408396213 0  94.70614385922322 22.50014451178537 0  99.70614447466079 22.50011562259607 0  104.7061449967152 22.50008757675851 0  109.7061453822335 22.50006056659266 0  114.7061455860589 22.50003481896866 0  119.7061455684358 22.5000105936012 0  124.7061453085867 22.49998817195709 0  129.7061448269661 22.49996782762922 0  134.7061442176247 22.49994976265462 0  139.7061436873064 22.49993398563021 0  144.7061435843191 22.49992010094452 0  149.7061443692667 22.49990699917462 0  164.7061538016034 22.49985406878599 0  159.7061500387317 22.49989162832882 0  169.7061546303619 22.49981187496869 0  174.7061533066057 22.49976730425724 0  179.7061506948748 22.4997220158355 0  184.7061474973809 22.49967703216216 0  189.7061441868429 22.49963288620274 0  194.7061410422204 22.49958980092913 0  199.7061382063843 22.4995478238929 0  204.7061357357676 22.49950691214667 0  209.7061336359526 22.49946698136812 0  214.706131884987 22.49942793262255 0  219.7061304477948 22.49938966610222 0  224.7061292846668 22.49935208760946 0  229.7061283560016 22.49931511114531 0  234.7061276247673 22.49927865949319 0  239.7061270576202 22.49924266383197 0  244.7061266252597 22.49920706292736 0  249.7061263023693 22.49917180218563 0  254.7061260673529 22.49913683270784 0  259.7061259019757 22.49910211040822 0  264.7061257909833 22.49906759522032 0  269.7061257217203 22.49903325039678 0  274.7061256837735 22.49899904189976 0  279.7061256686326 22.49896493787353 0  284.7061256693816 22.49893090818364 0  289.7061256804196 22.49889692398862 0  294.7061256972412 22.498862
[...]
<PointData  Vectors="v"> 
<DataArray  type="Float64"  Name="v"  NumberOfComponents="3" format="ascii">-1.1003996178736162e+00 -7.6633103968341763e+00 0.0000000000000000e+00  -1.6576875314828474e+00 -7.1738623708091636e+00 0.0000000000000000e+00  -1.5274755114587726e+00 -6.3381858630609553e+00 0.0000000000000000e+00  -1.0974229620814360e+00 -7.0184867825543602e+00 0.0000000000000000e+00  -2.3515624967281599e+00 -7.7529229927332404e+00 0.0000000000000000e+00  -2.0843580891267663e+00 -6.7131153033139359e+00 0.0000000000000000e+00  -2.9727984044172722e+00 -8.7746359186285972e+00 0.0000000000000000e+00  -2.7770027666338231e+00 -7.8443685037462636e+00 0.0000000000000000e+00  -3.5164744563343842e+00 -9.0867153955871505e+00 0.0000000000000000e+00  -3.3962334464080230e+00 -8.2735216084073784e+00 0.0000000000000000e+00  -4.1977053898435646e+00 -9.9604498898292118e+00 0.0000000000000000e+00  -3.9371397561516033e+00 -8.9416523249051867e+00 0.0000000000000000e+00  -4.7368347556856953e+00 -1.0314495594861867e+01 0.0000000000000000e+00  -4.6146610183973955e+00 -9.5094486601615031e+00 0.0000000000000000e+00  -4.8158804575796212e+00 -1.0051289374979662e+01 0.0000000000000000e+00  -5.1492662586901519e+00 -9.9371095843671711e+00 0.0000000000000000e+00  -5.8998000921739440e+00 -1.1147251669171967e+01 0.0000000000000000e+00  -5.2230312336688627e+00 -9.5265297549051198e+00 0.0000000000000000e+00  -2.7941639948331063e+00 -5.9838196544100111e+00 0.0000000000000000e+00  -6.3007332753513534e+00 -1.0647784253876804e+01 0.0000000000000000e+00  -1.3915406472734553e+01 -2.1867175824436206e+01 0.0000000000000000e+00  -3.1881353320485037e+00 -5.1922986305761567e+00 0.0000000000000000e+00  -1.3595618739645426e+01 -2.0093243179702391e+01 0.0000000000000000e+00  -1.4301914229087940e+01 -2.0580069850920808e+01 0.0000000000000000e+00  -1.3672776376763746e+01 -1.8773798929544625e+01 0.0000000000000000e+00  -1.3973592261167761e+01 -1.8666228534918716e+01 0.0000000000000000e+00  -1.4203857143244056e+01 -1.8106862520354682e+01 0.0000000000000000e+00  -1.4040923855755922e+01 -1.7319771163456647e+01 0.0000000000000000e+00  -1.5144004745847790e+01 -1.8074080699638163e+01 0.0000000000000000e+00  -1.4560811223830589e+01 -1.6674780192488580e+01 0.0000000000000000e+00  -1.6394187867362547e+01 -1.8465623109533226e+01 0.0000000000000000e+00  -1.5487918565688807e+01 -1.6602333781963512e+01 0.0000000000000000e+00  -1.7860760841082740e+01 -1.9074432500202878e+01 0.0000000000000000e+00  -1.6723582419289833e+01 -1.6888006000496389e+01 0.0000000000000000e+00  -1.9453138499110537e+01 -1.9961474370952217e+01 0.0000000000000000e+00  -1.8174310411626923e+01 -1.7587611011067196e+01 0.0000000000000000e+00  -2.1080850807423690e+01 -2.0700573289396491e+01 0.0000000000000000e+00  -1.9748980494743112e+01 -1.8274529382059701e+01 0.0000000000000000e+00  -2.2667181263011521e+01 -2.1325227987863705e+01 0.0000000000000000e+00  -2.1357839534046416e+01 -1.8962675697948097e+01 0.0000000000000000e+00  -2.4148553903757296e+01 -2.1673248061346801e+01 0.0000000000000000e+00  -2.2923982026144103e+01 -1.9468918274538712e+01 0.0000000000000000e+00  -2.5469537807083878e+01 -2.1708608946845509e+01 0.0000000000000000e+00  -2.4383919009418339e+01 -1.9745796860529698e+01 0.0000000000000000e+00  -2.6594371417148032e+01 -2.0979528455828358e+01 0.0000000000000000e+00  -2.5682041502118132e+01 -1.9311397192564467e+01 0.0000000000000000e+00  -2.7509440346072974e+01 -2.0260646556236299e+01 0.0000000000000000e+00  -2.6784041391376917e+01 -1.8908650357545589e+01 0.0000000000000000e+00  -2.8209045774417898e+01 -1.8112617010669577e+01 0.0000000000000000e+00  -2.7673828250529610e+01 -1.7082602920668368e+01 0.0000000000000000e+00  -2.8715211642527915e+01 -1.6442535179461615e+01 0.0000000000000000e+00  -2.8349946695907306e+01 -1.5705669634183575e+01 0.0000000000000000e+00  -2.9046652619385711e+01 -1.2760971322652070e+01 0.0000000000000000e+00  -2.8828780855848311e+01 -1.2282516291390808e+01 0.0000000000000000e+00  -2.9247473908216989e+01 -1.0100901713469225e+01 0.0000000000000000e+00  -2.9137527923141153e+01 -9.8240771494250883e+00 0.0000000000000000e+00  -2.9342433641168167e+01 -5.2135721898583514e+00 0.0000000000000000e+00  -2.9308935759684712e+01 -5.0877202180107810e+00 0.0000000000000000e+00  -2.9381812225628821e+01 -1.2504969843547478e+00 0.0000000000000000e+00  -2.9383432787842210e+01 -1.2184279329384098e+00 0.0000000000000000e+00  -2.9389262613062488e+01 1.3149228230079891e-09 0.0000000000000000e+00  -2.9389940989582485e+01 -7.0930156487107403e-04 0.0000000000000000e+00  -2.9389262614622716e+01 4.1363607435323813e-19 0.0000000000000000e+00  -2.0123950035333362e+01 7.0920410390559061e+00 0.0000000000000000e+00  -2.9383907138396189e+01 -6.7803107983145958e+00 0.0000000000000000e+00  -2.9389929054768388e+01 6.7739747636308563e-04 0.0000000000000000e+00  -2.0748565296761114e+01 1.3371621226522512e+01 0.0000000000000000e+00  -2.0151807871041868e+01 1.4348661188234779e+01 0.0000000000000000e+00  -1.7730028901795301e+01 2.0811724061431427e+01 0.0000000000000000e+00  -2.0814048948463231e+01 1.6314613564990587e+01 0.0000000000000000e+00  -1.6952665278053242e+01 2.2293505149903375e+01 0.0000000000000000e+00  -1.7833798988399362e+01 2.1162271234533936e+01 0.0000000000000000e+00  -1.5272956427500832e+01 2.5071315488448189e+01 0.0000000000000000e+00  -1.7093997900211342e+01 2.2584740315839912e+01 0.0000000000000000e+00  -1.4061397503978467e+01 2.5285376357621935e+01 0.0000000000000000e+00  -1.5451309908364250e+01 2.3501754379031730e+01 0.0000000000000000e+00  -1.2766765911158988e+01 2.5365076758242573e+01 0.0000000000000000e+00  -1.4277031910290422e+01 2.3455580727083493e+01 0.0000000000000000e+00  -1.1651171051612943e+01 2.4313187224901657e+01 0.0000000000000000e+00  -1.3018878318189479e+01 2.2672745131218655e+01 0.0000000000000000e+00  -1.0323384349681174e+01 2.3145316636250243e+01 0.0000000000000000e+00  -1.1939377851470894e+01 2.1185899604385355e+01 0.0000000000000000e+00  -9.3678635736994664e+00 2.1304143808835288e+01 0.0000000000000000e+00  -1.0647496002117144e+01 1.9902893655829484e+01 0.0000000000000000e+00  -8.5847093121719116e+00 1.9448875452987995e+01 0.0000000000000000e+00  -9.7274105595124798e+00 1.8305965632219579e+01 0.0000000000000000e+00  -7.7329391624473862e+00 1.7755811074094805e+01 0.0000000000000000e+00  -8.9793193619910063e+00 1.6509714037671799e+01 0.0000000000000000e+00  -6.9262392439055560e+00 1.6156523455561668e+01 0.0000000000000000e+00  -8.1624075971028329e+00 1.4977654235706362e+01 0.0000000000000000e+00  -6.1684612257733109e+00 1.4740843325063851e+01 0.0000000000000000e+00  -7.3901502004143103e+00 1.3635170401308892e+01 0.0000000000000000e+00  -5.4230621193465920e+00 1.3445429353469077e+01 0.0000000000000000e+00  -6.6664496691519073e+00 1.2357981677870981e+01 0.0000000000000000e+00  -4.7448979290959299e+00 1.2204723564020957e+01 0.0000000000000000e+00  -5.9548223155008744e+00 1.1217796191797396e+01 0.0000000000000000e+00  -4.1417367541370798e+00 1.1066434058374769e+01 0.0000000000000000e+00  -5.3100402610754891e+00 1.0191727968007742e+01 0.0000000000000000e+00  -3.5760954844133739e+00 9.9779017370757721e+00 0.0000000000000000e+00  -4.7398517824462045e+00 9.1591839740394683e+00 0.0000000000000000e+00  -3.0732926016612763e+00 8.9152367780902289e+00 0.0000000000000000e+00  -4.2069018055227714e+00 8.1903964646127729e+00 0.0000000000000000e+00  -2.6423482552714148e+00 7.9176262049463171e+00 0.0000000000000000e+00  -3.7363241194423180e+00 7.3003873626456670e+00 0.0000000000000000e+00  -2.2472074635059829e+00 6.9135915999562245e+00 0.0000000000000000e+00  -3.3373810616978901e+00 6.3496083892886670e+00 0.0000000000000000e+00  -1.9062876295311120e+00 5.9787176525769299e+00 0.0000000000000000e+00  -2.9736781941407684e+00 5.4960176329293224e+00 0.0000000000000000e+00  -1.6191372626459204e+00 5.0258363728267739e+00 0.0000000000000000e+00  -2.6642498061658189e+00 4.6230961007459204e+00 0.0000000000000000e+00  -1.3664686637695287e+00 4.2109334307768895e+00 0.0000000000000000e+00  -2.4075457503756952e+00 3.8603905389327484e+00 0.0000000000000000e+00  -1.1482560298120130e+00 3.2722162238229999e+00 0.0000000000000000e+00  -2.1862482277995570e+00 2.9717879708837147e+00 0.0000000000000000e+00  -9.5730790863112503e-01 2.7345189272626316e+00 0.0000000000000000e+00  -1.9969878415147739e+00 2.4769817831065950e+00 0.0000000000000000e+00  -7.8104528861998079e-01 1.7843476686042949e+00 0.0000000000000000e+00  -1.8381746656525126e+00 1.5448713952778819e+00 0.0000000000000000e+00  -5.4328068033685928e-01 1.7277004344013638e+00 0.0000000000000000e+00  -1.6879628938401121e+00 1.4020040646213610e+00 0.0000000000000000e+00  -1.8278306301348815e-01 1.2028073603954050e+00 0.0000000000000000e+00  -1.4863946764566600e+00 6.8188737445779080e-01 0.0000000000000000e+00  6.6159209479086833e-01 7.4584687421479137e-03 0.0000000000000000e+00  -1.1404011256543432e+00 -1.2177242978721352e+00 0.0000000000000000e+00  -1.8050107240544886e+00 -5.6927122662110747e+00 0.0000000000000000e+00  -1.3310863566118418e+00 -6.3085427361637763e+00 0.0000000000000000e+00  -2.2354086255655079e+00 -5.8778786104917220e+00 0.0000000000000000e+00  -2.7917791860320014e+00 -6.8062874123617920e+00 0.0000000000000000e+00  -3.4826585680284543e+00 -7.3463375121264551e+00 0.0000000000000000e+00  -4.0987208213023507e+00 -8.1327306177707825e+00 0.0000000000000000e+00  -4.6349881587038535e+00 -8.4966366056619584e+00 0.0000000000000000e+00  -5.3062439583426411e+00 -9.1397381110569871e+00 0.0000000000000000e+00  -5.8328168105904323e+00 -9.4211204858697233e+00 0.0000000000000000e+00  -5.8970839923431493e+00 -9.0375957760148182e+00 0.0000000000000000e+00  -6.9637839972984903e+00 -9.8681355733952820e+00 0.0000000000000000e+00  -3.8394263697268363e+00 -3.9162878739852141e+00 0.0000000000000000e+00  -1.4942484189148574e+01 -1.9165067464614893e+01 0.0000000000000000e+00  -1.4603012778568525e+01 -1.7226579240228432e+01 0.0000000000000000e+00  -1.4656730382287902e+01 -1.5903916346082349e+01 0.0000000000000000e+00  -1.5160344514392035e+01 -1.5223105668758235e+01 0.0000000000000000e+00  -1.6067554975264031e+01 -1.5048012019670285e+01 0.0000000000000000e+00  -1.7279800489210690e+01 -1.5426489307874478e+01 0.0000000000000000e+00  -1.8704082094471453e+01 -1.5929938483455459e+01 0.0000000000000000e+00  -2.0248732178641486e+01 -1.6568882399882124e+01 0.0000000000000000e+00  -2.1824138104329595e+01 -1.7140239581212530e+01 0.0000000000000000e+00  -2.3354196955288376e+01 -1.7579145825431972e+01 0.0000000000000000e+00  -2.4774503597884227e+01 -1.7388638140641763e+01 0.0000000000000000e+00  -2.6030373312748690e+01 -1.7281866142796435e+01 0.0000000000000000e+00  -2.7087464883989163e+01 -1.5774649320176685e+01 0.0000000000000000e+00  -2.7930664385082956e+01 -1.4721567686581588e+01 0.0000000000000000e+00  -2.8557107745555367e+01 -1.1590504947775315e+01 0.0000000000000000e+00  -2.8988123840899149e+01 -9.3952108162027557e+00 0.0000000000000000e+00  -2.9243896770592144e+01 -4.8519450224902290e+00 0.0000000000000000e+00  -2.9371380975285671e+01 -1.1468622237403183e+00 0.0000000000000000e+00  -2.9391565378238393e+01 -1.3511353104711580e-03 0.0000000000000000e+00  -2.9362952442033368e+01 -6.8427324219457724e+00 0.0000000000000000e+00  -2.9391543609489201e+01 1.3313611082447468e-03 0.0000000000000000e+00  -2.9301281499666114e+01 5.1365375862285145e-01 0.0000000000000000e+00  -2.0103422646393529e+01 1.7334982948446417e+01 0.0000000000000000e+00  -2.0810179255329253e+01 1.6717556580158821e+01 0.0000000000000000e+00  -1.7872406597875461e+01 2.1501471530867612e+01 0.0000000000000000e+00  -1.7175635448722606e+01 2.1060773057167225e+01 0.0000000000000000e+00  -1.5572480885994823e+01 2.1718596117742727e+01 0.0000000000000000e+00  -1.4437606074447100e+01 2.0807843916131830e+01 0.0000000000000000e+00  -1.3216584752445222e+01 1.9588161162224932e+01 0.0000000000000000e+00  -1.2172915633505127e+01 1.7986251611123659e+01 0.0000000000000000e+00  -1.0915931091740125e+01 1.6946431281361718e+01 0.0000000000000000e+00  -1.0029950858926430e+01 1.5407487741339951e+01 0.0000000000000000e+00  -9.3151400302208707e+00 1.3772201529614406e+01 0.0000000000000000e+00  -8.5311598906221047e+00 1.2496292227869764e+01 0.0000000000000000e+00  -7.7912709362405561e+00 1.1291504904795957e+01 0.0000000000000000e+00  -7.0993227548896920e+00 1.0169254502241705e+01 0.0000000000000000e+00  -6.4189623781901695e+00 9.2430570414907134e+00 0.0000000000000000e+00  -5.8048376547566596e+00 8.3219874714857163e+00 0.0000000000000000e+00  -5.2646575610367803e+00 7.4087481195792533e+00 0.0000000000000000e+00  -4.7611289345480614e+00 6.6119748640123248e+00 0.0000000000000000e+00  -4.3193818663514243e+00 5.7681226776848504e+00 0.0000000000000000e+00  -3.9485640676632934e+00 4.9672896996348959e+00 0.0000000000000000e+00  -3.6125150512967803e+00 4.1750632003400581e+00 0.0000000000000000e+00  -3.3299474484321574e+00 3.4916416166418149e+00 0.0000000000000000e+00  -3.0997861860557392e+00 2.6548388980879070e+00 0.0000000000000000e+00  -2.9039176552204831e+00 2.2094781025041552e+00 0.0000000000000000e+00  -2.7404390433357255e+00 1.3195115253922334e+00 0.0000000000000000e+00  -2.6050416758179176e+00 1.1946642454374621e+00 0.0000000000000000e+00  -2.4804801958486520e+00 3.8864144378162280e-01 0.0000000000000000e+00  -2.3004231606138434e+00 -1.7172875683521338e+00 0.0000000000000000e+00  -2.5181299358197125e+00 -4.9809646942932675e+00 0.0000000000000000e+00  -2.0899078278234744e+00 -5.6676423466912107e+00 0.0000000000000000e+00  -2.9932950608169246e+00 -5.2314003046377957e+00 0.0000000000000000e+00  -3.4249801937901423e+00 -5.9720670202223864e+00 0.0000000000000000e+00  -3.9808063360977877e+00 -6.3117886842097635e+00 0.0000000000000000e+00  -4.6691592978197125e+00 -7.2121382476913904e+00 0.0000000000000000e+00  -5.2802449449348856e+00 -7.6979153057190075e+00 0.0000000000000000e+00  -5.8084493006471503e+00 -8.1406054836580068e+00 0.0000000000000000e+00  -6.4686249092728909e+00 -8.6413152502743618e+00 0.0000000000000000e+00  -6.9810035275735380e+00 -8.9535993867482020e+00 0.0000000000000000e+00  -7.0278908718636055e+00 -8.2821289801312368e+00 0.0000000000000000e+00  -8.0754174915068244e+00 -8.6168903560535917e+00 0.0000000000000000e+00  -4.9331978521107178e+00 -2.5230394447835995e+00 0.0000000000000000e+00  -1.6021864387886922e+01 -1.7746732935505783e+01 0.0000000000000000e+00  -1.5668362951500269e+01 -1.5837372406907374e+01 0.0000000000000000e+00  -1.5703793306625505e+01 -1.4485965438096354e+01 0.0000000000000000e+00  -1.6182693703920336e+01 -1.3710066243139453e+01 0.0000000000000000e+00  -1.7058452411530020e+01 -1.3636136547260239e+01 0.0000000000000000e+00  -1.8232336155755341e+01 -1.3826492966725358e+01 0.0000000000000000e+00  -1.9610908913839136e+01 -1.4289562177234647e+01 0.0000000000000000e+00  -2.1102975169697842e+01 -1.4819659902723348e+01 0.0000000000000000e+00  -2.2619163952485543e+01 -1.5331712961988318e+01 0.0000000000000000e+00  -2.4082516170344277e+01 -1.5309554723916264e+01 0.0000000000000000e+00  -2.5430060224729974e+01 -1.5455233903028853e+01 0.0000000000000000e+00  -2.6606087674399383e+01 -1.4248296988374969e+01 0.0000000000000000e+00  -2.7578766538246295e+01 -1.3522313310046366e+01 0.0000000000000000e+00  -2.8330748016105026e+01 -1.0713934299320179e+01 0.0000000000000000e+00  -2.8866238265762195e+01 -8.8224036397318883e+00 0.0000000000000000e+00  -2.9198821819198702e+01 -4.5246931988786185e+00 0.0000000000000000e+00  -2.9368823272898400e+01 -1.0396212340272988e+00 0.0000000000000000e+00  -2.9394100500090154e+01 -1.9321294732910770e-03 0.0000000000000000e+00  -2.9344751081841789e+01 -7.0039132556376975e+00 0.0000000000000000e+00  -2.9394081184841081e+01 1.9039729749857767e-03 0.0000000000000000e+00  -2.9151968827098774e+01 3.9128256802963002e-01 0.0000000000000000e+00  -2.9080642471390803e+01 3.5799827743336166e+00 0.0000000000000000e+00  -1.9940464335275461e+01 1.7832868170222039e+01 0.0000000000000000e+00  -2.0719721004211500e+01 1.7145718224452892e+01 0.0000000000000000e+00  -1.7851062522761790e+01 2.0067651934421352e+01 0.0000000000000000e+00  -1.7220255429317778e+01 1.9360180998806602e+01 0.0000000000000000e+00  -1.5677753177249741e+01 1.9150490273567296e+01 0.0000000000000000e+00  -1.4600255997616056e+01 1.7798474732769591e+01 0.0000000000000000e+00  -1.3432273115270275e+01 1.6460640555760179e+01 0.0000000000000000e+00  -1.2439111482751427e+01 1.5099100504412323e+01 0.0000000000000000e+00  -1.1230421077267435e+01 1.4115752270494960e+01 0.0000000000000000e+00  -1.0391210183146848e+01 1.2736220117516755e+01 0.0000000000000000e+00  -9.7221820599237159e+00 1.1356007764223190e+01 0.0000000000000000e+00  -8.9832341900398180e+00 1.0216805687915969e+01 0.0000000000000000e+00  -8.2875195948241718e+00 9.1657982146316375e+00 0.0000000000000000e+00  -7.6389494467030099e+00 8.2562752696108213e+00 0.0000000000000000e+00  -7.0010192602722450e+00 7.4338918503904390e+00 0.0000000000000000e+00  -6.4283058598050440e+00 6.6307145768830136e+00 0.0000000000000000e+00  -5.9284567955940108e+00 5.8881955343928540e+00 0.0000000000000000e+00  -5.4642243470051248e+00 5.1361007895710165e+00 0.0000000000000000e+00  -5.0605328227769437e+00 4.4410559225506079e+00 0.0000000000000000e+00  -4.7268540269022701e+00 3.6997859741017898e+00 0.0000000000000000e+00  -4.4264813027242145e+00 3.0964316764414246e+00 0.0000000000000000e+00  -4.1789907345318094e+00 2.3362992440719954e+00 0.0000000000000000e+00  -3.9818498737844266e+00 1.9434607647963500e+00 0.0000000000000000e+00  -3.8193386009295121e+00 1.0978028186132478e+00 0.0000000000000000e+00  -3.6851852570086630e+00 1.0202482262836394e+00 0.0000000000000000e+00  -3.5834159672626913e+00 2.1969179525964114e-01 0.0000000000000000e+00  -3.4798170995081872e+00 -1.9572654125656566e+00 0.0000000000000000e+00  -3.4379397792577797e+00 -4.3372972450653879e+00 0.0000000000000000e+00  -3.0478874327966263e+00 -5.0845433535960209e+00 0.0000000000000000e+00  -3.8681921566722530e+00 -4.5166042549149932e+00 0.0000000000000000e+00  -4.3466856680793251e+00 -5.3224684597317165e+00 0.0000000000000000e+00  -4.7812109462835188e+00 -5.4770294981831107e+00 0.0000000000000000e+00  -5.3383512676058107e+00 -6.1804314251892860e+00 0.0000000000000000e+00  -6.0252853233563028e+00 -6.7842878701190168e+00 0.0000000000000000e+00  -6.6315940433704750e+00 -7.3541604066589468e+00 0.0000000000000000e+00  -7.1510292459489264e+00 -7.6600185387636870e+00 0.0000000000000000e+00  -7.7979489393467452e+00 -8.1970291119431113e+00 0.0000000000000000e+00  -8.2927265390503084e+00 -8.2265953771818729e+00 0.0000000000000000e+00  -8.3189470744378955e+00 -7.0612645101606857e+00 0.0000000000000000e+00  -9.3457819836833504e+00 -7.2488858197579153e+00 0.0000000000000000e+00  -6.1885228851418068e+00 -1.1212930935132748e+00 0.0000000000000000e+00  -1.7270113635259204e+01 -1.6372521617583452e+01 0.0000000000000000e+00  -1.6910394796416718e+01 -1.4441494499456832e+01 0.0000000000000000e+00  -1.6933455125139602e+01 -1.3006618515855694e+01 0.0000000000000000e+00  -1.7391031418615487e+01 -1.2344816645182549e+01 0.0000000000000000e+00  -1.8234676565561550e+01 -1.2095024819780811e+01 0.0000000000000000e+00  -1.9366074318196006e+01 -1.2258915889854805e+01 0.0000000000000000e+00  -2.0691470850206624e+01 -1.2626151066614590e+01 0.0000000000000000e+00  -2.2119344962132526e+01 -1.3109636531568126e+01 0.0000000000000000e+00  -2.3560331912405815e+01 -1.3174043684455809e+01 0.0000000000000000e+00  -2.4938072302403121e+01 -1.3502155226579200e+01 0.0000000000000000e+00  -2.6187939749746700e+01 -1.2557472287716184e+01 0.0000000000000000e+00  -2.7257704886919793e+01 -1.2146833964291670e+01 0.0000000000000000e+00  -2.8112479857205347e+01 -9.6686686670960285e+00 0.0000000000000000e+00  -2.8743912010891631e+01 -8.1159057759900506e+00 0.0000000000000000e+00  -2.9147465930657262e+01 -4.1035452365206533e+00 0.0000000000000000e+00  -2.9362302485932229e+01 -8.9525808298073084e-01 0.0000000000000000e+00  -2