<?xml version="1.0"?>
<VTKFile type="UnstructuredGrid"  version="0.1"  >
<UnstructuredGrid>
<Piece  NumberOfPoints="1933" NumberOfCells="3640">
<Points>
<DataArray  type="Float64"  NumberOfComponents="3"  format="ascii">-0.4752644870601865 -0.002241949052561897 0  4.524735542786317 -0.002175719720101918 0  4.524636164838181 7.497824337027705 0  -0.4753638657004338 7.497758108992874 0  9.52473560107415 -0.002109524191309286 0  9.524636209397952 7.497890526320405 0  14.52473570585792 -0.002043330729513258 0  14.52463626955566 7.497956713632381 0  19.52473586531949 -0.001977101337770932 0  19.5246363439411 7.498022938036044 0  24.5247360798973 -0.001910796773073648 0  24.52463642808515 7.498089238702142 0  29.52473634424951 -0.001844378099296389 0  29.52463651424899 7.498155654218365 0  34.52473664856405 -0.001777806783759022 0  34.52463659128693 7.498222222751322 0  39.52473697923646 -0.001711044182194687 0  39.52463664445528 7.498288982621062 0  44.52473731903562 -0.001644050773169657 0  44.52463665509261 7.498355973062687 0  49.52473764686112 -0.001576785287199168 0  49.52463660011895 7.498423235074346 0  54.5247379371533 -0.001509203774518679 0  54.52463645131451 7.498490812320399 0  59.52473815897329 -0.001441258604747072 0  59.52463617433541 7.498558752097305 0  64.52473827472824 -0.001372897362308809 0  64.5246357274106 7.498627106393799 0  69.52473823846995 -0.001304061578900165 0  69.52463505964336 7.498695933094446 0  74.52473799364424 -0.001234685220137851 0  74.52463410880732 7.498765297392536 0  79.52473747008821 -0.001164692811613111 0  79.5246327984861 7.498835273496952 0  84.52473657996042 -0.001093997043911665 0  84.524631034349 7.49890594673837 0  89.52473521210051 -0.001022495630150055 0  89.52462869928502 7.49897741619893 0  94.52473322401096 -0.0009500670960703154 0  94.52462564704206 7.499049797993028 0  99.52473043011985 -0.0008765650573905848 0  99.52462169395473 7.499123229281459 0  104.5247265840692 -0.0008018103910048615 0  104.524616608356 7.49919787292663 0  109.5247213511372 -0.0007255805882742032 0  109.5246100975072 7.499273922210208 0  114.5247142639753 -0.0006475956668241947 0  114.5246017927037 7.499351603838318 0  119.5247046495401 -0.0005675008223485433 0  119.5245912353752 7.499431174689468 0  124.5246915054715 -0.0004848489141375838 0  124.5245778721705 7.4995129016057 0  129.5246732867113 -0.000399094623080199 0  129.5245610785853 7.499597000278806 0  134.5246475316455 -0.0003096368592341982 0  134.5245402554823 7.499683481749431 0  139.5246102006356 -0.0002160159796435693 0  139.524515094123 7.499771801012885 0  144.5245544983607 -0.0001185803940343553 0  144.5244862083622 7.499860110165832 0  149.5244687570959 -2.061978037993856e-05 0  149.5244565388224 7.499943835754971 0  159.5244717418524 1.128256207979527e-18 0  164.5244974644484 -1.172029208425895e-06 0  164.5244771548925 7.499993374601487 0  159.5244633494896 7.499987180147117 0  169.5245255169191 1.7026089926101e-05 0  169.5244907235765 7.500014629197418 0  174.5245520971889 4.82449642222853e-05 0  174.5245042140822 7.500047221283232 0  179.5245759153678 8.849759843811196e-05 0  179.5245172760708 7.500088112706982 0  184.5245967202115 0.0001351526038414277 0  184.5245295783521 7.500135066408133 0  189.524614671916 0.0001864254197729052 0  189.5245409143094 7.500186475855957 0  194.5246300710832 0.0002410799579921568 0  194.5245511917075 7.500241188944697 0  199.5246432438755 0.0002982430507603941 0  199.5245603990427 7.500298373032578 0  204.5246544964524 0.0003572861250144094 0  204.524568574739 7.500357419331625 0  209.5246640998147 0.0004177485046353305 0  209.5245757846767 7.50041787687431 0  214.5246722875245 0.0004792869038188779 0  214.5245821073779 7.500479407136664 0  219.5246792584546 0.0005416415880569537 0  219.5245876248774 7.500541752702334 0  224.5246851811269 0.0006046132756726677 0  224.52459241742 7.500604715397332 0  229.5246901982114 0.0006680470645865142 0  229.52459656062 7.500668140829406 0  234.5246944306472 0.0007318210341150077 0  234.5246001241438 7.500731907296337 0  239.524697981236 0.0007958380179870914 0  239.5246031713125 7.500795917713897 0  244.5247009377228 0.0008600195739172909 0  244.52460575924 7.500860093664841 0  249.5247033754267 0.0009243015103156128 0  249.5246079392747 7.50092437096716 0  254.5247053595104 0.0009886305474501715 0  254.5246097576049 7.500988696357489 0  259.5247069469616 0.001052961834941019 0  259.5246112559335 7.501053025020209 0  264.524708188367 0.001117257148893693 0  264.5246124721788 7.501117318788326 0  269.5247091295236 0.001181483669234041 0  269.5246134411623 7.50118154491456 0  274.5247098129506 0.001245613304318305 0  274.524614195248 7.50124567537152 0  279.5247102793023 0.001309622596513675 0  279.5246147649152 7.501309686695829 0  284.5247105686776 0.001373493318930831 0  284.5246151792093 7.501373560447965 0  289.5247107217098 0.001437213968455232 0  289.5246154660475 7.501437284419418 0  294.5247107801894 0.001500782475291147 0  294.5246156523289 7.501500854775702 0  299.5247107866438 0.0015642105535686 0  299.5246157638802 7.501564279363338 0  304.5247107817069 0.001627530042428595 0  304.5246158254467 7.501627582415046 0  309.5247107968694 0.001690800569717219 0  309.5246158614254 7.501690810980159 0  4.524536750344377 14.99782444490102 0  -0.4754632760182348 14.99775824877144 0  9.524536773930432 14.99789060016979 0  14.52453679134857 14.99795675876117 0  19.52453679682418 14.99802296020495 0  24.52453678285115 14.99808924212221 0  29.52453673999925 14.99815564123007 0  34.52453665649739 14.99822219398805 0  39.5245365177674 14.9982889372314 0  44.52453630592765 14.99835590885198 0  49.52453599924123 14.9984231485245 0  54.52453557147305 14.99849069847249 0  59.52453499112229 14.99855860427768 0  64.52453422050114 14.99862691574537 0  69.52453321463359 14.99869568784194 0  74.52453191996186 14.99876498172024 0  79.52453027285931 14.99883486583659 0  84.52452819799801 14.99890541713408 0  89.52452560668769 14.99897672220272 0  94.52452239546027 14.99904887819326 0  99.52451844544349 14.99912199299684 0  104.5245136235618 14.99919618368744 0  109.5245077874377 14.99927157124653 0  114.5245007972529 14.99934826777628 0  119.5244925399563 14.99942634913679 0  124.5244829741557 14.99950580027129 0  129.5244722072614 14.99958641125348 0  134.5244606175123 14.99966758875524 0  139.5244490250884 14.99974803336084 0  144.5244388795053 14.99982523368561 0  149.5244323196254 14.99989478933143 0  164.5244463303964 14.99997876957134 0  159.5244406978182 14.99995634984313 0  169.5244510360968 15.00000816678611 0  174.5244558255754 15.0000447437667 0  179.5244609394425 15.00008753826398 0  184.5244662999676 15.00013536208832 0  189.5244717378986 15.00018713343072 0  194.5244770880608 15.00024196228696 0  199.5244822214859 15.00029914674258 0  204.524487050085 15.00035814289195 0  209.524491521089 15.00041853160123 0  214.5244956088989 15.00047998960291 0  219.524499307396 15.00054226645653 0  224.5245026236789 15.00060516687068 0  229.5245055733323 15.00066853735635 0  234.524508177025 15.00073225620113 0  239.5245104581434 15.0007962259318 0  244.5245124412024 15.00086036762793 0  249.5245141508204 15.00092461661724 0  254.5245156110885 15.00098891921369 0  259.5245168452115 15.00105323025989 0  264.5245178753287 15.00111751130984 0  269.5245187224528 15.00118172934652 0  274.5245194064693 15.00124585597406 0  279.5245199461762 15.0013098670601 0  284.524520359359 15.00137374283042 0  289.5245206629147 15.00143746842785 0  294.5245208731405 15.00150103493144 0  299.5245210063685 15.0015644407665 0  304.5245210803484 15.00162769329891 0  309.524521117068 15.00169081019032 0  4.524437426462766 22.49782460536258 0  -0.4755625958910682 22.49775849779935 0  9.524437436174445 22.49789068852349 0  14.52443742555784 22.49795678811122 0  19.52443738692682 22.4980229403745 0  24.52443731203967 22.49808917938405 0  29.52443719169005 22.4981555384002 0  34.52443701527961 22.49822205069318 0  39.52443677039172 22.49828875014677 0  44.52443644238434 22.49835567179466 0  49.52443601400621 22.49842285234325 0  54.52443546503124 22.49849033069326 0  59.52443477191326 22.49855814845599 0  64.52443390747624 22.49862635044943 0  69.52443284067564 22.49869498514521 0  74.52443153650285 22.49876410501481 0  79.52442995615311 22.49883376668086 0  84.52442805765773 22.49890403070663 0  89.52442579730013 22.49897496073227 0  94.5244231323082 22.49904662145729 0  99.52442002557096 22.49911907462149 0  104.5244164534609 22.49919237157359 0  109.5244124182617 22.49926654012768 0  114.5244079670999 22.4993415620694 0  119.5244032194216 22.49941733580823 0  124.5243984043681 22.49949361646372 0  129.5243939066961 22.49956992409848 0  134.5243903130758 22.49964541297643 0  139.5243884366605 22.49971870879596 0  144.5243892744316 22.49978776623517 0  149.5243938248708 22.49984991921134 0  164.5244013665274 22.49996123232597 0  159.5244008904676 22.49992647251094 0  169.5244011385072 22.49999885281258 0  174.5244008555228 22.5000404309962 0  179.5244009071615 22.50008609635088 0  184.5244014342008 22.50013548508162 0  189.5244024242197 22.50018805357378 0  194.5244037921484 22.50024324136304 0  199.5244054303417 22.50030054166125 0  204.5244072348339 22.50035952376806 0  209.5244091167493 22.50041983324029 0  214.5244110055483 22.50048118323882 0  219.5244128482701 22.5005433434615 0  224.5244146071254 22.50060612944482 0  229.5244162566563 22.50066939325572 0  234.5244177810422 22.50073301579245 0  239.5244191717797 22.50079690058414 0  244.5244204257857 22.50086096886926 0  249.5244215438985 22.50092515572312 0  254.5244225297191 22.50098940703063 0  259.5244233887219 22.5010536771392 0  264.5244241275856 22.50111792706258 0  269.5244247536866 22.50118212313839 0  274.5244252747347 22.50124623606578 0  279.5244256985281 22.50131024026184 0  284.5244260328502 22.50137411347483 0  289.5244262855527 22.5014378365673 0  294.5244264649349 22.50150139332303 0  299.5244265805685 22.501
[...]
<PointData  Vectors="v"> 
<DataArray  type="Float64"  Name="v"  NumberOfComponents="3" format="ascii">-4.3394564084695526e+00 -3.1242097957195440e+00 0.0000000000000000e+00  -4.5383917150440620e+00 -2.5930706612963883e+00 0.0000000000000000e+00  -3.8407269284194339e+00 -2.2948285840611380e+00 0.0000000000000000e+00  -3.6820271825702706e+00 -2.8855917747309507e+00 0.0000000000000000e+00  -4.7228659028036928e+00 -2.4374357106572258e+00 0.0000000000000000e+00  -4.0393363778578077e+00 -2.1609100431268504e+00 0.0000000000000000e+00  -4.8014437536502363e+00 -2.3369951672413412e+00 0.0000000000000000e+00  -4.2233448666710567e+00 -2.2195831678333549e+00 0.0000000000000000e+00  -4.7793182946162256e+00 -1.8187682581089193e+00 0.0000000000000000e+00  -4.3012171604664662e+00 -1.8523414305434398e+00 0.0000000000000000e+00  -4.7944118521280226e+00 -1.5176439511874256e+00 0.0000000000000000e+00  -4.2782314206905747e+00 -1.4953204475466271e+00 0.0000000000000000e+00  -4.7319411848155051e+00 -9.8057650769830873e-01 0.0000000000000000e+00  -4.2927123022813918e+00 -1.0746556140627359e+00 0.0000000000000000e+00  -4.6087086181720549e+00 -3.9608190614787347e-01 0.0000000000000000e+00  -4.2296481383289226e+00 -5.8087714401920243e-01 0.0000000000000000e+00  -4.7790950491644599e+00 -2.1009823234668507e-01 0.0000000000000000e+00  -4.1060430112849025e+00 4.5808434259345221e-02 0.0000000000000000e+00  -4.7546570683540654e+00 2.5233324988167999e-01 0.0000000000000000e+00  -4.2766418094273080e+00 2.1618715817219494e-01 0.0000000000000000e+00  -7.2545209395123642e+00 -3.0161360918317000e+00 0.0000000000000000e+00  -4.2528614595733218e+00 7.3491038228391059e-01 0.0000000000000000e+00  -8.4314482456292215e+00 -4.2237470979877765e+00 0.0000000000000000e+00  -6.7529460301159467e+00 -2.4572682224896569e+00 0.0000000000000000e+00  -8.7664674670867040e+00 -4.0772507085970258e+00 0.0000000000000000e+00  -7.9311244633900735e+00 -3.5719372033999632e+00 0.0000000000000000e+00  -8.7588132109323613e+00 -3.3577687389797051e+00 0.0000000000000000e+00  -8.2690957134056866e+00 -3.3653035623862775e+00 0.0000000000000000e+00  -8.5505263200353507e+00 -2.3525070264655934e+00 0.0000000000000000e+00  -8.2656052927670718e+00 -2.6593992040001413e+00 0.0000000000000000e+00  -8.2655225265266790e+00 -1.2660724098183609e+00 0.0000000000000000e+00  -8.0636018120860964e+00 -1.6872771000587872e+00 0.0000000000000000e+00  -7.9019091706131714e+00 -1.1313564777084609e-01 0.0000000000000000e+00  -7.7861268452773640e+00 -6.5013160657954427e-01 0.0000000000000000e+00  -7.4483060384724098e+00 1.0290817443739311e+00 0.0000000000000000e+00  -7.4315808685939313e+00 3.5877018710893238e-01 0.0000000000000000e+00  -6.8936305232798949e+00 2.2393676495241399e+00 0.0000000000000000e+00  -6.9898962928040573e+00 1.4189107298159442e+00 0.0000000000000000e+00  -6.2261453834183573e+00 3.4907719846472882e+00 0.0000000000000000e+00  -6.4487931213869931e+00 2.5042168255158308e+00 0.0000000000000000e+00  -5.4468965058358485e+00 4.7998564471501108e+00 0.0000000000000000e+00  -5.7978577838137078e+00 3.6476467772886081e+00 0.0000000000000000e+00  -4.5885073684287834e+00 6.0874023642922168e+00 0.0000000000000000e+00  -5.0381961657100787e+00 4.8197122099210450e+00 0.0000000000000000e+00  -3.6911286962724943e+00 7.4495889279954106e+00 0.0000000000000000e+00  -4.2035751284352472e+00 6.1259001565385258e+00 0.0000000000000000e+00  -2.7988058457399503e+00 8.5073421513853571e+00 0.0000000000000000e+00  -3.3316668579701676e+00 7.1966704349913435e+00 0.0000000000000000e+00  -1.9811478780074085e+00 9.6339621231315782e+00 0.0000000000000000e+00  -2.4730143815302092e+00 8.4350266059621202e+00 0.0000000000000000e+00  -1.2700640262647080e+00 9.9898916272916161e+00 0.0000000000000000e+00  -1.6874606392126477e+00 8.9613758510458972e+00 0.0000000000000000e+00  -7.2446806664663965e-01 1.0380746189580881e+01 0.0000000000000000e+00  -1.0223032250856001e+00 9.5945781598075985e+00 0.0000000000000000e+00  -3.3371882695617650e-01 9.2008448749693112e+00 0.0000000000000000e+00  -5.1498242445931663e-01 8.6659248382432388e+00 0.0000000000000000e+00  -1.2329073901296447e-01 8.1763398137617571e+00 0.0000000000000000e+00  -1.8544956503454552e-01 7.8958456789910674e+00 0.0000000000000000e+00  -2.2038036257560283e-02 3.9820122828186668e+00 0.0000000000000000e+00  -1.8313367218316241e-02 3.8978094376358552e+00 0.0000000000000000e+00  -1.0695796946613430e-05 -7.3883567911168745e-05 0.0000000000000000e+00  -7.4072101087044816e-04 -8.3733888800129812e-04 0.0000000000000000e+00  1.8167473092972707e-12 3.7508547296067417e-19 0.0000000000000000e+00  1.4485091696513186e+00 -7.1411916939236102e+00 0.0000000000000000e+00  -2.7287273293379904e-02 -9.3334264663912876e+00 0.0000000000000000e+00  -7.0761772679267662e-04 6.6112650720418409e-04 0.0000000000000000e+00  -1.9932331554690066e-01 -1.1843325643883423e+01 0.0000000000000000e+00  1.4502251832902768e+00 -9.4160256031773706e+00 0.0000000000000000e+00  -2.0622899685087323e-01 -1.1108582996530510e+01 0.0000000000000000e+00  -1.6214071418117870e-01 -1.1115845586300177e+01 0.0000000000000000e+00  -8.0990803516426824e-01 -1.1016273069911335e+01 0.0000000000000000e+00  -1.3804636581972587e-01 -1.0137301169388921e+01 0.0000000000000000e+00  -9.9479979974572486e-01 -8.8535288011783582e+00 0.0000000000000000e+00  -7.1589237850214038e-01 -8.5956111639463870e+00 0.0000000000000000e+00  -1.2558120402196227e+00 -7.2018331277140097e+00 0.0000000000000000e+00  -8.7794622928529142e-01 -6.8298084060740161e+00 0.0000000000000000e+00  -1.4040693972739970e+00 -5.3694664020621898e+00 0.0000000000000000e+00  -1.1174445120220504e+00 -5.1625726459039303e+00 0.0000000000000000e+00  -1.5665679496017115e+00 -4.0094767305121701e+00 0.0000000000000000e+00  -1.2475994692825814e+00 -3.7814250632134430e+00 0.0000000000000000e+00  -1.6342295226404273e+00 -2.9179908772137995e+00 0.0000000000000000e+00  -1.3936613039600092e+00 -2.8295479025312438e+00 0.0000000000000000e+00  -1.7531419622131150e+00 -2.3189249866244968e+00 0.0000000000000000e+00  -1.4462248826349680e+00 -2.1525922733075920e+00 0.0000000000000000e+00  -1.9005265372133509e+00 -1.9508738524940150e+00 0.0000000000000000e+00  -1.5518856407304285e+00 -1.7408296720389846e+00 0.0000000000000000e+00  -2.0266759652264499e+00 -1.7825557395507807e+00 0.0000000000000000e+00  -1.6872917227932047e+00 -1.6032781556268203e+00 0.0000000000000000e+00  -2.1228503200702247e+00 -1.7115813864885867e+00 0.0000000000000000e+00  -1.8023440729282221e+00 -1.5762031114649711e+00 0.0000000000000000e+00  -2.1916601609929147e+00 -1.6641738627706437e+00 0.0000000000000000e+00  -1.8886653002598799e+00 -1.5693115657225656e+00 0.0000000000000000e+00  -2.2124665585222694e+00 -1.6205440082270293e+00 0.0000000000000000e+00  -1.9485014600826334e+00 -1.5968796407627261e+00 0.0000000000000000e+00  -2.2097328286702842e+00 -1.5836793471621080e+00 0.0000000000000000e+00  -1.9609567012761520e+00 -1.5947147682962741e+00 0.0000000000000000e+00  -2.1932646034128203e+00 -1.5290555746562897e+00 0.0000000000000000e+00  -1.9506292113083354e+00 -1.5603223584205723e+00 0.0000000000000000e+00  -2.1553780031103407e+00 -1.4603251989022925e+00 0.0000000000000000e+00  -1.9271139756004205e+00 -1.5232852431251598e+00 0.0000000000000000e+00  -2.1084527564706526e+00 -1.3917989704337623e+00 0.0000000000000000e+00  -1.8825228698070147e+00 -1.4679549915999093e+00 0.0000000000000000e+00  -2.0629886339825543e+00 -1.2929495986438810e+00 0.0000000000000000e+00  -1.8293206468983987e+00 -1.3667519219397544e+00 0.0000000000000000e+00  -2.0035331622440151e+00 -1.2089854323815219e+00 0.0000000000000000e+00  -1.7778274153923657e+00 -1.3035296454658174e+00 0.0000000000000000e+00  -1.9420732620272092e+00 -1.0655563218069373e+00 0.0000000000000000e+00  -1.7125450610633945e+00 -1.1630019881552687e+00 0.0000000000000000e+00  -1.8715441976183900e+00 -9.7569823009360057e-01 0.0000000000000000e+00  -1.6453533050783218e+00 -1.0866036056771491e+00 0.0000000000000000e+00  -1.7900412231135627e+00 -7.2516737092408212e-01 0.0000000000000000e+00  -1.5693264033158330e+00 -8.5260751043647165e-01 0.0000000000000000e+00  -1.6835721823366050e+00 -6.7472626104406530e-01 0.0000000000000000e+00  -1.4821229566860266e+00 -8.3932815061892274e-01 0.0000000000000000e+00  -1.5520163964845017e+00 -1.8911814246216307e-01 0.0000000000000000e+00  -1.3703916983819946e+00 -3.9178031755719955e-01 0.0000000000000000e+00  -1.3786199472207510e+00 -2.9506064832879136e-01 0.0000000000000000e+00  -1.2329142138123841e+00 -5.5976705285126160e-01 0.0000000000000000e+00  -1.1019060758701789e+00 6.3773691345662609e-01 0.0000000000000000e+00  -1.0546983124521312e+00 2.1685073097289453e-01 0.0000000000000000e+00  -6.3480748324853353e-01 7.9388231462400494e-01 0.0000000000000000e+00  -7.7116795807169314e-01 8.9499610810964206e-02 0.0000000000000000e+00  4.6807896348407646e-01 2.8944626995459949e-01 0.0000000000000000e+00  -3.0135044237098235e-01 -1.3727748538159374e+00 0.0000000000000000e+00  -3.1261980214560454e+00 -2.0575625297870519e+00 0.0000000000000000e+00  -2.9411092865982349e+00 -2.6062880932573593e+00 0.0000000000000000e+00  -3.2834188236801052e+00 -1.8643783232404312e+00 0.0000000000000000e+00  -3.4794655548214890e+00 -1.9452874207500435e+00 0.0000000000000000e+00  -3.6602049175988127e+00 -1.7376532017486868e+00 0.0000000000000000e+00  -3.7342214243128913e+00 -1.5324659779176708e+00 0.0000000000000000e+00  -3.7067444512050334e+00 -1.0555295905141824e+00 0.0000000000000000e+00  -3.7165947263213823e+00 -6.7797958969551531e-01 0.0000000000000000e+00  -3.6491629123442357e+00 -1.4233205650970826e-01 0.0000000000000000e+00  -3.5214049866370418e+00 4.7037280831422618e-01 0.0000000000000000e+00  -3.6894563447072919e+00 6.9880252175850188e-01 0.0000000000000000e+00  -3.6636699482686104e+00 1.2891308595055679e+00 0.0000000000000000e+00  -6.1563752972722776e+00 -1.8093501381218273e+00 0.0000000000000000e+00  -7.3280512422793498e+00 -2.8590377977784316e+00 0.0000000000000000e+00  -7.6647990202925040e+00 -2.6650911150930452e+00 0.0000000000000000e+00  -7.6620278337723375e+00 -1.9876658761029586e+00 0.0000000000000000e+00  -7.4641457560129387e+00 -1.0628509821021368e+00 0.0000000000000000e+00  -7.1928958942881733e+00 -1.6899021279216062e-01 0.0000000000000000e+00  -6.8463339416995090e+00 7.6306919665138939e-01 0.0000000000000000e+00  -6.4159338141738314e+00 1.7011005360463216e+00 0.0000000000000000e+00  -5.8895437140782247e+00 2.6804630899152442e+00 0.0000000000000000e+00  -5.2562365497219830e+00 3.6943658941235533e+00 0.0000000000000000e+00  -4.5202923930855823e+00 4.8897613334526930e+00 0.0000000000000000e+00  -3.7144303879793039e+00 5.9094897959110533e+00 0.0000000000000000e+00  -2.8785595211264026e+00 7.1703670631267880e+00 0.0000000000000000e+00  -2.0629364625982562e+00 7.8166282636015492e+00 0.0000000000000000e+00  -1.3326911208526966e+00 8.6258607473792281e+00 0.0000000000000000e+00  -7.2674780570050745e-01 7.9594551852165258e+00 0.0000000000000000e+00  -3.0245901535397773e-01 7.4317065538487252e+00 0.0000000000000000e+00  -4.8363021053017055e-02 3.7352942782211911e+00 0.0000000000000000e+00  -2.4887757109325146e-03 -1.5921680919671511e-03 0.0000000000000000e+00  -5.5057932250568042e-02 -9.1760511711796919e+00 0.0000000000000000e+00  -2.4476015646870920e-03 1.2963786734773003e-03 0.0000000000000000e+00  -2.0800841621862695e-01 -1.1643088439860106e+01 0.0000000000000000e+00  1.3188661925071321e+00 -8.7380993273267151e+00 0.0000000000000000e+00  -2.3464915577419690e-01 -1.0200134217961308e+01 0.0000000000000000e+00  -1.6880759628297487e-01 -7.7526230651388515e+00 0.0000000000000000e+00  -7.0969894717764948e-01 -6.6022304002436218e+00 0.0000000000000000e+00  -8.4448971002615014e-01 -4.8213546853292089e+00 0.0000000000000000e+00  -1.0576776577443197e+00 -3.5985676419831552e+00 0.0000000000000000e+00  -1.1671413125990397e+00 -2.6216857735726236e+00 0.0000000000000000e+00  -1.2949238853870595e+00 -2.0842263896122146e+00 0.0000000000000000e+00  -1.3312194789275609e+00 -1.5911944000792968e+00 0.0000000000000000e+00  -1.4226087827555041e+00 -1.4076108351292294e+00 0.0000000000000000e+00  -1.5456598841968094e+00 -1.4109578401991940e+00 0.0000000000000000e+00  -1.6493549876990372e+00 -1.4459062515701719e+00 0.0000000000000000e+00  -1.7258999732939841e+00 -1.5122829009007646e+00 0.0000000000000000e+00  -1.7773107605530953e+00 -1.5808937059947199e+00 0.0000000000000000e+00  -1.7821990372037801e+00 -1.5799387137328436e+00 0.0000000000000000e+00  -1.7652768018310849e+00 -1.5620938968112394e+00 0.0000000000000000e+00  -1.7359855390448926e+00 -1.5382336371208536e+00 0.0000000000000000e+00  -1.6860575543632224e+00 -1.4495806244910689e+00 0.0000000000000000e+00  -1.6279824923360076e+00 -1.3835050501222308e+00 0.0000000000000000e+00  -1.5719662822620619e+00 -1.2636937368206267e+00 0.0000000000000000e+00  -1.5022490273163809e+00 -1.1899719611186022e+00 0.0000000000000000e+00  -1.4307692909302316e+00 -9.6928451074613420e-01 0.0000000000000000e+00  -1.3504280891847626e+00 -9.7264583363066359e-01 0.0000000000000000e+00  -1.2589458334025079e+00 -5.6223607452657953e-01 0.0000000000000000e+00  -1.1427039639536114e+00 -7.6825341490086663e-01 0.0000000000000000e+00  -1.0010129830384811e+00 -5.3820517244719264e-02 0.0000000000000000e+00  -8.1801288606549760e-01 -3.3749880833240720e-01 0.0000000000000000e+00  -5.3042043438282893e-01 -2.0811816139464869e+00 0.0000000000000000e+00  -2.2580346993857123e+00 -1.7816720758045865e+00 0.0000000000000000e+00  -2.0853951538674407e+00 -2.3447988959017509e+00 0.0000000000000000e+00  -2.4401647839531710e+00 -1.6318155154909983e+00 0.0000000000000000e+00  -2.5919218602270537e+00 -1.6553713624064073e+00 0.0000000000000000e+00  -2.7813529927069114e+00 -1.4720719443075159e+00 0.0000000000000000e+00  -2.9534848827529920e+00 -1.4280150847303201e+00 0.0000000000000000e+00  -3.0173141503502401e+00 -1.1039408305462943e+00 0.0000000000000000e+00  -2.9788466093720234e+00 -6.7112395688851301e-01 0.0000000000000000e+00  -2.9769185060994006e+00 -2.5119921699691850e-01 0.0000000000000000e+00  -2.8980228552160816e+00 2.7216211263063722e-01 0.0000000000000000e+00  -2.7609482275504109e+00 9.4616106415060997e-01 0.0000000000000000e+00  -2.9224667851307409e+00 1.2458494544074232e+00 0.0000000000000000e+00  -2.8860578729723696e+00 1.9168957440019077e+00 0.0000000000000000e+00  -5.3570329758977229e+00 -1.1160746108555701e+00 0.0000000000000000e+00  -6.5092731529574746e+00 -2.1654898233157183e+00 0.0000000000000000e+00  -6.8367451924165286e+00 -1.9938417470529912e+00 0.0000000000000000e+00  -6.8304418109086456e+00 -1.3584661985876840e+00 0.0000000000000000e+00  -6.6328811302734625e+00 -5.7190652430703093e-01 0.0000000000000000e+00  -6.3648078841369990e+00 2.4975001704154096e-01 0.0000000000000000e+00  -6.0252709574133796e+00 1.0644322345439774e+00 0.0000000000000000e+00  -5.6051601846859569e+00 1.9036459172955882e+00 0.0000000000000000e+00  -5.0934573552672351e+00 2.7623925399870073e+00 0.0000000000000000e+00  -4.4825092093713623e+00 3.8078637451392754e+00 0.0000000000000000e+00  -3.7757127711887715e+00 4.7333073503468190e+00 0.0000000000000000e+00  -3.0115908194264103e+00 5.9539266499262737e+00 0.0000000000000000e+00  -2.2281669255012706e+00 6.6483573470218333e+00 0.0000000000000000e+00  -1.4860797988495902e+00 7.5874478146735091e+00 0.0000000000000000e+00  -8.4096710442080935e-01 7.1444781533919910e+00 0.0000000000000000e+00  -3.5763721417154465e-01 6.8666625765569824e+00 0.0000000000000000e+00  -5.5373021940666178e-02 3.5173382952016192e+00 0.0000000000000000e+00  -5.2170217222197489e-03 -2.2756803645947454e-03 0.0000000000000000e+00  -6.4343878420378225e-02 -8.9306131783869738e+00 0.0000000000000000e+00  -5.1801208225056685e-03 1.8527850881337026e-03 0.0000000000000000e+00  -3.4697082691882003e-01 -1.1368810393754151e+01 0.0000000000000000e+00  -5.0413736664789055e-01 -1.1092181550491567e+01 0.0000000000000000e+00  1.1107782401068245e+00 -7.9443096923433876e+00 0.0000000000000000e+00  -3.4891904552750036e-01 -7.8999355780343770e+00 0.0000000000000000e+00  -2.1759795884362818e-01 -5.8358343473696532e+00 0.0000000000000000e+00  -7.0594428448294499e-01 -4.6496645474762479e+00 0.0000000000000000e+00  -8.0007776981731926e-01 -3.3076023726579074e+00 0.0000000000000000e+00  -9.7804229889185090e-01 -2.4804341213341892e+00 0.0000000000000000e+00  -1.0592439573181727e+00 -1.9126909892802939e+00 0.0000000000000000e+00  -1.1618122317493091e+00 -1.5539359248196567e+00 0.0000000000000000e+00  -1.1765366840270635e+00 -1.2861367826128354e+00 0.0000000000000000e+00  -1.2489410546616040e+00 -1.2398365219195084e+00 0.0000000000000000e+00  -1.3549903260869356e+00 -1.3024096514698420e+00 0.0000000000000000e+00  -1.4437606462488703e+00 -1.4079673854047674e+00 0.0000000000000000e+00  -1.5076359420148326e+00 -1.5126815724176390e+00 0.0000000000000000e+00  -1.5481534585768200e+00 -1.5802394630518570e+00 0.0000000000000000e+00  -1.5438446217760631e+00 -1.5941328548941516e+00 0.0000000000000000e+00  -1.5191661417846611e+00 -1.5878493897270964e+00 0.0000000000000000e+00  -1.4831544665394243e+00 -1.5295426987004732e+00 0.0000000000000000e+00  -1.4272968443360521e+00 -1.4752422516806964e+00 0.0000000000000000e+00  -1.3639014341305418e+00 -1.3520455745809346e+00 0.0000000000000000e+00  -1.3028048501482159e+00 -1.2986773299813004e+00 0.0000000000000000e+00  -1.2281838222462400e+00 -1.0807563905492346e+00 0.0000000000000000e+00  -1.1516868836314744e+00 -1.0972279736527233e+00 0.0000000000000000e+00  -1.0663599893181048e+00 -7.0402833769608675e-01 0.0000000000000000e+00  -9.6941126504180097e-01 -9.4663199724003522e-01 0.0000000000000000e+00  -8.4812239279114654e-01 -2.7158852359266822e-01 0.0000000000000000e+00  -7.0025543978290217e-01 -6.1533643728888132e-01 0.0000000000000000e+00  -5.1332236967180533e-01 -2.5182759100548742e+00 0.0000000000000000e+00  -1.6215212169298072e+00 -1.5251201343883845e+00 0.0000000000000000e+00  -1.4522044894001331e+00 -2.0873612383721087e+00 0.0000000000000000e+00  -1.7902480821300089e+00 -1.3631515075207696e+00 0.0000000000000000e+00  -1.9649421266035463e+00 -1.4341645777125183e+00 0.0000000000000000e+00  -2.1070635295403251e+00 -1.1960469222678694e+00 0.0000000000000000e+00  -2.2841455136108411e+00 -1.1797067702758808e+00 0.0000000000000000e+00  -2.4415416980982445e+00 -1.0200262923252104e+00 0.0000000000000000e+00  -2.4881629775392273e+00 -7.4177824801378045e-01 0.0000000000000000e+00  -2.4308169154628922e+00 -2.6762208973045076e-01 0.0000000000000000e+00  -2.4097593070509027e+00 1.4067840086886779e-01 0.0000000000000000e+00  -2.3133906331720033e+00 7.3030703989733958e-01 0.0000000000000000e+00  -2.1620166418784770e+00 1.4793977825329514e+00 0.0000000000000000e+00  -2.3106851561120281e+00 1.8486561703051467e+00 0.0000000000000000e+00  -2.2503877686391909e+00 2.5636058251856033e+00 0.0000000000000000e+00  -4.6806675818523518e+00 -4.6428962040507143e-01 0.0000000000000000e+00  -5.7984074544156821e+00 -1.5174798801954752e+00 0.0000000000000000e+00  -6.1059740846036892e+00 -1.3777304696588151e+00 0.0000000000000000e+00  -6.0863944851305929e+00 -8.7376627094566284e-01 0.0000000000000000e+00  -5.8809746789794781e+00 -1.5700616360728117e-01 0.0000000000000000e+00  -5.6065708770138096e+00 5.5320037776652120e-01 0.0000000000000000e+00  -5.2631239608632683e+00 1.2730295487838090e+00 0.0000000000000000e+00  -4.8423872737886882e+00 1.9977713074353303e+00 0.0000000000000000e+00  -4.3348686169620061e+00 2.8986456951481747e+00 0.0000000000000000e+00  -3.7344570103589692e+00 3.6897075315701184e+00 0.0000000000000000e+00  -3.0516676044257451e+00 4.8296143311065034e+00 0.0000000000000000e+00  -2.3230134864514054e+00 5.5165820709706175e+00 0.0000000000000000e+00  -1.6012719154061561e+00 6.5213705497866075e+00 0.0000000000000000e+00  -9.3732010775705776e-01 6.2688264087254799e+00 0.0000000000000000e+00  -4.1975738873438723e-01 6.2157625235114544e+00 0.0000000000000000e+00  -7.2963619300552729e-02 3.2508485314843965e+0