<?xml version="1.0"?>
<VTKFile type="UnstructuredGrid"  version="0.1"  >
<UnstructuredGrid>
<Piece  NumberOfPoints="1933" NumberOfCells="3640">
<Points>
<DataArray  type="Float64"  NumberOfComponents="3"  format="ascii">-0.0002559561640958496 0.001469394446192289 0  4.999744073819297 0.001399026457733463 0  4.999849697515266 7.50139914361193 0  -0.0001503764561667231 7.501469433804919 0  9.999744101378376 0.001328539727730399 0  9.999849839167153 7.501328687321886 0  14.99974418974118 0.001257849422970511 0  14.9998500879128 7.50125800817569 0  19.99974441484305 0.001186928905837996 0  19.99985048400612 7.501187091146612 0  24.99974485188301 0.001115787651459284 0  24.99985106910349 7.501115950948002 0  29.99974557136934 0.001044458413028206 0  29.99985188542319 7.501044622791483 0  34.99974663910567 0.0009729897226326944 0  34.99985297514289 7.50097315639082 0  39.99974811774125 0.0009014417838025715 0  39.99985438027073 7.500901612546507 0  44.99975006886174 0.0008298846414267229 0  44.99985614288446 7.500830061651163 0  49.99975255519918 0.0007583979742423776 0  49.99985830557517 7.500758583650287 0  54.99975564281368 0.0006870721473882953 0  54.99986091195602 7.500687269182126 0  59.99975940321514 0.0006160103647960429 0  59.99986400711909 7.50061622177734 0  64.99976391544482 0.0005453319158148707 0  64.99986763792896 7.500545561131477 0  69.99976926813908 0.0004751766465821534 0  69.99987185303512 7.500475427586428 0  74.99977556159131 0.0004057109284993498 0  74.9998767024437 7.500405988087485 0  79.99978290978446 0.0003371355685573727 0  79.99988223641843 7.50033744404002 0  84.99979144229779 0.0002696963399138924 0  84.99988850337964 7.500270041694746 0  89.99980130584616 0.000203698149871079 0  89.99989554629211 7.500204085972624 0  94.99981266495294 0.0001395243732996076 0  94.99990339679701 7.500139959033516 0  99.99982570073587 7.7663668581515e-05 0  99.99991206601624 7.500078145437423 0  104.9998406058106 1.874782848097663e-05 0  104.99992153053 7.500019266479367 0  109.9998575713631 -3.639383623166215e-05 0  109.9999317116304 7.499964127184841 0  114.9998767586681 -8.665502905880265e-05 0  114.999942445844 7.499913780379758 0  119.9998982398138 -0.0001305346536395513 0  119.9999534457515 7.499869612637781 0  124.9999218775441 -0.0001659604470638189 0  124.9999642544808 7.499833455241116 0  129.9999470845046 -0.0001900248526400235 0  129.9999742100501 7.499807715918363 0  134.999972342633 -0.0001985975455909413 0  134.9999824693604 7.499795506582559 0  139.9999942409401 -0.000185802906976121 0  139.9999882257283 7.499800699015034 0  145.0000055222838 -0.0001435518126186489 0  144.999991465364 7.499827798681577 0  149.9999909541784 -6.249162935468541e-05 0  149.9999951823916 7.499881812651966 0  160.0000000000013 8.029663447240939e-19 0  164.9998440252475 -0.0002120384215850244 0  164.9999732341863 7.499756606441646 0  160.0000193866351 7.49992581084114 0  169.9997571071322 -0.0003949594716022013 0  169.9999263321534 7.499589181948608 0  174.9997075116833 -0.0005567610649021378 0  174.9998874822601 7.49943445683145 0  179.9996790093867 -0.0007019329914049467 0  179.9998576322107 7.499292964457875 0  184.9996628252267 -0.0008339720922786307 0  184.9998355625261 7.499162965263663 0  189.9996540399951 -0.0009556682359390083 0  189.999819656192 7.499042442929004 0  194.9996498090484 -0.001069194519729172 0  194.999808446429 7.498929612226535 0  199.9996484355823 -0.001176217858235731 0  199.9998007480514 7.498823013004172 0  204.9996488746467 -0.00127801290881141 0  204.9997956486887 7.498721484269753 0  209.9996504618122 -0.001375559652528275 0  209.9997924607008 7.498624109844866 0  214.9996527614746 -0.001469619419691499 0  214.9997906697876 7.498530164912541 0  219.9996554799871 -0.00156079143806598 0  219.9997898914769 7.498439071582256 0  224.9996584145781 -0.001649554050421362 0  224.9997898373832 7.498350364273896 0  229.9996614224394 -0.001736294601567986 0  229.9997902900788 7.498263663474819 0  234.9996644014624 -0.001821331194102022 0  234.9997910847244 7.49817865602389 0  239.9996672778798 -0.001904928676613639 0  239.9997920957282 7.498095080284121 0  244.9996699981337 -0.00198731054695892 0  244.9997932270711 7.498012714914068 0  249.9996725234075 -0.002068667948267172 0  249.9997944052725 7.497931370274251 0  254.9996748259133 -0.002149166576721486 0  254.9997955742724 7.497850881768272 0  259.9996768863743 -0.002228952068796002 0  259.9997966917023 7.497771104617557 0  264.9996786923915 -0.002308154257530123 0  264.999797726188 7.497691909718197 0  269.9996802374841 -0.002386890555103389 0  269.9997986554251 7.497613180344164 0  274.9996815207276 -0.002465268609643629 0  274.9997994648371 7.497534809557835 0  279.9996825469506 -0.002543388275195796 0  279.9998001466785 7.497456698282535 0  284.9996833275151 -0.00262134279697532 0  284.9998006994602 7.497378754098982 0  289.9996838816967 -0.002699218904847688 0  289.9998011275668 7.497300890967235 0  294.9996842386689 -0.00277709514679573 0  294.9998014409667 7.497223030270301 0  299.9996844398247 -0.002855037126135549 0  299.9998016549183 7.49714510384204 0  304.9996845406072 -0.002933087019867156 0  304.9998017898716 7.497067059966566 0  309.9996846093498 -0.003011242233486816 0  309.9998018726146 7.496988873629433 0  4.999954906842361 15.00139942656271 0  -4.517796139957841e-05 15.00146953422046 0  9.99995506019831 15.00132903909006 0  14.99995531847426 15.00125837662334 0  19.99995570805676 15.00118745557441 0  24.99995625172205 15.00111630608798 0  29.99995697122982 15.00104497067576 0  34.99995788813315 15.00097350231744 0  39.99995902384427 15.0009019631331 0  44.99996039941367 15.00083042393767 0  49.99996203518393 15.00075896471226 0  54.99996395033883 15.00068767596822 0  59.99996616229784 15.00061666100673 0  64.99996868587144 15.00054603913563 0  69.99997153206101 15.00047594997999 0  74.99997470636679 15.00040655911202 0  79.9999782064335 15.00033806532741 0  84.99998201884658 15.00027071001456 0  89.99998611488236 15.00020478919679 0  94.99999044507669 15.00014066895708 0  99.99999493263567 15.00007880503356 0  104.9999994661671 15.0000197672769 0  110.000003893123 14.9999642691204 0  115.0000080172275 14.99991320065048 0  120.0000116066234 14.99986766009509 0  125.0000144255611 14.99982897020187 0  130.0000163121529 14.99979864838184 0  135.0000173380247 14.99977826334847 0  140.0000180972483 14.99976903606081 0  145.0000201570269 14.99977087274885 0  150.000026564964 14.9997800264045 0  165.0000485457539 14.99967057642669 0  160.0000556611178 14.99979354924949 0  170.0000322735192 14.99953686281038 0  175.0000125035295 14.99940283713883 0  179.9999930662638 14.99927362477533 0  184.9999757861702 14.99915091001205 0  189.9999612742932 14.99903476073034 0  194.9999495239081 14.99892460243034 0  199.999940256659 14.99881967157262 0  204.9999331041826 14.99871920920076 0  209.9999276957545 14.99862253330931 0  214.9999236958162 14.99852905731525 0  219.9999208162251 14.99843828630238 0  224.999918816616 14.99834980547343 0  229.9999174997851 14.99826326707766 0  234.9999167055252 14.99817837829261 0  239.9999163044678 14.99809489083957 0  244.9999161925863 14.99801259239672 0  249.9999162865484 14.99793129961 0  254.9999165199003 14.99785085243209 0  259.9999168399953 14.99777110953732 0  264.9999172055325 14.99769194460124 0  269.9999175846017 14.99761324328731 0  274.9999179531145 14.99753490083333 0  279.999918293523 14.9974568201804 0  284.9999185937716 14.99737891063021 0  289.9999188463987 14.99730108704344 0  294.9999190478707 14.99722326956323 0  299.9999191982843 14.99714538367112 0  304.999919301947 14.99706735979511 0  309.9999193697703 14.9969891300143 0  5.000059615577596 22.50140002768166 0  5.953058456442673e-05 22.50146994615 0  10.00005974798146 22.50132971420071 0  15.00005995626977 22.50125906507859 0  20.00006025768612 22.50118813080132 0  25.0000606632471 22.50111696120481 0  30.00006118071752 22.50104560944153 0  35.0000618160341 22.50097413378516 0  40.00006257373775 22.50090259861398 0  45.0000634568142 22.50083107530726 0  50.00006446617813 22.50075964343074 0  55.00006559990988 22.50068839240822 0  60.00006685228159 22.50061742380151 0  65.00006821256372 22.50054685430656 0  70.00006966358485 22.50047681958368 0  75.00007118002083 22.50040747906559 0  80.00007272641344 22.50033902190707 0  85.000074254981 22.50027167424611 0  90.00007570340546 22.50020570790463 0  95.00007699299827 22.50014145052148 0  100.0000780280163 22.50007929678505 0  105.0000786975061 22.50001971975447 0  110.0000788819859 22.4999632799254 0  115.000078468617 22.49991062721623 0  120.0000773802037 22.49986248660943 0  125.0000756250144 22.49981961056805 0  130.0000733746198 22.49978266897754 0  135.0000710722702 22.49975202890797 0  140.0000695569172 22.49972735356134 0  145.0000701421299 22.49970693797634 0  150.0000744887921 22.49968677971649 0  165.0001108463829 22.49957501763241 0  160.0000997445082 22.49966991499232 0  170.0001131905132 22.49946745548637 0  175.0001092972658 22.49935416240731 0  180.0001018095405 22.49923996595794 0  185.0000927908694 22.49912767399021 0  190.0000835883931 22.49901863345767 0  195.0000749706259 22.49891330449626 0  200.0000673109037 22.49881166754489 0  205.0000607379261 22.4987134716535 0  210.0000552407809 22.4986183735963 0  215.0000507362341 22.49852601068345 0  220.0000471093821 22.49843603591317 0  225.0000442369319 22.49834813272922 0  230.0000419997131 22.4982620192416 0  235.0000402887735 22.49817744732921 0  240.0000390077907 22.49809419950984 0  245.0000380734665 22.49801208505502 0  250.000037414879 22.4979309360701 0  255.0000369723684 22.4978506038597 0  260.000036696245 22.49777095569754 0  265.0000365455047 22.49769187202265 0  270.0000364866052 22.49761324404131 0  275.0000364923418 22.49753497169871 0  280.00003654083 22.49745696197518 0  285.0000366145968 22.49737912744198 0  290.0000366998099 22.49730138495891 0  295.000036785732 22.49722365426336 0  300.00003686451
[...]
<PointData  Vectors="v"> 
<DataArray  type="Float64"  Name="v"  NumberOfComponents="3" format="ascii">1.5801992847592343e+00 -5.7323775736930944e+00 0.0000000000000000e+00  1.1459720305813916e+00 -5.5673484615514948e+00 0.0000000000000000e+00  8.4484906283060734e-01 -4.9161633622084757e+00 0.0000000000000000e+00  1.1768723679463327e+00 -5.2349497717150433e+00 0.0000000000000000e+00  5.6644165703126803e-01 -6.2411330721963765e+00 0.0000000000000000e+00  4.1082897229872206e-01 -5.3727240839939832e+00 0.0000000000000000e+00  -5.9284427918220306e-03 -7.3252122566517643e+00 0.0000000000000000e+00  -1.6775744636023393e-01 -6.4679606508910554e+00 0.0000000000000000e+00  -5.6304660809739338e-01 -7.9567585137736341e+00 0.0000000000000000e+00  -7.3856064148522926e-01 -7.1231687196517814e+00 0.0000000000000000e+00  -1.2345943012342462e+00 -9.0163208611094152e+00 0.0000000000000000e+00  -1.2934395864753270e+00 -8.0118548685855426e+00 0.0000000000000000e+00  -1.8121331452599485e+00 -9.7018377618155967e+00 0.0000000000000000e+00  -1.9616573427232775e+00 -8.8389521355546581e+00 0.0000000000000000e+00  -1.9674483832412204e+00 -9.8002045652937024e+00 0.0000000000000000e+00  -2.5350387033189223e+00 -9.5716582850313383e+00 0.0000000000000000e+00  -2.9458609630547827e+00 -1.1010769073711911e+01 0.0000000000000000e+00  -2.6853039633960982e+00 -9.5485097261055056e+00 0.0000000000000000e+00  1.4479858338156951e-01 -6.1331113108173270e+00 0.0000000000000000e+00  -3.6573678543643786e+00 -1.0774903505949844e+01 0.0000000000000000e+00  -9.4318219729180672e+00 -1.9997100530756128e+01 0.0000000000000000e+00  -5.5934056813460031e-01 -5.6399029867643913e+00 0.0000000000000000e+00  -8.3846959097686291e+00 -1.7476743442546322e+01 0.0000000000000000e+00  -1.0128360765634044e+01 -1.9055195688136010e+01 0.0000000000000000e+00  -8.2548338628966942e+00 -1.6247706643784234e+01 0.0000000000000000e+00  -9.0719285811841104e+00 -1.6452373363839012e+01 0.0000000000000000e+00  -8.7906653577177405e+00 -1.6025362510074977e+01 0.0000000000000000e+00  -8.9304173029396932e+00 -1.5233590060484167e+01 0.0000000000000000e+00  -9.8595510864515674e+00 -1.6613688329232623e+01 0.0000000000000000e+00  -9.4524824211720571e+00 -1.5024720685366008e+01 0.0000000000000000e+00  -1.1285880013616067e+01 -1.7676612335995600e+01 0.0000000000000000e+00  -1.0504444596388895e+01 -1.5553020490778104e+01 0.0000000000000000e+00  -1.2977179816880273e+01 -1.8998005527738957e+01 0.0000000000000000e+00  -1.1911600881046244e+01 -1.6479720523583040e+01 0.0000000000000000e+00  -1.4849900327171978e+01 -2.0590928170541581e+01 0.0000000000000000e+00  -1.3581450438062751e+01 -1.7802815598891538e+01 0.0000000000000000e+00  -1.6820423169547514e+01 -2.2078023471625730e+01 0.0000000000000000e+00  -1.5429096312598913e+01 -1.9144935441820920e+01 0.0000000000000000e+00  -1.8819285990215622e+01 -2.3476181328955906e+01 0.0000000000000000e+00  -1.7372376237755674e+01 -2.0503929804950072e+01 0.0000000000000000e+00  -2.0782265936317483e+01 -2.4633093421758485e+01 0.0000000000000000e+00  -1.9340821264197416e+01 -2.1716684281276258e+01 0.0000000000000000e+00  -2.2633768183920704e+01 -2.5464128181212104e+01 0.0000000000000000e+00  -2.1270258026689621e+01 -2.2717866261475791e+01 0.0000000000000000e+00  -2.4313216730899700e+01 -2.5576636338204732e+01 0.0000000000000000e+00  -2.3084209142916418e+01 -2.3090448185944073e+01 0.0000000000000000e+00  -2.5779769363213170e+01 -2.5511179965907324e+01 0.0000000000000000e+00  -2.4725078111518521e+01 -2.3349176101207807e+01 0.0000000000000000e+00  -2.6984712367246885e+01 -2.4058496133804859e+01 0.0000000000000000e+00  -2.6145541772827684e+01 -2.2287536410423058e+01 0.0000000000000000e+00  -2.7930335102860582e+01 -2.2608035552651920e+01 0.0000000000000000e+00  -2.7307147511867377e+01 -2.1235557892044724e+01 0.0000000000000000e+00  -2.8598960740414434e+01 -1.9166139143914851e+01 0.0000000000000000e+00  -2.8197061474976483e+01 -1.8201856371993493e+01 0.0000000000000000e+00  -2.9041243931470593e+01 -1.5776142572981138e+01 0.0000000000000000e+00  -2.8819321440250071e+01 -1.5168782519090120e+01 0.0000000000000000e+00  -2.9266242610403758e+01 -1.0253647314793609e+01 0.0000000000000000e+00  -2.9194370636591458e+01 -9.9544949271995371e+00 0.0000000000000000e+00  -2.9368184286344871e+01 -3.6936772061781493e+00 0.0000000000000000e+00  -2.9372131372553465e+01 -3.6096013801511604e+00 0.0000000000000000e+00  -2.9389262613088633e+01 -3.2314369787672028e-11 0.0000000000000000e+00  -2.9389474442330922e+01 -2.1072327106679746e-04 0.0000000000000000e+00  -2.9389262614594948e+01 1.9071075144296911e-19 0.0000000000000000e+00  -2.1018515751755722e+01 1.1484144159803554e+01 0.0000000000000000e+00  -2.9366977214872406e+01 -1.0340795934685785e+00 0.0000000000000000e+00  -2.9389472732493818e+01 2.1399488636176413e-04 0.0000000000000000e+00  -2.0624359465573921e+01 2.0690997378823393e+01 0.0000000000000000e+00  -2.1047284050847978e+01 2.0167551824082029e+01 0.0000000000000000e+00  -1.7602022515924887e+01 2.7678167218242862e+01 0.0000000000000000e+00  -2.0712752750922821e+01 2.3186379751882267e+01 0.0000000000000000e+00  -1.6451100523050552e+01 2.9108464412481982e+01 0.0000000000000000e+00  -1.7747895032353554e+01 2.7433337820092813e+01 0.0000000000000000e+00  -1.4657088846606756e+01 3.0550549743365210e+01 0.0000000000000000e+00  -1.6650526618448442e+01 2.7904530016811393e+01 0.0000000000000000e+00  -1.3284052575228326e+01 2.9745007680687952e+01 0.0000000000000000e+00  -1.4907663647074173e+01 2.7731199645965393e+01 0.0000000000000000e+00  -1.1897675325489001e+01 2.8692815442166292e+01 0.0000000000000000e+00  -1.3585209472418255e+01 2.6655251096139445e+01 0.0000000000000000e+00  -1.0681465843832960e+01 2.6800443510681436e+01 0.0000000000000000e+00  -1.2246499456715300e+01 2.5018754457468358e+01 0.0000000000000000e+00  -9.3116959031406843e+00 2.4957733184833955e+01 0.0000000000000000e+00  -1.1076541077707246e+01 2.2943386671376707e+01 0.0000000000000000e+00  -8.2825984977018123e+00 2.2745990095262261e+01 0.0000000000000000e+00  -9.7520031569311190e+00 2.1241798531621374e+01 0.0000000000000000e+00  -7.4084820394698934e+00 2.0662509066731104e+01 0.0000000000000000e+00  -8.7665281244162507e+00 1.9389964687061852e+01 0.0000000000000000e+00  -6.4788419626967473e+00 1.8864752114757497e+01 0.0000000000000000e+00  -7.9348749731848862e+00 1.7507994063321625e+01 0.0000000000000000e+00  -5.6127768648823739e+00 1.7221005268993633e+01 0.0000000000000000e+00  -7.0469495815546148e+00 1.5958577557686372e+01 0.0000000000000000e+00  -4.8125268538413488e+00 1.5775547002355747e+01 0.0000000000000000e+00  -6.2214151173190322e+00 1.4611328690460191e+01 0.0000000000000000e+00  -4.0543189636943220e+00 1.4452673583722316e+01 0.0000000000000000e+00  -5.4607874338322064e+00 1.3350676750533161e+01 0.0000000000000000e+00  -3.3778801513282199e+00 1.3188764265721096e+01 0.0000000000000000e+00  -4.7415117378911793e+00 1.2208711753402952e+01 0.0000000000000000e+00  -2.7849355359636307e+00 1.2016372767048940e+01 0.0000000000000000e+00  -4.1031476612602749e+00 1.1161049252985217e+01 0.0000000000000000e+00  -2.2427546608695517e+00 1.0884983367979178e+01 0.0000000000000000e+00  -3.5475305533000463e+00 1.0105245197083399e+01 0.0000000000000000e+00  -1.7690045460525845e+00 9.7796257698018660e+00 0.0000000000000000e+00  -3.0421840561903757e+00 9.1019298063337981e+00 0.0000000000000000e+00  -1.3662229530003387e+00 8.7206241601666452e+00 0.0000000000000000e+00  -2.6045384095281028e+00 8.1490941138203148e+00 0.0000000000000000e+00  -1.0079025987000425e+00 7.6643554815348223e+00 0.0000000000000000e+00  -2.2374836179213222e+00 7.1589161947745321e+00 0.0000000000000000e+00  -7.0505890804416982e-01 6.6405269768705484e+00 0.0000000000000000e+00  -1.9142026174986488e+00 6.2181884650075672e+00 0.0000000000000000e+00  -4.6159598191772494e-01 5.6318033755407315e+00 0.0000000000000000e+00  -1.6463916238782268e+00 5.2977534012158793e+00 0.0000000000000000e+00  -2.5942449295360603e-01 4.6617509351851920e+00 0.0000000000000000e+00  -1.4367740998543763e+00 4.3901557501131983e+00 0.0000000000000000e+00  -1.0713272164127091e-01 3.6915205962429787e+00 0.0000000000000000e+00  -1.2694935956499687e+00 3.4930013215305205e+00 0.0000000000000000e+00  2.3429965334579375e-03 2.8534270796080823e+00 0.0000000000000000e+00  -1.1494101592860444e+00 2.7213847775082849e+00 0.0000000000000000e+00  7.1300349507269767e-02 1.9683024847012371e+00 0.0000000000000000e+00  -1.0757213202704550e+00 1.8926371070848238e+00 0.0000000000000000e+00  1.3783693503881309e-01 1.3349662026301907e+00 0.0000000000000000e+00  -1.0358027133270618e+00 1.2696906518478004e+00 0.0000000000000000e+00  2.0933193169298733e-01 7.1275780275119061e-01 0.0000000000000000e+00  -1.0096627398062219e+00 6.2764641567341872e-01 0.0000000000000000e+00  3.7250123548334024e-01 -1.7142019753793872e-01 0.0000000000000000e+00  -9.5433439752158811e-01 -3.6991740749630858e-01 0.0000000000000000e+00  1.2578228855062717e-01 -4.4172486929105954e+00 0.0000000000000000e+00  4.8536535218360133e-01 -4.6975485711410947e+00 0.0000000000000000e+00  -2.0749710714229580e-01 -4.7209203373539115e+00 0.0000000000000000e+00  -6.4258741094801908e-01 -5.5998985697356103e+00 0.0000000000000000e+00  -1.2214311081075486e+00 -6.2673154452828443e+00 0.0000000000000000e+00  -1.7914475590675241e+00 -7.1803276054696852e+00 0.0000000000000000e+00  -2.3444641985544079e+00 -7.8384936469429922e+00 0.0000000000000000e+00  -3.0092780397474326e+00 -8.7145775975247250e+00 0.0000000000000000e+00  -3.5773267314266715e+00 -9.3266645374557182e+00 0.0000000000000000e+00  -3.7206608278941466e+00 -9.3221116169557643e+00 0.0000000000000000e+00  -4.6832974202685991e+00 -1.0293590274396747e+01 0.0000000000000000e+00  -1.5747506853984281e+00 -4.7062157604305259e+00 0.0000000000000000e+00  -1.1137610222896457e+01 -1.8040431529493215e+01 0.0000000000000000e+00  -1.0074048338463568e+01 -1.5453221752212684e+01 0.0000000000000000e+00  -9.9196794034619735e+00 -1.4250312086014601e+01 0.0000000000000000e+00  -1.0425026670556608e+01 -1.3988141206478243e+01 0.0000000000000000e+00  -1.1454544378910590e+01 -1.4384664430408117e+01 0.0000000000000000e+00  -1.2834433621250124e+01 -1.5315539184406322e+01 0.0000000000000000e+00  -1.4472901371707950e+01 -1.6395033841544119e+01 0.0000000000000000e+00  -1.6283551589116726e+01 -1.7613804801523493e+01 0.0000000000000000e+00  -1.8184283768944567e+01 -1.8790273903596436e+01 0.0000000000000000e+00  -2.0105748473026289e+01 -1.9855733505173315e+01 0.0000000000000000e+00  -2.1980896435181577e+01 -2.0403734256854207e+01 0.0000000000000000e+00  -2.3734816853549013e+01 -2.0926893873850602e+01 0.0000000000000000e+00  -2.5308507145022755e+01 -2.0198007031412178e+01 0.0000000000000000e+00  -2.6655782482216733e+01 -1.9543996168530388e+01 0.0000000000000000e+00  -2.7733535285083743e+01 -1.6911181206864164e+01 0.0000000000000000e+00  -2.8539022127213226e+01 -1.4303337355431362e+01 0.0000000000000000e+00  -2.9056998116848607e+01 -9.4319040116596771e+00 0.0000000000000000e+00  -2.9341483321547912e+01 -3.4376207840963096e+00 0.0000000000000000e+00  -2.9389987337551347e+01 -4.0237719000548323e-04 0.0000000000000000e+00  -2.9328824134548221e+01 -1.1937717842770390e+00 0.0000000000000000e+00  -2.9389984125638890e+01 4.3344310585368469e-04 0.0000000000000000e+00  -2.9172575031159411e+01 7.7081228896356215e+00 0.0000000000000000e+00  -2.0917695024526129e+01 2.2736868311372330e+01 0.0000000000000000e+00  -2.0664066408989950e+01 2.3028267282713355e+01 0.0000000000000000e+00  -1.7767509674130622e+01 2.6299605233518928e+01 0.0000000000000000e+00  -1.6736017857003443e+01 2.5149525513510369e+01 0.0000000000000000e+00  -1.5049541506328870e+01 2.4707122713546603e+01 0.0000000000000000e+00  -1.3782751309382839e+01 2.3040642979748558e+01 0.0000000000000000e+00  -1.2493959431836000e+01 2.1216881201851898e+01 0.0000000000000000e+00  -1.1371125224463880e+01 1.9282635929846357e+01 0.0000000000000000e+00  -1.0091535877101792e+01 1.7937808547949924e+01 0.0000000000000000e+00  -9.1489833487656611e+00 1.6285018068856960e+01 0.0000000000000000e+00  -8.3582440172708932e+00 1.4651135225052952e+01 0.0000000000000000e+00  -7.5102677498720380e+00 1.3396290417534406e+01 0.0000000000000000e+00  -6.7231423920164168e+00 1.2231997586425072e+01 0.0000000000000000e+00  -5.9994731586248253e+00 1.1151702823914263e+01 0.0000000000000000e+00  -5.3161403011062127e+00 1.0224554851032289e+01 0.0000000000000000e+00  -4.7125086988051956e+00 9.2920906985403899e+00 0.0000000000000000e+00  -4.1904690685204917e+00 8.3637824370221328e+00 0.0000000000000000e+00  -3.7178420327354407e+00 7.5119481139764250e+00 0.0000000000000000e+00  -3.3120377813123034e+00 6.6269526060290955e+00 0.0000000000000000e+00  -2.9759036868753195e+00 5.7518019664362283e+00 0.0000000000000000e+00  -2.6830161197526388e+00 4.9137405163911687e+00 0.0000000000000000e+00  -2.4447171600912418e+00 4.0936622601733390e+00 0.0000000000000000e+00  -2.2643055630444691e+00 3.2586305048393278e+00 0.0000000000000000e+00  -2.1251022620168012e+00 2.5594060191395926e+00 0.0000000000000000e+00  -2.0335804154109152e+00 1.7963696247006589e+00 0.0000000000000000e+00  -1.9859207102426173e+00 1.2298462536910291e+00 0.0000000000000000e+00  -1.9745966339949028e+00 5.9859685793805417e-01 0.0000000000000000e+00  -1.9724605888325308e+00 -4.3118700658539255e-01 0.0000000000000000e+00  -1.1238012196579825e+00 -3.8759318621444190e+00 0.0000000000000000e+00  -8.0219295803166191e-01 -4.2181283263348197e+00 0.0000000000000000e+00  -1.4864501874757872e+00 -4.2180915527165954e+00 0.0000000000000000e+00  -1.8243917752554819e+00 -4.9450196933828163e+00 0.0000000000000000e+00  -2.2630282676933429e+00 -5.3973969722639490e+00 0.0000000000000000e+00  -2.8446636786377746e+00 -6.3247360882672599e+00 0.0000000000000000e+00  -3.4160002590511866e+00 -7.0102010880710770e+00 0.0000000000000000e+00  -3.9677458872345834e+00 -7.7202117227729028e+00 0.0000000000000000e+00  -4.6287590982974898e+00 -8.4798756003825666e+00 0.0000000000000000e+00  -5.1896984481182562e+00 -9.1154519466899355e+00 0.0000000000000000e+00  -5.3214110386499334e+00 -8.8607569902913799e+00 0.0000000000000000e+00  -6.2689117033820745e+00 -9.3802324853988974e+00 0.0000000000000000e+00  -3.1490690760279842e+00 -3.7007449031347641e+00 0.0000000000000000e+00  -1.2710966080607111e+01 -1.7050464093294412e+01 0.0000000000000000e+00  -1.1645385862315271e+01 -1.4492469274459149e+01 0.0000000000000000e+00  -1.1478461917266779e+01 -1.3247152647940423e+01 0.0000000000000000e+00  -1.1961277817918081e+01 -1.2864012601286280e+01 0.0000000000000000e+00  -1.2959143663411012e+01 -1.3276177412047613e+01 0.0000000000000000e+00  -1.4298706877324069e+01 -1.3974353015918782e+01 0.0000000000000000e+00  -1.5887122750086554e+01 -1.4941017777743339e+01 0.0000000000000000e+00  -1.7638828757052607e+01 -1.5989610437220298e+01 0.0000000000000000e+00  -1.9471265104464649e+01 -1.7032324449814883e+01 0.0000000000000000e+00  -2.1312204612223045e+01 -1.7656016247469697e+01 0.0000000000000000e+00  -2.3096572775281430e+01 -1.8373356685374873e+01 0.0000000000000000e+00  -2.4744856049820935e+01 -1.7919870448664700e+01 0.0000000000000000e+00  -2.6201714048737124e+01 -1.7622732607114006e+01 0.0000000000000000e+00  -2.7412326814488743e+01 -1.5392860171520594e+01 0.0000000000000000e+00  -2.8346501240719370e+01 -1.3226875885638322e+01 0.0000000000000000e+00  -2.8977779662330718e+01 -8.7554630170173962e+00 0.0000000000000000e+00  -2.9334549731569531e+01 -3.1956963235811120e+00 0.0000000000000000e+00  -2.9390789081080197e+01 -5.7641331008478013e-04 0.0000000000000000e+00  -2.9304827200807555e+01 -1.5066430899884553e+00 0.0000000000000000e+00  -2.9390786139603840e+01 6.2798774994606910e-04 0.0000000000000000e+00  -2.8937338977368686e+01 7.4162264254896346e+00 0.0000000000000000e+00  -2.8768863835472313e+01 1.0435898501599736e+01 0.0000000000000000e+00  -2.0626099074473014e+01 2.2749046634196009e+01 0.0000000000000000e+00  -2.0502968796767409e+01 2.2035696305893712e+01 0.0000000000000000e+00  -1.7716001693977056e+01 2.3682086960369265e+01 0.0000000000000000e+00  -1.6782951239640990e+01 2.2242556826109240e+01 0.0000000000000000e+00  -1.5182255020630082e+01 2.1203206958957452e+01 0.0000000000000000e+00  -1.3994609865787213e+01 1.9339701710003411e+01 0.0000000000000000e+00  -1.2776319564215374e+01 1.7650711977170861e+01 0.0000000000000000e+00  -1.1719573599790246e+01 1.6067184678857409e+01 0.0000000000000000e+00  -1.0501607689990827e+01 1.4918067267186366e+01 0.0000000000000000e+00  -9.6175559000532420e+00 1.3509575925740377e+01 0.0000000000000000e+00  -8.8831055457139492e+00 1.2167458907183770e+01 0.0000000000000000e+00  -8.0893843827832654e+00 1.1092937423732696e+01 0.0000000000000000e+00  -7.3542627753612466e+00 1.0106171302203204e+01 0.0000000000000000e+00  -6.6807033175709192e+00 9.2380344409252952e+00 0.0000000000000000e+00  -6.0454842354563789e+00 8.4238500045990108e+00 0.0000000000000000e+00  -5.4880569603890548e+00 7.6164708426185950e+00 0.0000000000000000e+00  -5.0105015729724700e+00 6.8376552197994718e+00 0.0000000000000000e+00  -4.5808346483568867e+00 6.0517037312455955e+00 0.0000000000000000e+00  -4.2163741674577064e+00 5.2802679924664391e+00 0.0000000000000000e+00  -3.9205175569155224e+00 4.5057581768213693e+00 0.0000000000000000e+00  -3.6663380486701334e+00 3.7674813749949223e+00 0.0000000000000000e+00  -3.4662136273394997e+00 3.0172327385447746e+00 0.0000000000000000e+00  -3.3219074137721027e+00 2.3812053852842814e+00 0.0000000000000000e+00  -3.2194319002965432e+00 1.6850833424188449e+00 0.0000000000000000e+00  -3.1603636399044772e+00 1.1902599972620740e+00 0.0000000000000000e+00  -3.1501364275965660e+00 6.0157284218612095e-01 0.0000000000000000e+00  -3.1621878465780746e+00 -4.0072786497890167e-01 0.0000000000000000e+00  -2.4368759436884226e+00 -3.3906957982633879e+00 0.0000000000000000e+00  -2.1514222362785924e+00 -3.7940653030943068e+00 0.0000000000000000e+00  -2.7629291482621672e+00 -3.6692627713056356e+00 0.0000000000000000e+00  -3.1335002461659460e+00 -4.4320550990302543e+00 0.0000000000000000e+00  -3.4802388484016036e+00 -4.7333970448693039e+00 0.0000000000000000e+00  -3.9278198061580203e+00 -5.4469872106232122e+00 0.0000000000000000e+00  -4.5171437764959785e+00 -6.1488851545086272e+00 0.0000000000000000e+00  -5.0943375493866458e+00 -6.8904510832864858e+00 0.0000000000000000e+00  -5.6489812716806940e+00 -7.4889611974283126e+00 0.0000000000000000e+00  -6.3085606826540204e+00 -8.2779224254986872e+00 0.0000000000000000e+00  -6.8626978371009981e+00 -8.6716579787465147e+00 0.0000000000000000e+00  -6.9825808127971429e+00 -7.9692467641797711e+00 0.0000000000000000e+00  -7.9173316090025354e+00 -8.3845836869425643e+00 0.0000000000000000e+00  -4.7972133726637232e+00 -2.6985898850971233e+00 0.0000000000000000e+00  -1.4377182418023544e+01 -1.6078900184795387e+01 0.0000000000000000e+00  -1.3326705645698535e+01 -1.3497022694862148e+01 0.0000000000000000e+00  -1.3159712187388758e+01 -1.2148629030928966e+01 0.0000000000000000e+00  -1.3629406747982319e+01 -1.1798292945493404e+01 0.0000000000000000e+00  -1.4600014425700280e+01 -1.1991503178536201e+01 0.0000000000000000e+00  -1.5901002146104261e+01 -1.2594426405181771e+01 0.0000000000000000e+00  -1.7438656475283175e+01 -1.3406375167614165e+01 0.0000000000000000e+00  -1.9126555282134476e+01 -1.4337701892537025e+01 0.0000000000000000e+00  -2.0881203362540180e+01 -1.4958592385075789e+01 0.0000000000000000e+00  -2.2630016141593813e+01 -1.5775312854514782e+01 0.0000000000000000e+00  -2.4301871550267705e+01 -1.5534197282797864e+01 0.0000000000000000e+00  -2.5821967110951558e+01 -1.5547794564425089e+01 0.0000000000000000e+00  -2.7122800824287641e+01 -1.3688740763624150e+01 0.0000000000000000e+00  -2.8164564007561111e+01 -1.1979216726510336e+01 0.0000000000000000e+00  -2.8887972627068578e+01 -7.9320578386539919e+00 0.0000000000000000e+00  -2.9317098608869973e+01 -2.8866511783379729e+00 0.0000000000000000e+00  -2.9391849803