<?xml version="1.0"?>
<VTKFile type="UnstructuredGrid"  version="0.1"  >
<UnstructuredGrid>
<Piece  NumberOfPoints="1933" NumberOfCells="3640">
<Points>
<DataArray  type="Float64"  NumberOfComponents="3"  format="ascii">0.4752921942063842 0.001374266516999941 0  5.475292219029757 0.001310039811976147 0  5.475388624122846 7.50131014038528 0  0.475388560401538 7.501374298172107 0  10.4752922403969 0.001245709567111523 0  10.47538874709657 7.501245837372431 0  15.47529231344375 0.001181199236569837 0  15.47538896413457 7.50118133719792 0  20.47529250500692 0.001116483510884127 0  20.47538931092324 7.501116624777069 0  25.47529288161782 0.001051569007330146 0  25.475389824522 7.501051711365799 0  30.47529350590262 0.0009864829812524429 0  30.47539054262168 7.500986626410604 0  35.47529443649973 0.0009212666897732166 0  35.47539150301164 7.500921412230185 0  40.4752957293907 0.0008559717274009126 0  40.47539274346847 7.50085612096048 0  45.4752974397324 0.0007906583641935529 0  45.47539430197553 7.500790813189756 0  50.47529962381171 0.0007253953134482242 0  50.47539621713146 7.500725557876015 0  55.47530234098889 0.0006602606095322383 0  55.47539852862526 7.50066043330319 0  60.4753056555995 0.0005953434527746961 0  60.47540127767626 7.50059552896905 0  65.47530963883291 0.0005307470133495043 0  65.47540450734327 7.500530948413421 0  70.47531437060812 0.0004665923049064488 0  70.47540826260158 7.500466813102975 0  75.47531994146644 0.0004030233622387123 0  75.47541259005139 7.500403267602326 0  80.47532645446181 0.0003402141070604588 0  80.47541753706341 7.5003404863986 0  85.47533402697725 0.0002783774886810372 0  85.47542315007665 7.500278682924918 0  90.47534279227177 0.0002177777800713331 0  90.47542947161516 7.500218121574141 0  95.47535290034986 0.0001587473528278087 0  95.47543653538364 7.500159133837242 0  100.4753645173073 0.0001017099393247378 0  100.4754443585211 7.500102140178021 0  105.4753778214864 4.721346405441176e-05 0  105.4754529297163 7.500047679900759 0  110.4753929931244 -4.022778904246992e-06 0  110.475462191535 7.499996452074638 0  115.4754101909801 -5.103915522643545e-05 0  115.4754720151845 7.499949371427839 0  120.4754295030391 -9.253333557850482e-05 0  120.4754821667772 7.499907643555366 0  125.4754508457567 -0.0001267067929038625 0  125.4754922677778 7.49987286253076 0  130.4754737610101 -0.0001510341877066302 0  130.4755017631229 7.499847127998508 0  135.4754970090088 -0.0001619230800038383 0  135.4755099390507 7.499833161717032 0  140.4755177504244 -0.0001542489939674712 0  140.4755161044057 7.499834367075293 0  145.4755298813046 -0.0001209148841623587 0  145.4755202302773 7.499854739280251 0  150.4755205048027 -5.356279938644057e-05 0  150.4755248355367 7.499898772975802 0  160.4755282581477 9.660673131000087e-19 0  165.4753903266766 -0.0001855446841831237 0  165.475504065751 7.499787183938502 0  160.4755452795997 7.499935263443393 0  170.4753127911785 -0.0003463390818172333 0  170.4754621966055 7.499639875702409 0  175.4752680123405 -0.0004892042509452465 0  175.4754274017088 7.499503153826241 0  180.4752418388597 -0.000617914319177917 0  180.4754005280145 7.499377637120983 0  185.4752266016461 -0.0007354162273235639 0  185.475380520433 7.499261906985886 0  190.4752179876201 -0.0008440715350941945 0  190.4753659703095 7.499154272533572 0  195.4752134924338 -0.0009457255777836889 0  195.475355595739 7.49905322441519 0  200.4752116147699 -0.001041796909899852 0  200.4753483579446 7.498957523226564 0  205.4752114245379 -0.001133371968159542 0  205.4753434548779 7.498866181087829 0  210.4752123262418 -0.001221287081240959 0  210.475340280096 7.498778417042578 0  215.4752139264109 -0.001306192722496829 0  215.4753383784317 7.498693612337672 0  220.4752159574969 -0.001388601445821728 0  220.4753374083152 7.498611272974848 0  225.4752182329923 -0.00146892288438418 0  225.4753371124792 7.498531000431772 0  230.4752206201812 -0.00154748915188349 0  230.4753372960901 7.498452469420716 0  235.4752230230902 -0.001624573342260813 0  235.4753378107248 7.498375411159065 0  240.4752253715031 -0.001700403129175376 0  240.475338542707 7.498299600778065 0  245.4752276136947 -0.001775170893672818 0  245.4753394046252 7.498224847781596 0  250.4752297115142 -0.001849041381520306 0  250.475340329148 7.498150988738873 0  255.4752316370232 -0.001922157587553618 0  255.4753412645109 7.498077881616801 0  260.4752333701905 -0.001994645350959709 0  260.4753421712126 7.498005401325824 0  265.4752348973738 -0.00206661699418663 0  265.4753430196155 7.497933436179951 0  270.4752362103953 -0.00213817422591087 0  270.4753437882254 7.49786188506927 0  275.4752373061528 -0.002209410435840675 0  275.4753444624806 7.497790655225517 0  280.4752381867198 -0.0022804124166962 0  280.4753450339377 7.497719660540553 0  285.4752388599712 -0.002351261432215804 0  285.4753454997457 7.497648820489239 0  290.475239340741 -0.002422033370628151 0  290.4753458622931 7.497578059828016 0  295.4752396525438 -0.002492797410602937 0  295.4753461289509 7.49750730940908 0  300.4752398296428 -0.002563612043057622 0  300.4753463118144 7.497436508682989 0  305.4752399188015 -0.002634516153748422 0  305.4753464276203 7.497365610748337 0  310.4752399786418 -0.002705510593750375 0  310.4753464987161 7.497294591060468 0  5.475484664164655 15.00131038534537 0  0.4754845906630428 15.00137438008218 0  10.47548479847634 15.00124614481146 0  15.4754850259532 15.0011816606932 0  20.47548537022209 15.00111694570666 0  25.47548585178628 15.00105202483605 0  30.47548649032743 15.00098693407392 0  35.47548730543942 15.00092171870527 0  40.47548831670632 15.00085643209717 0  45.47548954352792 15.00079113526549 0  50.47549100483747 15.00072589724957 0  55.47549271873148 15.00066079627261 0  60.47549470196889 15.00059592168925 0  65.47549696926743 15.00053137677279 0  70.47549953229574 15.00046728246022 0  75.4755023982421 15.00040378225076 0  80.47550556781138 15.00034104854368 0  85.47550903248427 15.00027929080546 0  90.47551277086325 15.00021876607652 0  95.47551674397728 15.00015979244412 0  100.4755208895469 15.00010276618675 0  105.4755251155928 15.00004818322698 0  110.4755292945369 14.99999666509089 0  115.4755332605441 14.99994898826756 0  120.4755368158012 14.99990611267807 0  125.47553975664 14.99986919786154 0  130.4755419387697 14.99983958041877 0  135.4755434124337 14.99981865510989 0  140.4755446685994 14.99980753702466 0  145.4755470252859 14.99980623396519 0  150.47555306621 14.99981162969446 0  165.4755709323441 14.99971256394536 0  160.4755776491313 14.99982104093098 0  170.4755562876171 14.99959437890579 0  175.4755386017201 14.99947559084591 0  180.4755212133946 14.99936073355879 0  185.4755057212008 14.99925133773707 0  190.4754926656277 14.99914751317881 0  195.4754820462939 14.999048798266 0  200.4754736235886 14.99895455719634 0  205.475467077458 14.99886415086393 0  210.4754620843558 14.99877700170642 0  215.4754583504382 14.99869261118517 0  220.4754556226165 14.99861055755484 0  225.4754536891423 14.99853048657579 0  230.4754523757694 14.9984521006977 0  235.4754515405028 14.99837514892723 0  240.4754510683081 14.99829941809827 0  245.4754508663643 14.99822472562902 0  250.4754508600348 14.99815091361199 0  255.4754509895505 14.99807784401663 0  260.4754512073308 14.99800539479457 0  265.475451475832 14.99793345671032 0  270.4754517658342 14.99786193076462 0  275.4754520550628 14.99779072611945 0  280.4754523270605 14.99771975847577 0  285.4754525702633 14.9976489488921 0  290.4754527772031 14.99757822305472 0  295.4754529439072 14.99750751098589 0  300.4754530696047 14.99743674702425 0  305.4754531571647 14.99736586940001 0  310.4754532150628 14.99729481726165 0  5.475580256915212 22.50131090949854 0  0.4755801830537643 22.50137473263707 0  10.47558037335863 22.50124673777524 0  15.47558055797071 22.50118226810877 0  20.47558082639587 22.50111754352387 0  25.47558118878874 22.50105260659696 0  30.4755816524667 22.50098750289634 0  35.47558222319072 22.50092228253474 0  40.4755829055696 22.50085700100493 0  45.47558370294026 22.50079171994034 0  50.47558461693239 22.50072650813093 0  55.4755856468152 22.50066144296669 0  60.47558678865804 22.5005966124166 0  65.47558803429816 22.50053211763779 0  70.47558937009045 22.50046807631841 0  75.47559077541501 22.50040462688196 0  80.47559222094036 22.50034193369907 0  85.47559366668732 22.50028019346093 0  90.47559506004605 22.50021964283615 0  95.47559633407845 22.50016056742213 0  100.475597406755 22.50010331172937 0  105.4755981822916 22.50004828936386 0  110.475598556551 22.49999599143917 0  115.4755984296307 22.4999469891292 0  120.4755977302281 22.49990192245801 0  125.4755964578318 22.49986146084932 0  130.4755947490601 22.49982621021545 0  135.4755929705937 22.49979652519597 0  140.4755918264084 22.49977216473372 0  145.4755924277665 22.4997517175956 0  150.4755961878858 22.49973179144963 0  165.4756269616703 22.49962973705229 0  160.4756174793705 22.49971422691943 0  170.4756288471279 22.49953404829012 0  175.47562530416 22.49943317157974 0  180.4756186218273 22.49933132328239 0  185.4756105959768 22.4992309773643 0  190.4756024035545 22.49913333794002 0  195.4755947189251 22.49903883371298 0  200.4755878719536 22.49894747099581 0  205.4755819784904 22.49885905001026 0  210.4755770317216 22.49877328663721 0  215.4755729608785 22.49868987654108 0  220.4755696668209 22.49860852644731 0  225.4755670425001 22.49852896755653 0  230.475564984018 22.49845095967544 0  235.475563396072 22.49837429079529 0  240.4755621941593 22.49829877464726 0  245.4755613049988 22.49822424753741 0  250.4755606660248 22.49815056510148 0  255.4755602244583 22.49807759926911 0  260.4755599362108 22.49800523554935 0  265.4755597647861 22.49793337066238 0  270.4755596802258 22.49786191050425 0  275.475559658142 22.49779076841661 0  280.4755596788297 22.49771986372471 0  285.4755597264733 22.49764912048994 0  290.4755597884633 22.49757846637776 0  295.4755598548974 22.49750783142774 0  300.4755599183513 22.49
[...]
<PointData  Vectors="v"> 
<DataArray  type="Float64"  Name="v"  NumberOfComponents="3" format="ascii">4.3369828499578258e+00 3.1246953508687239e+00 0.0000000000000000e+00  4.5360724260560543e+00 2.5985640064864324e+00 0.0000000000000000e+00  3.8382756561007580e+00 2.3000897151080033e+00 0.0000000000000000e+00  3.6796423745521514e+00 2.8861752419705358e+00 0.0000000000000000e+00  4.7210071439949957e+00 2.4448115923962135e+00 0.0000000000000000e+00  4.0370426543715530e+00 2.1675987443550779e+00 0.0000000000000000e+00  4.8000078930530217e+00 2.3439631617375030e+00 0.0000000000000000e+00  4.2215135191598643e+00 2.2259201793267360e+00 0.0000000000000000e+00  4.7781929844211373e+00 1.8268982625271317e+00 0.0000000000000000e+00  4.2998067118049148e+00 1.8600030473331641e+00 0.0000000000000000e+00  4.7937695941716454e+00 1.5261033977565495e+00 0.0000000000000000e+00  4.2771330645026948e+00 1.5030557066996382e+00 0.0000000000000000e+00  4.7316059644289492e+00 9.8974440438453437e-01 0.0000000000000000e+00  4.2920962552553075e+00 1.0833597480839845e+00 0.0000000000000000e+00  4.6081917802230130e+00 4.0472314336185267e-01 0.0000000000000000e+00  4.2293397603119178e+00 5.8978650972291458e-01 0.0000000000000000e+00  4.7789267772868351e+00 2.1933733545973033e-01 0.0000000000000000e+00  4.1055530117530594e+00 -3.7089120022523778e-02 0.0000000000000000e+00  4.7545489742256741e+00 -2.4319185033838805e-01 0.0000000000000000e+00  4.2765008425659401e+00 -2.0713809670147132e-01 0.0000000000000000e+00  7.2540200978818712e+00 3.0245398538263211e+00 0.0000000000000000e+00  4.2527806027361930e+00 -7.2585217887011366e-01 0.0000000000000000e+00  8.4307892562210522e+00 4.2321554764353131e+00 0.0000000000000000e+00  6.7524724349668217e+00 2.4659424931655742e+00 0.0000000000000000e+00  8.7657624997047190e+00 4.0858526206258912e+00 0.0000000000000000e+00  7.9304924774139600e+00 3.5806130577753694e+00 0.0000000000000000e+00  8.7581145699516920e+00 3.3665156056245080e+00 0.0000000000000000e+00  8.2684176349198530e+00 3.3740360548205670e+00 0.0000000000000000e+00  8.5498626394768582e+00 2.3615645290291591e+00 0.0000000000000000e+00  8.2649340191569660e+00 2.6683943061856228e+00 0.0000000000000000e+00  8.2648996037781792e+00 1.2752856522053875e+00 0.0000000000000000e+00  8.0629659584580384e+00 1.6964175395371515e+00 0.0000000000000000e+00  7.9013268590174324e+00 1.2235615471084124e-01 0.0000000000000000e+00  7.7855323752130579e+00 6.5927824655017220e-01 0.0000000000000000e+00  7.4477618797474348e+00 -1.0197535674973544e+00 0.0000000000000000e+00  7.4310284308125016e+00 -3.4951277210402720e-01 0.0000000000000000e+00  6.8931189528606680e+00 -2.2300001255775008e+00 0.0000000000000000e+00  6.9893828126022539e+00 -1.4096072685576593e+00 0.0000000000000000e+00  6.2256616004496523e+00 -3.4815161796658858e+00 0.0000000000000000e+00  6.4483134468145158e+00 -2.4950190401516847e+00 0.0000000000000000e+00  5.4464380184756855e+00 -4.7903442112660768e+00 0.0000000000000000e+00  5.7974071201095958e+00 -3.6381901318144774e+00 0.0000000000000000e+00  4.5880720062254179e+00 -6.0777998088920482e+00 0.0000000000000000e+00  5.0377721466024434e+00 -4.8101621730549429e+00 0.0000000000000000e+00  3.6907155072221944e+00 -7.4395728910193508e+00 0.0000000000000000e+00  4.2031747665268888e+00 -6.1159354866806677e+00 0.0000000000000000e+00  2.7984194572046697e+00 -8.4969787418619305e+00 0.0000000000000000e+00  3.3312913446690855e+00 -7.1863618548513983e+00 0.0000000000000000e+00  1.9807918231852755e+00 -9.6222745049793446e+00 0.0000000000000000e+00  2.4726657257491804e+00 -8.4233980632014323e+00 0.0000000000000000e+00  1.2697483573167541e+00 -9.9778828067947867e+00 0.0000000000000000e+00  1.6871463684558137e+00 -8.9494344020541643e+00 0.0000000000000000e+00  7.2420226196207760e-01 -1.0366117963621784e+01 0.0000000000000000e+00  1.0220298292396028e+00 -9.5800297172129785e+00 0.0000000000000000e+00  3.3351687504371780e-01 -9.1854157698211250e+00 0.0000000000000000e+00  5.1476364897384486e-01 -8.6505914201836234e+00 0.0000000000000000e+00  1.2316523842680582e-01 -8.1585859976463180e+00 0.0000000000000000e+00  1.8529525838119279e-01 -7.8782073183225814e+00 0.0000000000000000e+00  2.1992280695465938e-02 -3.9572707331967747e+00 0.0000000000000000e+00  1.8236554218229745e-02 -3.8731920148830050e+00 0.0000000000000000e+00  -4.4992521986841612e-09 9.9392685047340656e-11 0.0000000000000000e+00  7.4420825164484992e-04 7.1246541565815472e-04 0.0000000000000000e+00  6.4990312584990762e-11 -6.2458423614321073e-19 0.0000000000000000e+00  -1.4475670288998979e+00 7.1126166224815162e+00 0.0000000000000000e+00  2.7395885249173278e-02 9.3035346119811955e+00 0.0000000000000000e+00  7.4193939146438960e-04 -7.5352642790890354e-04 0.0000000000000000e+00  2.0072202469336570e-01 1.1844130961279889e+01 0.0000000000000000e+00  -1.4492504627086349e+00 9.4162420945775711e+00 0.0000000000000000e+00  2.0680040939077832e-01 1.1109049637481210e+01 0.0000000000000000e+00  1.6354164402723895e-01 1.1117538896443854e+01 0.0000000000000000e+00  8.1118999001205727e-01 1.1024626345444315e+01 0.0000000000000000e+00  1.3861780268087262e-01 1.0144593851386125e+01 0.0000000000000000e+00  9.9602904311000151e-01 8.8625929637396972e+00 0.0000000000000000e+00  7.1715625050527110e-01 8.6047162240190254e+00 0.0000000000000000e+00  1.2572843078757623e+00 7.2125821578236167e+00 0.0000000000000000e+00  8.7916310100738848e-01 6.8401664762143621e+00 0.0000000000000000e+00  1.4056695624171474e+00 5.3808719372420173e+00 0.0000000000000000e+00  1.1189049502384896e+00 5.1737567026966982e+00 0.0000000000000000e+00  1.5684230404666650e+00 4.0209555454222112e+00 0.0000000000000000e+00  1.2491939386036619e+00 3.7925011105519837e+00 0.0000000000000000e+00  1.6362933169942999e+00 2.9291119220275834e+00 0.0000000000000000e+00  1.3955162239973238e+00 2.8403395960722344e+00 0.0000000000000000e+00  1.7553257894996013e+00 2.3296526706007410e+00 0.0000000000000000e+00  1.4482941080951148e+00 2.1631325122785410e+00 0.0000000000000000e+00  1.9025339384494053e+00 1.9606222378355040e+00 0.0000000000000000e+00  1.5540780210356004e+00 1.7508394115431882e+00 0.0000000000000000e+00  2.0285582405782061e+00 1.7914633905492863e+00 0.0000000000000000e+00  1.6893112397212227e+00 1.6123731146157316e+00 0.0000000000000000e+00  2.1246272509286381e+00 1.7197309171934749e+00 0.0000000000000000e+00  1.8042411517825481e+00 1.5845114745383291e+00 0.0000000000000000e+00  2.1933617144669904e+00 1.6717302249171491e+00 0.0000000000000000e+00  1.8904589993321974e+00 1.5769819031244174e+00 0.0000000000000000e+00  2.2140952778660878e+00 1.6274778285457037e+00 0.0000000000000000e+00  1.9502218813281031e+00 1.6039232183529446e+00 0.0000000000000000e+00  2.2113103015022699e+00 1.5900962595821579e+00 0.0000000000000000e+00  1.9626061068653220e+00 1.6012089591342729e+00 0.0000000000000000e+00  2.1947889346855445e+00 1.5350582895556508e+00 0.0000000000000000e+00  1.9522288543724597e+00 1.5664048495729983e+00 0.0000000000000000e+00  2.1568400952953515e+00 1.4658602679435719e+00 0.0000000000000000e+00  1.9286621195955134e+00 1.5289133669268107e+00 0.0000000000000000e+00  2.1098459986976552e+00 1.3969213738495994e+00 0.0000000000000000e+00  1.8840104046618456e+00 1.4731803325725552e+00 0.0000000000000000e+00  2.0642985042660476e+00 1.2977150660108265e+00 0.0000000000000000e+00  1.8307405552046192e+00 1.3716417504078073e+00 0.0000000000000000e+00  2.0047468913351034e+00 1.2133351097429530e+00 0.0000000000000000e+00  1.7791658125020127e+00 1.3080229615059229e+00 0.0000000000000000e+00  1.9431698835139750e+00 1.0695335935980079e+00 0.0000000000000000e+00  1.7137883458266574e+00 1.1671535670897943e+00 0.0000000000000000e+00  1.8725214962743042e+00 9.7931070534265963e-01 0.0000000000000000e+00  1.6464816508405844e+00 1.0903944221656467e+00 0.0000000000000000e+00  1.7908622193425434e+00 7.2840339087973871e-01 0.0000000000000000e+00  1.5703356731313982e+00 8.5607510735982362e-01 0.0000000000000000e+00  1.6842547588008245e+00 6.7756100422927723e-01 0.0000000000000000e+00  1.4829796379631148e+00 8.4237022117731841e-01 0.0000000000000000e+00  1.5524980347772317e+00 1.9164044058703186e-01 0.0000000000000000e+00  1.3711079223329943e+00 3.9459764132218894e-01 0.0000000000000000e+00  1.3789446930569826e+00 2.9705318263587033e-01 0.0000000000000000e+00  1.2334369708104294e+00 5.6199630845399740e-01 0.0000000000000000e+00  1.1020026723975451e+00 -6.3589275523483302e-01 0.0000000000000000e+00  1.0550577068731537e+00 -2.1467797583825790e-01 0.0000000000000000e+00  6.3446928933553171e-01 -7.9311855107463591e-01 0.0000000000000000e+00  7.7131050405377233e-01 -8.8087999026055838e-02 0.0000000000000000e+00  -4.6777130021591190e-01 -2.8937716755966009e-01 0.0000000000000000e+00  3.0107331436080453e-01 1.3718728861136411e+00 0.0000000000000000e+00  3.1239006073400564e+00 2.0629219350759458e+00 0.0000000000000000e+00  2.9388631711095909e+00 2.6069480295482141e+00 0.0000000000000000e+00  3.2810583034736629e+00 1.8708350495306156e+00 0.0000000000000000e+00  3.4772646505538209e+00 1.9509374046233217e+00 0.0000000000000000e+00  3.6584647054191999e+00 1.7446839777176339e+00 0.0000000000000000e+00  3.7329039631267698e+00 1.5397328233636387e+00 0.0000000000000000e+00  3.7057387832194162e+00 1.0635095770571801e+00 0.0000000000000000e+00  3.7160724479744554e+00 6.8642528009939063e-01 0.0000000000000000e+00  3.6489487105539840e+00 1.5131943198582204e-01 0.0000000000000000e+00  3.5210101144820656e+00 -4.6184352889282237e-01 0.0000000000000000e+00  3.6894108044342566e+00 -6.8983644731361460e-01 0.0000000000000000e+00  3.6636848416282519e+00 -1.2798040370767181e+00 0.0000000000000000e+00  6.1559984621340966e+00 1.8182906627764830e+00 0.0000000000000000e+00  7.3275173227464858e+00 2.8678441505610426e+00 0.0000000000000000e+00  7.6642203628991021e+00 2.6740718343141290e+00 0.0000000000000000e+00  7.6614574358433334e+00 1.9967446514512701e+00 0.0000000000000000e+00  7.4636121294346705e+00 1.0719257586297757e+00 0.0000000000000000e+00  7.1924056649310906e+00 1.7817433233563532e-01 0.0000000000000000e+00  6.8458874445908755e+00 -7.5383533341827458e-01 0.0000000000000000e+00  6.4155282297926304e+00 -1.6919655166578416e+00 0.0000000000000000e+00  5.8891737962835959e+00 -2.6710635768585775e+00 0.0000000000000000e+00  5.2558979719735248e+00 -3.6848699518354819e+00 0.0000000000000000e+00  4.5199818214372174e+00 -4.8798475452521259e+00 0.0000000000000000e+00  3.7141467804917645e+00 -5.8992318609320673e+00 0.0000000000000000e+00  2.8783018034743986e+00 -7.1587922790914353e+00 0.0000000000000000e+00  2.0627104635284201e+00 -7.8047458980677353e+00 0.0000000000000000e+00  1.3325003892805332e+00 -8.6113807993118368e+00 0.0000000000000000e+00  7.2660462028221839e-01 -7.9442025235200848e+00 0.0000000000000000e+00  3.0237108328571255e-01 -7.4141641481198244e+00 0.0000000000000000e+00  4.8348033667922126e-02 -3.7107817598669941e+00 0.0000000000000000e+00  2.5523487326287535e-03 1.3595011315094732e-03 0.0000000000000000e+00  5.5287292734067801e-02 9.1461292933682241e+00 0.0000000000000000e+00  2.5480772435271326e-03 -1.5506655496706000e-03 0.0000000000000000e+00  2.0826793576179711e-01 1.1641981982834963e+01 0.0000000000000000e+00  -1.3177655177032803e+00 8.7391967007707070e+00 0.0000000000000000e+00  2.3617360368144674e-01 1.0208656146428014e+01 0.0000000000000000e+00  1.6948677977083432e-01 7.7606728375784337e+00 0.0000000000000000e+00  7.1107337101587953e-01 6.6126342038348787e+00 0.0000000000000000e+00  8.4581574847412000e-01 4.8321510561964072e+00 0.0000000000000000e+00  1.0592508558486100e+00 3.6094239002526241e+00 0.0000000000000000e+00  1.1688518601481084e+00 2.6320750856561266e+00 0.0000000000000000e+00  1.2968984411111755e+00 2.0944368609396045e+00 0.0000000000000000e+00  1.3334097279715660e+00 1.6010157087438976e+00 0.0000000000000000e+00  1.4249241761940570e+00 1.4169658015896618e+00 0.0000000000000000e+00  1.5478036778533402e+00 1.4194519731632464e+00 0.0000000000000000e+00  1.6513769878036417e+00 1.4537337619731676e+00 0.0000000000000000e+00  1.7278194791498280e+00 1.5194387384197892e+00 0.0000000000000000e+00  1.7791576710421835e+00 1.5874958816883329e+00 0.0000000000000000e+00  1.7839753465072998e+00 1.5860966287621050e+00 0.0000000000000000e+00  1.7670040096426971e+00 1.5677998922477390e+00 0.0000000000000000e+00  1.7376619633235963e+00 1.5435500629026286e+00 0.0000000000000000e+00  1.6876737459387119e+00 1.4545713434940499e+00 0.0000000000000000e+00  1.6295321445558699e+00 1.3881206218319233e+00 0.0000000000000000e+00  1.5734347514246789e+00 1.2679867893142738e+00 0.0000000000000000e+00  1.5036239022938278e+00 1.1939348506804615e+00 0.0000000000000000e+00  1.4320289119034073e+00 9.7292816815971528e-01 0.0000000000000000e+00  1.3515718087550426e+00 9.7591714643736871e-01 0.0000000000000000e+00  1.2599345051557667e+00 5.6525834136265030e-01 0.0000000000000000e+00  1.1435591782832699e+00 7.7077530208126332e-01 0.0000000000000000e+00  1.0016680064255963e+00 5.6227525478840974e-02 0.0000000000000000e+00  8.1851527043752526e-01 3.3923650641887054e-01 0.0000000000000000e+00  5.3072145148322847e-01 2.0809255893476819e+00 0.0000000000000000e+00  2.2558735214738022e+00 1.7871086615645615e+00 0.0000000000000000e+00  2.0833332597467935e+00 2.3456081198222778e+00 0.0000000000000000e+00  2.4379558286429139e+00 1.6383710465671071e+00 0.0000000000000000e+00  2.5896521708602469e+00 1.6607896284443415e+00 0.0000000000000000e+00  2.7792416039030603e+00 1.4784156617032409e+00 0.0000000000000000e+00  2.9518365808044496e+00 1.4346508852949698e+00 0.0000000000000000e+00  3.0160889381556188e+00 1.1114521410528810e+00 0.0000000000000000e+00  2.9779349088037144e+00 6.7884504640240129e-01 0.0000000000000000e+00  2.9764913707620799e+00 2.5972250352602172e-01 0.0000000000000000e+00  2.8979054654735368e+00 -2.6336503409756862e-01 0.0000000000000000e+00  2.7606510811284797e+00 -9.3771499698008576e-01 0.0000000000000000e+00  2.9225197144760879e+00 -1.2366154028735503e+00 0.0000000000000000e+00  2.8861729283993416e+00 -1.9073065853531959e+00 0.0000000000000000e+00  5.3567597036950296e+00 1.1251420351878840e+00 0.0000000000000000e+00  6.5088467956526772e+00 2.1745428688632691e+00 0.0000000000000000e+00  6.8362772044018474e+00 2.0029054465545761e+00 0.0000000000000000e+00  6.8299847490603200e+00 1.3674790357222109e+00 0.0000000000000000e+00  6.6324640192171049e+00 5.8101872828031220e-01 0.0000000000000000e+00  6.3644369148568041e+00 -2.4058941618717486e-01 0.0000000000000000e+00  6.0249466614670801e+00 -1.0553670405867965e+00 0.0000000000000000e+00  5.6048798288263004e+00 -1.8943093138071474e+00 0.0000000000000000e+00  5.0932160519897147e+00 -2.7529540131758621e+00 0.0000000000000000e+00  4.4823016626538807e+00 -3.7980047185288224e+00 0.0000000000000000e+00  3.7755376960228193e+00 -4.7231012077338148e+00 0.0000000000000000e+00  3.0114446872478124e+00 -5.9424040104950278e+00 0.0000000000000000e+00  2.2280526884370619e+00 -6.6365310819035317e+00 0.0000000000000000e+00  1.4859989253983932e+00 -7.5730300496878495e+00 0.0000000000000000e+00  8.4093013334273436e-01 -7.1292964309531897e+00 0.0000000000000000e+00  3.5764885822208792e-01 -6.8492035387183998e+00 0.0000000000000000e+00  5.5453380615159809e-02 -3.4929176140816613e+00 0.0000000000000000e+00  5.3721502262995876e-03 1.9436568631263583e-03 0.0000000000000000e+00  6.4654853046069591e-02 8.9005744277746697e+00 0.0000000000000000e+00  5.3677729218561355e-03 -2.2569391388196909e-03 0.0000000000000000e+00  3.4736264787855459e-01 1.1367685163049813e+01 0.0000000000000000e+00  5.0453775408483992e-01 1.1091959489229392e+01 0.0000000000000000e+00  -1.1095419699121416e+00 7.9522350757074856e+00 0.0000000000000000e+00  3.5056365494341696e-01 7.9092218154972986e+00 0.0000000000000000e+00  2.1839695719394905e-01 5.8451879461706451e+00 0.0000000000000000e+00  7.0743456012594741e-01 4.6605126013645899e+00 0.0000000000000000e+00  8.0152031673536306e-01 3.3180753982666849e+00 0.0000000000000000e+00  9.7973273003268968e-01 2.4906072632763068e+00 0.0000000000000000e+00  1.0610729566671089e+00 1.9225016621855313e+00 0.0000000000000000e+00  1.1639046742928605e+00 1.5634296008000665e+00 0.0000000000000000e+00  1.1788450671758781e+00 1.2953047945837706e+00 0.0000000000000000e+00  1.2513743518921350e+00 1.2485916394993644e+00 0.0000000000000000e+00  1.3572514173734436e+00 1.3104235976553358e+00 0.0000000000000000e+00  1.4458997505142370e+00 1.4152808130561452e+00 0.0000000000000000e+00  1.5096722953637169e+00 1.5193962057471635e+00 0.0000000000000000e+00  1.5501168152304972e+00 1.5865053878088953e+00 0.0000000000000000e+00  1.5457373298645052e+00 1.5999141028787414e+00 0.0000000000000000e+00  1.5210098625298010e+00 1.5932433206763494e+00 0.0000000000000000e+00  1.4849472846113159e+00 1.5346239517111777e+00 0.0000000000000000e+00  1.4290301215186427e+00 1.4799579793029871e+00 0.0000000000000000e+00  1.3655682069417643e+00 1.3564599557020751e+00 0.0000000000000000e+00  1.3043917631445305e+00 1.3027806163166222e+00 0.0000000000000000e+00  1.2296767193508664e+00 1.0845708512798531e+00 0.0000000000000000e+00  1.1530676927081054e+00 1.1006739900590188e+00 0.0000000000000000e+00  1.0676224946644697e+00 7.0727825860254978e-01 0.0000000000000000e+00  9.7052587443685656e-01 9.4935732739209577e-01 0.0000000000000000e+00  8.4909698732678451e-01 2.7428624472184476e-01 0.0000000000000000e+00  7.0104089717902374e-01 6.1730702452402419e-01 0.0000000000000000e+00  5.1397065219907201e-01 2.5183437731314742e+00 0.0000000000000000e+00  1.6195432331948691e+00 1.5307037448494194e+00 0.0000000000000000e+00  1.4502751136518837e+00 2.0882420665840469e+00 0.0000000000000000e+00  1.7881744828208810e+00 1.3697816607840914e+00 0.0000000000000000e+00  1.9628233528651871e+00 1.4396785928617308e+00 0.0000000000000000e+00  2.1048830305632071e+00 1.2021555473740875e+00 0.0000000000000000e+00  2.2821261057375035e+00 1.1856517470783887e+00 0.0000000000000000e+00  2.4399861642730967e+00 1.0269024687405968e+00 0.0000000000000000e+00  2.4870328363061209e+00 7.4902649596158499e-01 0.0000000000000000e+00  2.4300020580271573e+00 2.7541655346021182e-01 0.0000000000000000e+00  2.4094311872518661e+00 -1.3234959193643508e-01 0.0000000000000000e+00  2.3133736484922305e+00 -7.2159679033513668e-01 0.0000000000000000e+00  2.1618210223421488e+00 -1.4706872996658207e+00 0.0000000000000000e+00  2.3108409284863343e+00 -1.8391655851247772e+00 0.0000000000000000e+00  2.2506093106209493e+00 -2.5539000110765651e+00 0.0000000000000000e+00  4.6805072175857427e+00 4.7359434270980089e-01 0.0000000000000000e+00  5.7981000810887409e+00 1.5266092125293553e+00 0.0000000000000000e+00  6.1056296451728898e+00 1.3867230436114226e+00 0.0000000000000000e+00  6.0860655635621237e+00 8.8281214535582508e-01 0.0000000000000000e+00  5.8806892799386397e+00 1.6609027609283694e-01 0.0000000000000000e+00  5.6063355732769731e+00 -5.4421268401603617e-01 0.0000000000000000e+00  5.2629393270569205e+00 -1.2637671367658940e+00 0.0000000000000000e+00  4.8422507357843401e+00 -1.9884005685820223e+00 0.0000000000000000e+00  4.3347745487785163e+00 -2.8888488159232497e+00 0.0000000000000000e+00  3.7344022398079835e+00 -3.6795610290354279e+00 0.0000000000000000e+00  3.0516478999224876e+00 -4.8181492358815277e+00 0.0000000000000000e+00  2.3230298184523499e+00 -5.5048132920974071e+00 0.0000000000000000e+00  1.6013223072278009e+00 -6.5070148232489542e+00 0.0000000000000000e+00  9.3741383535312806e-01 -6.2537115017459790e+00 0.0000000000000000e+00  4.1989606782586408e-01 -6.1983786938367125e+00 0.0000000000000000e+00  7.3167145987866763e-02 -3.2265097633524205e+00 0.0000000000000000e+00  9.0927074888951381e-03 2.4625647658514222e-03 0.0000000000000000e+00  7.9498861367882381e-02 8.6185146437092381e+00 0.0000000000000000e+00  9.0882032247334207e-03 -2.8795945372532359e-03 0.0000000000000000e+00  3.9966518056554362e-01 1.0838421760903934e+01 0.0000000000000000e+00  7.6987928203951339e-01 1.0840237900127821e+01 0.0000000000000000e