<?xml version="1.0"?>
<VTKFile type="UnstructuredGrid"  version="0.1"  >
<UnstructuredGrid>
<Piece  NumberOfPoints="1933" NumberOfCells="3640">
<Points>
<DataArray  type="Float64"  NumberOfComponents="3"  format="ascii">0.2940328933837081 -0.001497007983384357 0  5.294032931912684 -0.001462859211336302 0  5.29398170587942 7.498537236545056 0  0.2939816500666388 7.498503059435179 0  10.29403299470024 -0.001428785370057698 0  10.29398179975434 7.498571316410134 0  15.29403312169713 -0.001394790524449585 0  15.29398194802629 7.498605310054108 0  20.29403334893885 -0.001360851145374779 0  20.2939821647445 7.498639246357635 0  25.2940337053395 -0.001326928911774242 0  25.29398246175162 7.498673165561915 0  30.29403421293344 -0.001292976941656591 0  30.29398284821409 7.498707115171117 0  35.29403488803036 -0.001258942710327822 0  35.29398333027068 7.498741147832714 0  40.2940357424025 -0.001224769140339897 0  40.29398391081207 7.498775320562205 0  45.2940367842215 -0.001190394604701669 0  45.29398458928351 7.498809694863386 0  50.29403801867735 -0.001155752219459754 0  50.29398536140366 7.498844337478926 0  55.2940394482764 -0.001120768601126659 0  55.2939862187087 7.498879321639864 0  60.29404107282098 -0.001085362142640213 0  60.2939871478407 7.498914728776461 0  65.29404288905454 -0.001049440776674731 0  65.29398812948594 7.498950650724344 0  70.29404488991432 -0.001012899123154476 0  70.29398913684908 7.498987192522675 0  75.29404706328675 -0.0009756148421867295 0  75.29399013350255 7.499024475965432 0  80.29404939006793 -0.0009374439193103269 0  80.29399107038596 7.499062644143653 0  85.29405184120827 -0.0008982144800301605 0  85.29399188164123 7.499101867312996 0  90.29405437318863 -0.0008577185424179328 0  90.29399247883876 7.499142350544501 0  95.29405692100546 -0.0008157008384426477 0  95.29399274298902 7.49918434376843 0  100.2940593870562 -0.000771843422652972 0  100.293992513556 7.499228154985449 0  105.2940616231176 -0.0007257441858656256 0  105.2939915735354 7.499274167537197 0  110.2940634003806 -0.0006768865502655614 0  110.2939896297282 7.499322862227979 0  115.2940643584158 -0.0006245965527958762 0  115.2939862880441 7.499374844351204 0  120.2940639162815 -0.000567982487504304 0  120.2939810260243 7.49943087330271 0  125.2940611146206 -0.000505852338994491 0  125.2939731711107 7.499491886243947 0  130.2940543305165 -0.0004366089222369387 0  130.2939619085203 7.499558992488708 0  135.2940407557167 -0.0003581432674267398 0  135.2939463777952 7.499633382718171 0  140.2940154310128 -0.0002678218926081188 0  140.2939259954404 7.499716032843891 0  145.2939694346493 -0.0001629407526715364 0  145.2939013151041 7.499806989161712 0  150.2938863807805 -4.314569456566339e-05 0  150.293876145726 7.4999040884702 0  160.2938926261457 1.094147565580318e-18 0  165.2938578181715 -7.981036285324903e-05 0  165.2938872846068 7.499903612965393 0  160.2938923058029 7.499961134957364 0  170.2938508063275 -0.0001311845151525048 0  170.2938818802085 7.499860733217185 0  175.2938563459305 -0.0001628099432362584 0  175.293879447563 7.499832987163473 0  180.2938672245157 -0.0001799962094476366 0  180.2938800032632 7.49981775390717 0  185.2938799485448 -0.0001864557190284384 0  185.2938827851331 7.499812327124345 0  190.2938928350581 -0.0001848623687117241 0  190.2938869995799 7.499814482416288 0  195.293905101237 -0.000177156639191313 0  195.2938920144708 7.499822500472108 0  200.2939164143844 -0.0001647570395032113 0  200.2938973767596 7.499835076923033 0  205.293926665654 -0.0001487113981831643 0  205.2939027808348 7.499851224419526 0  210.2939358552727 -0.0001298038082082209 0  210.2939080299611 7.499870191531302 0  215.2939440340944 -0.0001086294191585862 0  215.2939130035436 7.499891401065887 0  220.2939512738757 -8.564661279580649e-05 0  220.2939176325529 7.499914404703295 0  225.2939576523077 -6.121356985787921e-05 0  225.2939218821076 7.499938850021048 0  230.2939632456862 -3.561414490068162e-05 0  230.2939257395196 7.499964456539256 0  235.2939681255529 -9.076408874746458e-06 0  235.2939292062562 7.499990998219131 0  240.2939723574115 1.821387299509028e-05 0  240.2939322926119 7.500018290559376 0  245.2939760005369 4.610330244360036e-05 0  245.2939350142373 7.500046180981314 0  250.2939791083529 7.4463420265684e-05 0  250.2939373899246 7.500074541588633 0  255.2939817291289 0.0001031850944156925 0  255.2939394402543 7.500103263668392 0  260.2939839068497 0.0001321742559381688 0  260.2939411868218 7.500132253497693 0  265.293985682221 0.0001613486740282509 0  265.2939426518692 7.500161429164258 0  270.2939870937718 0.0001906355813933697 0  270.2939438581917 7.500190718218272 0  275.2939881790854 0.0002199700622132269 0  275.2939448292184 7.500220056063878 0  280.2939889761455 0.0002492942156423837 0  280.2939455891943 7.500249385084144 0  285.2939895248077 0.000278557227310141 0  285.2939461633816 7.500278654584757 0  290.2939898682923 0.0003077166440540885 0  290.2939465781906 7.500307821746866 0  295.2939900544933 0.0003367413844222562 0  295.2939468611838 7.50033685390366 0  300.2939901364921 0.0003656173600717144 0  300.2939470409238 7.500365732590013 0  305.2939901709265 0.0003943569982961463 0  305.293947146941 7.500394459942004 0  310.2939902111647 0.0004230139998021179 0  310.2939472108169 7.500423068215572 0  5.293930290438208 14.99853744039774 0  0.2939302342235396 14.99850322234866 0  10.29393037016303 14.99857151624905 0  15.29393048417186 14.99860549082986 0  20.29393063734905 14.99863940533453 0  25.29393083168007 14.99867330447484 0  30.29393106706263 14.99870723685979 0  35.29393134124254 14.99874125485697 0  40.29393164942287 14.99877541465963 0  45.29393198373688 14.99880977673194 0  50.29393233262274 14.99884440664376 0  55.29393268007637 14.9988793762816 0  60.29393300473286 14.9989147654408 0  65.29393327871892 14.99895066383383 0  70.29393346620807 14.99898717358198 0  75.29393352161509 14.99902441229009 0  80.29393338736652 14.99906251683216 0  85.29393299121642 14.99910164799411 0  90.2939322431431 14.99914199611232 0  95.2939310320219 14.99918378777378 0  100.2939292225783 14.99922729343279 0  105.2939266537469 14.99927283529366 0  110.2939231406659 14.9993207937162 0  115.2939184845087 14.99937160816153 0  120.2939124976036 14.99942576430058 0  125.293905056275 14.99948375060796 0  130.293896200468 14.99954595275444 0  135.2938863052641 14.99961242840948 0  140.2938763462694 14.99968246390126 0  145.2938682420728 14.99975374998042 0  150.2938651052164 14.99982087729092 0  165.2938868131136 14.99985813667309 0  160.2938846153947 14.99988328956436 0  170.2938847534143 14.99983532045015 0  175.2938815004954 14.99981894359541 0  180.2938786991166 14.99981002870387 0  185.2938769526787 14.99980811126782 0  190.2938763299205 14.99981222537291 0  195.2938766743006 14.99982134334343 0  200.2938777619974 14.99983454026231 0  205.2938793735761 14.99985103802743 0  210.2938813213721 14.99987020157938 0  215.2938834558995 14.99989151914482 0  220.2938856633043 14.99991457964682 0  225.2938878597213 14.9999390521683 0  230.2938899851965 14.99996466884313 0  235.293891998259 14.99999121116176 0  240.2938938714509 15.0000184992115 0  245.2938955878185 15.000046383287 0  250.293897138238 15.00007473736289 0  255.2938985194124 15.00010345401577 0  260.293899732397 15.00013244048112 0  265.2939007815165 15.00016161561489 0  270.2939016735755 15.00019090760322 0  275.2939024172775 15.00022025232357 0  280.2939030227772 15.00024959231189 0  285.293903501361 15.00027887633084 0  290.2939038652232 15.00030805955346 0  295.2939041274735 15.00033710435156 0  300.2939043025931 15.00036598155581 0  305.2939044078763 15.00039467171231 0  310.2939044668246 15.00042316504447 0  5.293878765513858 22.49853781136661 0  0.2938787127858611 22.4985036000123 0  10.29387882499395 22.49857185147921 0  15.29387889519801 22.49860577896461 0  20.29387897584627 22.4986396450115 0  25.29387906380962 22.49867349863758 0  30.29387915387341 22.49870738941047 0  35.29387923889713 22.49874136886455 0  40.29387930959931 22.498775491416 0  45.29387935413517 22.49880981518585 0  50.29387935755968 22.49884440292229 0  55.29387930121334 22.49887932310757 0  60.29387916204677 22.49891465129241 0  65.29387891189468 22.49895047168571 0  70.29387851672162 22.4989868790182 0  75.29387793589665 22.49902398068789 0  80.2938771216059 22.49906189916437 0  85.29387601861015 22.49910077456439 0  90.29387456470742 22.4991407671831 0  95.29387269250243 22.49918205952332 0  100.2938703334534 22.49922485692608 0  105.2938674257039 22.49926938513764 0  110.2938639279378 22.49931588183507 0  115.2938598423669 22.49936457697795 0  120.2938552507344 22.49941565347843 0  125.2938503672197 22.49946917479416 0  130.2938456097567 22.49952495993512 0  135.2938416833408 22.49958238133116 0  140.2938396496688 22.49964006497517 0  145.2938409188342 22.49969550847789 0  150.2938470359606 22.49974477075807 0  165.2938682724427 22.49980637789531 0  160.2938638817454 22.49980967259197 0  170.293868750811 22.49980089791385 0  175.293866861044 22.49979685012146 0  180.2938639515488 22.49979616654559 0  185.2938609216955 22.49979956650197 0  190.2938582614679 22.49980705776755 0  195.2938561781096 22.49981830170345 0  200.2938547109025 22.49983283000382 0  205.2938538114789 22.49985015778155 0  210.2938533934343 22.49986983550525 0  215.2938533603565 22.49989146815043 0  220.2938536202503 22.49991471812546 0  225.2938540919801 22.49993930095465 0  230.2938547073071 22.49996497832358 0  235.2938554106766 22.49999155070119 0  240.2938561579778 22.50001885050871 0  245.2938569149458 22.50004673618224 0  250.2938576555408 22.50007508718388 0  255.2938583604675 22.50010379989276 0  260.2938590158772 22.50013278426785 0  265.2938596122738 22.50016196117114 0  270.293860143595 22.50019126025419 0  275.2938606064576 22.50022061832594 0  280.2938609995527 22.50024997812918 0  285.2938613232091 22.50027928744483 0  290.2938615791752 22.50030849840162 0  295.2938617707475 22.5003375667676
[...]
<PointData  Vectors="v"> 
<DataArray  type="Float64"  Name="v"  NumberOfComponents="3" format="ascii">1.0986027004115639e+00 7.6633956890928063e+00 0.0000000000000000e+00  1.6560292246155088e+00 7.1781642759050488e+00 0.0000000000000000e+00  1.5256489075562740e+00 6.3422975522883798e+00 0.0000000000000000e+00  1.0956268454846534e+00 7.0186476137083265e+00 0.0000000000000000e+00  2.3502546722655637e+00 7.7587535871783775e+00 0.0000000000000000e+00  2.0826446627076760e+00 6.7183867436621174e+00 0.0000000000000000e+00  2.9718165415462003e+00 8.7800666929335698e+00 0.0000000000000000e+00  2.7756235182045419e+00 7.8492595207455285e+00 0.0000000000000000e+00  3.5157565968798150e+00 9.0931400373090074e+00 0.0000000000000000e+00  3.3951974713849085e+00 8.2795329894011154e+00 0.0000000000000000e+00  4.1973584366263550e+00 9.9670681526958003e+00 0.0000000000000000e+00  3.9363571303818854e+00 8.9476679856348280e+00 0.0000000000000000e+00  4.7367546257046467e+00 1.0321699517598063e+01 0.0000000000000000e+00  4.6142581131443476e+00 9.5162331936455473e+00 0.0000000000000000e+00  4.8157345929877646e+00 1.0058082093702284e+01 0.0000000000000000e+00  5.1491277666404622e+00 9.9440226413071180e+00 0.0000000000000000e+00  5.8998844604394893e+00 1.1154458807153722e+01 0.0000000000000000e+00  5.2228311510064209e+00 9.5333228393312588e+00 0.0000000000000000e+00  2.7950953446309490e+00 5.9917095101873397e+00 0.0000000000000000e+00  6.3007622533205074e+00 1.0654738768411450e+01 0.0000000000000000e+00  1.3914112503510864e+01 2.1872619482716694e+01 0.0000000000000000e+00  3.1890204129176127e+00 5.2000484987000934e+00 0.0000000000000000e+00  1.3594629234416008e+01 2.0099241564146496e+01 0.0000000000000000e+00  1.4300585614498864e+01 2.0585712678109466e+01 0.0000000000000000e+00  1.3672003745777770e+01 1.8780231421688946e+01 0.0000000000000000e+00  1.3972572020912391e+01 1.8672404432467676e+01 0.0000000000000000e+00  1.4203224865144399e+01 1.8113513351812301e+01 0.0000000000000000e+00  1.4040120956210803e+01 1.7326236715570801e+01 0.0000000000000000e+00  1.5143453817456180e+01 1.8080972017179448e+01 0.0000000000000000e+00  1.4560147521248950e+01 1.6681532951512576e+01 0.0000000000000000e+00  1.6393682543955382e+01 1.8472576890415130e+01 0.0000000000000000e+00  1.5487336819104030e+01 1.6609172980255124e+01 0.0000000000000000e+00  1.7860280364348217e+01 1.9081309588975774e+01 0.0000000000000000e+00  1.6723048722734763e+01 1.6894781838938947e+01 0.0000000000000000e+00  1.9452665408538259e+01 1.9968326477867080e+01 0.0000000000000000e+00  1.8173797836410230e+01 1.7594369960451477e+01 0.0000000000000000e+00  2.1080384481722945e+01 2.0707355346701814e+01 0.0000000000000000e+00  1.9748480387927906e+01 1.8281223324945191e+01 0.0000000000000000e+00  2.2666721461358161e+01 2.1331812480580172e+01 0.0000000000000000e+00  2.1357346583747994e+01 1.8969177276390365e+01 0.0000000000000000e+00  2.4148105256654027e+01 2.1679929109492477e+01 0.0000000000000000e+00  2.2923497979216549e+01 1.9475523887380135e+01 0.0000000000000000e+00  2.5469105876558004e+01 2.1715246205194678e+01 0.0000000000000000e+00  2.4383447097190118e+01 1.9752368445944018e+01 0.0000000000000000e+00  2.6593974796667091e+01 2.0986416265624790e+01 0.0000000000000000e+00  2.5681599729781119e+01 1.9318231963260523e+01 0.0000000000000000e+00  2.7509069299899874e+01 2.0267681750278470e+01 0.0000000000000000e+00  2.6783623701499099e+01 1.8915652185183312e+01 0.0000000000000000e+00  2.8208735838916766e+01 1.8120690108986444e+01 0.0000000000000000e+00  2.7673469844831551e+01 1.7090661690582788e+01 0.0000000000000000e+00  2.8714930976752932e+01 1.6450769162722672e+01 0.0000000000000000e+00  2.8349625074405722e+01 1.5713919499623215e+01 0.0000000000000000e+00  2.9046452197606417e+01 1.2771405257313029e+01 0.0000000000000000e+00  2.8828542047297194e+01 1.2292982184587673e+01 0.0000000000000000e+00  2.9247299353790766e+01 1.0112040065232993e+01 0.0000000000000000e+00  2.9137333543621487e+01 9.8352805062223361e+00 0.0000000000000000e+00  2.9342344361026832e+01 5.2268061584571441e+00 0.0000000000000000e+00  2.9308825891995898e+01 5.1009998346002483e+00 0.0000000000000000e+00  2.9381791578868370e+01 1.2701032017339358e+00 0.0000000000000000e+00  2.9383384536916829e+01 1.2380312616821567e+00 0.0000000000000000e+00  2.9389262611000756e+01 -3.0690045185046778e-09 0.0000000000000000e+00  2.9389916195971963e+01 6.8474907050786844e-04 0.0000000000000000e+00  2.9389262614634703e+01 -3.2438939688254383e-19 0.0000000000000000e+00  2.0124890713929368e+01 -7.1159124279553980e+00 0.0000000000000000e+00  2.9383848692141093e+01 6.7549839254729784e+00 0.0000000000000000e+00  2.9389904731282748e+01 -6.5390663417974550e-04 0.0000000000000000e+00  2.0749869721413379e+01 -1.3369054217081379e+01 0.0000000000000000e+00  2.0152973563231587e+01 -1.4346488360556870e+01 0.0000000000000000e+00  1.7730703890787012e+01 -2.0809944827808053e+01 0.0000000000000000e+00  2.0815504325234201e+01 -1.6311665905595582e+01 0.0000000000000000e+00  1.6953944029841274e+01 -2.2284699625774927e+01 0.0000000000000000e+00  1.7834599040501455e+01 -2.1154313061380776e+01 0.0000000000000000e+00  1.5274217154014188e+01 -2.5062078025823620e+01 0.0000000000000000e+00  1.7095404949492181e+01 -2.2575350376578236e+01 0.0000000000000000e+00  1.4062865992726321e+01 -2.5274747149335195e+01 0.0000000000000000e+00  1.5452661456974706e+01 -2.3491403897426846e+01 0.0000000000000000e+00  1.2768341388448601e+01 -2.5353977876654287e+01 0.0000000000000000e+00  1.4278588405262727e+01 -2.3444608413100877e+01 0.0000000000000000e+00  1.1652943570738472e+01 -2.4302096687102956e+01 0.0000000000000000e+00  1.3020521931284712e+01 -2.2661962246079188e+01 0.0000000000000000e+00  1.0325330432393924e+01 -2.3134629317364233e+01 0.0000000000000000e+00  1.1941208466005088e+01 -2.1175482662644971e+01 0.0000000000000000e+00  9.3698652407820866e+00 -2.1293873795449382e+01 0.0000000000000000e+00  1.0649498560517422e+01 -1.9892752247071027e+01 0.0000000000000000e+00  8.5864989105860978e+00 -1.9439529282828143e+01 0.0000000000000000e+00  9.7294762426891293e+00 -1.8296350182534987e+01 0.0000000000000000e+00  7.7345908320377976e+00 -1.7747242078392350e+01 0.0000000000000000e+00  8.9811748580284974e+00 -1.6500977076212198e+01 0.0000000000000000e+00  6.9277736430165335e+00 -1.6148664667260199e+01 0.0000000000000000e+00  8.1641298447332389e+00 -1.4969654345310950e+01 0.0000000000000000e+00  6.1699116788121362e+00 -1.4733545487992918e+01 0.0000000000000000e+00  7.3917624567745674e+00 -1.3627773551488911e+01 0.0000000000000000e+00  5.4244341587397997e+00 -1.3438723378182150e+01 0.0000000000000000e+00  6.6679817070264491e+00 -1.2351178866340531e+01 0.0000000000000000e+00  4.7462113699958568e+00 -1.2198524095175811e+01 0.0000000000000000e+00  5.9562800610703412e+00 -1.1211527901877451e+01 0.0000000000000000e+00  4.1429909243924907e+00 -1.1060652171072435e+01 0.0000000000000000e+00  5.3114451684469346e+00 -1.0185872739600455e+01 0.0000000000000000e+00  3.5772847771793979e+00 -9.9725829953891054e+00 0.0000000000000000e+00  4.7411999337980122e+00 -9.1537812674470764e+00 0.0000000000000000e+00  3.0744118530948188e+00 -8.9103384099216907e+00 0.0000000000000000e+00  4.2081879479910871e+00 -8.1854059856365211e+00 0.0000000000000000e+00  2.6433860974081553e+00 -7.9130966767443658e+00 0.0000000000000000e+00  3.7375445886366498e+00 -7.2957468595752237e+00 0.0000000000000000e+00  2.2481535496076757e+00 -6.9094810559887927e+00 0.0000000000000000e+00  3.3385207800269434e+00 -6.3453716673572433e+00 0.0000000000000000e+00  1.9071257766581138e+00 -5.9749892751069540e+00 0.0000000000000000e+00  2.9747298143742693e+00 -5.4921363775966263e+00 0.0000000000000000e+00  1.6198645917329118e+00 -5.0224831269444339e+00 0.0000000000000000e+00  2.6651945357034252e+00 -4.6195870623262882e+00 0.0000000000000000e+00  1.3670578711643051e+00 -4.2079582563395466e+00 0.0000000000000000e+00  2.4083844425581691e+00 -3.8572126789733372e+00 0.0000000000000000e+00  1.1487190302225496e+00 -3.2696489214459392e+00 0.0000000000000000e+00  2.1869458725861737e+00 -2.9690413584571385e+00 0.0000000000000000e+00  9.5760528028251424e-01 -2.7322601669483397e+00 0.0000000000000000e+00  1.9975714143764569e+00 -2.4744670559477409e+00 0.0000000000000000e+00  7.8120253850130095e-01 -1.7826052734442770e+00 0.0000000000000000e+00  1.8385803720981115e+00 -1.5429288043794418e+00 0.0000000000000000e+00  5.4328510915487171e-01 -1.7260801217309467e+00 0.0000000000000000e+00  1.6882511582485260e+00 -1.4001231070040210e+00 0.0000000000000000e+00  1.8244677114040209e-01 -1.2021271995328644e+00 0.0000000000000000e+00  1.4865100388978703e+00 -6.8068070588390295e-01 0.0000000000000000e+00  -6.6129122743652968e-01 -7.3670226878030133e-03 0.0000000000000000e+00  1.1401356874573194e+00 1.2168612455309296e+00 0.0000000000000000e+00  1.8031650039930702e+00 5.6969078521339611e+00 0.0000000000000000e+00  1.3292637746784397e+00 6.3087720753356828e+00 0.0000000000000000e+00  2.2335068533928397e+00 5.8829682856615699e+00 0.0000000000000000e+00  2.7899740555599482e+00 6.8106278463654943e+00 0.0000000000000000e+00  3.4812046066142872e+00 7.3518177924895038e+00 0.0000000000000000e+00  4.0975991422566524e+00 8.1383417927587498e+00 0.0000000000000000e+00  4.6341282144314730e+00 8.5028273468544118e+00 0.0000000000000000e+00  5.3057608558510063e+00 9.1462405887670357e+00 0.0000000000000000e+00  5.8326017458197512e+00 9.4280427100178610e+00 0.0000000000000000e+00  5.8968058370863545e+00 9.0441451746331687e+00 0.0000000000000000e+00  6.9637426024304512e+00 9.8749577493392469e+00 0.0000000000000000e+00  3.8402554718865001e+00 3.9242501565014751e+00 0.0000000000000000e+00  1.4941099970674864e+01 1.9170896469748367e+01 0.0000000000000000e+00  1.4601936050687305e+01 1.7232796759289691e+01 0.0000000000000000e+00  1.4655868770791113e+01 1.5910492638707602e+01 0.0000000000000000e+00  1.5159621613573078e+01 1.5229815184084089e+01 0.0000000000000000e+00  1.6066915570628133e+01 1.5054682311860237e+01 0.0000000000000000e+00  1.7279204815446885e+01 1.5433156581301812e+01 0.0000000000000000e+00  1.8703511737413795e+01 1.5936548740603534e+01 0.0000000000000000e+00  2.0248174094260754e+01 1.6575305369316347e+01 0.0000000000000000e+00  2.1823589080037628e+01 1.7146771667419550e+01 0.0000000000000000e+00  2.3353657317026180e+01 1.7585650586171422e+01 0.0000000000000000e+00  2.4773988528646317e+01 1.7395413280687606e+01 0.0000000000000000e+00  2.6029878039012054e+01 1.7288820383821335e+01 0.0000000000000000e+00  2.7087024383334406e+01 1.5782671009538740e+01 0.0000000000000000e+00  2.7930261990431234e+01 1.4729798966458342e+01 0.0000000000000000e+00  2.8556788537357356e+01 1.1600959748693185e+01 0.0000000000000000e+00  2.8987858472420417e+01 9.4064207782689895e+00 0.0000000000000000e+00  2.9243722338137104e+01 4.8652234886575583e+00 0.0000000000000000e+00  2.9371273403427391e+01 1.1664498369012359e+00 0.0000000000000000e+00  2.9391483893915673e+01 1.3052682299586863e-03 0.0000000000000000e+00  2.9362807057912395e+01 6.8173457403167426e+00 0.0000000000000000e+00  2.9391462851180872e+01 -1.2860128389200840e-03 0.0000000000000000e+00  2.9301255555677766e+01 -5.1280268936445639e-01 0.0000000000000000e+00  2.0104630358613043e+01 -1.7332427634441615e+01 0.0000000000000000e+00  2.0811628489683670e+01 -1.6708427473873357e+01 0.0000000000000000e+00  1.7873214173355390e+01 -2.1492931920124796e+01 0.0000000000000000e+00  1.7177012935009959e+01 -2.1050272844791124e+01 0.0000000000000000e+00  1.5573802385682610e+01 -2.1707904598915910e+01 0.0000000000000000e+00  1.4439114663341675e+01 -2.0797188553600598e+01 0.0000000000000000e+00  1.3218172181042199e+01 -1.9578051951115729e+01 0.0000000000000000e+00  1.2174689071382826e+01 -1.7976381018977143e+01 0.0000000000000000e+00  1.0917884909141547e+01 -1.6936944685177721e+01 0.0000000000000000e+00  1.0031970486859706e+01 -1.5398481728123249e+01 0.0000000000000000e+00  9.3169546207133358e+00 -1.3764034375159175e+01 0.0000000000000000e+00  8.5328489427043070e+00 -1.2488755311812824e+01 0.0000000000000000e+00  7.7928542089271735e+00 -1.1284604333931139e+01 0.0000000000000000e+00  7.1008303763165577e+00 -1.0162890888033589e+01 0.0000000000000000e+00  6.4204018688063744e+00 -9.2371347010521543e+00 0.0000000000000000e+00  5.8062272434075011e+00 -8.3165132528005969e+00 0.0000000000000000e+00  5.2659936518212431e+00 -7.4036756631568288e+00 0.0000000000000000e+00  4.7624077254008963e+00 -6.6072443809206680e+00 0.0000000000000000e+00  4.3205959919944412e+00 -5.7637772017622195e+00 0.0000000000000000e+00  3.9497013894474251e+00 -4.9632846419349015e+00 0.0000000000000000e+00  3.6135656099227331e+00 -4.1714037739044434e+00 0.0000000000000000e+00  3.3308961115253504e+00 -3.4883106064630884e+00 0.0000000000000000e+00  3.1006261459382318e+00 -2.6518923603362592e+00 0.0000000000000000e+00  2.9046288239270006e+00 -2.2067870244207253e+00 0.0000000000000000e+00  2.7410241443569623e+00 -1.3173160532731654e+00 0.0000000000000000e+00  2.6054716400150362e+00 -1.1925863617706969e+00 0.0000000000000000e+00  2.4807729540101850e+00 -3.8717763926942766e-01 0.0000000000000000e+00  2.3005025002068904e+00 1.7169475045970153e+00 0.0000000000000000e+00  2.5162724495442892e+00 4.9852431440939453e+00 0.0000000000000000e+00  2.0881153411447642e+00 5.6680213897700433e+00 0.0000000000000000e+00  2.9913887491391655e+00 5.2365884674351086e+00 0.0000000000000000e+00  3.4230009902753107e+00 5.9762406579014655e+00 0.0000000000000000e+00  3.9789403180317198e+00 6.3167336692152087e+00 0.0000000000000000e+00  4.6676328843309474e+00 7.2172338929660835e+00 0.0000000000000000e+00  5.2790584630685444e+00 7.7037172847562365e+00 0.0000000000000000e+00  5.8075209407008428e+00 8.1465301102611534e+00 0.0000000000000000e+00  6.4680761329997543e+00 8.6478428458475953e+00 0.0000000000000000e+00  6.9807203629127983e+00 8.9602936841531413e+00 0.0000000000000000e+00  7.0275516058057574e+00 8.2885621819870714e+00 0.0000000000000000e+00  8.0753278126999657e+00 8.6239389833553819e+00 0.0000000000000000e+00  4.9339807368609154e+00 2.5312128835362668e+00 0.0000000000000000e+00  1.6020429730166892e+01 1.7752620673701891e+01 0.0000000000000000e+00  1.5667230798451104e+01 1.5843717585012159e+01 0.0000000000000000e+00  1.5702873326739674e+01 1.4492515462544128e+01 0.0000000000000000e+00  1.6181911775113100e+01 1.3716624040061866e+01 0.0000000000000000e+00  1.7057747776905682e+01 1.3642715912514154e+01 0.0000000000000000e+00  1.8231677580845528e+01 1.3833029335453864e+01 0.0000000000000000e+00  1.9610273855999917e+01 1.4295919554850096e+01 0.0000000000000000e+00  2.1102352646895373e+01 1.4826131285272810e+01 0.0000000000000000e+00  2.2618549509676864e+01 1.5338161623331960e+01 0.0000000000000000e+00  2.4081921677710476e+01 1.5316278291294216e+01 0.0000000000000000e+00  2.5429479272814369e+01 1.5462143031790250e+01 0.0000000000000000e+00  2.6605554204786955e+01 1.4256278257133628e+01 0.0000000000000000e+00  2.7578267223865407e+01 1.3530514349074309e+01 0.0000000000000000e+00  2.8330328626830354e+01 1.0724362384012737e+01 0.0000000000000000e+00  2.8865874509290830e+01 8.8335964523753034e+00 0.0000000000000000e+00  2.9198554402213432e+01 4.5379549507353723e+00 0.0000000000000000e+00  2.9368628255753435e+01 1.0591914530574691e+00 0.0000000000000000e+00  2.9393932770721786e+01 1.8678354273786845e-03 0.0000000000000000e+00  2.9344487471688325e+01 6.9784772294934534e+00 0.0000000000000000e+00  2.9393914026540088e+01 -1.8402747656968935e-03 0.0000000000000000e+00  2.9151842928711265e+01 -3.9043766476553921e-01 0.0000000000000000e+00  2.9080570582455326e+01 -3.5786576202567462e+00 0.0000000000000000e+00  1.9941618753835812e+01 -1.7824139577402693e+01 0.0000000000000000e+00  2.0721114902619551e+01 -1.7136000655951893e+01 0.0000000000000000e+00  1.7851785251166113e+01 -2.0058006748761301e+01 0.0000000000000000e+00  1.7221545523297184e+01 -1.9349342259866191e+01 0.0000000000000000e+00  1.5678971575531168e+01 -1.9140118383912565e+01 0.0000000000000000e+00  1.4601654062274921e+01 -1.7788494731518629e+01 0.0000000000000000e+00  1.3433750115567666e+01 -1.6451078492207316e+01 0.0000000000000000e+00  1.2440783232482552e+01 -1.5089884897818976e+01 0.0000000000000000e+00  1.1232276970810023e+01 -1.4106874538734766e+01 0.0000000000000000e+00  1.0393137784623706e+01 -1.2727782690648182e+01 0.0000000000000000e+00  9.7239127677508925e+00 -1.1348301955890570e+01 0.0000000000000000e+00  8.9848440621329217e+00 -1.0209762969644450e+01 0.0000000000000000e+00  8.2890286660640129e+00 -9.1593343425310874e+00 0.0000000000000000e+00  7.6403893439500621e+00 -8.2502547632812551e+00 0.0000000000000000e+00  7.0023942964555861e+00 -7.4283472773645940e+00 0.0000000000000000e+00  6.4296345279831524e+00 -6.6255669768682299e+00 0.0000000000000000e+00  5.9297368853027539e+00 -5.8833791005165530e+00 0.0000000000000000e+00  5.4654483394580744e+00 -5.1316609837400415e+00 0.0000000000000000e+00  5.0616962271501151e+00 -4.4369374170889735e+00 0.0000000000000000e+00  4.7279420354110213e+00 -3.6959977292673050e+00 0.0000000000000000e+00  4.4274875822662167e+00 -3.0929449593871765e+00 0.0000000000000000e+00  4.1798924161030682e+00 -2.3331939410326106e+00 0.0000000000000000e+00  3.9826550654615978e+00 -1.9405639069051710e+00 0.0000000000000000e+00  3.8200028286524912e+00 -1.0954249157725235e+00 0.0000000000000000e+00  3.6857461433523144e+00 -1.0179111452588614e+00 0.0000000000000000e+00  3.5838014668841516e+00 -2.1802470607343943e-01 0.0000000000000000e+00  3.4800253985020313e+00 1.9571893269161653e+00 0.0000000000000000e+00  3.4361375298468677e+00 4.3417305155425785e+00 0.0000000000000000e+00  3.0461040070134624e+00 5.0850111370707038e+00 0.0000000000000000e+00  3.8662991857497468e+00 4.5218807564654417e+00 0.0000000000000000e+00  4.3447268804867774e+00 5.3267466609538658e+00 0.0000000000000000e+00  4.7791953951286086e+00 5.4818142400589700e+00 0.0000000000000000e+00  5.3364368525726595e+00 6.1849989530942358e+00 0.0000000000000000e+00  6.0237174945825638e+00 6.7895819329900684e+00 0.0000000000000000e+00  6.6303617407109705e+00 7.3597042194915918e+00 0.0000000000000000e+00  7.1500569510164471e+00 7.6659765248265721e+00 0.0000000000000000e+00  7.7973529689532519e+00 8.2033371490934126e+00 0.0000000000000000e+00  8.2924022607146295e+00 8.2331815315395520e+00 0.0000000000000000e+00  8.3185788545990658e+00 7.0679331313976324e+00 0.0000000000000000e+00  9.3456647743028523e+00 7.2561528721440762e+00 0.0000000000000000e+00  6.1892747001079815e+00 1.1295485901520153e+00 0.0000000000000000e+00  1.7268640873275054e+01 1.6378549700215295e+01 0.0000000000000000e+00  1.6909218183080458e+01 1.4447826040088760e+01 0.0000000000000000e+00  1.6932486819532016e+01 1.3013029618519225e+01 0.0000000000000000e+00  1.7390192205701137e+01 1.2351297021116556e+01 0.0000000000000000e+00  1.8233914540819608e+01 1.2101487579871563e+01 0.0000000000000000e+00  1.9365354255463114e+01 1.2265214443329596e+01 0.0000000000000000e+00  2.0690772369058674e+01 1.2632572553354064e+01 0.0000000000000000e+00  2.2118656020908990e+01 1.3116040649205509e+01 0.0000000000000000e+00  2.3559659181920001e+01 1.3180726133627067e+01 0.0000000000000000e+00  2.4937406736704308e+01 1.3509027752191493e+01 0.0000000000000000e+00  2.6187312597986161e+01 1.2565418960691048e+01 0.0000000000000000e+00  2.7257103186069482e+01 1.2155004745865195e+01 0.0000000000000000e+00  2.8111951338046694e+01 9.6790685817272557e+00 0.0000000000000000e+00  2.8743434185844439e+01 8.1270748567034516e+00 0.0000000000000000e+00  2.9147085975832908e+01 4.1167868930180509e+00 0.0000000000000000e+00  2.9361997045179717e+01 9.1481243726753114e-01 0.0000000000000000e+00  2.9397169038804748e+01 2.3696096272297694e-03 0.0000000000000000e+00  2.9330404550103108e+01 7.2276856241612322e+00 0.0000000000000000e+00  2.9397151614850507e+01 -2.3316826798578721e-03 0.0000000000000000e+00  2.9032349023584374e+01 5.7494294732894496e-03 0.0000000000000000e+00  2.8736580473455195e+01 -3.44881333273