<?xml version="1.0"?>
<VTKFile type="UnstructuredGrid"  version="0.1"  >
<UnstructuredGrid>
<Piece  NumberOfPoints="1933" NumberOfCells="3640">
<Points>
<DataArray  type="Float64"  NumberOfComponents="3"  format="ascii">0.4752947266365578 0.001286790683784303 0  5.475294756702223 0.00122295940458274 0  5.475390571420502 7.501223074588685 0  0.4753904989104216 7.501286830897789 0  10.47529478556437 0.001159012270382941 0  10.47539070975244 7.501159156563365 0  15.4752948749197 0.001094868738634599 0  15.47539095197672 7.501095023548925 0  20.47529509832735 0.001030504643419504 0  20.4753913368556 7.501030662617435 0  25.4752955283263 0.0009659307050755425 0  25.47539190437612 7.500966089536812 0  30.47529623269596 0.0009011800940670665 0  30.47539269492944 7.500901339833574 0  35.47529727448989 0.0008363011969786582 0  35.47539374872085 7.500836463018263 0  40.47529871355223 0.0007713536770744688 0  40.47539510563337 7.50077151931549 0  45.47530060853384 0.0007064067407439809 0  45.47539680544067 7.500706578253549 0  50.47530301900556 0.0006415389727345176 0  50.47539888820831 7.500641718660744 0  55.47530600752825 0.0005768393888242254 0  55.47540139474793 7.500577029800819 0  60.47530964164843 0.0005124095515342534 0  60.47540436700832 7.500512613532415 0  65.47531399583706 0.000448366744588329 0  65.47540784829391 7.500448587506052 0  70.47531915338782 0.0003848483337800363 0  70.47541188319306 7.500385089531196 0  75.47532520828381 0.0003220175793405116 0  75.47541651705647 7.500322283372169 0  80.47533226699453 0.0002600713319286551 0  80.47542179479768 7.500260366383436 0  85.47534045009326 0.0001992502707502401 0  85.47542775868608 7.500199579592562 0  90.47534989343545 0.0001398526703810254 0  90.47543444462961 7.500140221110022 0  95.47536074837502 8.22531771917088e-05 0  95.47544187621418 7.500082664121877 0  100.4753731799673 2.692883856894818e-05 0  100.4754500554498 7.500027381240088 0  105.4753873611212 -2.550418114810377e-05 0  105.4754589487662 7.499974977676574 0  110.475403458706 -7.423789536174612e-05 0  110.4754684664307 7.499926236547309 0  115.4754216038388 -0.0001181955799701401 0  115.4754784335024 7.49988218043362 0  120.4754418310911 -0.0001559179630673062 0  120.4754885515483 7.499844153546695 0  125.475463956606 -0.0001853933501227441 0  125.4754983547926 7.499813926904904 0  130.475487335786 -0.0002038043875262367 0  130.4755071772651 7.499793821144016 0  135.4755103824679 -0.0002071594544291253 0  135.4755141810767 7.499786820403311 0  140.4755296110946 -0.0001898035218382482 0  140.4755185792831 7.499796606368049 0  145.4755377014777 -0.0001440078956833406 0  145.4755203950302 7.499827396788519 0  150.4755194277441 -6.100349877545098e-05 0  150.4755226600265 7.499883743512073 0  160.4755282581478 8.234123282038473e-19 0  165.4753801401115 -0.0002027653437571555 0  165.4755025103327 7.499766969734208 0  160.4755462329105 7.49992840805007 0  170.475298202569 -0.0003766915266403508 0  170.4754580974309 7.499608018936507 0  175.4752519036146 -0.0005297564053282178 0  175.4754214111231 7.49946179216357 0  180.4752256564237 -0.0006664612775537867 0  180.4753933352452 7.499328639031573 0  185.4752110559671 -0.0007902863476734678 0  185.4753726835309 7.499206780064233 0  190.4752034053599 -0.0009039909511812847 0  190.4753578966271 7.49909420492396 0  195.4751999985669 -0.001009715758294291 0  195.4753475651134 7.498989148237643 0  200.4751992283521 -0.001109098456840418 0  200.4753405532475 7.498890172151027 0  205.4752001097116 -0.00120338900254025 0  205.4753359889137 7.498796136428106 0  210.4752020196912 -0.00129354699415796 0  210.4753332164468 7.498706142980526 0  215.4752045522577 -0.001380317027255243 0  215.4753317467079 7.498619482369588 0  220.4752074354056 -0.001464284529952873 0  220.4753312149948 7.498535589685329 0  225.4752104825538 -0.001545916366515574 0  225.4753313484981 7.498454010320189 0  230.4752135632298 -0.001625590234376112 0  230.4753319421194 7.498374374088571 0  235.4752165848637 -0.001703616040258708 0  235.4753328408342 7.498296375817045 0  240.4752194811556 -0.001780251596352547 0  240.4753339269078 7.498219760766133 0  245.4752222044521 -0.001855714297566472 0  245.4753351106449 7.498144313602165 0  250.4752247206456 -0.001930189940042847 0  250.4753363236797 7.498069849965592 0  255.4752270057318 -0.002003839486583781 0  255.4753375141057 7.497996209944637 0  260.4752290434937 -0.002076804336646704 0  260.4753386429369 7.497923252960724 0  265.4752308240194 -0.002149210482997908 0  265.4753396815584 7.497850853720248 0  270.4752323428563 -0.002221171806694949 0  270.4753406099135 7.497778899001502 0  275.4752336007311 -0.002292792654296059 0  275.4753414152482 7.497707285141094 0  280.4752346037999 -0.00236416973383158 0  280.4753420912775 7.497635916176452 0  285.4752353644533 -0.002435393231705446 0  285.4753426376561 7.497564702706303 0  290.4752359026888 -0.00250654684813274 0  290.4753430596258 7.497493561667492 0  295.4752362480444 -0.00257770609738957 0  295.475343367747 7.497422417415586 0  300.4752364418206 -0.002648933573375906 0  300.4753435776163 7.497351204754479 0  305.4752365387473 -0.002720268647500145 0  305.475343709776 7.497279874872247 0  310.4752366056133 -0.002791706679091051 0  310.4753437908448 7.497208405425785 0  5.475485985102421 15.00122335169362 0  0.4754859023147721 15.00128693324108 0  10.47548613388456 15.00115949868228 0  15.47548638359912 15.00109538060393 0  20.47548675946284 15.00103101486144 0  25.47548728313844 15.00096643203897 0  30.47548797522616 15.00090167462527 0  35.47548885602629 15.00083679520834 0  40.47548994558193 15.00077185522046 0  45.47549126344386 15.00070692453553 0  50.47549282831218 15.00064208195217 0  55.47549465757278 15.0005774165389 0  60.47549676667968 15.00051302984383 0  65.47549916830019 15.00044903902824 0  70.47550187111064 15.00038558105574 0  75.47550487811036 15.00032281815338 0  80.47550818429141 15.00026094485857 0  85.47551177348647 15.0002001970777 0  90.47551561421379 15.00014086370746 0  95.4755196544038 15.00008330148597 0  100.4755238150597 15.00002795380168 0  105.4755279833681 14.99997537406667 0  110.4755320066928 14.99992625368923 0  115.4755356907677 14.99988145308367 0  120.4755388088311 14.99984203036536 0  125.4755411344404 14.99980925407458 0  130.4755425201685 14.99978456891804 0  135.4755430571875 14.99976944817601 0  140.4755433613427 14.99976499390817 0  145.4755450150181 14.9997709833018 0  150.4755510562235 14.99978359206578 0  165.4755726271655 14.99968392866213 0  160.4755793906596 14.99980028545475 0  170.4755570847829 14.99955764468561 0  175.4755382274742 14.99943142083777 0  180.4755197281897 14.99931010968069 0  185.4755033249656 14.99919526153641 0  190.4754895910478 14.99908688678008 0  195.4754785094563 14.99898439155521 0  200.4754698056038 14.99888701096114 0  205.4754631211665 14.99879399256189 0  210.4754580975668 14.99870466382036 0  215.4754544114053 14.9986184482457 0  220.4754517857531 14.99853486060774 0  225.475449990158 14.99845349498819 0  230.475448835971 14.99837401160412 0  235.4754481702662 14.99829612471805 0  240.4754478698218 14.99821959233507 0  245.4754478357737 14.99814420771399 0  250.4754479891125 14.99806979247574 0  255.475448266996 14.99799619103381 0  260.4754486197882 14.99792326609237 0  265.4754490086919 14.99785089500152 0  270.4754494038712 14.99777896681327 0  275.4754497829476 14.99770737993208 0  280.475450129774 14.99763604030353 0  285.4754504334314 14.99756486012736 0  290.4754506873743 14.9974937571073 0  295.4754508888018 14.99742265422221 0  300.4754510383973 14.99735147983076 0  305.4754511409372 14.99728016735277 0  310.4754512076956 14.99720865215249 0  5.475580919651254 22.50122393771133 0  0.4755808368396512 22.50128734031361 0  10.47558104768822 22.5011601531924 0  15.4755812481132 22.5010960456138 0  20.47558153725956 22.5010316651001 0  25.47558192543243 22.50096706107773 0  30.47558241976105 22.50090228615291 0  35.47558302555473 22.50083739788325 0  40.4755837467032 22.500772459749 0  45.4755845855076 22.50070754203745 0  50.47558554216923 22.50064272300546 0  55.47558661404128 22.50057809050962 0  60.47558779467968 22.50051374422186 0  65.4755890726852 22.50044979853264 0  70.4755904303139 22.50038638625357 0  75.47559184183565 22.50032366325407 0  80.4755932716491 22.50026181418418 0  85.47559467222257 22.50020105943711 0  90.47559598205591 22.5001416634582 0  95.47559712407525 22.50008394436643 0  100.4755980052409 22.50002828452312 0  105.4755985187461 22.49997514100241 0  110.4755985511033 22.49992505359269 0  115.475597997715 22.49987864550938 0  120.475596792157 22.49983660764462 0  125.4755949559404 22.49979964976692 0  130.4755926755698 22.4997683901537 0  135.4755904088575 22.49974313758879 0  140.4755890050132 22.49972349847372 0  145.4755897778283 22.49970773299356 0  150.4755943736703 22.4996918680646 0  165.4756294225194 22.49959160065985 0  160.4756189617217 22.49968044881796 0  170.4756314881795 22.4994907625345 0  175.4756276027375 22.49938462925791 0  180.4756203131005 22.49927782852388 0  185.4756115986536 22.49917302959366 0  190.4756027455984 22.49907149472092 0  195.4755944830777 22.49897363688943 0  200.4755871612781 22.49887941289344 0  205.47558089677 22.49878856198436 0  210.4755756735255 22.49870073892447 0  215.4755714074209 22.49861558317816 0  220.4755679850558 22.49853275196749 0  225.4755652858779 22.49845193384644 0  230.4755631939874 22.49837285227267 0  235.475561603818 22.49829526436877 0  240.4755604223143 22.49821895762535 0  245.4755595692047 22.498143745947 0  250.4755589762988 22.49806946571754 0  255.4755585863575 22.49799597217972 0  260.4755583518086 22.49792313623477 0  265.4755582334797 22.49785084167565 0  270.4755581993991 22.49777898282944 0  275.4755582237007 22.49770746257059 0  280.4755582856332 22.49763619065848 0  285.4755583686835 22.49756508233449 0  290.4755584598376 22.49749405706164 0  295.4755585490699 22.49742303716104 0  300.475558629171
[...]
<PointData  Vectors="v"> 
<DataArray  type="Float64"  Name="v"  NumberOfComponents="3" format="ascii">4.3368322501579639e+00 3.1246741347885290e+00 0.0000000000000000e+00  4.5359374711043872e+00 2.5990311246583473e+00 0.0000000000000000e+00  3.8381277523222912e+00 2.3005333755983086e+00 0.0000000000000000e+00  3.6794992376301980e+00 2.8861611957284006e+00 0.0000000000000000e+00  4.7209110006671660e+00 2.4454718527152948e+00 0.0000000000000000e+00  4.0369103643771744e+00 2.1682007544963260e+00 0.0000000000000000e+00  4.7999475424036167e+00 2.3445975155013175e+00 0.0000000000000000e+00  4.2214200247857958e+00 2.2265008143604210e+00 0.0000000000000000e+00  4.7781659180269882e+00 1.8276238080376026e+00 0.0000000000000000e+00  4.2997490309994442e+00 1.8606786935444388e+00 0.0000000000000000e+00  4.7937864752370070e+00 1.5268724033330106e+00 0.0000000000000000e+00  4.2771086545339942e+00 1.5037587927375906e+00 0.0000000000000000e+00  4.7316467083948384e+00 9.9055863954478129e-01 0.0000000000000000e+00  4.2921157998904977e+00 1.0841382224700853e+00 0.0000000000000000e+00  4.6082286952266163e+00 4.0551271822265866e-01 0.0000000000000000e+00  4.2293831612784860e+00 5.9058187079731361e-01 0.0000000000000000e+00  4.7789847968809989e+00 2.2015743169007507e-01 0.0000000000000000e+00  4.1055925833988214e+00 -3.6300693658533681e-02 0.0000000000000000e+00  4.7546340376570679e+00 -2.4235000391753411e-01 0.0000000000000000e+00  4.2765615117003914e+00 -2.0633678683782555e-01 0.0000000000000000e+00  7.2540147087188922e+00 3.0252378317700988e+00 0.0000000000000000e+00  4.2528683145379107e+00 -7.2501906794206394e-01 0.0000000000000000e+00  8.4307841932673107e+00 4.2328793059625083e+00 0.0000000000000000e+00  6.7524696649682650e+00 2.4666655910444866e+00 0.0000000000000000e+00  8.7657576280411345e+00 4.0866021763635247e+00 0.0000000000000000e+00  7.9304900147617907e+00 3.5813623073172436e+00 0.0000000000000000e+00  8.7581098859582429e+00 3.3672793070296101e+00 0.0000000000000000e+00  8.2684153530513331e+00 3.3747995714546462e+00 0.0000000000000000e+00  8.5498581668683187e+00 2.3623485971376330e+00 0.0000000000000000e+00  8.2649319123813108e+00 2.6691782348638697e+00 0.0000000000000000e+00  8.2648953681552033e+00 1.2760755710413301e+00 0.0000000000000000e+00  8.0629640529494910e+00 1.6972073297973969e+00 0.0000000000000000e+00  7.9013228667186004e+00 1.2313913260408844e-01 0.0000000000000000e+00  7.7855306971342921e+00 6.6006114619806389e-01 0.0000000000000000e+00  7.4477580988497643e+00 -1.0189706694633767e+00 0.0000000000000000e+00  7.4310269726601259e+00 -3.4872985457702577e-01 0.0000000000000000e+00  6.8931153225249266e+00 -2.2292230788640102e+00 0.0000000000000000e+00  6.9893815622777229e+00 -1.4088300141521677e+00 0.0000000000000000e+00  6.2256580116627793e+00 -3.4807529019336738e+00 0.0000000000000000e+00  6.4483123443881309e+00 -2.4942552742739506e+00 0.0000000000000000e+00  5.4464343409950589e+00 -4.7895680336025475e+00 0.0000000000000000e+00  5.7974060803263781e+00 -3.6374131070702589e+00 0.0000000000000000e+00  4.5880680959308000e+00 -6.0770153649612553e+00 0.0000000000000000e+00  5.0377710553059867e+00 -4.8093765077513435e+00 0.0000000000000000e+00  3.6907113181302100e+00 -7.4387582080385144e+00 0.0000000000000000e+00  4.2031735830510542e+00 -6.1151192360591633e+00 0.0000000000000000e+00  2.7984148795557604e+00 -8.4961212980425866e+00 0.0000000000000000e+00  3.3312899004104670e+00 -7.1855027049281839e+00 0.0000000000000000e+00  1.9807872233875679e+00 -9.6213089485340362e+00 0.0000000000000000e+00  2.4726642381982309e+00 -8.4224310116877312e+00 0.0000000000000000e+00  1.2697437085684753e+00 -9.9768505658418789e+00 0.0000000000000000e+00  1.6871446462851623e+00 -8.9484014001904892e+00 0.0000000000000000e+00  7.2419880343338294e-01 -1.0364855251602572e+01 0.0000000000000000e+00  1.0220285833052094e+00 -9.5787679502833569e+00 0.0000000000000000e+00  3.3351406672337863e-01 -9.1840482734562805e+00 0.0000000000000000e+00  5.1476239974617588e-01 -8.6492268443488545e+00 0.0000000000000000e+00  1.2316599897338930e-01 -8.1568833390734063e+00 0.0000000000000000e+00  1.8529530590655033e-01 -7.8765118270690397e+00 0.0000000000000000e+00  2.1992823377068448e-02 -3.9551580766372192e+00 0.0000000000000000e+00  1.8236498948020145e-02 -3.8710854085880420e+00 0.0000000000000000e+00  -5.1128250423034456e-09 1.1319967449913894e-10 0.0000000000000000e+00  7.4420608401156514e-04 7.1246341782719991e-04 0.0000000000000000e+00  8.5456589916779741e-11 -5.3675438881398004e-19 0.0000000000000000e+00  -1.4474593198882293e+00 7.1101776106853469e+00 0.0000000000000000e+00  2.7397048773621438e-02 9.3009446759194319e+00 0.0000000000000000e+00  7.4193799335254532e-04 -7.5352490856444383e-04 0.0000000000000000e+00  2.0084931873218720e-01 1.1843958212965388e+01 0.0000000000000000e+00  -1.4491505774080289e+00 9.4160524691363179e+00 0.0000000000000000e+00  2.0688751464991070e-01 1.1109362895520267e+01 0.0000000000000000e+00  1.6365700786687498e-01 1.1117910948236604e+01 0.0000000000000000e+00  8.1131267164004728e-01 1.1025513925853655e+01 0.0000000000000000e+00  1.3869277123713641e-01 1.0145428922227236e+01 0.0000000000000000e+00  9.9616614723165098e-01 8.8636720945726939e+00 0.0000000000000000e+00  7.1726494166562427e-01 8.6057706663625311e+00 0.0000000000000000e+00  1.2574383204560597e+00 7.2137867738561079e+00 0.0000000000000000e+00  8.7928667548603112e-01 6.8413439207661622e+00 0.0000000000000000e+00  1.4058423366087920e+00 5.3821524437693364e+00 0.0000000000000000e+00  1.1190454610446834e+00 5.1750072238206117e+00 0.0000000000000000e+00  1.5686201187535529e+00 4.0222337504560821e+00 0.0000000000000000e+00  1.2493536248182111e+00 3.7937417487323146e+00 0.0000000000000000e+00  1.6365148128555405e+00 2.9303540337683454e+00 0.0000000000000000e+00  1.3957005562288951e+00 2.8415442644077418e+00 0.0000000000000000e+00  1.7555575597814232e+00 2.3308415684307597e+00 0.0000000000000000e+00  1.4485031910156103e+00 2.1643056541704899e+00 0.0000000000000000e+00  1.9027519474239789e+00 1.9617138979169464e+00 0.0000000000000000e+00  1.5542975727844222e+00 1.7519515529354339e+00 0.0000000000000000e+00  2.0287636724070466e+00 1.7924630678442877e+00 0.0000000000000000e+00  1.6895172274046437e+00 1.6133915895406750e+00 0.0000000000000000e+00  2.1248237061930819e+00 1.7206504725336744e+00 0.0000000000000000e+00  1.8044347247536667e+00 1.5854444473627560e+00 0.0000000000000000e+00  2.1935512854534873e+00 1.6725834543979163e+00 0.0000000000000000e+00  1.8906437349331213e+00 1.5778454005919644e+00 0.0000000000000000e+00  2.2142789623643013e+00 1.6282649758005392e+00 0.0000000000000000e+00  1.9503998743337989e+00 1.6047191149645206e+00 0.0000000000000000e+00  2.2114894975277295e+00 1.5908256167248651e+00 0.0000000000000000e+00  1.9627783491990505e+00 1.6019449604010065e+00 0.0000000000000000e+00  2.1949633630184007e+00 1.5357393340327103e+00 0.0000000000000000e+00  1.9523967360080596e+00 1.5670929479620253e+00 0.0000000000000000e+00  2.1570088784128250e+00 1.4664896180698490e+00 0.0000000000000000e+00  1.9288253622254654e+00 1.5295510795777065e+00 0.0000000000000000e+00  2.1100081360178478e+00 1.3975029656185225e+00 0.0000000000000000e+00  1.8841681292210521e+00 1.4737717876957264e+00 0.0000000000000000e+00  2.0644523233219236e+00 1.2982539344440351e+00 0.0000000000000000e+00  1.8308917532205438e+00 1.3721929878217096e+00 0.0000000000000000e+00  2.0048908128972864e+00 1.2138267842246311e+00 0.0000000000000000e+00  1.7793088174185616e+00 1.3085293767111543e+00 0.0000000000000000e+00  1.9433019301314061e+00 1.0699812803408535e+00 0.0000000000000000e+00  1.7139215666465724e+00 1.1676189539244075e+00 0.0000000000000000e+00  1.8726402480965147e+00 9.7971490651497706e-01 0.0000000000000000e+00  1.6466031211522885e+00 1.0908184635737894e+00 0.0000000000000000e+00  1.7909650150858574e+00 7.2876386660443193e-01 0.0000000000000000e+00  1.5704439499050582e+00 8.5645939356832057e-01 0.0000000000000000e+00  1.6843409656795123e+00 6.7787462336545157e-01 0.0000000000000000e+00  1.4830720955074628e+00 8.4270863067911284e-01 0.0000000000000000e+00  1.5525635542772698e+00 1.9191452987377328e-01 0.0000000000000000e+00  1.3711838648646371e+00 3.9490260615689815e-01 0.0000000000000000e+00  1.3789906545165427e+00 2.9727190443384033e-01 0.0000000000000000e+00  1.2334923993767026e+00 5.6224430007547754e-01 0.0000000000000000e+00  1.1020202121696894e+00 -6.3570720971802475e-01 0.0000000000000000e+00  1.0550935974426401e+00 -2.1445002875298419e-01 0.0000000000000000e+00  6.3445394936670041e-01 -7.9303073039800120e-01 0.0000000000000000e+00  7.7131819627321141e-01 -8.7950963509859134e-02 0.0000000000000000e+00  -4.6775113298927040e-01 -2.8938863698207223e-01 0.0000000000000000e+00  3.0104832100663326e-01 1.3718080045470409e+00 0.0000000000000000e+00  3.1237590445598538e+00 2.0633727637049155e+00 0.0000000000000000e+00  2.9387294230079508e+00 2.6069457149462147e+00 0.0000000000000000e+00  3.2809119411312722e+00 1.8714135980659987e+00 0.0000000000000000e+00  3.4771338849754541e+00 1.9514597849754698e+00 0.0000000000000000e+00  3.6583727589862050e+00 1.7453059072108110e+00 0.0000000000000000e+00  3.7328478156564473e+00 1.5403860135206968e+00 0.0000000000000000e+00  3.7057159151300403e+00 1.0642221386789785e+00 0.0000000000000000e+00  3.7160935274683840e+00 6.8718489164989471e-01 0.0000000000000000e+00  3.6489936460833206e+00 1.5211366052736122e-01 0.0000000000000000e+00  3.5210512151825517e+00 -4.6107388534904054e-01 0.0000000000000000e+00  3.6894730007850671e+00 -6.8904385511603716e-01 0.0000000000000000e+00  3.6637740810582922e+00 -1.2789459408200448e+00 0.0000000000000000e+00  6.1559971685483594e+00 1.8190391273577806e+00 0.0000000000000000e+00  7.3275163017531195e+00 2.8686073668834844e+00 0.0000000000000000e+00  7.6642194963676173e+00 2.6748556074177401e+00 0.0000000000000000e+00  7.6614567258837454e+00 1.9975343474275391e+00 0.0000000000000000e+00  7.4636116062358280e+00 1.0727085793790898e+00 0.0000000000000000e+00  7.1924053367707916e+00 1.7895721418780539e-01 0.0000000000000000e+00  6.8458873243747016e+00 -7.5305801937548655e-01 0.0000000000000000e+00  6.4155283007715616e+00 -1.6912015135566818e+00 0.0000000000000000e+00  5.8891740146055307e+00 -2.6702860580579841e+00 0.0000000000000000e+00  5.2558982634593772e+00 -3.6840834719290463e+00 0.0000000000000000e+00  4.5199821582725805e+00 -4.8790301710132828e+00 0.0000000000000000e+00  3.7141470069188762e+00 -5.8983713427503321e+00 0.0000000000000000e+00  2.8783020136088862e+00 -7.1578238894373971e+00 0.0000000000000000e+00  2.0627104423128624e+00 -7.8037118202023166e+00 0.0000000000000000e+00  1.3325004540513063e+00 -8.6101189256140831e+00 0.0000000000000000e+00  7.2660443813842857e-01 -7.9428386593908185e+00 0.0000000000000000e+00  3.0237119851549410e-01 -7.4124711929117648e+00 0.0000000000000000e+00  4.8347985025940815e-02 -3.7086768725904613e+00 0.0000000000000000e+00  2.5523393747918202e-03 1.3594975568704344e-03 0.0000000000000000e+00  5.5288330680708785e-02 9.1435435901508946e+00 0.0000000000000000e+00  2.5480696480048031e-03 -1.5506620300805569e-03 0.0000000000000000e+00  2.0826739963910090e-01 1.1641640184322844e+01 0.0000000000000000e+00  -1.3176686970718756e+00 8.7395502049982952e+00 0.0000000000000000e+00  2.3628546483502522e-01 1.0209550490717282e+01 0.0000000000000000e+00  1.6955725397690530e-01 7.7616756204497630e+00 0.0000000000000000e+00  7.1117785450059956e-01 6.6137876599146663e+00 0.0000000000000000e+00  8.4593519839503994e-01 4.8333748247762385e+00 0.0000000000000000e+00  1.0593876017964114e+00 3.6106347268000425e+00 0.0000000000000000e+00  1.1690081112591946e+00 2.6332421688814809e+00 0.0000000000000000e+00  1.2970796491393759e+00 2.0955724447675244e+00 0.0000000000000000e+00  1.3336158937063198e+00 1.6021119335283018e+00 0.0000000000000000e+00  1.4251410172963594e+00 1.4180045717026133e+00 0.0000000000000000e+00  1.5480071196408038e+00 1.4204035529010997e+00 0.0000000000000000e+00  1.6515681540641913e+00 1.4546104942710598e+00 0.0000000000000000e+00  1.7280019473112374e+00 1.5202447268809594e+00 0.0000000000000000e+00  1.7793335259622964e+00 1.5882404613231318e+00 0.0000000000000000e+00  1.7841455718112036e+00 1.5867912072740653e+00 0.0000000000000000e+00  1.7671699952300561e+00 1.5684445003473286e+00 0.0000000000000000e+00  1.7378234272255773e+00 1.5441497257468142e+00 0.0000000000000000e+00  1.6878298001577763e+00 1.4551322939594276e+00 0.0000000000000000e+00  1.6296817864165078e+00 1.3886392604218791e+00 0.0000000000000000e+00  1.5735762999729537e+00 1.2684667732622672e+00 0.0000000000000000e+00  1.5037557781967705e+00 1.1943764533243715e+00 0.0000000000000000e+00  1.4321491230333738e+00 9.7333215655232064e-01 0.0000000000000000e+00  1.3516789489997039e+00 9.7627923440713626e-01 0.0000000000000000e+00  1.2600258826701423e+00 5.6558796095486830e-01 0.0000000000000000e+00  1.1436341985513701e+00 7.7105404631205332e-01 0.0000000000000000e+00  1.0017225167652450e+00 5.6484608580639140e-02 0.0000000000000000e+00  8.1855043607251421e-01 3.3941581952963751e-01 0.0000000000000000e+00  5.3072864761761884e-01 2.0809098485737318e+00 0.0000000000000000e+00  2.2557405463150944e+00 1.7875712124897360e+00 0.0000000000000000e+00  2.0832108552474833e+00 2.3456216642749586e+00 0.0000000000000000e+00  2.4378150060649375e+00 1.6389567542108336e+00 0.0000000000000000e+00  2.5895065312701568e+00 1.6612885380999354e+00 0.0000000000000000e+00  2.7791115853527644e+00 1.4789793314285158e+00 0.0000000000000000e+00  2.9517453651975720e+00 1.4352503558257723e+00 0.0000000000000000e+00  3.0160335294329270e+00 1.1121148100290370e+00 0.0000000000000000e+00  2.9779127697605041e+00 6.7953874842399253e-01 0.0000000000000000e+00  2.9765131760840551e+00 2.6048098979333634e-01 0.0000000000000000e+00  2.8979511177425863e+00 -2.6258957884507633e-01 0.0000000000000000e+00  2.7606928975171612e+00 -9.3695407161111510e-01 0.0000000000000000e+00  2.9225826215574724e+00 -1.2357978153264702e+00 0.0000000000000000e+00  2.8862628750093404e+00 -1.9064232047682830e+00 0.0000000000000000e+00  5.3567590386922639e+00 1.1259044335728274e+00 0.0000000000000000e+00  6.5088463434214168e+00 2.1753263344377021e+00 0.0000000000000000e+00  6.8362768689452391e+00 2.0036949857613551e+00 0.0000000000000000e+00  6.8299845394539016e+00 1.3682617556584911e+00 0.0000000000000000e+00  6.6324639533660772e+00 5.8180151023262350e-01 0.0000000000000000e+00  6.3644370175959359e+00 -2.3981217903655971e-01 0.0000000000000000e+00  6.0249469376431879e+00 -1.0546030505151931e+00 0.0000000000000000e+00  5.6048802722950342e+00 -1.8935316769846533e+00 0.0000000000000000e+00  5.0932166229437454e+00 -2.7521672261506356e+00 0.0000000000000000e+00  4.4823023501832910e+00 -3.7971868322675952e+00 0.0000000000000000e+00  3.7755383833605789e+00 -4.7222399823300787e+00 0.0000000000000000e+00  3.0114454055925886e+00 -5.9414348954091816e+00 0.0000000000000000e+00  2.2280532445142480e+00 -6.6354963459654401e+00 0.0000000000000000e+00  1.4859994297291750e+00 -7.5717680320773999e+00 0.0000000000000000e+00  8.4093034675869138e-01 -7.1279327638004322e+00 0.0000000000000000e+00  3.5764899629767044e-01 -6.8475116071087561e+00 0.0000000000000000e+00  5.5453337883832145e-02 -3.4908133571665885e+00 0.0000000000000000e+00  5.3721294399074401e-03 1.9436519743299999e-03 0.0000000000000000e+00  6.4654617671496856e-02 8.8979886458289510e+00 0.0000000000000000e+00  5.3677544081463481e-03 -2.2569340599295140e-03 0.0000000000000000e+00  3.4736307060616450e-01 1.1367346486859052e+01 0.0000000000000000e+00  5.0453612502919332e-01 1.1092161811547147e+01 0.0000000000000000e+00  -1.1094458487831802e+00 7.9531098380886034e+00 0.0000000000000000e+00  3.5067400393054760e-01 7.9102847217251480e+00 0.0000000000000000e+00  2.1846622441089700e-01 5.8462899644156838e+00 0.0000000000000000e+00  7.0753787191311723e-01 4.6617127383885189e+00 0.0000000000000000e+00  8.0163890858453191e-01 3.3192595546827324e+00 0.0000000000000000e+00  9.7986890854210729e-01 2.4917444932139832e+00 0.0000000000000000e+00  1.0612289393687317e+00 1.9235994983430371e+00 0.0000000000000000e+00  1.1640858216859937e+00 1.5644880802516159e+00 0.0000000000000000e+00  1.1790513972353154e+00 1.2963274159390850e+00 0.0000000000000000e+00  1.2515915443998962e+00 1.2495632694213172e+00 0.0000000000000000e+00  1.3574553696319271e+00 1.3113186954325402e+00 0.0000000000000000e+00  1.4460915857527157e+00 1.4160997999328253e+00 0.0000000000000000e+00  1.5098555805733069e+00 1.5201506484849172e+00 0.0000000000000000e+00  1.5502936250369663e+00 1.5872083246795556e+00 0.0000000000000000e+00  1.5459086486654270e+00 1.6005649771428412e+00 0.0000000000000000e+00  1.5211770766207684e+00 1.5938496714363772e+00 0.0000000000000000e+00  1.4851101021403068e+00 1.5351929079532403e+00 0.0000000000000000e+00  1.4291876614041603e+00 1.4804861344156754e+00 0.0000000000000000e+00  1.3657194515296998e+00 1.3569519705857878e+00 0.0000000000000000e+00  1.3045350444442998e+00 1.3032366298874909e+00 0.0000000000000000e+00  1.2298104307387265e+00 1.0849922156234879e+00 0.0000000000000000e+00  1.1531898833899257e+00 1.1010556050562506e+00 0.0000000000000000e+00  1.0677316870052926e+00 7.0763137525252617e-01 0.0000000000000000e+00  9.7061948741576975e-01 9.4966056737053672e-01 0.0000000000000000e+00  8.4917426019459463e-01 2.7457389634689638e-01 0.0000000000000000e+00  7.0109788628122305e-01 6.1751534259284746e-01 0.0000000000000000e+00  5.1400853203047103e-01 2.5183701368395530e+00 0.0000000000000000e+00  1.6194212301348383e+00 1.5311821719106047e+00 0.0000000000000000e+00  1.4501592099936229e+00 2.0882647822273661e+00 0.0000000000000000e+00  1.7880418762327259e+00 1.3703791075113709e+00 0.0000000000000000e+00  1.9626828804036436e+00 1.4401846787415422e+00 0.0000000000000000e+00  2.1047377645383598e+00 1.2026957654888570e+00 0.0000000000000000e+00  2.2819964427747688e+00 1.1861929777839384e+00 0.0000000000000000e+00  2.4398953100463801e+00 1.0275114415897051e+00 0.0000000000000000e+00  2.4869777769375228e+00 7.4967033269413197e-01 0.0000000000000000e+00  2.4299802632847798e+00 2.7610915985611545e-01 0.0000000000000000e+00  2.4094533240020963e+00 -1.3160984831087999e-01 0.0000000000000000e+00  2.3134196286154962e+00 -7.2083002130675011e-01 0.0000000000000000e+00  2.1618631661762127e+00 -1.4699013487048376e+00 0.0000000000000000e+00  2.3109041543519164e+00 -1.8383226732007620e+00 0.0000000000000000e+00  2.2506995621085597e+00 -2.5530026630030274e+00 0.0000000000000000e+00  4.6805067620319010e+00 4.7437703749890198e-01 0.0000000000000000e+00  5.7980997737710487e+00 1.5273984843368722e+00 0.0000000000000000e+00  6.1056294129046691e+00 1.3875056391661362e+00 0.0000000000000000e+00  6.0860654087772055e+00 8.8359484754245909e-01 0.0000000000000000e+00  5.8806892374521249e+00 1.6686741892976314e-01 0.0000000000000000e+00  5.6063356607671944e+00 -5.4344878467061541e-01 0.0000000000000000e+00  5.2629395553576988e+00 -1.2629895596820047e+00 0.0000000000000000e+00  4.8422510978803652e+00 -1.9876137619912919e+00 0.0000000000000000e+00  4.3347750497547199e+00 -2.8880308178461873e+00 0.0000000000000000e+00  3.7344028037297843e+00 -3.6786995723250588e+00 0.0000000000000000e+00  3.0516485345653481e+00 -4.8171798912689701e+00 0.0000000000000000e+00  2.3230303817032927e+00 -5.5037783237156352e+00 0.0000000000000000e+00  1.6013228013233893e+00 -6.5057528515575349e+00 0.0000000000000000e+00  9.3741410610568732e-01 -6.2523479905309003e+00 0.0000000000000000e+00  4.1989616021835058e-01 -6.1966873035584173e+00 0.0000000000000000e+00  7.3167091727147152e-02 -3.2244057997706199e+00 0.0000000000000000e+00  9.0926722980564957e-03 2.4625588609304898e-03 0.0000000000000000e+00  7.9498720965144584e-02 8.6159295799081388e+00 0.0000000000000000e+00  9.0881706653669729e-03 -2.8795882193517891e-03 0.0000000000000000e+00  3.9966500955884676e-01 1.0838082736805218e+01 0.0000000000000000e+00  7.6987971917171971e-01 1.0840443103800213e+01 0.0000000000000000e