<?xml version="1.0"?>
<VTKFile type="UnstructuredGrid"  version="0.1"  >
<UnstructuredGrid>
<Piece  NumberOfPoints="1933" NumberOfCells="3640">
<Points>
<DataArray  type="Float64"  NumberOfComponents="3"  format="ascii">0.293573590826823 0.00224149482554279 0  5.293573595546342 0.002156092625978814 0  5.293701768022992 7.502156145846935 0  0.2937017318323616 7.502241491086028 0  10.29357358403257 0.002070621712910042 0  10.29370184604339 7.502070700132408 0  15.29357359285495 0.001985004554696326 0  15.29370199361096 7.50198509415238 0  20.29357367278875 0.001899202591213987 0  20.29370224053212 7.501899297197112 0  25.29357387797502 0.001813202808267511 0  25.29370261917127 7.501813300079031 0  30.29357426203311 0.001727009227261171 0  30.29370316391658 7.501727108775444 0  35.29357487735899 0.001640637505464086 0  35.29370391080177 7.501640739983677 0  40.29357577587934 0.001554111672654033 0  40.29370489750005 7.501554218327741 0  45.29357701045712 0.001467462381699869 0  45.29370616365009 7.501467574853529 0  50.29357863659136 0.001380726271831223 0  50.2937077514249 7.501380846525365 0  55.29358071427025 0.001293946202061734 0  55.29370970626161 7.50129407653745 0  60.29358330994717 0.001207172231517555 0  60.29371207769098 7.501207315345918 0  65.29358649866519 0.001120463318797626 0  65.29371492021683 7.501120622409656 0  70.29359036638286 0.001033889797465322 0  70.29371829420108 7.501034068706255 0  75.29359501257819 0.0009475367722179646 0  75.29372226669997 7.500947740172363 0  80.29360055321503 0.0008615086845744906 0  80.29372691217081 7.500861742318666 0  85.2936071241709 0.0007759354365891055 0  85.29373231292283 7.500776206402047 0  90.2936148852164 0.0006909806632959612 0  90.29373855910347 7.500691297724605 0  95.29362402462081 0.0006068530525719557 0  95.29374574788521 7.500607226901552 0  100.2936347643659 0.0005238220966752548 0  100.2937539813189 7.500524265343126 0  105.2936473657455 0.0004422404451789891 0  105.2937633620263 7.50044276679662 0  110.2936621346193 0.0003625763265536796 0  110.2937739854931 7.500363197676831 0  115.2936794244623 0.0002854616870029688 0  115.2937859272364 7.500286180177322 0  120.2936996328613 0.000211765416693894 0  120.2937992227318 7.500212553852087 0  125.2937231817214 0.0001427074490048557 0  125.2938138383632 7.500143463352297 0  130.2937504598113 8.004057116012621e-05 0  130.2938296346726 7.500080481601702 0  135.2937816810729 2.634509363019049e-05 0  135.2938463339316 7.500025777089414 0  140.2938165563143 -1.449397130691582e-05 0  140.2938635363247 7.499982329146007 0  145.2938535449875 -3.656542179527291e-05 0  145.293880922441 7.499954200184245 0  150.2938881040309 -3.12402459503378e-05 0  150.293899064008 7.499947043735543 0  160.2938926261463 1.222745582441125e-18 0  165.2937673634466 -0.0001505899887605604 0  165.2938699604483 7.499829772591763 0  160.2939101100019 7.499952464083601 0  170.2936901409371 -0.0002905464204725645 0  170.2938291948165 7.499699438301057 0  175.2936403124147 -0.0004225276510488456 0  175.2937941808933 7.499571784290138 0  180.2936070221466 -0.0005476183257859459 0  180.2937658148422 7.499448964970743 0  185.2935841661061 -0.0006668665499130747 0  185.2937434131827 7.499331002020655 0  190.2935681565061 -0.0007812702250305016 0  190.2937259373768 7.49921735658524 0  195.2935568020781 -0.0008916901875422713 0  195.2937123926135 7.499107398374752 0  200.29354871299 -0.0009988290256799145 0  200.2937019400753 7.499000549408112 0  205.293542973934 -0.001103246879798832 0  205.2936939076206 7.498896319272299 0  210.2935389599023 -0.001205388114746387 0  210.293687767962 7.498794303482429 0  215.2935362297123 -0.00130560711635298 0  215.2936831102988 7.498694170912275 0  220.2935344627391 -0.001404189528317653 0  220.293679614433 7.498595649771471 0  225.2935334201627 -0.001501368605992939 0  225.293677029706 7.498498515249972 0  230.2935329204518 -0.001597337460624029 0  230.2936751586954 7.498402579517572 0  235.2935328233362 -0.001692258151770242 0  235.2936738448666 7.49830768390726 0  240.2935330189835 -0.001786268463165381 0  240.293672963294 7.498213692876449 0  245.2935334204758 -0.001879487009257635 0  245.2936724136858 7.498120489334871 0  250.2935339584332 -0.001972017148935402 0  250.2936721151233 7.498027970993417 0  255.2935345771001 -0.002063950049747333 0  255.2936720020761 7.49793604746437 0  260.2935352314429 -0.002155367148363611 0  260.2936720213637 7.4978446379097 0  265.2935358850057 -0.002246342183023438 0  265.2936721298436 7.497753669087079 0  270.2935365083344 -0.002336942922345715 0  270.2936722926621 7.497663073685431 0  275.2935370779026 -0.002427232673275975 0  275.2936724819384 7.497572788877846 0  280.2935375754826 -0.002517271608810889 0  280.2936726758159 7.49748275505628 0  285.2935379880088 -0.002607117898527449 0  285.2936728577948 7.497392914758893 0  290.2935383079831 -0.002696828524295879 0  290.293673016292 7.49730321186988 0  295.2935385345639 -0.002786459463224187 0  295.2936731443595 7.497213591281565 0  300.2935386754487 -0.002876064491807647 0  300.2936732394917 7.497123999379921 0  305.2935387495467 -0.002965690895691121 0  305.2936733035436 7.497034385945547 0  310.2935387899111 -0.003055368012184156 0  310.2936733431619 7.496944708223784 0  5.293829659305538 15.00215629300752 0  0.2938296131403813 15.002241489867 0  10.29382975653163 15.00207091438315 0  15.29382993289788 15.00198533496376 0  20.29383021046009 15.00189954655694 0  25.29383060952063 15.00181355193705 0  30.2938311505993 15.00172736332208 0  35.29383185522964 15.00164100064448 0  40.29383274624415 15.00155449023859 0  45.29383384786882 15.00146786413667 0  50.29383518575898 15.00138115999834 0  55.29383678700891 15.00129442165609 0  60.29383868011851 15.00120770027336 0  65.29384089487253 15.00112105614911 0  70.29384346206352 15.00103456125309 0  75.29384641297085 15.00094830263946 0  80.29384977847435 15.0008623869634 0  85.29385358764964 15.0007769464238 0  90.29385786564563 15.00069214658201 0  95.29386263060674 15.00060819666592 0  100.2938678893763 15.0005253631601 0  105.2938736317748 15.00044398768195 0  110.293879823452 15.00036451027078 0  115.2938863979023 15.00028749906182 0  120.2938932495453 15.00021368637117 0  125.2939002324645 15.00014400830394 0  130.2939071744572 15.00007963743432 0  135.2939139246216 15.00002197963806 0  140.2939204647052 14.99997256110041 0  145.2939271219978 14.99993261384499 0  150.2939348804703 14.99990180840789 0  165.2939399602716 14.99977682494358 0  160.293948188132 14.99987638939418 0  170.2939258328186 14.9996658469701 0  175.2939091728496 14.99955068234531 0  180.2938925691641 14.99943553011377 0  185.2938773663415 14.99932225873132 0  190.2938640941815 14.99921151950081 0  195.2938528391971 14.99910339674494 0  200.293843473941 14.99899773445579 0  205.2938357840554 14.99889429150702 0  210.293829533888 14.99879281190951 0  215.293824497789 14.998693054175 0  220.2938204731348 14.99859480155186 0  225.2938172840767 14.99849786370634 0  230.2938147808909 14.99840207488803 0  235.293812837483 14.99830729090972 0  240.2938113483182 14.99821338596319 0  245.2938102253853 14.9981202496747 0  250.2938093954533 14.99802778452212 0  255.2938087977009 14.99793590361341 0  260.2938083817205 14.99784452878226 0  265.2938081058612 14.99775358894394 0  270.293807935866 14.99766301866055 0  275.2938078437464 14.99757275687556 0  280.293807806844 14.99748274579299 0  285.2938078070359 14.9973929298941 0  290.2938078300206 14.99730325509614 0  295.2938078646844 14.99721366804615 0  300.2938079025529 14.99712411544747 0  305.2938079374846 14.99703454296245 0  310.2938079659219 14.99694489213483 0  5.293957142044833 22.50215664368902 0  0.2939570936703006 22.50224165839611 0  10.29395723129308 22.50207135524014 0  15.29395738602968 22.50198581521093 0  20.29395762272935 22.5019000417573 0  25.29395795363041 22.50181405373216 0  30.29395838909901 22.50172787283138 0  35.29395893888206 22.50164152445512 0  40.29395961264407 22.50155503808374 0  45.29396042006721 22.50146844762126 0  50.29396137068495 22.50138179194943 0  55.29396247352975 22.50129511582587 0  60.29396373662123 22.50120847121494 0  65.29396516628275 22.50112191913332 0  70.2939667662465 22.5010355321067 0  75.29396853649575 22.50094939736357 0  80.293970471778 22.50086362092894 0  85.29397255973053 22.5007783328215 0  90.29397477857997 22.50069369359436 0  95.29397709443838 22.50060990247323 0  100.2939794583464 22.50052720729887 0  105.2939818034595 22.50044591629976 0  110.2939840432063 22.50036641125185 0  115.2939860719718 22.50028916054712 0  120.2939877709535 22.50021472856178 0  125.2939890233274 22.50014377355583 0  130.2939897443808 22.50007701854856 0  135.2939899324704 22.50001516572773 0  140.2939897416779 22.49995870207429 0  145.2939895572308 22.49990751350903 0  150.293989999714 22.49986022233982 0  165.2940087868408 22.49971882755289 0  160.2940013804011 22.4998055052692 0  170.2940104551176 22.49962173306735 0  175.2940077780364 22.49951847520222 0  180.294002391492 22.499412383578 0  185.293995672587 22.49930564589415 0  190.2939885802938 22.49919951629997 0  195.2939817048079 22.49909462873725 0  200.293975368847 22.49899124637099 0  205.2939697196528 22.49888942560445 0  210.2939647971519 22.49878911493488 0  215.2939605799129 22.49869021157364 0  220.2939570144229 22.49859259262137 0  225.2939540329509 22.49849613152794 0  230.2939515640007 22.49840070627942 0  235.2939495381253 22.49830620304422 0  240.2939478909206 22.4982125173922 0  245.2939465643462 22.49811955426103 0  250.2939455070884 22.4980272273112 0  255.293944674402 22.49793545801217 0  260.2939440276758 22.49784417463814 0  265.2939435338828 22.49775331126134 0  270.2939431649804 22.49766280678434 0  275.2939428973096 22.4975726040276 0  280.2939427109972 22.49748264887481 0  285.2939425893627 22.49739288946454 0  290.2939425183261 22.49730327538958 0  295.2939424858231 22.49721375680226 0  300.2939424812236 22.49712428317463 0  30
[...]
<PointData  Vectors="v"> 
<DataArray  type="Float64"  Name="v"  NumberOfComponents="3" format="ascii">3.6578485925207964e+00 -1.6115064685487124e+00 0.0000000000000000e+00  3.5124449524409505e+00 -1.8374138280496648e+00 0.0000000000000000e+00  2.8951513219117464e+00 -1.6193075412109554e+00 0.0000000000000000e+00  3.0022813843731866e+00 -1.4515423395337579e+00 0.0000000000000000e+00  3.2683510521525569e+00 -2.3498964198652423e+00 0.0000000000000000e+00  2.7496800546933726e+00 -1.9841820092597229e+00 0.0000000000000000e+00  2.9632280800796353e+00 -3.0820196417050298e+00 0.0000000000000000e+00  2.5058850642517814e+00 -2.6248518539613279e+00 0.0000000000000000e+00  2.6052525725125379e+00 -3.7924603906054326e+00 0.0000000000000000e+00  2.2012906659241618e+00 -3.2565508436988444e+00 0.0000000000000000e+00  2.1995933458443102e+00 -4.6334045939390807e+00 0.0000000000000000e+00  1.8441698393153716e+00 -4.0264806117192897e+00 0.0000000000000000e+00  1.8040913558484408e+00 -5.3888634638250297e+00 0.0000000000000000e+00  1.4401882661629630e+00 -4.7974972272119381e+00 0.0000000000000000e+00  1.6318606631444565e+00 -5.8110351725747647e+00 0.0000000000000000e+00  1.0468896532032081e+00 -5.5554645101669937e+00 0.0000000000000000e+00  1.1325679550890706e+00 -6.6739739049067426e+00 0.0000000000000000e+00  8.7754918216869793e-01 -5.9285402424917235e+00 0.0000000000000000e+00  3.0273973304350132e+00 -3.9454861604076559e+00 0.0000000000000000e+00  3.8231180233907236e-01 -6.7916606517783080e+00 0.0000000000000000e+00  -1.3458166909279206e+00 -1.0493336287876829e+01 0.0000000000000000e+00  2.2821001206984142e+00 -3.9389118837091779e+00 0.0000000000000000e+00  2.8614438404916342e-02 -8.1894895276328459e+00 0.0000000000000000e+00  -2.0862817221584580e+00 -1.0256580814175415e+01 0.0000000000000000e+00  3.1587728353132943e-01 -7.5204927548777265e+00 0.0000000000000000e+00  -7.0532670541075260e-01 -7.9592094418716517e+00 0.0000000000000000e+00  -2.0029945483525931e-02 -7.8277432317093973e+00 0.0000000000000000e+00  -4.0904024173990144e-01 -7.3337296136691332e+00 0.0000000000000000e+00  -8.0935804568721192e-01 -8.8125717523241729e+00 0.0000000000000000e+00  -7.3386572133096950e-01 -7.6408881247981251e+00 0.0000000000000000e+00  -1.8670030072040489e+00 -1.0140888894811297e+01 0.0000000000000000e+00  -1.5088509934316670e+00 -8.5681534677191351e+00 0.0000000000000000e+00  -3.1369889769666024e+00 -1.1670062039436385e+01 0.0000000000000000e+00  -2.5499934564101099e+00 -9.7818355134817612e+00 0.0000000000000000e+00  -4.5747144931299246e+00 -1.3360403021230759e+01 0.0000000000000000e+00  -3.8011171776498180e+00 -1.1223022147811045e+01 0.0000000000000000e+00  -6.1353538707417297e+00 -1.5027417808261484e+01 0.0000000000000000e+00  -5.2159796879110276e+00 -1.2707641124386360e+01 0.0000000000000000e+00  -7.7832309637024730e+00 -1.6664914193228423e+01 0.0000000000000000e+00  -6.7513932880273115e+00 -1.4218277565135480e+01 0.0000000000000000e+00  -9.4780069570537950e+00 -1.8188904235701596e+01 0.0000000000000000e+00  -8.3702426231664706e+00 -1.5674400439724433e+01 0.0000000000000000e+00  -1.1152799002158906e+01 -1.9498233987259407e+01 0.0000000000000000e+00  -1.0032181877418084e+01 -1.7017515702038782e+01 0.0000000000000000e+00  -1.2745355502714173e+01 -2.0409571509838525e+01 0.0000000000000000e+00  -1.1669078335135804e+01 -1.8054978299146587e+01 0.0000000000000000e+00  -1.4203207095292642e+01 -2.1022840338853861e+01 0.0000000000000000e+00  -1.3222047661203908e+01 -1.8876650242079961e+01 0.0000000000000000e+00  -1.5453231574602095e+01 -2.0821155800521655e+01 0.0000000000000000e+00  -1.4630608973296894e+01 -1.8985699683419455e+01 0.0000000000000000e+00  -1.6477113286631987e+01 -2.0144798062345107e+01 0.0000000000000000e+00  -1.5834003142628905e+01 -1.8660941324500069e+01 0.0000000000000000e+00  -1.7227524764636321e+01 -1.8258886953952722e+01 0.0000000000000000e+00  -1.6795074105455630e+01 -1.7177083030099105e+01 0.0000000000000000e+00  -1.7742336092127552e+01 -1.5434590666425411e+01 0.0000000000000000e+00  -1.7493164242907945e+01 -1.4728653040312912e+01 0.0000000000000000e+00  -1.8011415173209265e+01 -1.1388504320782037e+01 0.0000000000000000e+00  -1.7928590173755126e+01 -1.1030286170424885e+01 0.0000000000000000e+00  -1.8136942536354461e+01 -4.7406664306182096e+00 0.0000000000000000e+00  -1.8141698953404127e+01 -4.6367047808837336e+00 0.0000000000000000e+00  -1.8163563201324735e+01 2.6062011313325685e-11 0.0000000000000000e+00  -1.8163229806809575e+01 3.1823027786014523e-04 0.0000000000000000e+00  -1.8163563200131659e+01 -1.8857391253841860e-19 0.0000000000000000e+00  -1.3885308025894609e+01 1.1508067227842583e+01 0.0000000000000000e+00  -1.8132848279988870e+01 5.1261278624343305e+00 0.0000000000000000e+00  -1.8163230958386062e+01 -3.3661206250068813e-04 0.0000000000000000e+00  -1.2623163695689829e+01 2.0107926400506553e+01 0.0000000000000000e+00  -1.3904196332701352e+01 1.8284064466395829e+01 0.0000000000000000e+00  -1.0751216478927949e+01 2.3970535187334214e+01 0.0000000000000000e+00  -1.2700808434813172e+01 2.1199202173997939e+01 0.0000000000000000e+00  -9.6666516969200469e+00 2.4798593172529461e+01 0.0000000000000000e+00  -1.0883530898531131e+01 2.3219815160818541e+01 0.0000000000000000e+00  -8.4437146574107285e+00 2.4352849187631790e+01 0.0000000000000000e+00  -9.8480384865557067e+00 2.2558200254249158e+01 0.0000000000000000e+00  -7.4337842287473341e+00 2.2834445159289309e+01 0.0000000000000000e+00  -8.6708134642175363e+00 2.1359842463839502e+01 0.0000000000000000e+00  -6.4853539149366872e+00 2.1051688924435236e+01 0.0000000000000000e+00  -7.7054383910134474e+00 1.9664546433358659e+01 0.0000000000000000e+00  -5.6332495852125879e+00 1.9041662990221877e+01 0.0000000000000000e+00  -6.7976470025724671e+00 1.7799535146753701e+01 0.0000000000000000e+00  -4.7448749524414060e+00 1.7228216531062195e+01 0.0000000000000000e+00  -5.9842794145603850e+00 1.5928618039234935e+01 0.0000000000000000e+00  -4.0353507827832367e+00 1.5491070667911380e+01 0.0000000000000000e+00  -5.1331855545871319e+00 1.4458606152877405e+01 0.0000000000000000e+00  -3.4040459286214908e+00 1.3975888513920605e+01 0.0000000000000000e+00  -4.4588098208095435e+00 1.3059627482444228e+01 0.0000000000000000e+00  -2.7515381064362128e+00 1.2760768239495878e+01 0.0000000000000000e+00  -3.8611491788639549e+00 1.1811459135836659e+01 0.0000000000000000e+00  -2.1568521660295019e+00 1.1700986894697143e+01 0.0000000000000000e+00  -3.2412793100682045e+00 1.0837116271519779e+01 0.0000000000000000e+00  -1.6197494601302742e+00 1.0778338190527188e+01 0.0000000000000000e+00  -2.6777317695619254e+00 1.0000196489371897e+01 0.0000000000000000e+00  -1.1383010339165733e+00 9.9337751403910097e+00 0.0000000000000000e+00  -2.1706621041282084e+00 9.2380948057362211e+00 0.0000000000000000e+00  -7.2193339646297550e-01 9.1298506035190048e+00 0.0000000000000000e+00  -1.7184358189229576e+00 8.5309756459055635e+00 0.0000000000000000e+00  -3.6565555836229924e-01 8.3715201640301480e+00 0.0000000000000000e+00  -1.3302928306060293e+00 7.8622337513608471e+00 0.0000000000000000e+00  -5.3989824612611370e-02 7.6298030496808398e+00 0.0000000000000000e+00  -1.0014394635204524e+00 7.1868195761727938e+00 0.0000000000000000e+00  2.0979807828351479e-01 6.9043106297237395e+00 0.0000000000000000e+00  -7.1668182813613213e-01 6.5325468919352234e+00 0.0000000000000000e+00  4.3062839170330042e-01 6.1887313350903650e+00 0.0000000000000000e+00  -4.7908726830944937e-01 5.8811260486472934e+00 0.0000000000000000e+00  6.1533320654734613e-01 5.4840333844715952e+00 0.0000000000000000e+00  -2.8406270218882512e-01 5.2300935202122858e+00 0.0000000000000000e+00  7.6451103616223481e-01 4.7626394965563357e+00 0.0000000000000000e+00  -1.2461494112001320e-01 4.5618534851912820e+00 0.0000000000000000e+00  8.7138952803715830e-01 4.0836923576310085e+00 0.0000000000000000e+00  -6.2991036080407891e-04 3.9457835233334575e+00 0.0000000000000000e+00  9.4595957200070724e-01 3.3293377258933772e+00 0.0000000000000000e+00  8.1931861277759713e-02 3.2402542844455406e+00 0.0000000000000000e+00  9.7428372951933040e-01 2.6985413719160687e+00 0.0000000000000000e+00  1.3141804812618196e-01 2.6775746868174015e+00 0.0000000000000000e+00  9.6062777511833419e-01 1.8804655889706188e+00 0.0000000000000000e+00  1.3657980987995080e-01 1.9241193572573247e+00 0.0000000000000000e+00  8.9608909556840688e-01 1.3988960727026549e+00 0.0000000000000000e+00  9.7154338910135127e-02 1.5157208361271008e+00 0.0000000000000000e+00  7.6619137595595999e-01 4.3102980684609282e-01 0.0000000000000000e+00  1.1680279023052697e-02 6.5079473002308630e-01 0.0000000000000000e+00  5.2163290586069144e-01 -5.0117807647538440e-02 0.0000000000000000e+00  -1.4738435369678043e-01 3.3270067763904432e-01 0.0000000000000000e+00  -5.9018598182294761e-02 -2.8477463092636734e-01 0.0000000000000000e+00  -4.0359570627865216e-01 6.1966706976576102e-01 0.0000000000000000e+00  2.0092023480651862e+00 -1.4575890806686540e+00 0.0000000000000000e+00  2.1170408484125232e+00 -1.2920399775391875e+00 0.0000000000000000e+00  1.9003877235859328e+00 -1.7646365665873507e+00 0.0000000000000000e+00  1.7526746565550413e+00 -2.2579739914493002e+00 0.0000000000000000e+00  1.5066966842748675e+00 -2.7985641991810355e+00 0.0000000000000000e+00  1.2002081794626571e+00 -3.4896383420705441e+00 0.0000000000000000e+00  8.4146118111913226e-01 -4.1910742190959445e+00 0.0000000000000000e+00  4.3672248883649789e-01 -4.9658176964797356e+00 0.0000000000000000e+00  4.4020013128278926e-02 -5.6750438906930434e+00 0.0000000000000000e+00  -1.2360264818754721e-01 -6.0510149023940825e+00 0.0000000000000000e+00  -6.1458877201059692e-01 -6.7924610194474209e+00 0.0000000000000000e+00  1.2904600140459404e+00 -3.7043661141803206e+00 0.0000000000000000e+00  -3.0786753271524114e+00 -1.0029832671341376e+01 0.0000000000000000e+00  -1.6973320781080503e+00 -7.7822835655690801e+00 0.0000000000000000e+00  -1.3938542791073885e+00 -7.1587448120397843e+00 0.0000000000000000e+00  -1.7079021432092329e+00 -7.4153760641813813e+00 0.0000000000000000e+00  -2.4664681240845878e+00 -8.2319796903689060e+00 0.0000000000000000e+00  -3.4869094989942293e+00 -9.3596673648525162e+00 0.0000000000000000e+00  -4.7137032028887900e+00 -1.0602817897047757e+01 0.0000000000000000e+00  -6.0987258647565064e+00 -1.1935769310721724e+01 0.0000000000000000e+00  -7.5987496378262707e+00 -1.3268066016912499e+01 0.0000000000000000e+00  -9.1776677251467991e+00 -1.4553156819258556e+01 0.0000000000000000e+00  -1.0791397523437448e+01 -1.5630559415473661e+01 0.0000000000000000e+00  -1.2373416275426374e+01 -1.6584113292267038e+01 0.0000000000000000e+00  -1.3862597330271619e+01 -1.6912733987558003e+01 0.0000000000000000e+00  -1.5199326678492714e+01 -1.6908042634934958e+01 0.0000000000000000e+00  -1.6316717302619814e+01 -1.5780738211006073e+01 0.0000000000000000e+00  -1.7189002668982432e+01 -1.3757194168445501e+01 0.0000000000000000e+00  -1.7771327378267983e+01 -1.0420493931209442e+01 0.0000000000000000e+00  -1.8104142188346916e+01 -4.4300266279647644e+00 0.0000000000000000e+00  -1.8162421570724248e+01 6.0657032526879808e-04 0.0000000000000000e+00  -1.8092017934033976e+01 4.9301652596663015e+00 0.0000000000000000e+00  -1.8162423644522811e+01 -6.9196434467272709e-04 0.0000000000000000e+00  -1.7900928454418498e+01 1.1960011061626261e+01 0.0000000000000000e+00  -1.3742844676100891e+01 1.9451667252587807e+01 0.0000000000000000e+00  -1.2625819327754437e+01 2.0536431390687351e+01 0.0000000000000000e+00  -1.0876565134359417e+01 2.1045052201498649e+01 0.0000000000000000e+00  -9.9046159328493264e+00 1.9623714539333371e+01 0.0000000000000000e+00  -8.7790887484358304e+00 1.8249576511913538e+01 0.0000000000000000e+00  -7.8643701244260900e+00 1.6463991726072631e+01 0.0000000000000000e+00  -7.0002131920123380e+00 1.4733072642541906e+01 0.0000000000000000e+00  -6.2272635969728301e+00 1.3205520959337147e+01 0.0000000000000000e+00  -5.4140032357713563e+00 1.2069641446676671e+01 0.0000000000000000e+00  -4.7749738122604821e+00 1.0934717586550597e+01 0.0000000000000000e+00  -4.2102346439863467e+00 9.9269576496968810e+00 0.0000000000000000e+00  -3.6220743174068861e+00 9.1730131146588398e+00 0.0000000000000000e+00  -3.0883068647184437e+00 8.4944415893190452e+00 0.0000000000000000e+00  -2.6092861390303486e+00 7.8691821627189231e+00 0.0000000000000000e+00  -2.1839510721659852e+00 7.2955817666119556e+00 0.0000000000000000e+00  -1.8213498665110459e+00 6.7082554261263265e+00 0.0000000000000000e+00  -1.5168184810484386e+00 6.1197903123737722e+00 0.0000000000000000e+00  -1.2555816651907590e+00 5.5385466871880853e+00 0.0000000000000000e+00  -1.0406774087562500e+00 4.9507559580621967e+00 0.0000000000000000e+00  -8.6755899342249221e-01 4.3358480639822155e+00 0.0000000000000000e+00  -7.2963563618744232e-01 3.7723435303955339e+00 0.0000000000000000e+00  -6.2654174375194793e-01 3.1291227282077991e+00 0.0000000000000000e+00  -5.6469387236247459e-01 2.6151286792230541e+00 0.0000000000000000e+00  -5.3520934136198084e-01 1.9293528161625240e+00 0.0000000000000000e+00  -5.5047976427853829e-01 1.5850831417224291e+00 0.0000000000000000e+00  -6.0860618726311966e-01 7.9344347841723895e-01 0.0000000000000000e+00  -7.1469730620407357e-01 5.7863095757821426e-01 0.0000000000000000e+00  -8.9108851076917606e-01 1.0197066960647359e+00 0.0000000000000000e+00  7.0041414622494758e-01 -1.2935573196312722e+00 0.0000000000000000e+00  7.9248548339788460e-01 -1.1573495430199459e+00 0.0000000000000000e+00  5.8885813700994982e-01 -1.5975925140542433e+00 0.0000000000000000e+00  4.7378903254252941e-01 -2.0324397411903417e+00 0.0000000000000000e+00  3.1979237718481690e-01 -2.4251537718909484e+00 0.0000000000000000e+00  6.6772372387470635e-02 -3.0254871555864771e+00 0.0000000000000000e+00  -2.4682901323644688e-01 -3.6492692219965934e+00 0.0000000000000000e+00  -6.1158154133794862e-01 -4.3555774063156223e+00 0.0000000000000000e+00  -1.0212504819094850e+00 -5.0844874405765932e+00 0.0000000000000000e+00  -1.4166429860432335e+00 -5.8006805049738954e+00 0.0000000000000000e+00  -1.5828414601346725e+00 -6.0599315525199282e+00 0.0000000000000000e+00  -2.0685113796932533e+00 -6.5660461549077676e+00 0.0000000000000000e+00  -1.6304572621141333e-01 -3.4709105292982323e+00 0.0000000000000000e+00  -4.5450148788962217e+00 -9.8464568190799913e+00 0.0000000000000000e+00  -3.1744333268279439e+00 -7.6171022881571941e+00 0.0000000000000000e+00  -2.8689265642191542e+00 -6.9535886261092568e+00 0.0000000000000000e+00  -3.1712304643017042e+00 -7.1094864006400869e+00 0.0000000000000000e+00  -3.9100330819053499e+00 -7.8502906523492522e+00 0.0000000000000000e+00  -4.9035868347398877e+00 -8.7895457616346526e+00 0.0000000000000000e+00  -6.0951031189454161e+00 -9.8904541423876982e+00 0.0000000000000000e+00  -7.4373354573216250e+00 -1.1057100157158610e+01 0.0000000000000000e+00  -8.8860709856127720e+00 -1.2232239739328930e+01 0.0000000000000000e+00  -1.0401403294790283e+01 -1.3263762709232777e+01 0.0000000000000000e+00  -1.1941010284138443e+01 -1.4279053883584552e+01 0.0000000000000000e+00  -1.3431946952420601e+01 -1.4752999886450016e+01 0.0000000000000000e+00  -1.4816501465247180e+01 -1.4998638986937598e+01 0.0000000000000000e+00  -1.6023323797640845e+01 -1.4200624264243960e+01 0.0000000000000000e+00  -1.6999352334197134e+01 -1.2588257993590236e+01 0.0000000000000000e+00  -1.7688194925905698e+01 -9.6532563352260770e+00 0.0000000000000000e+00  -1.8095456291770152e+01 -4.1458546643808285e+00 0.0000000000000000e+00  -1.8161163082580764e+01 8.6605533211344472e-04 0.0000000000000000e+00  -1.8071376932330811e+01 4.5850569386670870e+00 0.0000000000000000e+00  -1.8161165193185020e+01 -1.0058227669307118e-03 0.0000000000000000e+00  -1.7669553038515563e+01 1.1610104224264409e+01 0.0000000000000000e+00  -1.7468310684762407e+01 1.3304063055095284e+01 0.0000000000000000e+00  -1.3433927331709620e+01 1.8969497441182579e+01 0.0000000000000000e+00  -1.2455548155141729e+01 1.8501128857147439e+01 0.0000000000000000e+00  -1.0814486437910332e+01 1.8242876293694508e+01 0.0000000000000000e+00  -9.9358536320644948e+00 1.6620369183728727e+01 0.0000000000000000e+00  -8.8884650826509279e+00 1.5148493266427794e+01 0.0000000000000000e+00  -8.0444275791900388e+00 1.3485624170673191e+01 0.0000000000000000e+00  -7.2413081354389082e+00 1.2090882794356984e+01 0.0000000000000000e+00  -6.5247877305611279e+00 1.0890503314878146e+01 0.0000000000000000e+00  -5.7629443183905771e+00 1.0014797275561474e+01 0.0000000000000000e+00  -5.1718044310141362e+00 9.1157057814798037e+00 0.0000000000000000e+00  -4.6523629880896342e+00 8.3248811504144964e+00 0.0000000000000000e+00  -4.1069590140917818e+00 7.7260143728884101e+00 0.0000000000000000e+00  -3.6131629538964956e+00 7.1808637503827608e+00 0.0000000000000000e+00  -3.1718455765050000e+00 6.6860810742132095e+00 0.0000000000000000e+00  -2.7819313732014743e+00 6.1914647340902924e+00 0.0000000000000000e+00  -2.4526803624828459e+00 5.6885989109716952e+00 0.0000000000000000e+00  -2.1797963702464593e+00 5.1712393363339224e+00 0.0000000000000000e+00  -1.9487751378389124e+00 4.6519370323836799e+00 0.0000000000000000e+00  -1.7627119672297951e+00 4.0990349813664055e+00 0.0000000000000000e+00  -1.6176258135438608e+00 3.5873864191659135e+00 0.0000000000000000e+00  -1.5066578127272980e+00 2.9964328533931908e+00 0.0000000000000000e+00  -1.4302552686900918e+00 2.5429334013401190e+00 0.0000000000000000e+00  -1.3938076764471681e+00 1.9068589329060284e+00 0.0000000000000000e+00  -1.3903930828663571e+00 1.6265422585927396e+00 0.0000000000000000e+00  -1.4288500900980539e+00 9.0357230167009805e-01 0.0000000000000000e+00  -1.5139157932181537e+00 7.5217258347976601e-01 0.0000000000000000e+00  -1.6368653576301808e+00 1.3086539498106737e+00 0.0000000000000000e+00  -5.0443911285027621e-01 -1.1522238372677525e+00 0.0000000000000000e+00  -4.3266358005692468e-01 -1.0543774255478300e+00 0.0000000000000000e+00  -6.0166979456149183e-01 -1.4244548674223152e+00 0.0000000000000000e+00  -7.2271382737088219e-01 -1.8521163126381768e+00 0.0000000000000000e+00  -8.4917795486457337e-01 -2.1854008063358448e+00 0.0000000000000000e+00  -1.0163314080630683e+00 -2.6365658221228667e+00 0.0000000000000000e+00  -1.2832109107866576e+00 -3.1688919918105092e+00 0.0000000000000000e+00  -1.6110653970743127e+00 -3.7991221694501540e+00 0.0000000000000000e+00  -1.9892758456089927e+00 -4.4619974325577028e+00 0.0000000000000000e+00  -2.4098796975293713e+00 -5.2018728877942175e+00 0.0000000000000000e+00  -2.8118670001819219e+00 -5.8095496818009229e+00 0.0000000000000000e+00  -2.9795923061823593e+00 -5.8384877798930788e+00 0.0000000000000000e+00  -3.4653236206653997e+00 -6.3232406201674412e+00 0.0000000000000000e+00  -1.5744489179220456e+00 -3.2512323758179020e+00 0.0000000000000000e+00  -5.9927346329462665e+00 -9.6487901089646773e+00 0.0000000000000000e+00  -4.6528054937525383e+00 -7.4023557770153996e+00 0.0000000000000000e+00  -4.3595545127435837e+00 -6.6554391521378671e+00 0.0000000000000000e+00  -4.6619499539088238e+00 -6.7503734878724035e+00 0.0000000000000000e+00  -5.3887607595114000e+00 -7.3127257114982109e+00 0.0000000000000000e+00  -6.3623830055181338e+00 -8.1242648128785557e+00 0.0000000000000000e+00  -7.5249407575311915e+00 -9.0708738744772095e+00 0.0000000000000000e+00  -8.8281221204486400e+00 -1.0094350529989059e+01 0.0000000000000000e+00  -1.0226195047495338e+01 -1.1034773746055155e+01 0.0000000000000000e+00  -1.1678073372258952e+01 -1.2028431014797365e+01 0.0000000000000000e+00  -1.3133307925933105e+01 -1.2583744251994409e+01 0.0000000000000000e+00  -1.4523092757720436e+01 -1.3016814520972824e+01 0.0000000000000000e+00  -1.5773100007064640e+01 -1.2488583164179767e+01 0.0000000000000000e+00  -1.6827265638469800e+01 -1.1276015871966202e+01 0.0000000000000000e+00  -1.7594207663899869e+01 -8.7421263066577470e+00 0.0000000000000000e+00  -1.8073710707548873e+01 -3.7902004664318980e+00 0.0000000000000000e+00  -1.8159505264856769e+01 1.0955968843026939e-03 0.0000000000