<?xml version="1.0"?>
<VTKFile type="UnstructuredGrid"  version="0.1"  >
<UnstructuredGrid>
<Piece  NumberOfPoints="1933" NumberOfCells="3640">
<Points>
<DataArray  type="Float64"  NumberOfComponents="3"  format="ascii">0.2935806812597771 0.001996558920036358 0  5.293580700662464 0.001912264016510548 0  5.29370721993405 7.501912358154815 0  0.2937071591300399 7.501996579152576 0  10.29358071013933 0.001827865916928513 0  10.29370734096211 7.501827990508884 0  15.29358076463003 0.001743275898836677 0  15.2937075590557 7.501743412680436 0  20.29358093373291 0.001658458604046601 0  20.29370791263383 7.50165859999867 0  25.29358128841022 0.001573412506954482 0  25.29370844225809 7.501573555909671 0  30.29358189671047 0.001488158191335056 0  30.29370918987778 7.501488303414837 0  35.29358282339224 0.001402731276997172 0  35.29371019829117 7.50140287934876 0  40.29358413119727 0.001317178386289106 0  40.29371151106972 7.501317330983788 0  45.29358588277194 0.001231555193874386 0  45.29371317286473 7.501231714397986 0  50.29358814281039 0.001145925979117469 0  50.29371522995694 7.501146094192618 0  55.29359098026253 0.001060364349061898 0  55.29371773092684 7.501060544305457 0  60.29359447057244 0.0009749549770631527 0  60.29372072734753 7.500975149803242 0  65.29359869797177 0.0008897963397584622 0  65.29372427441071 7.500890009654897 0  70.29360375786787 0.000805004556816689 0  70.29372843139505 7.500805240598032 0  75.29360975937634 0.0007207185642697867 0  75.29373326185797 7.500720982328628 0  80.29361682802421 0.000637107004797452 0  80.29373883337705 7.500637404386164 0  85.29362510862155 0.0005543774242759759 0  85.29374521658634 7.500554715292153 0  90.29363476820912 0.0004727886623385585 0  90.29375248310888 7.500473174758326 0  95.29364599883469 0.0003926677763123526 0  95.29376070178374 7.500393110146366 0  100.2936590195661 0.0003144335405333723 0  100.2937699323017 7.500314938881679 0  105.2936740764839 0.0002386296761121987 0  105.2937802149594 7.500239199253273 0  110.2936914380174 0.0001659727504082085 0  110.2937915548076 7.500166593007196 0  115.2937113802451 9.742256064270308e-05 0  115.2938038981499 7.500098044325955 0  120.2937341511945 3.42874355678394e-05 0  120.2938170997371 7.500034780888821 0  125.2937598918988 -2.161582336267908e-05 0  125.2938308816822 7.499978442792028 0  130.2937884690012 -6.771679017403566e-05 0  130.293844793992 7.4999312217339 0  135.2938191266069 -0.0001003174477873255 0  135.2938582113852 7.499896020868201 0  140.2938497660943 -0.0001140472330663722 0  140.2938704658365 7.499876598753589 0  145.2938754414464 -0.0001012263309492827 0  145.2938813836786 7.499877640929657 0  150.2938850881951 -5.207464997470405e-05 0  150.2938929725432 7.499904961146812 0  160.2938926261469 8.149271554326795e-19 0  165.2937388409573 -0.0001988085471792013 0  165.2938656053653 7.499773171922166 0  160.2939127793339 7.49993326843294 0  170.2936492927801 -0.0003755342597163566 0  170.2938177172168 7.499610238289728 0  175.2935952080131 -0.0005360747453027528 0  175.2937774073296 7.499455970530361 0  180.2935617114226 -0.0006835508296766884 0  180.2937456751467 7.499311769263738 0  185.2935406383465 -0.0008205038095932554 0  185.2937214698957 7.499176645681485 0  190.2935273263437 -0.0009490453872205633 0  190.2937033310868 7.499049166445587 0  195.2935190194261 -0.001070863351965346 0  195.2936899068634 7.498927984384307 0  200.2935140311931 -0.001187273873510098 0  200.293680086906 7.498811965848048 0  205.2935112925837 -0.001299294949716216 0  205.2936730028854 7.498700193821948 0  210.2935101017095 -0.001407716103822382 0  210.2936679896904 7.498591935849189 0  215.2935099822149 -0.001513155264811514 0  215.2936645414007 7.498486606882795 0  220.2935106009968 -0.001616102124521683 0  220.2936622730474 7.498383736579164 0  225.2935117190295 -0.001716950185325638 0  225.2936608904538 7.49828294308964 0  230.2935131610639 -0.001816020192689717 0  230.2936601674571 7.498183912870152 0  235.2935147963606 -0.00191357728164052 0  235.293659929038 7.498086385359757 0  240.2935165260526 -0.00200984362343825 0  240.2936600389075 7.497990141378182 0  245.2935182746236 -0.002105007870984209 0  245.2936603903802 7.497894994290396 0  250.2935199840145 -0.002199232323862392 0  250.2936608996397 7.497800783207117 0  255.2935216094854 -0.002292658459592434 0  255.2936615007585 7.497707367680706 0  260.2935231166814 -0.002385411283286682 0  260.2936621419999 7.497614623504158 0  265.2935244795938 -0.002477602809782806 0  265.2936627830831 7.497522439334172 0  270.2935256791969 -0.002569334890098418 0  270.2936633931809 7.497430713946913 0  275.2935267026861 -0.0026607015101134 0  275.2936639494736 7.497339354009396 0  280.2935275432637 -0.002751790605471185 0  280.2936644361463 7.497248272321373 0  285.293528200511 -0.002842685329023948 0  285.2936648437175 7.497157386568047 0  290.2935286813834 -0.002933464536051154 0  290.2936651685916 7.497066618738921 0  295.2935290019077 -0.003024201943253981 0  295.2936654127528 7.496975895535894 0  300.2935291894836 -0.003114962815440394 0  300.2936655834957 7.49688515033435 0  305.293529285327 -0.00320579579814578 0  305.2936656933338 7.496794327565499 0  310.2935293453605 -0.003296714852000646 0  310.293665760872 7.496703390638869 0  5.293833357253423 15.00191259532862 0  0.2938332850824233 15.00199663515429 0  10.29383349500144 15.00182830187085 0  15.29383373363758 15.0017437474666 0  20.29383409966949 15.00165893704645 0  25.29383461664597 15.00157388906471 0  30.29383530765896 15.0014886339288 0  35.29383619621989 15.00140321201968 0  40.2938373064467 15.00131767225441 0  45.29383866298835 15.00123207146772 0  50.29384029084708 15.00114647464542 0  55.29384221512787 15.00106095598703 0  60.29384446067662 15.00097560079782 0  65.29384705153701 15.00089050826325 0  70.29385001012348 15.00080579522784 0  75.29385335598627 15.00072160118381 0  80.29385710400943 15.00063809477341 0  85.29386126185456 15.00055548222743 0  90.29386582643488 15.00047401830519 0  95.2938707792195 15.00039402045708 0  100.2938760802437 15.00031588707585 0  105.2938816609936 15.00024012074968 0  110.2938874169577 15.00016735718793 0  115.2938932020244 15.00009839951627 0  120.2938988295601 15.00003425499405 0  125.2939040898816 14.99997616492817 0  130.2939088020065 14.99992560458717 0  135.2939129296323 14.99988419970056 0  140.2939168041599 14.99985343996761 0  145.2939214930872 14.99983391169367 0  150.2939292523807 14.9998233028797 0  165.2939447057582 14.99969664475421 0  160.2939530642834 14.99981827246214 0  170.293928064891 14.9995629898562 0  175.2939081249471 14.99942700511321 0  180.2938884105386 14.9992937821485 0  185.2938706567903 14.99916524438299 0  190.2938554852267 14.99904176473128 0  195.2938429358865 14.99892305724294 0  200.2938327833875 14.99880860443033 0  205.2938247062172 14.99869784783968 0  210.2938183706343 14.99859026555069 0  215.2938134682322 14.9984853978078 0  220.2938097296348 14.99838285010129 0  225.293806926622 14.99828228739715 0  230.2938048691423 14.99818342569372 0  235.2938034004944 14.99808602352035 0  240.2938023922181 14.99798987434865 0  245.2938017393826 14.99789480015884 0  250.2938013565122 14.99780064610869 0  255.2938011741809 14.99770727614983 0  260.2938011362261 14.9976145694234 0  265.2938011974863 14.99752241728465 0  270.29380132198 14.99743072083951 0  275.2938014814293 14.99733938891065 0  280.2938016540411 14.99724833638728 0  285.293801823501 14.99715748294624 0  290.2938019780893 14.99706675215395 0  295.2938021099732 14.99697607093601 0  300.2938022147524 14.99688536925202 0  305.2938022916227 14.99679457929532 0  310.2938023448639 14.99670363201386 0  5.293958996872918 22.50191311923897 0  0.2939589234329424 22.50199695634108 0  10.2939591185877 22.50182891506567 0  15.29395931760467 22.50174438898584 0  20.29395961232775 22.50165957903488 0  25.2939600154166 22.50157452324587 0  30.29396053671078 22.50148926302096 0  35.29396118469253 22.50140384460601 0  40.29396196701303 22.50131831984647 0  45.29396289045462 22.50123274687725 0  50.29396396055088 22.50114719108754 0  55.29396518096984 22.50106172654168 0  60.29396655269349 22.50097643797221 0  65.29396807298318 22.5008914234495 0  70.29396973409501 22.50080679784495 0  75.29397152170313 22.50072269723586 0  80.2939734130001 22.50063928442976 0  85.29397537447633 22.50055675581115 0  90.29397735946614 22.50047534970818 0  95.29397930570215 22.50039535640696 0  100.2939811333967 22.50031712973058 0  105.2939827448435 22.50024109961821 0  110.2939840272911 22.50016778413491 0  115.2939848619793 22.50009779738801 0  120.2939851437668 22.50003184618326 0  125.2939848174929 22.49997070174431 0  130.2939839381266 22.49991512171077 0  135.2939827591902 22.49986567987235 0  140.2939818414158 22.49982243609426 0  145.2939821371006 22.49978435627214 0  150.2939849196377 22.49974843662033 0  165.2940156770103 22.49961204386675 0  160.2940055307315 22.49971092442363 0  170.2940178498679 22.49950053142717 0  175.2940142138444 22.49938255537223 0  180.2940071268174 22.49926259708891 0  185.2939984798049 22.4991433911223 0  190.2939895377009 22.49902635441978 0  195.2939810440843 22.49891207691096 0  200.2939733785722 22.49880068310981 0  205.2939666904245 22.49869205870199 0  210.2939609937675 22.49858598105192 0  215.2939562297751 22.49848219001035 0  220.2939523050054 22.49838042406813 0  225.2939491139181 22.49828043726431 0  230.2939465514106 22.4981820058078 0  235.2939445192976 22.49808492943497 0  240.2939429292276 22.49798903024217 0  245.2939417035861 22.49789415044334 0  250.2939407753102 22.49780014979387 0  255.293940087167 22.49770690304026 0  260.2939395907898 22.49761429755507 0  265.2939392456594 22.49752223121457 0  270.2939390180938 22.49743061052851 0  275.2939388802967 22.4973393490095 0  280.2939388094652 22.49724836575708 0  285.2939387869652 22.49715758421383 0  290.2939387975832 22.49706693100617 0  295.2939388289108 22.49697633467472 0  300.2939388709194 
[...]
<PointData  Vectors="v"> 
<DataArray  type="Float64"  Name="v"  NumberOfComponents="3" format="ascii">3.6574412709433184e+00 -1.6115804632791859e+00 0.0000000000000000e+00  3.5120779027269555e+00 -1.8360838507210826e+00 0.0000000000000000e+00  2.8947466674928375e+00 -1.6180380041227760e+00 0.0000000000000000e+00  3.0018940983774636e+00 -1.4515903479710444e+00 0.0000000000000000e+00  3.2680978072388602e+00 -2.3480314379012426e+00 0.0000000000000000e+00  2.7493156897078821e+00 -1.9824876613065343e+00 0.0000000000000000e+00  2.9630793985261739e+00 -3.0802560487407842e+00 0.0000000000000000e+00  2.5056345187637614e+00 -2.6232449593802838e+00 0.0000000000000000e+00  2.6051925831330598e+00 -3.7904164014523798e+00 0.0000000000000000e+00  2.2011446572426268e+00 -3.2546397356809997e+00 0.0000000000000000e+00  2.1996605044115980e+00 -4.6312544096785331e+00 0.0000000000000000e+00  1.8441125176574205e+00 -4.0245209470174146e+00 0.0000000000000000e+00  1.8042279892041224e+00 -5.3865687771207202e+00 0.0000000000000000e+00  1.4402580597333814e+00 -4.7953065809552182e+00 0.0000000000000000e+00  1.6319787654287599e+00 -5.8088312664673989e+00 0.0000000000000000e+00  1.0470288982533080e+00 -5.5532327750376940e+00 0.0000000000000000e+00  1.1327437296018747e+00 -6.6716798847620913e+00 0.0000000000000000e+00  8.7766986195633745e-01 -5.9263325109738005e+00 0.0000000000000000e+00  3.0276716166563555e+00 -3.9430993969333166e+00 0.0000000000000000e+00  3.8249012770758889e-01 -6.7894229111087538e+00 0.0000000000000000e+00  -1.3458183949018854e+00 -1.0491392518474189e+01 0.0000000000000000e+00  2.2823768517305818e+00 -3.9365514445684653e+00 0.0000000000000000e+00  2.8614270009502979e-02 -8.1874696249074113e+00 0.0000000000000000e+00  -2.0862809418517245e+00 -1.0254564429835158e+01 0.0000000000000000e+00  3.1587781438090051e-01 -7.5183992567899729e+00 0.0000000000000000e+00  -7.0532450107129319e-01 -7.9571174999287706e+00 0.0000000000000000e+00  -2.0029084347712563e-02 -7.8256127476267565e+00 0.0000000000000000e+00  -4.0903739616437612e-01 -7.3315996365478453e+00 0.0000000000000000e+00  -8.0935706756342274e-01 -8.8103820195076317e+00 0.0000000000000000e+00  -7.3386257558276446e-01 -7.6386981350047920e+00 0.0000000000000000e+00  -1.8670020757139707e+00 -1.0138683573053511e+01 0.0000000000000000e+00  -1.5088477381837149e+00 -8.5659473114971352e+00 0.0000000000000000e+00  -3.1369882826327209e+00 -1.1667879393959479e+01 0.0000000000000000e+00  -2.5499902361457205e+00 -9.7796514249583009e+00 0.0000000000000000e+00  -4.5747142317269702e+00 -1.3358220221909660e+01 0.0000000000000000e+00  -3.8011141092305931e+00 -1.1220837219311084e+01 0.0000000000000000e+00  -6.1353543793729077e+00 -1.5025251294556110e+01 0.0000000000000000e+00  -5.2159769769668598e+00 -1.2705471679642210e+01 0.0000000000000000e+00  -7.7832325796532764e+00 -1.6662792201425844e+01 0.0000000000000000e+00  -6.7513911566191611e+00 -1.4216151759023752e+01 0.0000000000000000e+00  -9.4780100124033329e+00 -1.8186740486043512e+01 0.0000000000000000e+00  -8.3702413304265608e+00 -1.5672232037767980e+01 0.0000000000000000e+00  -1.1152803705321547e+01 -1.9496051328351179e+01 0.0000000000000000e+00  -1.0032181641927135e+01 -1.7015327878636860e+01 0.0000000000000000e+00  -1.2745361944512107e+01 -2.0407296483781838e+01 0.0000000000000000e+00  -1.1669079368154605e+01 -1.8052698224878636e+01 0.0000000000000000e+00  -1.4203214618262708e+01 -2.1020452348396766e+01 0.0000000000000000e+00  -1.3222049677664785e+01 -1.8874258387114999e+01 0.0000000000000000e+00  -1.5453239763277770e+01 -2.0818438338930825e+01 0.0000000000000000e+00  -1.4630611988765251e+01 -1.8982981167408127e+01 0.0000000000000000e+00  -1.6477119988290866e+01 -2.0141919514482762e+01 0.0000000000000000e+00  -1.5834006004641797e+01 -1.8658066752416389e+01 0.0000000000000000e+00  -1.7227529106594183e+01 -1.8255320625515008e+01 0.0000000000000000e+00  -1.6795076556043639e+01 -1.7173527925925370e+01 0.0000000000000000e+00  -1.7742335616759650e+01 -1.5430740056682508e+01 0.0000000000000000e+00  -1.7493165179823958e+01 -1.4724823209213032e+01 0.0000000000000000e+00  -1.8011408161140725e+01 -1.1383804344100708e+01 0.0000000000000000e+00  -1.7928588789998486e+01 -1.1025616769254203e+01 0.0000000000000000e+00  -1.8136940731814125e+01 -4.7344882546612377e+00 0.0000000000000000e+00  -1.8141699126961303e+01 -4.6305470077086008e+00 0.0000000000000000e+00  -1.8163563202072631e+01 4.3442766170660629e-11 0.0000000000000000e+00  -1.8163229809579892e+01 3.1822770190304028e-04 0.0000000000000000e+00  -1.8163563200083882e+01 -1.7042420605149189e-19 0.0000000000000000e+00  -1.3885029489927293e+01 1.1500623651171061e+01 0.0000000000000000e+00  -1.8132846624152293e+01 5.1183334352626941e+00 0.0000000000000000e+00  -1.8163230960194173e+01 -3.3661007215217783e-04 0.0000000000000000e+00  -1.2622805542857551e+01 2.0107768506770352e+01 0.0000000000000000e+00  -1.3903900935622593e+01 1.8283843436791564e+01 0.0000000000000000e+00  -1.0750990871699175e+01 2.3971238672474456e+01 0.0000000000000000e+00  -1.2700455527514604e+01 2.1200135877972016e+01 0.0000000000000000e+00  -9.6662933153532382e+00 2.4801146640520837e+01 0.0000000000000000e+00  -1.0883318792365781e+01 2.3222179134086094e+01 0.0000000000000000e+00  -8.4433229011230360e+00 2.4355845639428161e+01 0.0000000000000000e+00  -9.8476996029803789e+00 2.2561150327338787e+01 0.0000000000000000e+00  -7.4333379371238291e+00 2.2837830219571430e+01 0.0000000000000000e+00  -8.6704444555046933e+00 2.1363144362695156e+01 0.0000000000000000e+00  -6.4848547551526687e+00 2.1055287262056606e+01 0.0000000000000000e+00  -7.7050160146225570e+00 1.9668063481174514e+01 0.0000000000000000e+00  -5.6326803253814042e+00 1.9045257313363621e+01 0.0000000000000000e+00  -6.7971724851997628e+00 1.7803021880572700e+01 0.0000000000000000e+00  -4.7442364432487496e+00 1.7231707158549192e+01 0.0000000000000000e+00  -5.9837349164986877e+00 1.5932003328262743e+01 0.0000000000000000e+00  -4.0346812756537185e+00 1.5494420000406965e+01 0.0000000000000000e+00  -5.1325715830963015e+00 1.4461907557361489e+01 0.0000000000000000e+00  -3.4034200212533179e+00 1.3978956785553073e+01 0.0000000000000000e+00  -4.4581645428324617e+00 1.3062760154573125e+01 0.0000000000000000e+00  -2.7509469450156279e+00 1.2763579825800393e+01 0.0000000000000000e+00  -3.8605472336927456e+00 1.1814322425240729e+01 0.0000000000000000e+00  -2.1562867144302036e+00 1.1703572265541910e+01 0.0000000000000000e+00  -3.2407118673207886e+00 1.0839739943864847e+01 0.0000000000000000e+00  -1.6192036191989339e+00 1.0780738946090464e+01 0.0000000000000000e+00  -2.6771897851748205e+00 1.0002626484254602e+01 0.0000000000000000e+00  -1.1377724339026580e+00 9.9359882987875388e+00 0.0000000000000000e+00  -2.1701394991957792e+00 9.2403336634610973e+00 0.0000000000000000e+00  -7.2141753728825520e-01 9.1319013173052195e+00 0.0000000000000000e+00  -1.7179302161462979e+00 8.5330452791274585e+00 0.0000000000000000e+00  -3.6515368257017039e-01 8.3734364563981440e+00 0.0000000000000000e+00  -1.3297997148792113e+00 7.8641708076307486e+00 0.0000000000000000e+00  -5.3504329353040107e-02 7.6315728834651626e+00 0.0000000000000000e+00  -1.0009600872539492e+00 7.1886137483008881e+00 0.0000000000000000e+00  2.1026452070075480e-01 6.9059462622410823e+00 0.0000000000000000e+00  -7.1621857570186553e-01 6.5342108521417552e+00 0.0000000000000000e+00  4.3107077549688183e-01 6.1902481152088411e+00 0.0000000000000000e+00  -4.7864281041950052e-01 5.8826786480689277e+00 0.0000000000000000e+00  6.1574734682590959e-01 5.4854165231475642e+00 0.0000000000000000e+00  -2.8364204103745161e-01 5.2315187482294228e+00 0.0000000000000000e+00  7.6489097691032581e-01 4.7638995155084389e+00 0.0000000000000000e+00  -1.2422226679597216e-01 4.5631645089859321e+00 0.0000000000000000e+00  8.7173171565503538e-01 4.0848300720260315e+00 0.0000000000000000e+00  -2.7115522140856968e-04 3.9469775827322819e+00 0.0000000000000000e+00  9.4625541759129750e-01 3.3303526729633761e+00 0.0000000000000000e+00  8.2253106902064735e-02 3.2413384228405002e+00 0.0000000000000000e+00  9.7453279971636908e-01 2.6994224823394748e+00 0.0000000000000000e+00  1.3169325920298025e-01 2.6785256884946986e+00 0.0000000000000000e+00  9.6081601572892572e-01 1.8812376674040181e+00 0.0000000000000000e+00  1.3680846168768876e-01 1.9249823213700998e+00 0.0000000000000000e+00  8.9622178117375184e-01 1.3995053223007341e+00 0.0000000000000000e+00  9.7322530567877125e-02 1.5164132094753862e+00 0.0000000000000000e+00  7.6624464963931871e-01 4.3155345279303919e-01 0.0000000000000000e+00  1.1793048293577598e-02 6.5143705309553457e-01 0.0000000000000000e+00  5.2157618898174651e-01 -4.9886365126159696e-02 0.0000000000000000e+00  -1.4735053232561132e-01 3.3309691735267255e-01 0.0000000000000000e+00  -5.8952310701343290e-02 -2.8479015928853491e-01 0.0000000000000000e+00  -4.0367156482013261e-01 6.1946668388182746e-01 0.0000000000000000e+00  2.0088183090667009e+00 -1.4562936054686018e+00 0.0000000000000000e+00  2.1166774746353951e+00 -1.2920571075461393e+00 0.0000000000000000e+00  1.8999863398457320e+00 -1.7630026965551255e+00 0.0000000000000000e+00  1.7523135855088692e+00 -2.2565377516354372e+00 0.0000000000000000e+00  1.5064494105643957e+00 -2.7968097982889248e+00 0.0000000000000000e+00  1.2000654442703180e+00 -3.4878115513695569e+00 0.0000000000000000e+00  8.4140710426266685e-01 -4.1890740715860471e+00 0.0000000000000000e+00  4.3679550886486157e-01 -4.9636899683896711e+00 0.0000000000000000e+00  4.4162450588105390e-02 -5.6728083216216048e+00 0.0000000000000000e+00  -1.2347880420222027e-01 -6.0488633902329010e+00 0.0000000000000000e+00  -6.1440733973480455e-01 -6.7902499201077173e+00 0.0000000000000000e+00  1.2907396471713766e+00 -3.7019323455194564e+00 0.0000000000000000e+00  -3.0786714471724466e+00 -1.0027744564688392e+01 0.0000000000000000e+00  -1.6973269250889964e+00 -7.7801552652628381e+00 0.0000000000000000e+00  -1.3938485828877336e+00 -7.1565553366565151e+00 0.0000000000000000e+00  -1.7078962089428118e+00 -7.4131695705495870e+00 0.0000000000000000e+00  -2.4664621126571853e+00 -8.2297946488997642e+00 0.0000000000000000e+00  -3.4869034869098701e+00 -9.3574808653716666e+00 0.0000000000000000e+00  -4.7136973170921150e+00 -1.0600646223318378e+01 0.0000000000000000e+00  -6.0987202092614101e+00 -1.1933640531973355e+01 0.0000000000000000e+00  -7.5987443804147317e+00 -1.3265893883906054e+01 0.0000000000000000e+00  -9.1776630310547596e+00 -1.4550964602368619e+01 0.0000000000000000e+00  -1.0791393638682043e+01 -1.5628274688914525e+01 0.0000000000000000e+00  -1.2373413122135187e+01 -1.6581717202109054e+01 0.0000000000000000e+00  -1.3862595197032151e+01 -1.6910012591964119e+01 0.0000000000000000e+00  -1.5199325055635239e+01 -1.6905167976986508e+01 0.0000000000000000e+00  -1.6316716379772000e+01 -1.5777186720894139e+01 0.0000000000000000e+00  -1.7189001950190008e+01 -1.3753372271597742e+01 0.0000000000000000e+00  -1.7771326552322108e+01 -1.0415835781033213e+01 0.0000000000000000e+00  -1.8104142316355492e+01 -4.4238746977141679e+00 0.0000000000000000e+00  -1.8162421582689753e+01 6.0656570868195567e-04 0.0000000000000000e+00  -1.8092016350539190e+01 4.9223777503838448e+00 0.0000000000000000e+00  -1.8162423654286869e+01 -6.9195975602340753e-04 0.0000000000000000e+00  -1.7900922608286347e+01 1.1959414104963580e+01 0.0000000000000000e+00  -1.3742558286326068e+01 1.9452529223772288e+01 0.0000000000000000e+00  -1.2625479664702704e+01 2.0539020152719861e+01 0.0000000000000000e+00  -1.0876370370132021e+01 2.1047813454160305e+01 0.0000000000000000e+00  -9.9042962612592618e+00 1.9626971283927190e+01 0.0000000000000000e+00  -8.7787396620667355e+00 1.8253011642078608e+01 0.0000000000000000e+00  -7.8639679926578347e+00 1.6467398104333622e+01 0.0000000000000000e+00  -6.9997588184698483e+00 1.4736350874755006e+01 0.0000000000000000e+00  -6.2267387917945936e+00 1.3208717070068959e+01 0.0000000000000000e+00  -5.4134085371907066e+00 1.2072726070086929e+01 0.0000000000000000e+00  -4.7743474149983376e+00 1.0937645018453082e+01 0.0000000000000000e+00  -4.2096511971713495e+00 9.9296326505440202e+00 0.0000000000000000e+00  -3.6215250150033773e+00 9.1754810040709174e+00 0.0000000000000000e+00  -3.0877827036887218e+00 8.4967092637078707e+00 0.0000000000000000e+00  -2.6087810471042818e+00 7.8712770599719306e+00 0.0000000000000000e+00  -2.1834626672757382e+00 7.2975373136871493e+00 0.0000000000000000e+00  -1.8208736575935498e+00 6.7100699388421861e+00 0.0000000000000000e+00  -1.5163557159322092e+00 6.1214781898878501e+00 0.0000000000000000e+00  -1.2551347340101573e+00 5.5401272036090292e+00 0.0000000000000000e+00  -1.0402489889390345e+00 4.9522166029615260e+00 0.0000000000000000e+00  -8.6715410002330595e-01 4.3372007799244976e+00 0.0000000000000000e+00  -7.2925844129210438e-01 3.7735882098783753e+00 0.0000000000000000e+00  -6.2619822605437425e-01 3.1302628323000823e+00 0.0000000000000000e+00  -5.6438756430901871e-01 2.6161485070093740e+00 0.0000000000000000e+00  -5.3494886450511570e-01 1.9302853090621457e+00 0.0000000000000000e+00  -5.5026550205177238e-01 1.5858660646324800e+00 0.0000000000000000e+00  -6.0845227117252620e-01 7.9416857893528425e-01 0.0000000000000000e+00  -7.1459841557529236e-01 5.7914554758794812e-01 0.0000000000000000e+00  -8.9106818380030306e-01 1.0196708884375820e+00 0.0000000000000000e+00  7.0005279707944490e-01 -1.2922310616879535e+00 0.0000000000000000e+00  7.9215526599518715e-01 -1.1573202079838407e+00 0.0000000000000000e+00  5.8847615717576907e-01 -1.5959327880227625e+00 0.0000000000000000e+00  4.7338974137012707e-01 -2.0310640432019440e+00 0.0000000000000000e+00  3.1943338007169786e-01 -2.4235700752529343e+00 0.0000000000000000e+00  6.6527178030346135e-02 -3.0238171041745741e+00 0.0000000000000000e+00  -2.4696969863713247e-01 -3.6474019667746407e+00 0.0000000000000000e+00  -6.1163359089580693e-01 -4.3536401821693396e+00 0.0000000000000000e+00  -1.0211754754769984e+00 -5.0823558797993602e+00 0.0000000000000000e+00  -1.4164985942010970e+00 -5.7985011732124434e+00 0.0000000000000000e+00  -1.5827157441400808e+00 -6.0578066790696292e+00 0.0000000000000000e+00  -2.0683281903499706e+00 -6.5637619887622485e+00 0.0000000000000000e+00  -1.6276453367494978e-01 -3.4684046089254297e+00 0.0000000000000000e+00  -4.5450091955483405e+00 -9.8443325772199568e+00 0.0000000000000000e+00  -3.1744265992128686e+00 -7.6149146261077520e+00 0.0000000000000000e+00  -2.8689194559444444e+00 -6.9513827561280950e+00 0.0000000000000000e+00  -3.1712232475971156e+00 -7.1073011515204669e+00 0.0000000000000000e+00  -3.9100258392531630e+00 -7.8481033883306530e+00 0.0000000000000000e+00  -4.9035796616004532e+00 -8.7873728126578250e+00 0.0000000000000000e+00  -6.0950960618166787e+00 -9.8883235891234662e+00 0.0000000000000000e+00  -7.4373285848973589e+00 -1.1054925726044281e+01 0.0000000000000000e+00  -8.8860644059598393e+00 -1.2230044754448999e+01 0.0000000000000000e+00  -1.0401397221213635e+01 -1.3261474903974495e+01 0.0000000000000000e+00  -1.1941004742450104e+01 -1.4276654870927548e+01 0.0000000000000000e+00  -1.3431942312684015e+01 -1.4750276179034678e+01 0.0000000000000000e+00  -1.4816497625071149e+01 -1.4995763533896490e+01 0.0000000000000000e+00  -1.6023321090489372e+01 -1.4197073804060627e+01 0.0000000000000000e+00  -1.6999350652466916e+01 -1.2584439227536341e+01 0.0000000000000000e+00  -1.7688194076245011e+01 -9.6486026243673493e+00 0.0000000000000000e+00  -1.8095456324597201e+01 -4.1397048446897537e+00 0.0000000000000000e+00  -1.8161163109149712e+01 8.6604901147424010e-04 0.0000000000000000e+00  -1.8071377169820334e+01 4.5772698632362996e+00 0.0000000000000000e+00  -1.8161165216919013e+01 -1.0058161415748685e-03 0.0000000000000000e+00  -1.7669550459083851e+01 1.1609507599463113e+01 0.0000000000000000e+00  -1.7468306896681995e+01 1.3304536719664542e+01 0.0000000000000000e+00  -1.3433646742273798e+01 1.8972011645655897e+01 0.0000000000000000e+00  -1.2455216216761595e+01 1.8504113474215146e+01 0.0000000000000000e+00  -1.0814300731686588e+01 1.8245945078409846e+01 0.0000000000000000e+00  -9.9355432756469870e+00 1.6623759866167159e+01 0.0000000000000000e+00  -8.8881254445984563e+00 1.5151818453833872e+01 0.0000000000000000e+00  -8.0440346242684377e+00 1.3488822470526109e+01 0.0000000000000000e+00  -7.2408624021116204e+00 1.2093971939464641e+01 0.0000000000000000e+00  -6.5242710031257376e+00 1.0893482424205033e+01 0.0000000000000000e+00  -5.7623572100263702e+00 1.0017676333622655e+01 0.0000000000000000e+00  -5.1711851240711129e+00 9.1184445075694835e+00 0.0000000000000000e+00  -4.6517861397930877e+00 8.3273998617171205e+00 0.0000000000000000e+00  -4.1064158747791781e+00 7.7283194057048412e+00 0.0000000000000000e+00  -3.6126445348491583e+00 7.1829869181093908e+00 0.0000000000000000e+00  -3.1713458077575503e+00 6.6880613348770552e+00 0.0000000000000000e+00  -2.7814479029933969e+00 6.1932971912621895e+00 0.0000000000000000e+00  -2.4522086999664228e+00 5.6903065923302609e+00 0.0000000000000000e+00  -2.1793377732200097e+00 5.1728432418765848e+00 0.0000000000000000e+00  -1.9483320066552012e+00 4.6534250786238749e+00 0.0000000000000000e+00  -1.7622869965178232e+00 4.1004226105395798e+00 0.0000000000000000e+00  -1.6172240012914667e+00 3.5886723059664396e+00 0.0000000000000000e+00  -1.5062833838760552e+00 2.9976231017726231e+00 0.0000000000000000e+00  -1.4299141405832210e+00 2.5440087506240192e+00 0.0000000000000000e+00  -1.3935034897346146e+00 1.9078598065946961e+00 0.0000000000000000e+00  -1.3901343075813897e+00 1.6273943264426489e+00 0.0000000000000000e+00  -1.4286373642547439e+00 9.0438752831400815e-01 0.0000000000000000e+00  -1.5137629357364761e+00 7.5276965997448730e-01 0.0000000000000000e+00  -1.6367671248928493e+00 1.3087361000280044e+00 0.0000000000000000e+00  -5.0476867612645149e-01 -1.1508510877091049e+00 0.0000000000000000e+00  -4.3297546640283530e-01 -1.0543217919070365e+00 0.0000000000000000e+00  -6.0203044776470216e-01 -1.4227643275913282e+00 0.0000000000000000e+00  -7.2309507446528198e-01 -1.8507147225683585e+00 0.0000000000000000e+00  -8.4957652869812272e-01 -2.1838776078767124e+00 0.0000000000000000e+00  -1.0166896787135569e+00 -2.6350664193229831e+00 0.0000000000000000e+00  -1.2834554072303834e+00 -3.1671814124070279e+00 0.0000000000000000e+00  -1.6112054042247934e+00 -3.7973177619978284e+00 0.0000000000000000e+00  -1.9893272551471466e+00 -4.4600562902204537e+00 0.0000000000000000e+00  -2.4098040815640926e+00 -5.1997974777746725e+00 0.0000000000000000e+00  -2.8117220680367190e+00 -5.8073969139658290e+00 0.0000000000000000e+00  -2.9794661717501003e+00 -5.8362897520653281e+00 0.0000000000000000e+00  -3.4651400620479116e+00 -6.3208842663914764e+00 0.0000000000000000e+00  -1.5741675720281534e+00 -3.2486901115005549e+00 0.0000000000000000e+00  -5.9927285651243203e+00 -9.6466063809513667e+00 0.0000000000000000e+00  -4.6527986378296253e+00 -7.4001516213447625e+00 0.0000000000000000e+00  -4.3595474625991182e+00 -6.6532544734324448e+00 0.0000000000000000e+00  -4.6619429015081799e+00 -6.7481860463659356e+00 0.0000000000000000e+00  -5.3887537963759700e+00 -7.3105521416434716e+00 0.0000000000000000e+00  -6.3623761582476810e+00 -8.1221332812216431e+00 0.0000000000000000e+00  -7.5249340514230720e+00 -9.0686981699222056e+00 0.0000000000000000e+00  -8.8281155894067904e+00 -1.0092154015097595e+01 0.0000000000000000e+00  -1.0226188842617447e+01 -1.1032484235677009e+01 0.0000000000000000e+00  -1.1678067552860014e+01 -1.2026030376279413e+01 0.0000000000000000e+00  -1.3133302825100547e+01 -1.2581019227826932e+01 0.0000000000000000e+00  -1.4523088460456384e+01 -1.3013938561273942e+01 0.0000000000000000e+00  -1.5773096878037670e+01 -1.2485033111772911e+01 0.0000000000000000e+00  -1.6827263723290169e+01 -1.1272198490875683e+01 0.0000000000000000e+00  -1.7594206874526954e+01 -8.7374745906962463e+00 0.0000000000000000e+00  -1.8073710713730353e+01 -3.7840515301412507e+00 0.0000000000000000e+00  -1.8159505309842011e+01 1.0955892392715155e-03 0.0000000000