<?xml version="1.0"?>
<VTKFile type="UnstructuredGrid"  version="0.1"  >
<UnstructuredGrid>
<Piece  NumberOfPoints="1933" NumberOfCells="3640">
<Points>
<DataArray  type="Float64"  NumberOfComponents="3"  format="ascii">0.2940354263760274 -0.001584479563947712 0  5.294035470139516 -0.001549935509099678 0  5.293983653945936 7.498450174846493 0  0.2939835893522571 7.498415596401793 0  10.29403554041448 -0.001515478700147368 0  10.29398376317154 7.498484639556281 0  15.29403568371255 -0.001481117198674604 0  15.2939839366226 7.498519000217574 0  20.29403594279171 -0.001446826331941254 0  20.29398419142424 7.498553287867773 0  25.29403635257361 -0.001412563675768688 0  25.29398454234661 7.498587547260069 0  30.29403694024577 -0.001378276432991805 0  30.29398500125645 7.498621831978656 0  35.294037726533 -0.001343904949408299 0  35.2939855767083 7.498656201862866 0  40.29403872706992 -0.001309384078776275 0  40.29398627369923 7.498690722016873 0  45.29403995352212 -0.00127464325774055 0  45.29398709346463 7.498725462884495 0  50.29404141436338 -0.001239605730870658 0  50.29398803318999 7.498760501078701 0  55.29404311530063 -0.001204187133247204 0  55.29398908553399 7.49879592081032 0  60.29404505934696 -0.001168293495597657 0  60.29399023786792 7.498831815870473 0  65.29404724652724 -0.001131818637031465 0  65.29399147112363 7.498868292205416 0  70.29404967315324 -0.001094640825320144 0  70.29399275811861 7.498905471197079 0  75.29405233055313 -0.00105661849512607 0  75.2939940611755 7.498943493839048 0  80.29405520303837 -0.001017584703039387 0  80.29399532877656 7.498982526089632 0  85.2940582647492 -0.0009773398446688824 0  85.29399649089373 7.499022765798819 0  90.29406147476296 -0.0009356419364841972 0  90.29399745248104 7.499064451755145 0  95.2940647694253 -0.0008921934356865671 0  95.2939980844294 7.499107875583801 0  100.2940680500927 -0.0008466230818196119 0  100.2939982110734 7.499153397433462 0  105.2940711631085 -0.000798460525862927 0  105.2939975931488 7.499201466553277 0  110.2940738662949 -0.0007471004975023892 0  110.2939959051571 7.499252647794245 0  115.2940757715806 -0.0006917519439567847 0  115.2939927068584 7.499307654302928 0  120.2940762446084 -0.0006313662168641753 0  120.2939874112468 7.499367384091598 0  125.2940742257079 -0.0005645381338246316 0  125.2939792585218 7.499432951267205 0  130.2940679054858 -0.0004893784969482912 0  130.2939673229923 7.499505686136207 0  135.2940541293142 -0.0004033791586552967 0  135.2939506200735 7.499587041763152 0  140.2940272917561 -0.0003033760909891875 0  140.2939284704854 7.499678272360247 0  145.2939772548321 -0.0001860336166810305 0  145.2939014799451 7.499779646774654 0  150.2938853037199 -5.058650042154937e-05 0  150.2938739702558 7.499889059029373 0  160.2938926261454 7.756918317334959e-19 0  165.2938476316635 -9.703144802287097e-05 0  165.2938857292654 7.499883398373455 0  160.293893259158 7.499954279401117 0  170.2938362178655 -0.0001615376601438738 0  170.2938777812305 7.4998288758864 0  175.2938402374325 -0.0002033629958398902 0  175.2938734572928 7.49979162476772 0  180.293851042371 -0.0002285442255866176 0  180.2938728109077 7.499768754922433 0  185.2938644032072 -0.0002413270379892271 0  185.2938749487216 7.499757199150841 0  190.293878253179 -0.000244783115617738 0  190.2938789264479 7.499754413603408 0  195.2938916077833 -0.0002411482790836352 0  195.293883984442 7.499758422944049 0  200.2939040284062 -0.0002320601731957935 0  200.2938895726955 7.499767724352941 0  205.2939153512896 -0.0002187301466889773 0  205.2938953155327 7.49978117812356 0  210.2939255492027 -0.0002020655631965124 0  210.2939009669973 7.499797915692999 0  215.293934660438 -0.0001827556947682838 0  215.2939063725245 7.499817269182691 0  220.2939427522953 -0.0001613317974918203 0  220.2939114399533 7.499838719360547 0  225.2939499023923 -0.0001382092832198354 0  225.2939161188605 7.49986185771859 0  230.2939561892686 -0.0001137175902185064 0  230.2939203862945 7.499886358878847 0  235.2939616878698 -8.812160217473329e-05 0  235.293924237121 7.49991196041157 0  240.2939664676162 -6.16372227861242e-05 0  240.2939276775767 7.499938447944636 0  245.2939705918544 -3.444286411801269e-05 0  245.293930721029 7.49996564406175 0  250.2939741180518 -6.688035684921409e-06 0  250.2939333852353 7.499993399937798 0  255.2939770984121 2.15001625671489e-05 0  255.2939356906346 7.500021588981152 0  260.2939795807342 5.001210147993578e-05 0  260.2939376593382 7.500050101979869 0  265.2939816094547 7.875187999818647e-05 0  265.29393931461 7.500078843414089 0  270.2939832268274 0.000107634558516851 0  270.2939406806841 7.500107728722214 0  275.2939844742652 0.0001365842644354448 0  275.2939417827967 7.500136682413292 0  280.2939853938337 0.0001655331816712102 0  280.2939426473512 7.500165637015989 0  285.2939860299057 0.0001944215732616282 0  285.2939433021157 7.500194532959884 0  290.2939864308631 0.0002231991741317514 0  290.293943776354 7.500223319606568 0  295.2939866506252 0.0002518285672960018 0  295.2939441008186 7.500251957792623 0  300.2939867493095 0.0002802915614947383 0  300.2939443075721 7.50028042440625 0  305.2939867915205 0.0003086000984126992 0  305.2939444299517 7.500308719673013 0  310.2939868387938 0.0003368133705038093 0  310.2939445038097 7.50033687805031 0  5.293931612358812 14.99845041083174 0  0.2939315468661882 14.99841577973605 0  10.29393170654656 14.99848487406285 0  15.29393184278601 14.99851921454083 0  20.29393202755138 14.99855347814676 0  25.29393226398748 14.99858771519237 0  30.29393255291052 14.99862198078283 0  35.29393289277254 14.99865633458871 0  40.29393327923559 14.9986908408685 0  45.2939337045838 14.99872556894429 0  50.2939341570219 14.99876059414522 0  55.29393461983518 14.99879599920311 0  60.29393507035355 14.99883187610668 0  65.29393547865305 14.99886832845633 0  70.29393580591474 14.9989054743999 0  75.29393600236412 14.99894345026995 0  80.29393600471442 14.99898241507854 0  85.29393573307151 14.99902255605137 0  90.29393508732866 14.99906409538104 0  95.29393394326223 14.9991072983053 0  100.2939321488794 14.99915248238839 0  105.2939295222797 14.99920002732428 0  110.2939258535422 14.99925038335523 0  115.2939209154079 14.99930407386823 0  120.2939144912553 14.99936168272964 0  125.2939064346333 14.999423807417 0  130.293896782351 14.99949094170974 0  135.2938859504201 14.99956322180125 0  140.29387503933 14.99963992099434 0  145.2938662320443 14.99971849942968 0  150.2938630954125 14.99979283970102 0  165.2938885081552 14.99982950088967 0  160.2938863570623 14.99986253363208 0  170.2938855509023 14.99979858563341 0  175.2938811266821 14.99977477287276 0  180.2938772144474 14.99975940397872 0  185.2938745570678 14.99975203407867 0  190.2938732560378 14.99975159783979 0  195.2938731382192 14.99975693535072 0  200.2938739448159 14.9997669925977 0  205.2938754181258 14.99978087814926 0  210.2938773354549 14.99979786197158 0  215.2938795177633 14.99981735433914 0  220.2938818273578 14.99983888069009 0  225.2938841616706 14.99986205842857 0  230.2938864463456 14.9998865774557 0  235.2938886289816 14.99991218451762 0  240.2938906739336 14.99993867087277 0  245.2938925582057 14.99996586265627 0  250.2938942683013 14.99999361337113 0  255.2938957978505 15.00002179803789 0  260.2938971458537 15.00005030864455 0  265.2938983153817 15.00007905063263 0  270.2938993126239 15.00010794023953 0  275.29390014618 15.00013690258517 0  280.2939008265146 15.00016587045014 0  285.2939013655597 15.0001947837383 0  290.2939017764316 15.00022358964017 0  295.2939020734124 15.00025224348415 0  300.2939022724385 15.00028071012089 0  305.2939023927099 15.00030896528611 0  310.2939024605276 15.00033699541893 0  5.293879429445711 22.49845084365236 0  0.2938793677757652 22.49841621190432 0  10.29387950051184 22.49848527082668 0  15.29387958652182 22.49851956025719 0  20.29387968788476 22.49855377023233 0  25.29387980162187 22.49858795661986 0  30.29387992233029 22.49862217602525 0  35.29388004241769 22.49865648742776 0  40.29388015188339 22.49869095323099 0  45.29388023784674 22.4987256402098 0  50.29388028393401 22.49876062057924 0  55.29388026956961 22.49879597328815 0  60.29388016919044 22.49883178559008 0  65.29387995139443 22.49886815492725 0  70.29387957804737 22.49890519115374 0  75.29387900340727 22.49894301911347 0  80.29387817339021 22.49898178155535 0  85.29387702520395 22.49902164229813 0  90.29387548775557 22.49906278941375 0  95.29387348351348 22.49910543792666 0  100.2938709329247 22.49914983102892 0  105.2938677631096 22.49919623793537 0  110.2938639234007 22.49924494499855 0  115.2938594113136 22.49929623422052 0  120.29385431347 22.49935033938305 0  125.2938488660712 22.49940736429057 0  130.2938435369389 22.4994671403207 0  135.2938391222024 22.49952899405044 0  140.293836828798 22.49959139893407 0  145.2938382693546 22.49965152400221 0  150.2938452221543 22.49970484742247 0  165.2938707337136 22.49976824087581 0  160.2938653644547 22.49977589386761 0  170.2938713923684 22.49975761148396 0  175.2938691602201 22.49974830704525 0  180.2938656435132 22.49974267092878 0  185.2938619251491 22.49974161775228 0  190.2938586043638 22.49974521343739 0  195.2938559431786 22.49975310362977 0  200.293854001197 22.49976477050831 0  205.2938527307729 22.49977966821749 0  210.2938520362893 22.49979728610859 0  215.2938518079799 22.49981717295782 0  220.2938519395908 22.49983894167058 0  225.293852336484 22.49986226512472 0  230.2938529184195 22.49988686865686 0  235.2938536195797 22.49991252186732 0  240.293854387302 22.49993903093667 0  245.2938551803311 22.49996623189952 0  250.293855967003 22.499993984966 0  255.2938567235628 22.50002216982831 0  260.2938574326781 22.50005068183755 0  265.2938580821775 22.50007942892847 0  270.2938586639845 22.50010832918359 0  275.2938591732385 22.50013730894466 0  280.2938596075848 22.50016630138861 0  285.2938599666546 22.5001952454763 0  290.2938602517917 22.50022408513406 0  295.2938604661693 22.50025276841152 0  300
[...]
<PointData  Vectors="v"> 
<DataArray  type="Float64"  Name="v"  NumberOfComponents="3" format="ascii">1.0984510229556992e+00 7.6633692248817713e+00 0.0000000000000000e+00  1.6558923333806390e+00 7.1786357995274432e+00 0.0000000000000000e+00  1.5255000377090555e+00 6.3427469309283380e+00 0.0000000000000000e+00  1.0954835180203490e+00 7.0186295331182045e+00 0.0000000000000000e+00  2.3501576723954427e+00 7.7594167939039016e+00 0.0000000000000000e+00  2.0825105185447095e+00 6.7189900180678173e+00 0.0000000000000000e+00  2.9717561907739545e+00 8.7806966321255597e+00 0.0000000000000000e+00  2.7755292310019928e+00 7.8498343534010182e+00 0.0000000000000000e+00  3.5157285261993971e+00 9.0938674759697520e+00 0.0000000000000000e+00  3.3951398826532353e+00 8.2802119610884226e+00 0.0000000000000000e+00  4.1973752039383108e+00 9.9678354203731345e+00 0.0000000000000000e+00  3.9363318028541028e+00 8.9483678820435166e+00 0.0000000000000000e+00  4.7367955985414074e+00 1.0322515966757379e+01 0.0000000000000000e+00  4.6142776542225992e+00 9.5170132897476716e+00 0.0000000000000000e+00  4.8157694382826861e+00 1.0058868194534327e+01 0.0000000000000000e+00  5.1491715160405382e+00 9.9448179837862334e+00 0.0000000000000000e+00  5.8999394844406687e+00 1.1155275927244686e+01 0.0000000000000000e+00  5.2228687921449897e+00 9.5341095434876024e+00 0.0000000000000000e+00  2.7951824413989046e+00 5.9925544147029877e+00 0.0000000000000000e+00  6.3008200770871543e+00 1.0655536336227884e+01 0.0000000000000000e+00  1.3914105225907116e+01 2.1873315856458888e+01 0.0000000000000000e+00  3.1891103688943194e+00 5.2008840001743799e+00 0.0000000000000000e+00  1.3594621520294147e+01 2.0099963154580642e+01 0.0000000000000000e+00  1.4300581126098404e+01 2.0586435233088785e+01 0.0000000000000000e+00  1.3671995870597581e+01 1.8780978419455334e+01 0.0000000000000000e+00  1.3972567130004952e+01 1.8673151933635701e+01 0.0000000000000000e+00  1.4203217048252087e+01 1.8114273836240056e+01 0.0000000000000000e+00  1.4040115920854493e+01 1.7326997275678920e+01 0.0000000000000000e+00  1.5143446227648747e+01 1.8081753755843366e+01 0.0000000000000000e+00  1.4560142541335242e+01 1.6682314387074936e+01 0.0000000000000000e+00  1.6393675324507136e+01 1.8473365073172285e+01 0.0000000000000000e+00  1.5487332054310583e+01 1.6609960532845733e+01 0.0000000000000000e+00  1.7860273641707280e+01 1.9082091339107148e+01 0.0000000000000000e+00  1.6723044306194762e+01 1.6895562679541385e+01 0.0000000000000000e+00  1.9452659250086768e+01 1.9969109709962538e+01 0.0000000000000000e+00  1.8173793829619918e+01 1.7595152035834214e+01 0.0000000000000000e+00  2.1080378988812292e+01 2.0708134509155318e+01 0.0000000000000000e+00  1.9748476896016061e+01 1.8282001164334115e+01 0.0000000000000000e+00  2.2666716657119796e+01 2.1332578236954646e+01 0.0000000000000000e+00  2.1357343643075421e+01 1.8969941646172270e+01 0.0000000000000000e+00  2.4148101126317897e+01 2.1680710459148617e+01 0.0000000000000000e+00  2.2923495606161989e+01 1.9476303940797404e+01 0.0000000000000000e+00  2.5469102310808449e+01 2.1716035173305034e+01 0.0000000000000000e+00  2.4383445237449230e+01 1.9753156422302194e+01 0.0000000000000000e+00  2.6593971776491909e+01 2.0987236705262909e+01 0.0000000000000000e+00  2.5681598442995710e+01 1.9319052034127608e+01 0.0000000000000000e+00  2.7509066270378884e+01 2.0268539690847611e+01 0.0000000000000000e+00  2.6783622553136318e+01 1.8916510661190522e+01 0.0000000000000000e+00  2.8208733154375974e+01 1.8121658454606646e+01 0.0000000000000000e+00  2.7673469197939728e+01 1.7091631850990353e+01 0.0000000000000000e+00  2.8714927352056659e+01 1.6451788431224177e+01 0.0000000000000000e+00  2.8349623955834414e+01 1.5714942299259260e+01 0.0000000000000000e+00  2.9046449132841186e+01 1.2772659748154148e+01 0.0000000000000000e+00  2.8828541458474277e+01 1.2294241633357061e+01 0.0000000000000000e+00  2.9247294557307704e+01 1.0113382786602587e+01 0.0000000000000000e+00  2.9137332073662559e+01 9.8366305088137267e+00 0.0000000000000000e+00  2.9342341559725568e+01 5.2284676010042759e+00 0.0000000000000000e+00  2.9308825177705696e+01 5.1026673491622114e+00 0.0000000000000000e+00  2.9381791413346480e+01 1.2722566710852778e+00 0.0000000000000000e+00  2.9383384549795277e+01 1.2401867551489454e+00 0.0000000000000000e+00  2.9389262610380541e+01 -3.5982767132851988e-09 0.0000000000000000e+00  2.9389916194506743e+01 6.8474776611016856e-04 0.0000000000000000e+00  2.9389262614641154e+01 -3.2438926143332321e-19 0.0000000000000000e+00  2.0124999100850637e+01 -7.1184525116333868e+00 0.0000000000000000e+00  2.9383849617092665e+01 6.7522597488565035e+00 0.0000000000000000e+00  2.9389904730497697e+01 -6.5390581463695607e-04 0.0000000000000000e+00  2.0749983143880453e+01 -1.3369143594673979e+01 0.0000000000000000e+00  2.0153059602474691e+01 -1.4346597538851134e+01 0.0000000000000000e+00  1.7730763722806380e+01 -2.0809666064031529e+01 0.0000000000000000e+00  2.0815601492202603e+01 -1.6311327319958842e+01 0.0000000000000000e+00  1.6954040692377060e+01 -2.2283807887098728e+01 0.0000000000000000e+00  1.7834647064785198e+01 -2.1153480757905431e+01 0.0000000000000000e+00  1.5274323067205321e+01 -2.5061022850700049e+01 0.0000000000000000e+00  1.7095490263124663e+01 -2.2574316149598531e+01 0.0000000000000000e+00  1.4062989122352455e+01 -2.5273561864259047e+01 0.0000000000000000e+00  1.5452758646146181e+01 -2.3490246576982635e+01 0.0000000000000000e+00  1.2768482799458120e+01 -2.5352717677961710e+01 0.0000000000000000e+00  1.4278703530258031e+01 -2.3443377469714786e+01 0.0000000000000000e+00  1.1653110061278158e+01 -2.4300837629108798e+01 0.0000000000000000e+00  1.3020656427268280e+01 -2.2660741195067715e+01 0.0000000000000000e+00  1.0325522434555022e+01 -2.3133404605433551e+01 0.0000000000000000e+00  1.1941368663784109e+01 -2.1174296694356308e+01 0.0000000000000000e+00  9.3700690105061497e+00 -2.1292699003991054e+01 0.0000000000000000e+00  1.0649684679779289e+01 -1.9891594837405133e+01 0.0000000000000000e+00  8.5866888532487380e+00 -1.9438451927396141e+01 0.0000000000000000e+00  9.7296742659590318e+00 -1.8295251769970854e+01 0.0000000000000000e+00  7.7347694208899727e+00 -1.7746254491633746e+01 0.0000000000000000e+00  8.9813592194222398e+00 -1.6499972329258416e+01 0.0000000000000000e+00  6.9279442190410405e+00 -1.6147755941793605e+01 0.0000000000000000e+00  8.1643029746956621e+00 -1.4968733525696866e+01 0.0000000000000000e+00  6.1700763553395852e+00 -1.4732701256473282e+01 0.0000000000000000e+00  7.3919276541261594e+00 -1.3626920463624675e+01 0.0000000000000000e+00  5.4245939144339390e+00 -1.3437944544224562e+01 0.0000000000000000e+00  6.6681411007539966e+00 -1.2350392688013130e+01 0.0000000000000000e+00  4.7463677147405585e+00 -1.2197802210318422e+01 0.0000000000000000e+00  5.9564346160195436e+00 -1.1210800933472514e+01 0.0000000000000000e+00  4.1431434717432225e+00 -1.1059977508416759e+01 0.0000000000000000e+00  5.3115963728101496e+00 -1.0185192417134385e+01 0.0000000000000000e+00  3.5774326989383294e+00 -9.9719597497327577e+00 0.0000000000000000e+00  4.7413474082598919e+00 -9.1531511198133906e+00 0.0000000000000000e+00  3.0745541746968899e+00 -8.9097625071679900e+00 0.0000000000000000e+00  4.2083308545033074e+00 -8.1848217080444012e+00 0.0000000000000000e+00  2.6435210507495204e+00 -7.9125627713385889e+00 0.0000000000000000e+00  3.7376819389430964e+00 -7.2952019222712146e+00 0.0000000000000000e+00  2.2482796561129503e+00 -6.9089944277327469e+00 0.0000000000000000e+00  3.3386508134844015e+00 -6.3448717804454322e+00 0.0000000000000000e+00  1.9072409617537214e+00 -5.9745461563959443e+00 0.0000000000000000e+00  2.9748510363936198e+00 -5.4916768886695397e+00 0.0000000000000000e+00  1.6199676073143052e+00 -5.0220835189330080e+00 0.0000000000000000e+00  2.6653048758903690e+00 -4.6191692007961409e+00 0.0000000000000000e+00  1.3671458829305587e+00 -4.2076016730843628e+00 0.0000000000000000e+00  2.4084826365252932e+00 -3.8568336044550380e+00 0.0000000000000000e+00  1.1487919496935588e+00 -3.2693399364274693e+00 0.0000000000000000e+00  2.1870291067100944e+00 -2.9687097285887862e+00 0.0000000000000000e+00  9.5765869406613879e-01 -2.7319881064721945e+00 0.0000000000000000e+00  1.9976395510560050e+00 -2.4741657816522120e+00 0.0000000000000000e+00  7.8123857974216770e-01 -1.7823906408383225e+00 0.0000000000000000e+00  1.8386290703938430e+00 -1.5426881014909912e+00 0.0000000000000000e+00  5.4329582761700568e-01 -1.7258913924994912e+00 0.0000000000000000e+00  1.6882824400398653e+00 -1.3998965130070002e+00 0.0000000000000000e+00  1.8242405783806812e-01 -1.2020387294602395e+00 0.0000000000000000e+00  1.4865160914126496e+00 -6.8054214933124391e-01 0.0000000000000000e+00  -6.6126624911299248e-01 -7.3726529617981961e-03 0.0000000000000000e+00  1.1401084429117418e+00 1.2167840356541795e+00 0.0000000000000000e+00  1.8030223402094043e+00 5.6973656393999175e+00 0.0000000000000000e+00  1.3291285034205882e+00 6.3087651681768033e+00 0.0000000000000000e+00  2.2333585805297083e+00 5.8835494304139324e+00 0.0000000000000000e+00  2.7898404674384856e+00 6.8111427513044118e+00 0.0000000000000000e+00  3.4811109265891398e+00 7.3524416658409883e+00 0.0000000000000000e+00  4.0975421359611435e+00 8.1389932234929940e+00 0.0000000000000000e+00  4.6341034999187585e+00 8.5035400704933188e+00 0.0000000000000000e+00  5.3057810091884230e+00 9.1469995769516022e+00 0.0000000000000000e+00  5.8326461268152983e+00 9.4288386765647463e+00 0.0000000000000000e+00  5.8968441172958794e+00 9.0449122973618756e+00 0.0000000000000000e+00  6.9638010955072787e+00 9.8757461259413493e+00 0.0000000000000000e+00  3.8403462162843929e+00 3.9251112083878437e+00 0.0000000000000000e+00  1.4941096073798359e+01 1.9171645032081873e+01 0.0000000000000000e+00  1.4601931782541740e+01 1.7233557901769888e+01 0.0000000000000000e+00  1.4655864372511138e+01 1.5911274201224691e+01 0.0000000000000000e+00  1.5159617276891460e+01 1.5230602459916232e+01 0.0000000000000000e+00  1.6066911444498778e+01 1.5055462533959568e+01 0.0000000000000000e+00  1.7279200964794725e+01 1.5433937741828178e+01 0.0000000000000000e+00  1.8703508262589736e+01 1.5937325430335719e+01 0.0000000000000000e+00  2.0248171034132998e+01 1.6576068439524136e+01 0.0000000000000000e+00  2.1823586465596890e+01 1.7147550391627114e+01 0.0000000000000000e+00  2.3353655128356571e+01 1.7586437363065976e+01 0.0000000000000000e+00  2.4773986866906633e+01 1.7396232497345679e+01 0.0000000000000000e+00  2.6029876610631895e+01 1.7289678637982679e+01 0.0000000000000000e+00  2.7087023510042687e+01 1.5783641679013137e+01 0.0000000000000000e+00  2.7930261032456709e+01 1.4730823462264665e+01 0.0000000000000000e+00  2.8556788118937469e+01 1.1602221461581188e+01 0.0000000000000000e+00  2.8987857770181364e+01 9.4077742152696509e+00 0.0000000000000000e+00  2.9243722053382605e+01 4.8668934020183627e+00 0.0000000000000000e+00  2.9371273402344798e+01 1.1686059331954810e+00 0.0000000000000000e+00  2.9391483887364060e+01 1.3052659730090981e-03 0.0000000000000000e+00  2.9362807822678416e+01 6.8146243972852760e+00 0.0000000000000000e+00  2.9391462846176598e+01 -1.2860108652206592e-03 0.0000000000000000e+00  2.9301251336836184e+01 -5.1308350883484899e-01 0.0000000000000000e+00  2.0104716653064127e+01 -1.7332106583304501e+01 0.0000000000000000e+00  2.0811727658306300e+01 -1.6707531438293540e+01 0.0000000000000000e+00  1.7873264958351790e+01 -2.1491956143201755e+01 0.0000000000000000e+00  1.7177102554940898e+01 -2.1049136047816088e+01 0.0000000000000000e+00  1.5573904425964546e+01 -2.1706701661207084e+01 0.0000000000000000e+00  1.4439235407587049e+01 -2.0795997016656159e+01 0.0000000000000000e+00  1.3218312771742239e+01 -1.9576904327042175e+01 0.0000000000000000e+00  1.2174855606689958e+01 -1.7975262564322868e+01 0.0000000000000000e+00  1.0918077458385298e+01 -1.6935863844671168e+01 0.0000000000000000e+00  1.0032175047951103e+01 -1.5397456076092993e+01 0.0000000000000000e+00  9.3171455658236209e+00 -1.3763096487492104e+01 0.0000000000000000e+00  8.5330286749971975e+00 -1.2487890190228864e+01 0.0000000000000000e+00  7.7930260510094067e+00 -1.1283809340054738e+01 0.0000000000000000e+00  7.1009964449812859e+00 -1.0162156600430100e+01 0.0000000000000000e+00  6.4205631127205836e+00 -9.2364493127722174e+00 0.0000000000000000e+00  5.8063851644903188e+00 -8.3158774571854757e+00 0.0000000000000000e+00  5.2661478622059494e+00 -7.4030844908178910e+00 0.0000000000000000e+00  4.7625573759164537e+00 -6.6066910747113221e+00 0.0000000000000000e+00  4.3207401076143315e+00 -5.7632662860387693e+00 0.0000000000000000e+00  3.9498381936856837e+00 -4.9628118972486064e+00 0.0000000000000000e+00  3.6136936166452709e+00 -4.1709695445511157e+00 0.0000000000000000e+00  3.3310132355079198e+00 -3.4879132826604309e+00 0.0000000000000000e+00  3.1007311490585892e+00 -2.6515382418185576e+00 0.0000000000000000e+00  2.9047188413340983e+00 -2.2064631152838157e+00 0.0000000000000000e+00  2.7410991205856976e+00 -1.3170461413001453e+00 0.0000000000000000e+00  2.6055271187353113e+00 -1.1923337139203996e+00 0.0000000000000000e+00  2.4808110998077977e+00 -3.8700122972053491e-01 0.0000000000000000e+00  2.3005155650729350e+00 1.7169203879343244e+00 0.0000000000000000e+00  2.5161372491908436e+00 4.9857121448866932e+00 0.0000000000000000e+00  2.0879909367493852e+00 5.6680308159127701e+00 0.0000000000000000e+00  2.9912460832723764e+00 5.2371780535449775e+00 0.0000000000000000e+00  3.4228526678881512e+00 5.9767334552239078e+00 0.0000000000000000e+00  3.9788067307865380e+00 6.3172976350135253e+00 0.0000000000000000e+00  4.6675391758264535e+00 7.2178302391061511e+00 0.0000000000000000e+00  5.2790014584146228e+00 7.7043815583390201e+00 0.0000000000000000e+00  5.8074962251963047e+00 8.1472217339846278e+00 0.0000000000000000e+00  6.4680963040043107e+00 8.6486024703134543e+00 0.0000000000000000e+00  6.9807647655443628e+00 8.9610700947916477e+00 0.0000000000000000e+00  7.0275899537662374e+00 8.2893201108560177e+00 0.0000000000000000e+00  8.0753864321434534e+00 8.6247530781128390e+00 0.0000000000000000e+00  4.9340717162808145e+00 2.5320995610686396e+00 0.0000000000000000e+00  1.6020425800501119e+01 1.7753382952340452e+01 0.0000000000000000e+00  1.5667226533463595e+01 1.5844499796507220e+01 0.0000000000000000e+00  1.5702868965091016e+01 1.4493302925976423e+01 0.0000000000000000e+00  1.6181907500724105e+01 1.3717404049238432e+01 0.0000000000000000e+00  1.7057743673596168e+01 1.3643496528869751e+01 0.0000000000000000e+00  1.8231673751267717e+01 1.3833805213943345e+01 0.0000000000000000e+00  1.9610270340982208e+01 1.4296681619848620e+01 0.0000000000000000e+00  2.1102349482053441e+01 1.4826908906235428e+01 0.0000000000000000e+00  2.2618546698062030e+01 1.5338947324467366e+01 0.0000000000000000e+00  2.4081919329495882e+01 1.5317096578090934e+01 0.0000000000000000e+00  2.5429477218046074e+01 1.5463000757018667e+01 0.0000000000000000e+00  2.6605552711044705e+01 1.4257248775685202e+01 0.0000000000000000e+00  2.7578265922253262e+01 1.3531539457559800e+01 0.0000000000000000e+00  2.8330327890984456e+01 1.0725624929842347e+01 0.0000000000000000e+00  2.8865873892004942e+01 8.8349513824273114e+00 0.0000000000000000e+00  2.9198554141583251e+01 4.5396257745587150e+00 0.0000000000000000e+00  2.9368628211513986e+01 1.0613477525887034e+00 0.0000000000000000e+00  2.9393932756128823e+01 1.8678324311363539e-03 0.0000000000000000e+00  2.9344487232958372e+01 6.9757554989452126e+00 0.0000000000000000e+00  2.9393914013938492e+01 -1.8402719951878578e-03 0.0000000000000000e+00  2.9151842142632091e+01 -3.9071365460849611e-01 0.0000000000000000e+00  2.9080565798950001e+01 -3.5784994549880071e+00 0.0000000000000000e+00  1.9941707288341281e+01 -1.7823261120829262e+01 0.0000000000000000e+00  2.0721216105670383e+01 -1.7134958949393344e+01 0.0000000000000000e+00  1.7851839336314921e+01 -2.0056928541870093e+01 0.0000000000000000e+00  1.7221638649188094e+01 -1.9348159677364880e+01 0.0000000000000000e+00  1.5679077706475265e+01 -1.9138955140005162e+01 0.0000000000000000e+00  1.4601779210899052e+01 -1.7787376934128901e+01 0.0000000000000000e+00  1.3433895284935630e+01 -1.6449998698190299e+01 0.0000000000000000e+00  1.2440954357960347e+01 -1.5088843188650607e+01 0.0000000000000000e+00  1.1232474192913545e+01 -1.4105866647126767e+01 0.0000000000000000e+00  1.0393347032790043e+01 -1.2726824053805379e+01 0.0000000000000000e+00  9.7241083735311271e+00 -1.1347419864728053e+01 0.0000000000000000e+00  8.9850284602825869e+00 -1.0208956015348445e+01 0.0000000000000000e+00  8.2892051705916323e+00 -9.1585912944364338e+00 0.0000000000000000e+00  7.6405600564179483e+00 -8.2495620942482120e+00 0.0000000000000000e+00  7.0025601842375194e+00 -7.4277064469469876e+00 0.0000000000000000e+00  6.4297970873077732e+00 -6.6249701827094354e+00 0.0000000000000000e+00  5.9298957180694503e+00 -5.8828189216138709e+00 0.0000000000000000e+00  5.4656026135546760e+00 -5.1311417196351492e+00 0.0000000000000000e+00  5.0618449532749770e+00 -4.4364536644514638e+00 0.0000000000000000e+00  4.7280834481738570e+00 -3.6955502657480590e+00 0.0000000000000000e+00  4.4276201819187468e+00 -3.0925312931176441e+00 0.0000000000000000e+00  4.1800141488285973e+00 -2.3328216004453735e+00 0.0000000000000000e+00  3.9827646399709620e+00 -1.9402175458129376e+00 0.0000000000000000e+00  3.8200974717807714e+00 -1.0951324048989013e+00 0.0000000000000000e+00  3.6858256778476464e+00 -1.0176293420039371e+00 0.0000000000000000e+00  3.5838615939806120e+00 -2.1782228700201450e-01 0.0000000000000000e+00  3.4800683421419540e+00 1.9572000093886379e+00 0.0000000000000000e+00  3.4360133827912058e+00 4.3422158618744584e+00 0.0000000000000000e+00  3.0459859028259277e+00 5.0850297885598481e+00 0.0000000000000000e+00  3.8661641653417469e+00 4.5224815652100858e+00 0.0000000000000000e+00  4.3445843435655735e+00 5.3272479062307019e+00 0.0000000000000000e+00  4.7790472489555738e+00 5.4823561035734008e+00 0.0000000000000000e+00  5.3363034073097451e+00 6.1855353915128992e+00 0.0000000000000000e+00  6.0236239542703727e+00 6.7901911230979382e+00 0.0000000000000000e+00  6.6303048962734898e+00 7.3603473934822237e+00 0.0000000000000000e+00  7.1500324099250774e+00 7.6666687830699161e+00 0.0000000000000000e+00  7.7973733114058392e+00 8.2040772168484413e+00 0.0000000000000000e+00  8.2924468693161231e+00 8.2339487564150051e+00 0.0000000000000000e+00  8.3186174785947973e+00 7.0687167763681700e+00 0.0000000000000000e+00  9.3457236844574023e+00 7.2569926362087926e+00 0.0000000000000000e+00  6.1893660728096611e+00 1.1304489172918546e+00 0.0000000000000000e+00  1.7268637049536327e+01 1.6379333051270972e+01 0.0000000000000000e+00  1.6909214068460969e+01 1.4448614159190871e+01 0.0000000000000000e+00  1.6932482649311648e+01 1.3013809836035357e+01 0.0000000000000000e+00  1.7390188106625121e+01 1.2352077475061762e+01 0.0000000000000000e+00  1.8233910629299039e+01 1.2102263005257168e+01 0.0000000000000000e+00  1.9365350582795138e+01 1.2265975845258689e+01 0.0000000000000000e+00  2.0690768973526403e+01 1.2633349382079425e+01 0.0000000000000000e+00  2.2118652916607598e+01 1.3116825530606617e+01 0.0000000000000000e+00  2.3559656469408402e+01 1.3181543641879477e+01 0.0000000000000000e+00  2.4937404331976822e+01 1.3509884931886072e+01 0.0000000000000000e+00  2.6187310710073668e+01 1.2566389104432947e+01 0.0000000000000000e+00  2.7257101637516250e+01 1.2156029947915448e+01 0.0000000000000000e+00  2.8111950345999936e+01 9.6803312958008654e+00 0.0000000000000000e+00  2.8743433529507378e+01 8.1284303388458419e+00 0.0000000000000000e+00  2.9147085678587377e+01 4.1184579958971428e+00 0.0000000000000000e+00  2.9361996969828763e+01 9.1696877478554262e-01 0.0000000000000000e+00  2.9397169014280834e+01 2.3696061327649581e-03 0.0000000000000000e+00  2.9330404388639376e+01 7.2249640313016927e+00 0.0000000000000000e+00  2.9397151592631086e+01 -2.3316793630673662e-03 0.0000000000000000e+00  2.9032348441079538e+01 5.4730150307089904e-03 0.0000000000000000e+00  2.8736579681981087e+01 -3.44864963469