<?xml version="1.0"?>
<VTKFile type="UnstructuredGrid"  version="0.1"  >
<UnstructuredGrid>
<Piece  NumberOfPoints="1933" NumberOfCells="3640">
<Points>
<DataArray  type="Float64"  NumberOfComponents="3"  format="ascii">0.4754679250961957 -5.619889721971533e-05 0  5.4754679629369 -7.463054707192575e-05 0  5.475495647850291 7.499925486298202 0  0.4754955766029043 7.499943860086304 0  10.47546801275811 -9.316787988042905e-05 0  10.47549577678525 7.49990696883237 0  15.47546813086447 -0.0001118592807743059 0  15.47549599380679 7.499888282848891 0  20.47546837833099 -0.0001307063447681591 0  20.47549632851933 7.499869436002823 0  25.47546881193179 -0.0001496829063211999 0  25.47549681008132 7.499850458361609 0  30.47546948212077 -0.0001687454347020748 0  30.47549746648951 7.499831395134007 0  35.47547043365638 -0.0001878387102104034 0  35.47549832405713 7.499812302249298 0  40.47547170709418 -0.0002068986524509883 0  40.47549940722082 7.499793244077921 0  45.47547334043561 -0.0002258533132472845 0  45.47550073855991 7.499774292688634 0  50.47547537066606 -0.0002446225963857777 0  50.47550233887934 7.499755528243814 0  55.47547783510041 -0.000263116997339089 0  55.47550422723157 7.499737040310799 0  60.47548077251897 -0.0002812354792573422 0  60.47550642076747 7.499718930004038 0  65.4754842240956 -0.0002988624708181964 0  65.47550893430403 7.499701312984061 0  70.47548823409673 -0.0003158638579445338 0  70.47551177948152 7.499684323440667 0  75.47549285030037 -0.0003320817226676962 0  75.47551496333288 7.499668119294078 0  80.47549812401007 -0.0003473274368093524 0  80.4755184860167 7.499652888975437 0  85.47550410943019 -0.0003613725196698751 0  85.47552233735775 7.499638860312351 0  90.47551086196337 -0.0003739363813217703 0  90.47552649167265 7.49962631226596 0  95.47551843464146 -0.0003846696426489236 0  95.47553090013972 7.499615590562501 0  100.4755268712397 -0.0003931310683894908 0  100.4755354796972 7.499607128646845 0  105.4755361934227 -0.0003987551490498028 0  105.4755400971382 7.499601475844553 0  110.4755463769729 -0.0004008058514806846 0  110.4755445468946 7.499599335048605 0  115.4755573078266 -0.0003983098198143401 0  115.4755485213386 7.499601612329261 0  120.4755687003029 -0.0003899592021750877 0  120.475551574308 7.499609479741785 0  125.4755799438732 -0.0003739705989775421 0  125.4755530844524 7.499624448220056 0  130.4755898137037 -0.0003478844717441795 0  130.4755522404757 7.499648435191673 0  135.4755959195019 -0.0003082976876476428 0  135.4755481081621 7.499683782301394 0  140.4755936464292 -0.0002505776665665519 0  140.4755399282009 7.49973311966651 0  145.4755740882098 -0.0001688740447347825 0  145.4755280052653 7.499798900341784 0  150.4755198586149 -5.802722919553068e-05 0  150.4755160881609 7.499882630654164 0  160.4755282581471 8.987555948298376e-19 0  165.4754251882456 -0.0001580660240391773 0  165.4755107140772 7.499815891125832 0  160.4755384322023 7.499938685450948 0  170.475374635023 -0.0002846298022334912 0  170.4754824298609 7.499702357337421 0  175.4753510883035 -0.0003888136992922089 0  175.4754601428032 7.49960413164076 0  180.4753418242605 -0.0004759990380094243 0  180.4754443618311 7.499520010073686 0  185.475340190728 -0.0005501429876949071 0  185.4754340041315 7.499447536809785 0  190.4753426132909 -0.0006142406679465311 0  190.4754277579137 7.499384382294313 0  195.4753471318814 -0.0006705444337450658 0  195.4754244828613 7.499328625758083 0  200.4753526526135 -0.0007207420962447426 0  200.4754232900246 7.499278754080695 0  205.4753585555783 -0.0007661031231907233 0  205.4754235192455 7.499233592557597 0  210.4753644853769 -0.000807591092264985 0  210.4754246917381 7.499192230077843 0  215.4753702372512 -0.000845946478237115 0  215.4754264642004 7.499153955775682 0  220.4753756939961 -0.0008817462681482489 0  220.4754285917346 7.499118209721125 0  225.4753807902806 -0.0009154465780180877 0  225.4754309000197 7.499084545852456 0  230.4753854920331 -0.0009474131849787481 0  230.4754332651606 7.499052604471851 0  235.4753897842737 -0.0009779435809775007 0  235.4754355993529 7.499022091867376 0  240.4753936637993 -0.001007283090889621 0  240.475437840758 7.498992765138206 0  245.475397134734 -0.001035636814927982 0  245.4754399463804 7.498964420794811 0  250.4754002058224 -0.001063178604709389 0  250.4754418870625 7.49893688610337 0  255.4754028888343 -0.001090057902604731 0  255.4754436439862 7.498910012442817 0  260.4754051977043 -0.001116405011871977 0  260.4754452062428 7.498883670160979 0  265.4754071482187 -0.001142335180110127 0  265.475446569181 7.498857744577197 0  270.4754087581155 -0.001167951740483975 0  270.4754477333227 7.498832132901933 0  275.4754100475737 -0.001193348440087817 0  275.4754487036871 7.498806741946783 0  280.4754110400679 -0.001218610970309162 0  280.4754494894113 7.498781486596024 0  285.4754117636028 -0.001243817574307734 0  285.4754501035546 7.49875628911931 0  290.4754122522853 -0.00126903840411278 0  290.4754505629675 7.498731079538554 0  295.4754125481232 -0.001294332974155107 0  295.4754508881413 7.498705797435449 0  300.4754127025681 -0.001319744508490493 0  300.4754511029698 7.498680395804525 0  305.4754127766247 -0.001345289054622727 0  305.4754512346821 7.498654847802406 0  310.475412836493 -0.001370935845808146 0  310.4754513150604 7.498629157508255 0  5.475523003483724 14.99992575260792 0  0.4755229261257029 14.9999440046396 0  10.47552313102201 14.99990727039216 0  15.47552333443152 14.999888583045 0  20.47552363074482 14.99986972207322 0  25.47552403344091 14.99985072838784 0  30.47552455429996 14.99983165177218 0  35.47552520380759 14.99981254977563 0  40.47552599097489 14.99979348703157 0  45.47552692292732 14.99977453526277 0  50.47552800437086 14.999755774 0  55.47552923693411 14.9997372919932 0  60.4755306183311 14.99971918931984 0  65.47553214126756 14.99970158024321 0  70.47553379199009 14.99968459693177 0  75.47553554836865 14.99966839421679 0  80.47553737738605 14.9996531556359 0  85.475539231916 14.99963910108461 0  90.47554104670436 14.99962649646515 0  95.47554273359098 14.99961566575097 0  100.475544176267 14.99960700580843 0  105.4755452254579 14.99960100398144 0  110.4755456965307 14.99959825754063 0  115.4755453736442 14.9995994920019 0  120.4755440282432 14.99960557082737 0  125.4755414657681 14.99961747988313 0  130.4755376233855 14.99963625216254 0  135.4755327521022 14.99966276447077 0  140.4755277211245 14.99969727446931 0  145.4755244526876 14.99973843901288 0  150.4755263367867 14.99978121212499 0  165.4755504775059 14.99974431896396 0  160.4755532133207 14.99982409424613 0  170.4755404628866 14.99966010277624 0  175.4755279270129 14.99957933645818 0  180.4755158398902 14.99950533119425 0  185.4755055131002 14.99943872396755 0  190.4754973096897 14.99937900742636 0  195.4754911364193 14.99932529702753 0  200.4754867174313 14.99927666541184 0  205.4754837314906 14.99923227042161 0  210.4754818741419 14.99919139152217 0  215.4754808813146 14.99915342848773 0  220.475480534402 14.99911788664965 0  225.4754806572596 14.99908435915586 0  230.4754811103052 14.99905251035636 0  235.4754817841618 14.99902206162659 0  240.4754825938475 14.99899277977212 0  245.4754834738586 14.99896446772915 0  250.4754843741793 14.99893695716672 0  255.4754852571124 14.9989101026134 0  260.475486094807 14.99888377679604 0  265.4754868673312 14.99885786694772 0  270.475487561182 14.99883227191193 0  275.4754881681172 14.99880689993087 0  280.475488684221 14.99878166706089 0  285.4754891091583 14.99875649620423 0  290.4754894455705 14.99873131677128 0  295.4754896987189 14.99870606495876 0  300.475489876575 14.99868068446628 0  305.4754899909233 14.99865512696897 0  310.4754900605196 14.99862935030929 0  5.475550026752717 22.49992628362775 0  0.4755499512066798 22.49994443638979 0  10.47555013178866 22.49990782209553 0  15.4755502839809 22.49988911621203 0  20.47555049255677 22.49987022149462 0  25.47555076179423 22.49985119192195 0  30.47555109305859 22.4998320835856 0  35.47555148566416 22.49981295645064 0  40.475551936991 22.49979387539469 0  45.4755524421666 22.49977491114937 0  50.4755529934904 22.49975614145399 0  55.47555357968234 22.49973765257509 0  60.47555418498328 22.499719541282 0  65.47555478810931 22.49970191735196 0  70.47555536105838 22.49968490667886 0  75.47555586778711 22.49966865506748 0  80.47555626282156 22.49965333278796 0  85.47555648994975 22.49963913993358 0  90.47555648129828 22.49962631252887 0  95.47555615734716 22.49961512912761 0  100.4755554288425 22.49960591721858 0  105.4755542021938 22.49959905796107 0  110.4755523908539 22.4995949863189 0  115.4755499363892 22.49959418112024 0  120.4755468442897 22.49959713529011 0  125.475543240458 22.49960428966986 0  130.4755394530978 22.49961590376162 0  135.4755361177562 22.49963182398643 0  140.4755342831369 22.49965109991577 0  145.4755354489768 22.49967141277272 0  150.4755413779788 22.49968840087577 0  165.4755729842018 22.49966409529013 0  160.4755646911627 22.4997165293741 0  170.4755743996424 22.4996036314087 0  175.4755711569067 22.49954088962353 0  180.4755654289239 22.49947954212351 0  185.4755588243757 22.49942149638644 0  190.475552338056 22.49936747802052 0  195.4755464963359 22.49931754367768 0  200.4755415199746 22.49927142070345 0  205.4755374498027 22.49922870344697 0  210.4755342307566 22.49918895679006 0  215.4755317635902 22.49915176580519 0  220.475529934695 22.49911675617083 0  225.4755286321495 22.49908359962259 0  230.4755277535371 22.4990520122965 0  235.475527209075 22.49902175010338 0  240.4755269221973 22.49899260322063 0  245.4755268288611 22.49896439068415 0  250.4755268762843 22.49893695549562 0  255.475527021515 22.49891016037685 0  260.475527230008 22.49888388417321 0  265.4755274743225 22.49885801885521 0  270.4755277329481 22.49883246705195 0  275.4755279892807 22.49880714005112 0  280.4755282307361 22.49878195620042 0  285.4755284480161 22.49875683962992 0  290.4755286345712 22.49873171916486 0  295.4755287863728 22.49870
[...]
<PointData  Vectors="v"> 
<DataArray  type="Float64"  Name="v"  NumberOfComponents="3" format="ascii">3.3594866658465916e+00 6.6673633971379838e+00 0.0000000000000000e+00  3.8270346974555669e+00 6.0421721865883304e+00 0.0000000000000000e+00  3.3152267629825252e+00 5.3411155102240793e+00 0.0000000000000000e+00  2.9514165983984246e+00 6.1214684685970102e+00 0.0000000000000000e+00  4.3703714944747931e+00 6.3059378141973683e+00 0.0000000000000000e+00  3.7823108217128252e+00 5.4916524003889258e+00 0.0000000000000000e+00  4.8033310560573925e+00 6.8748510023258476e+00 0.0000000000000000e+00  4.3245918386212763e+00 6.2266494191065407e+00 0.0000000000000000e+00  5.1260200432219998e+00 6.7487308716468339e+00 0.0000000000000000e+00  4.7558844678357399e+00 6.2663618732998092e+00 0.0000000000000000e+00  5.5568920810405942e+00 7.1029648718971110e+00 0.0000000000000000e+00  5.0763251489359709e+00 6.4587157462045655e+00 0.0000000000000000e+00  5.8518308035029980e+00 6.9906230820650874e+00 0.0000000000000000e+00  5.5045302542372667e+00 6.5506913209037947e+00 0.0000000000000000e+00  5.8243779471160444e+00 6.4661742117998253e+00 0.0000000000000000e+00  5.7963052646446345e+00 6.5100431369094096e+00 0.0000000000000000e+00  6.5999378895033010e+00 7.0291882392190361e+00 0.0000000000000000e+00  5.7653608019150724e+00 5.8688018551624879e+00 0.0000000000000000e+00  4.6658647476409278e+00 3.5524384793285826e+00 0.0000000000000000e+00  6.5372091160842016e+00 6.4567894541473789e+00 0.0000000000000000e+00  1.3082809841666471e+01 1.5387231016764076e+01 0.0000000000000000e+00  4.5992444396772934e+00 2.7648792369027007e+00 0.0000000000000000e+00  1.3612529097476404e+01 1.5037440695259761e+01 0.0000000000000000e+00  1.3011718914713935e+01 1.4246645041071401e+01 0.0000000000000000e+00  1.3867337952090013e+01 1.4131794389612407e+01 0.0000000000000000e+00  1.3536939428675369e+01 1.3752936884605935e+01 0.0000000000000000e+00  1.4190912545608507e+01 1.3275166441523419e+01 0.0000000000000000e+00  1.3787500680054293e+01 1.2793267505868760e+01 0.0000000000000000e+00  1.4643300934722475e+01 1.2633967789753292e+01 0.0000000000000000e+00  1.4106730713433391e+01 1.1958706540076507e+01 0.0000000000000000e+00  1.5239871161453387e+01 1.2204646616315509e+01 0.0000000000000000e+00  1.4554943708424506e+01 1.1313285856998464e+01 0.0000000000000000e+00  1.5921582182310637e+01 1.1868328089832376e+01 0.0000000000000000e+00  1.5147195045699700e+01 1.0848831112104815e+01 0.0000000000000000e+00  1.6625416345597031e+01 1.1710681786181665e+01 0.0000000000000000e+00  1.5824715752451743e+01 1.0657745459919793e+01 0.0000000000000000e+00  1.7288617414998576e+01 1.1419461183073649e+01 0.0000000000000000e+00  1.6524974618838549e+01 1.0427080175193261e+01 0.0000000000000000e+00  1.7856519163814898e+01 1.1031935098950374e+01 0.0000000000000000e+00  1.7184912237925783e+01 1.0181456913366379e+01 0.0000000000000000e+00  1.8290480651042202e+01 1.0438186157896734e+01 0.0000000000000000e+00  1.7750566887554530e+01 9.7878808505300547e+00 0.0000000000000000e+00  1.8576405678115933e+01 9.6643409017239730e+00 0.0000000000000000e+00  1.8183386584601969e+01 9.2346805546799953e+00 0.0000000000000000e+00  1.8717014771779997e+01 8.3722789044030534e+00 0.0000000000000000e+00  1.8469879060203979e+01 8.1593581141772731e+00 0.0000000000000000e+00  1.8731103179445913e+01 7.2745922772258016e+00 0.0000000000000000e+00  1.8612112298107448e+01 7.2490159349897825e+00 0.0000000000000000e+00  1.8658193601036483e+01 5.2521802480420003e+00 0.0000000000000000e+00  1.8631402836096662e+01 5.3565491553359461e+00 0.0000000000000000e+00  1.8531584306074311e+01 4.0003828725869033e+00 0.0000000000000000e+00  1.8563805778123275e+01 4.1806110205638873e+00 0.0000000000000000e+00  1.8399301627026134e+01 1.4864019084505096e+00 0.0000000000000000e+00  1.8448717967849831e+01 1.6765527032427738e+00 0.0000000000000000e+00  1.8281965850496928e+01 5.7252947670849108e-01 0.0000000000000000e+00  1.8326041524323390e+01 7.3201878119867858e-01 0.0000000000000000e+00  1.8210698528564404e+01 -1.8120616314499156e+00 0.0000000000000000e+00  1.8228394874256914e+01 -1.7165447864795391e+00 0.0000000000000000e+00  1.8172539139201639e+01 -1.6614611790772884e+00 0.0000000000000000e+00  1.8171210035415850e+01 -1.6293310549197793e+00 0.0000000000000000e+00  1.8163563194475529e+01 1.2442947288705953e-10 0.0000000000000000e+00  1.8164429337404947e+01 8.6010543409145300e-04 0.0000000000000000e+00  1.8163563200195792e+01 -6.0923038217770402e-19 0.0000000000000000e+00  1.1543182301882888e+01 -9.4757481986397637e-04 0.0000000000000000e+00  1.8177153194779549e+01 9.9257921109222380e+00 0.0000000000000000e+00  1.8164421970275235e+01 -8.7384907623465824e-04 0.0000000000000000e+00  1.2948069023718439e+01 -9.4310564636044336e-01 0.0000000000000000e+00  1.1559437470941049e+01 -3.0476815724309381e+00 0.0000000000000000e+00  1.1085916757864396e+01 -5.9956024485072446e+00 0.0000000000000000e+00  1.2965626097125204e+01 -3.2103938769391194e+00 0.0000000000000000e+00  1.0979328524380637e+01 -6.9596901140086214e+00 0.0000000000000000e+00  1.1107973536738911e+01 -6.8048954664126580e+00 0.0000000000000000e+00  1.0055454726775448e+01 -1.0012293417909145e+01 0.0000000000000000e+00  1.1008633135180107e+01 -8.6348309705210564e+00 0.0000000000000000e+00  9.4682554259815408e+00 -1.1163561727578053e+01 0.0000000000000000e+00  1.0093514164433785e+01 -1.0291545459479956e+01 0.0000000000000000e+00  8.7599113051928974e+00 -1.2344578234312991e+01 0.0000000000000000e+00  9.5160600182786865e+00 -1.1292534452845876e+01 0.0000000000000000e+00  8.1711467994459444e+00 -1.2534945962147722e+01 0.0000000000000000e+00  8.8190669409927125e+00 -1.1662470647085305e+01 0.0000000000000000e+00  7.3925856875971592e+00 -1.2488178300850588e+01 0.0000000000000000e+00  8.2424492608411377e+00 -1.1332217977793791e+01 0.0000000000000000e+00  6.8756466750538454e+00 -1.1721001386338326e+01 0.0000000000000000e+00  7.4767486103857523e+00 -1.0957971229845491e+01 0.0000000000000000e+00  6.4824973474421519e+00 -1.0802982206355763e+01 0.0000000000000000e+00  6.9735245056986921e+00 -1.0226128697908818e+01 0.0000000000000000e+00  6.0338826485695325e+00 -9.8616087345334869e+00 0.0000000000000000e+00  6.5946443771214627e+00 -9.2020617114652836e+00 0.0000000000000000e+00  5.5946226901330505e+00 -8.9179355611908164e+00 0.0000000000000000e+00  6.1607183496388220e+00 -8.2728428535128025e+00 0.0000000000000000e+00  5.1687228143442585e+00 -8.0729853888296610e+00 0.0000000000000000e+00  5.7366600036820934e+00 -7.4481422191209443e+00 0.0000000000000000e+00  4.7208112347706850e+00 -7.3000614979788567e+00 0.0000000000000000e+00  5.3262781082769930e+00 -6.6424849947135813e+00 0.0000000000000000e+00  4.2999287457637116e+00 -6.5566543797094230e+00 0.0000000000000000e+00  4.8940804973115659e+00 -5.9397927846170289e+00 0.0000000000000000e+00  3.9169108230886738e+00 -5.8874050452323621e+00 0.0000000000000000e+00  4.4891400246486661e+00 -5.3273925797225319e+00 0.0000000000000000e+00  3.5438350684459858e+00 -5.2576842050473322e+00 0.0000000000000000e+00  4.1221475329866824e+00 -4.7126722280972437e+00 0.0000000000000000e+00  3.2040019073498729e+00 -4.6437664449351166e+00 0.0000000000000000e+00  3.7651351320489184e+00 -4.1486069483834456e+00 0.0000000000000000e+00  2.9094670986799507e+00 -4.0887317561914793e+00 0.0000000000000000e+00  3.4413421894028891e+00 -3.6615039025498155e+00 0.0000000000000000e+00  2.6283986415918306e+00 -3.5205922928923208e+00 0.0000000000000000e+00  3.1628606987972785e+00 -3.1134376769544643e+00 0.0000000000000000e+00  2.3795796737261217e+00 -3.0319002902976959e+00 0.0000000000000000e+00  2.8976237724707916e+00 -2.6731539303765000e+00 0.0000000000000000e+00  2.1583830469936474e+00 -2.4989623656339419e+00 0.0000000000000000e+00  2.6647268732250380e+00 -2.1813100114373731e+00 0.0000000000000000e+00  1.9516778342622541e+00 -2.1506087822852811e+00 0.0000000000000000e+00  2.4589528602480519e+00 -1.8549383998084039e+00 0.0000000000000000e+00  1.7508535218585992e+00 -1.6021048088009637e+00 0.0000000000000000e+00  2.2681127874358635e+00 -1.3144661532622748e+00 0.0000000000000000e+00  1.5513171282352116e+00 -1.5702798156243494e+00 0.0000000000000000e+00  2.0819368140179448e+00 -1.2855313468047020e+00 0.0000000000000000e+00  1.3350365209621533e+00 -9.1818527665222094e-01 0.0000000000000000e+00  1.8985964078173765e+00 -6.0631999567640316e-01 0.0000000000000000e+00  1.0168419106473285e+00 -1.4598399689597255e+00 0.0000000000000000e+00  1.6954496930840519e+00 -9.9806847670920351e-01 0.0000000000000000e+00  5.0490551952953733e-01 -1.2331405839069571e+00 0.0000000000000000e+00  1.3954044669071091e+00 -4.7517483864848725e-01 0.0000000000000000e+00  -6.9781919244909718e-01 -1.8341604044087553e-01 0.0000000000000000e+00  8.9073286956702724e-01 1.5999726645171279e+00 0.0000000000000000e+00  3.0452518556631687e+00 4.7956580394437935e+00 0.0000000000000000e+00  2.6380080442862432e+00 5.5101683318807124e+00 0.0000000000000000e+00  3.4083493297216600e+00 4.7919281261537918e+00 0.0000000000000000e+00  3.8735255308624170e+00 5.4148127428927069e+00 0.0000000000000000e+00  4.4127035929700487e+00 5.6217527411984562e+00 0.0000000000000000e+00  4.8396502179368595e+00 5.9811981889181327e+00 0.0000000000000000e+00  5.1544526720377268e+00 5.9121209412682800e+00 0.0000000000000000e+00  5.5759228820226499e+00 6.0767269234045918e+00 0.0000000000000000e+00  5.8600365971163404e+00 5.9201618843370438e+00 0.0000000000000000e+00  5.8206556415074786e+00 5.3039799439945936e+00 0.0000000000000000e+00  6.5841341072326207e+00 5.6765473385663681e+00 0.0000000000000000e+00  4.6376691775032963e+00 1.6340254729600379e+00 0.0000000000000000e+00  1.3038958552996272e+01 1.2971972751582623e+01 0.0000000000000000e+00  1.3553270912908877e+01 1.2422710803720269e+01 0.0000000000000000e+00  1.3794662087701285e+01 1.1485700531800740e+01 0.0000000000000000e+00  1.4104280020718754e+01 1.0646413916316060e+01 0.0000000000000000e+00  1.4542744720933154e+01 9.9666266697685817e+00 0.0000000000000000e+00  1.5124368646155073e+01 9.6481827027620444e+00 0.0000000000000000e+00  1.5790481840799652e+01 9.3832954895031317e+00 0.0000000000000000e+00  1.6479162153791329e+01 9.1982939356514812e+00 0.0000000000000000e+00  1.7127519471448519e+01 8.9463679514282806e+00 0.0000000000000000e+00  1.7681769273499672e+01 8.5910620650554232e+00 0.0000000000000000e+00  1.8104761524986227e+01 7.7349532498722597e+00 0.0000000000000000e+00  1.8382910082788189e+01 7.0390857695520426e+00 0.0000000000000000e+00  1.8519677846775036e+01 5.3297509829576910e+00 0.0000000000000000e+00  1.8536759055887526e+01 4.2798602721463004e+00 0.0000000000000000e+00  1.8472668862543681e+01 1.8475263171044007e+00 0.0000000000000000e+00  1.8364607621662671e+01 9.0354649840026047e-01 0.0000000000000000e+00  1.8260533724151532e+01 -1.5754686151474209e+00 0.0000000000000000e+00  1.8182348710294846e+01 -1.5731980032001700e+00 0.0000000000000000e+00  1.8166525117692430e+01 1.6409992866175591e-03 0.0000000000000000e+00  1.8181396922393368e+01 9.8670420522084594e+00 0.0000000000000000e+00  1.8166511458609087e+01 -1.7683733636445092e-03 0.0000000000000000e+00  1.8237883663502814e+01 6.8775830337554300e+00 0.0000000000000000e+00  1.1610833414916101e+01 -5.3111223263935816e+00 0.0000000000000000e+00  1.3008141471884475e+01 -4.0177145656892295e+00 0.0000000000000000e+00  1.1150944741107041e+01 -8.4874374957315180e+00 0.0000000000000000e+00  1.1055344392481809e+01 -8.9235083306619298e+00 0.0000000000000000e+00  1.0147808720411925e+01 -1.0430301277573875e+01 0.0000000000000000e+00  9.5784392985772335e+00 -1.0623132730958519e+01 0.0000000000000000e+00  8.8916040397070653e+00 -1.0473657522589445e+01 0.0000000000000000e+00  8.3258337887840952e+00 -9.8160396667210463e+00 0.0000000000000000e+00  7.5716503810045790e+00 -9.4785615961386505e+00 0.0000000000000000e+00  7.0806854462527253e+00 -8.6414675293732870e+00 0.0000000000000000e+00  6.7147402510330965e+00 -7.6297440708311131e+00 0.0000000000000000e+00  6.2941514826530458e+00 -6.8203669359612293e+00 0.0000000000000000e+00  5.8840580079349571e+00 -6.0355232896432254e+00 0.0000000000000000e+00  5.4880953233265677e+00 -5.3001795080887613e+00 0.0000000000000000e+00  5.0705482580225079e+00 -4.7288731082682078e+00 0.0000000000000000e+00  4.6804810598363904e+00 -4.1711825468724602e+00 0.0000000000000000e+00  4.3284669586866018e+00 -3.6219838076851789e+00 0.0000000000000000e+00  3.9863422851065331e+00 -3.1847360335011627e+00 0.0000000000000000e+00  3.6773571398212259e+00 -2.7044933056573202e+00 0.0000000000000000e+00  3.4134651670838765e+00 -2.2839910065886198e+00 0.0000000000000000e+00  3.1625796304604150e+00 -1.8403308982487279e+00 0.0000000000000000e+00  2.9436366606364541e+00 -1.5547291157037140e+00 0.0000000000000000e+00  2.7516000616186878e+00 -1.0359277664853297e+00 0.0000000000000000e+00  2.5738382540794547e+00 -1.0146258586029098e+00 0.0000000000000000e+00  2.4008035771070491e+00 -3.3786121398189001e-01 0.0000000000000000e+00  2.2293427819947254e+00 -7.0238090807654663e-01 0.0000000000000000e+00  2.0390832641371444e+00 -2.9684133129913595e-02 0.0000000000000000e+00  1.7498034952439567e+00 2.3472238796290594e+00 0.0000000000000000e+00  2.9495162055452919e+00 4.1853587678948694e+00 0.0000000000000000e+00  2.5782643322141983e+00 4.9526362816129126e+00 0.0000000000000000e+00  3.3556862735543764e+00 4.2487624673963511e+00 0.0000000000000000e+00  3.7161950224827147e+00 4.7198112130645926e+00 0.0000000000000000e+00  4.1769545821767986e+00 4.8174907662697404e+00 0.0000000000000000e+00  4.7092468089748261e+00 5.3469957100742462e+00 0.0000000000000000e+00  5.1268262956805168e+00 5.4478758425396538e+00 0.0000000000000000e+00  5.4298523338742797e+00 5.4541999151864191e+00 0.0000000000000000e+00  5.8371976709052040e+00 5.5049786471943500e+00 0.0000000000000000e+00  6.1054539560058023e+00 5.3748030428144800e+00 0.0000000000000000e+00  6.0495779734803534e+00 4.5429081648754117e+00 0.0000000000000000e+00  6.7971758928414765e+00 4.5654377485925304e+00 0.0000000000000000e+00  4.8331094949341766e+00 3.8525927793605980e-01 0.0000000000000000e+00  1.3212075637660050e+01 1.1667051438787587e+01 0.0000000000000000e+00  1.3705706061718963e+01 1.1135736918251402e+01 0.0000000000000000e+00  1.3930063129221459e+01 1.0194554526461554e+01 0.0000000000000000e+00  1.4222225450675522e+01 9.3223236484989798e+00 0.0000000000000000e+00  1.4641449067444496e+01 8.7906049678858444e+00 0.0000000000000000e+00  1.5201330147996861e+01 8.4004586871046740e+00 0.0000000000000000e+00  1.5843536154388715e+01 8.1830039949964366e+00 0.0000000000000000e+00  1.6506079051728815e+01 7.9922045041758762e+00 0.0000000000000000e+00  1.7126917031444599e+01 7.7780049183166380e+00 0.0000000000000000e+00  1.7653765913253260e+01 7.1186042720123668e+00 0.0000000000000000e+00  1.8049799515126505e+01 6.6370375052909472e+00 0.0000000000000000e+00  1.8304416089701622e+01 5.1381686341829935e+00 0.0000000000000000e+00  1.8421419689381750e+01 4.2606676032880175e+00 0.0000000000000000e+00  1.8427596255958687e+01 1.9475031320603799e+00 0.0000000000000000e+00  1.8359896008197556e+01 1.0531672670323939e+00 0.0000000000000000e+00  1.8266802748027899e+01 -1.4285646636529377e+00 0.0000000000000000e+00  1.8185123942756146e+01 -1.5048398607047899e+00 0.0000000000000000e+00  1.8169796962964448e+01 2.3476758290594921e-03 0.0000000000000000e+00  1.8175874582011705e+01 9.8148484788714558e+00 0.0000000000000000e+00  1.8169784399629645e+01 -2.5586148422061801e-03 0.0000000000000000e+00  1.8231519070218624e+01 6.7836675384111960e+00 0.0000000000000000e+00  1.8284612287217630e+01 4.6432605701553387e+00 0.0000000000000000e+00  1.1638798810162960e+01 -6.1017729838633441e+00 0.0000000000000000e+00  1.3022926461435423e+01 -5.7030133080494183e+00 0.0000000000000000e+00  1.1167962648305604e+01 -8.7844912641030000e+00 0.0000000000000000e+00  1.1080652142228676e+01 -9.0787490704038802e+00 0.0000000000000000e+00  1.0185465794060224e+01 -9.7790552508077067e+00 0.0000000000000000e+00  9.6297836535551919e+00 -9.4550903284832071e+00 0.0000000000000000e+00  8.9582596707700546e+00 -8.9796048012329646e+00 0.0000000000000000e+00  8.4081239320627450e+00 -8.3602406848619406e+00 0.0000000000000000e+00  7.6704568398075175e+00 -7.9183973549898576e+00 0.0000000000000000e+00  7.1966652955586161e+00 -7.0949207420436640e+00 0.0000000000000000e+00  6.8485105572004805e+00 -6.2041023914571785e+00 0.0000000000000000e+00  6.4465308448379108e+00 -5.4356140377816855e+00 0.0000000000000000e+00  6.0559102039021440e+00 -4.7220397118984563e+00 0.0000000000000000e+00  5.6800268972885171e+00 -4.1187011062837247e+00 0.0000000000000000e+00  5.2830204202381257e+00 -3.6024223502613917e+00 0.0000000000000000e+00  4.9137548632415928e+00 -3.1103789316074160e+00 0.0000000000000000e+00  4.5825156986064570e+00 -2.6878924491900471e+00 0.0000000000000000e+00  4.2610135543584358e+00 -2.2570701897370111e+00 0.0000000000000000e+00  3.9722622159050212e+00 -1.9040164849244521e+00 0.0000000000000000e+00  3.7281847445238587e+00 -1.4792488040056033e+00 0.0000000000000000e+00  3.4963207661740721e+00 -1.2413873349710514e+00 0.0000000000000000e+00  3.2959552315796037e+00 -7.6186300548160080e-01 0.0000000000000000e+00  3.1212517737241181e+00 -7.6232669418604715e-01 0.0000000000000000e+00  2.9607224816006821e+00 -9.0361073998469002e-02 0.0000000000000000e+00  2.8027046232814965e+00 -4.5967017620267792e-01 0.0000000000000000e+00  2.6482015031180315e+00 2.4670717667714026e-01 0.0000000000000000e+00  2.4684484279950243e+00 2.7660333180376595e+00 0.0000000000000000e+00  3.1247530251975100e+00 3.6291702164033430e+00 0.0000000000000000e+00  2.7790876771366926e+00 4.4332497064110390e+00 0.0000000000000000e+00  3.4948295631397208e+00 3.6410475389555867e+00 0.0000000000000000e+00  3.8984535130862423e+00 4.1817376919451901e+00 0.0000000000000000e+00  4.2547708774337218e+00 4.1307435292840928e+00 0.0000000000000000e+00  4.7087057096228335e+00 4.5551675679604777e+00 0.0000000000000000e+00  5.2310183612891548e+00 4.8306720833235115e+00 0.0000000000000000e+00  5.6350097110247210e+00 5.0112909187065586e+00 0.0000000000000000e+00  5.9209509847354118e+00 4.9078637559848826e+00 0.0000000000000000e+00  6.3082810453721558e+00 4.9879596044236321e+00 0.0000000000000000e+00  6.5548645988403225e+00 4.6422288578113147e+00 0.0000000000000000e+00  6.4773850373972373e+00 3.4591132635800022e+00 0.0000000000000000e+00  7.2042547022026566e+00 3.3476985611682548e+00 0.0000000000000000e+00  5.2161310067362461e+00 -8.8062710743037864e-01 0.0000000000000000e+00  1.3565574724872118e+01 1.0415156102006739e+01 0.0000000000000000e+00  1.4034041993055018e+01 9.8725976669754978e+00 0.0000000000000000e+00  1.4238452696278483e+01 8.8993794623696942e+00 0.0000000000000000e+00  1.4509228810597335e+01 8.1789812277285083e+00 0.0000000000000000e+00  1.4903749762823132e+01 7.5816501352285410e+00 0.0000000000000000e+00  1.5433460764195043e+01 7.2438732549881300e+00 0.0000000000000000e+00  1.6040387080807147e+01 7.0262121652879266e+00 0.0000000000000000e+00  1.6662871366706444e+01 6.8771853214738252e+00 0.0000000000000000e+00  1.7239825025590545e+01 6.3606572426529704e+00 0.0000000000000000e+00  1.7720271867679305e+01 6.0748962756946234e+00 0.0000000000000000e+00  1.8070790658500261e+01 4.7879946740701316e+00 0.0000000000000000e+00  1.8281646323269570e+01 4.1100025684177695e+00 0.0000000000000000e+00  1.8363925433375396e+01 1.9603145593985403e+00 0.0000000000000000e+00  1.8343876772453893e+01 1.1576584083614927e+00 0.0000000000000000e+00  1.8273488343076036e+01 -1.2866269455541519e+00 0.0000000000000000e+00  1.8191996826954487e+01 -1.4294217582094075e+00 0.0000000000000000e+00  1.8174118262504972e+01 2.9769520994235728e-03 0.0000000000000000e+00  1.8176364185155371e+01 9.7945332640760228e+00 0.0000000000000000e+00  1.8174106276986748e+01 -3.2573603724337340e-03 0.0000000000000000e+00  1.8190004305360439e+01 6.7013993424890623e+00 0.0000000000000000e+00  1.8236016739815245e+01 4.567921