<?xml version="1.0"?>
<VTKFile type="UnstructuredGrid"  version="0.1"  >
<UnstructuredGrid>
<Piece  NumberOfPoints="1933" NumberOfCells="3640">
<Points>
<DataArray  type="Float64"  NumberOfComponents="3"  format="ascii">-0.4754366164615307 -0.0008243027876394095 0  4.524563400071965 -0.0008027011915455783 0  4.524530989875482 7.499197336692885 0  -0.4754690316280657 7.499175727441774 0  9.524563429250192 -0.0007811275071626139 0  9.52453102490634 7.499218910770724 0  14.52456348596452 -0.0007595763174251988 0  14.52453107835568 7.499240460338532 0  19.52456358196421 -0.0007380331772765293 0  19.52453115385628 7.499262001557587 0  24.52456372538412 -0.0007164792287317674 0  24.52453125376618 7.499283553807893 0  29.52456392120326 -0.0006948932735693384 0  29.52453137899597 7.49930513839 0  34.52456417182588 -0.0006732526246329853 0  34.52453152887791 7.499326777949713 0  39.52456447754295 -0.0006515333238438464 0  39.52453170106135 7.499348496360199 0  44.52456483681874 -0.0006297100088168515 0  44.52453189139 7.499370318889105 0  49.52456524640531 -0.0006077555641481163 0  49.52453209372019 7.499392272554754 0  54.52456570129601 -0.0005856406171550643 0  54.52453229964773 7.499414386626574 0  59.52456619452296 -0.0005633328940683495 0  59.52453249811294 7.499436693258501 0  64.52456671678952 -0.0005407964237549615 0  64.52453267484763 7.499459228268196 0  69.52456725590841 -0.0005179905524474018 0  69.52453281161898 7.499482032095059 0  74.52456779599333 -0.0004948687084413033 0  74.5245328852064 7.499505150990153 0  79.52456831631217 -0.0004713768251145664 0  79.52453286602341 7.499528638514306 0  84.52456878965377 -0.0004474512882578767 0  84.52453271626116 7.499552557449602 0  89.52456917996354 -0.0004230162125046003 0  89.52453238738312 7.499576982264021 0  94.52456943884516 -0.0003979797620144338 0  94.52453181674611 7.499602002307931 0  99.52456950023976 -0.0003722291004643479 0  99.52453092306193 7.499627725952265 0  104.5245692720981 -0.000345623372688958 0  104.524529600382 7.499654285870122 0  109.5245686229557 -0.0003179838825807675 0  109.5245277103546 7.499681845533729 0  114.5245673596674 -0.0002890803776973207 0  114.5245250728624 7.499710606556135 0  119.5245651895013 -0.0002586122478856664 0  119.5245214562088 7.499740815314786 0  124.5245616541293 -0.0002261840307230939 0  124.5245165707332 7.499772764397168 0  129.5245560125138 -0.0001912774614239644 0  129.5245100761053 7.49980677777768 0  134.5245470301432 -0.0001532319220785686 0  134.5245016267754 7.499843154167011 0  139.5245325958065 -0.0001112750177813929 0  139.524491010779 7.499882013270976 0  144.5245090190771 -6.473940957760696e-05 0  144.5244785021488 7.499922936101465 0  149.5244697257377 -1.392806320951868e-05 0  149.5244656863846 7.499964232697031 0  159.5244717418524 6.916999924777555e-19 0  164.5244667611246 -2.237846823177524e-05 0  164.5244710897303 7.499971930083354 0  159.5244696629134 7.499986053642559 0  169.5244699332006 -3.325854735770517e-05 0  169.5244722129335 7.499964073629845 0  174.5244763109116 -3.637971619790408e-05 0  174.5244741031758 7.499962284382893 0  179.5244836732205 -3.393440622243739e-05 0  179.5244767260212 7.499965380612717 0  184.524491014112 -2.74021493579984e-05 0  184.5244798184402 7.499972248158151 0  189.5244978975061 -1.782497195683278e-05 0  189.5244831271978 7.499982003031092 0  194.5245041587797 -5.949191389131153e-06 0  194.5244864626449 7.499993974683218 0  199.524509761447 7.683674322287327e-06 0  199.5244896981698 7.500007659894295 0  204.5245147273355 2.267520774826639e-05 0  204.5244927562727 7.500022680179748 0  209.524519102514 3.872785856781391e-05 0  209.5244955941367 7.500038748576167 0  214.5245229408319 5.561597410717097e-05 0  214.5244981921049 7.500055645155321 0  219.52452629618 7.316582053891398e-05 0  219.5245005453707 7.500073199335839 0  224.5245292190691 9.12416701769023e-05 0  224.524502658282 7.500091277161139 0  229.524531755339 0.0001097359867609326 0  229.5245045405644 7.500109772112797 0  234.5245339459029 0.000128562398180219 0  234.5245062048776 7.500128598419469 0  239.5245358269795 0.0001476505866449631 0  239.5245076652762 7.500147686130378 0  244.5245374305483 0.0001669425173999307 0  244.5245089362705 7.500166977446144 0  249.5245387848911 0.0001863896188390662 0  249.5245100322886 7.500186423957538 0  254.5245399151667 0.0002059506541731177 0  254.5245109674062 7.500205984552011 0  259.524540843991 0.0002255901110630132 0  259.5245117552466 7.500225623824899 0  264.5245415920245 0.0002452769965548198 0  264.5245124090029 7.500245310887585 0  269.5245421785639 0.0002649839710088357 0  269.5245129415327 7.500265018507436 0  274.5245426221587 0.0002846867945702808 0  274.5245133654927 7.500284722550328 0  279.5245429412463 0.0003043641001017204 0  279.5245136934936 7.500304401730412 0  284.5245431548058 0.0003239975545922464 0  284.5245139382305 7.50032403770811 0  289.5245432829809 0.0003435725353942898 0  289.5245141125731 7.500343615618372 0  294.524543347557 0.0003630795374251605 0  294.5245142295748 7.500363125157172 0  299.524543372011 0.0003825166454778349 0  299.5245143024108 7.500382562399983 0  304.5245433805143 0.0004018935100171313 0  304.5245143443532 7.500401932563063 0  309.5245433945484 0.0004212370806445614 0  309.5245143692133 7.500421253990439 0  4.524498519229231 14.99919741532647 0  -0.4755015015322746 14.99917580118759 0  9.524498546017746 14.99921898124148 0  14.52449858116727 14.99924051947741 0  19.52449862486577 14.99926204973552 0  24.52449867612213 14.99928359233231 0  29.52449873295208 14.99930516849752 0  34.52449879227462 14.99932680045157 0  39.52449884970858 14.99934851153587 0  44.52449889932588 14.99937032645501 0  49.5244989333687 14.99939227163287 0  54.52449894191592 14.99941437567621 0  59.5244989124801 14.99943666994557 0  64.52449882951329 14.99945918924365 0  69.52449867379899 14.99948197263998 0  74.5244984217116 14.99950506445892 0  79.52449804432663 14.99952851546285 0  84.5244975063851 14.99955238426054 0  89.5244967651455 14.99957673895501 0  94.52449576923031 14.99960165899865 0  99.52449445771227 14.99962723711284 0  104.5244927599409 14.9996535808927 0  109.5244905970714 14.99968081323285 0  114.5244878870429 14.99970906975801 0  119.5244845560205 14.99973848963246 0  124.5244805611862 14.99976919280557 0  129.5244759320824 14.99980123095535 0  134.524470839354 14.99983448995914 0  139.5244656968325 14.99986850816557 0  144.5244612843662 14.9999021595881 0  149.5244588151364 14.99993314108631 0  164.5244655102589 14.99995703759573 0  159.52446378042 14.99995999167212 0  169.5244659577627 14.99995600936765 0  174.5244660757926 14.99995800883345 0  179.5244663564701 14.9999631604247 0  184.5244669560997 14.99997113842708 0  189.5244678670443 14.99998149273026 0  194.5244690193024 14.9999937867414 0  199.5244703299514 15.00000764328021 0  204.5244717239496 15.00002275212256 0  209.5244731408705 15.00003886356012 0  214.5244745353579 15.00005577818233 0  219.524475875161 15.00007333681929 0  224.5244771385397 15.00009141192678 0  229.5244783118021 15.00010990062784 0  234.5244793872383 15.00012871924285 0  239.5244803614903 15.00014779904022 0  244.5244812343161 15.00016708294796 0  249.5244820076786 15.00018652300964 0  254.5244826850858 15.000206078416 0  259.524483271122 15.00022571398714 0  264.5244837711177 15.00024539901578 0  269.5244841909222 15.00026510641247 0  274.524484536738 15.00028481211783 0  279.5244848150063 15.00030449476752 0  284.5244850323274 15.00032413561139 0  289.5244851954196 15.00034371869496 0  294.5244853111761 15.00036323130079 0  299.5244853869153 15.00038266459868 0  304.5244854310586 15.00040201432808 0  309.5244854546472 15.00042128105897 0  4.524466036564172 22.49919755154918 0  -0.4755339824133995 22.49917595746821 0  9.524466054899717 22.49921909254444 0  14.5244660721732 22.49924060526585 0  19.52446608676731 22.49926211155019 0  24.52446609614606 22.49928363220367 0  29.52446609698642 22.49930518802763 0  34.524466085138 22.4993268003673 0  39.52446605547919 22.49934849147452 0  44.5244660017198 22.49937028482856 0  49.52446591617804 22.49939220547854 0  54.52446578954043 22.49941428043263 0  59.52446561061031 22.49943653910391 0  64.52446536605076 22.49945901381621 0  69.52446504013487 22.49948174036752 0  74.5244646145328 22.49950475864124 0  79.52446406818906 22.49952811323854 0  84.5244633773831 22.49955185407346 0  89.52446251613244 22.49957603681353 0  94.52446145719369 22.4996007229434 0  99.52446017406183 22.49962597904499 0  104.5244586445766 22.49965187457436 0  109.524456857013 22.49967847689718 0  114.5244548198337 22.49970584151797 0  119.5244525765012 22.49973399419473 0  124.5244502265859 22.49976289993648 0  129.5244479532107 22.49979241202907 0  134.5244460533801 22.49982219351158 0  139.5244449598835 22.49985160783427 0  144.5244452288146 22.49987959527334 0  149.5244474459415 22.49990461468882 0  164.5244527923457 22.49993998209161 0  159.5244515053157 22.49993496872946 0  169.5244529324548 22.4999450219699 0  174.5244524380727 22.49995122135196 0  179.5244517297247 22.49995910863855 0  184.5244510715639 22.49996880904689 0  189.5244505932295 22.49998022598271 0  194.5244503358334 22.49999316597703 0  199.5244502910894 22.50000740947535 0  204.5244504275145 22.50002274557235 0  209.5244507058753 22.50003898629659 0  214.5244510873933 22.50005597040828 0  219.5244515375556 22.50007356232639 0  224.5244520274689 22.50009164912192 0  229.5244525339301 22.50011013701593 0  234.5244530389078 22.50012894802949 0  239.5244535288032 22.5001480170352 0  244.5244539936868 22.50016728926933 0  249.5244544265929 22.50018671828263 0  254.5244548229142 22.50020626427708 0  259.5244551798885 22.50022589277251 0  264.524455496181 22.50024557355098 0  269.5244557715415 22.50026527983709 0  274.524456006532 22.5002849876795 0  279.5244562023153 22.50030467550413 0  284.5244563605187 22.50032432380541 0  289.524456483193 22.50034391492581 0  294.5244565729268 22.50036343
[...]
<PointData  Vectors="v"> 
<DataArray  type="Float64"  Name="v"  NumberOfComponents="3" format="ascii">-3.3620708008243390e+00 -6.6668270405032155e+00 0.0000000000000000e+00  -3.8294472031467448e+00 -6.0367779799185852e+00 0.0000000000000000e+00  -3.3177648259818429e+00 -5.3359730621097849e+00 0.0000000000000000e+00  -2.9539154426351648e+00 -6.1208630706881273e+00 0.0000000000000000e+00  -4.3723480118392146e+00 -6.2987211955085796e+00 0.0000000000000000e+00  -3.7846875371716679e+00 -5.4851028987177859e+00 0.0000000000000000e+00  -4.8048961488183597e+00 -6.8680090068452619e+00 0.0000000000000000e+00  -4.3265387357209306e+00 -6.2204424154335962e+00 0.0000000000000000e+00  -5.1272488604998543e+00 -6.7407538239608895e+00 0.0000000000000000e+00  -4.7574127091560339e+00 -6.2588917886131057e+00 0.0000000000000000e+00  -5.5576507840574028e+00 -7.0946724311948390e+00 0.0000000000000000e+00  -5.0775211106180764e+00 -6.4511421266900770e+00 0.0000000000000000e+00  -5.8522641379086666e+00 -6.9816509145889931e+00 0.0000000000000000e+00  -5.5052523367258646e+00 -6.5422098376906073e+00 0.0000000000000000e+00  -5.8249029208027423e+00 -6.4576361689896808e+00 0.0000000000000000e+00  -5.7967026034925286e+00 -6.5013578028352539e+00 0.0000000000000000e+00  -6.6001323529503750e+00 -7.0201107013656729e+00 0.0000000000000000e+00  -5.7658477904437371e+00 -5.8602428025767415e+00 0.0000000000000000e+00  -4.6656542733344999e+00 -3.5430893592684551e+00 0.0000000000000000e+00  -6.5373655755491509e+00 -6.4479531283457350e+00 0.0000000000000000e+00  -1.3083909645184049e+01 -1.5379621252375717e+01 0.0000000000000000e+00  -4.5989923146294904e+00 -2.7556576602370790e+00 0.0000000000000000e+00  -1.3613633572504527e+01 -1.5029597412931443e+01 0.0000000000000000e+00  -1.3012772932878473e+01 -1.4238796192367817e+01 0.0000000000000000e+00  -1.3868348440588161e+01 -1.4123592829127750e+01 0.0000000000000000e+00  -1.3537995598492602e+01 -1.3744862583078080e+01 0.0000000000000000e+00  -1.4191819664008943e+01 -1.3266732254001770e+01 0.0000000000000000e+00  -1.3788461583230951e+01 -1.2784976559453241e+01 0.0000000000000000e+00  -1.4644111814108474e+01 -1.2625213831750704e+01 0.0000000000000000e+00  -1.4107587957374189e+01 -1.1950091322831369e+01 0.0000000000000000e+00  -1.5240605443064300e+01 -1.2195763243490344e+01 0.0000000000000000e+00  -1.4555704184760771e+01 -1.1304518414020043e+01 0.0000000000000000e+00  -1.5922254257813023e+01 -1.1859477141278104e+01 0.0000000000000000e+00  -1.5147877918374233e+01 -1.0840077732268476e+01 0.0000000000000000e+00  -1.6626039250044297e+01 -1.1701797366329872e+01 0.0000000000000000e+00  -1.5825337961071183e+01 -1.0648943491481935e+01 0.0000000000000000e+00  -1.7289198277177878e+01 -1.1410609068649109e+01 0.0000000000000000e+00  -1.6525546188221309e+01 -1.0418296654570788e+01 0.0000000000000000e+00  -1.7857063382365570e+01 -1.1023257066196306e+01 0.0000000000000000e+00  -1.7185441952846158e+01 -1.0172835957251413e+01 0.0000000000000000e+00  -1.8290989206482191e+01 -1.0429342960534692e+01 0.0000000000000000e+00  -1.7751059271663813e+01 -9.7790866498981845e+00 0.0000000000000000e+00  -1.8576880344012277e+01 -9.6554789676396915e+00 0.0000000000000000e+00  -1.8183843367605480e+01 -9.2258584692953161e+00 0.0000000000000000e+00  -1.8717450655434845e+01 -8.3630738103039661e+00 0.0000000000000000e+00  -1.8470296419523795e+01 -8.1501848915097526e+00 0.0000000000000000e+00  -1.8731505393055169e+01 -7.2651106184591328e+00 0.0000000000000000e+00  -1.8612496005927067e+01 -7.2395603799028247e+00 0.0000000000000000e+00  -1.8658546698869905e+01 -5.2414497951246570e+00 0.0000000000000000e+00  -1.8631738454466994e+01 -5.3458418097339298e+00 0.0000000000000000e+00  -1.8531901873067881e+01 -3.9893409411488081e+00 0.0000000000000000e+00  -1.8564105382497210e+01 -4.1695895024127791e+00 0.0000000000000000e+00  -1.8399551818177823e+01 -1.4727932708490998e+00 0.0000000000000000e+00  -1.8448958201884420e+01 -1.6629772592883656e+00 0.0000000000000000e+00  -1.8282173616124943e+01 -5.5810634209046250e-01 0.0000000000000000e+00  -1.8326240917141373e+01 -7.1763485541908667e-01 0.0000000000000000e+00  -1.8210810845158903e+01 1.8289922519748629e+00 0.0000000000000000e+00  -1.8228522995569492e+01 1.7333901477967675e+00 0.0000000000000000e+00  -1.8172578497317630e+01 1.6850239706295982e+00 0.0000000000000000e+00  -1.8171281539691666e+01 1.6527806974501822e+00 0.0000000000000000e+00  -1.8163571108660946e+01 -5.4635923510051012e-05 0.0000000000000000e+00  -1.8164444447961969e+01 -9.6815529445275130e-04 0.0000000000000000e+00  -1.8163563200132987e+01 5.3629786453038787e-19 0.0000000000000000e+00  -1.1542118553890328e+01 -2.6172269559744638e-02 0.0000000000000000e+00  -1.8177118261801475e+01 -9.9545855628149074e+00 0.0000000000000000e+00  -1.8164414106698192e+01 8.2215711135575720e-04 0.0000000000000000e+00  -1.2946687323059319e+01 9.4444038946998876e-01 0.0000000000000000e+00  -1.1558324314973289e+01 3.0485527609938492e+00 0.0000000000000000e+00  -1.1085290078735543e+01 5.9970255317146730e+00 0.0000000000000000e+00  -1.2964201441373422e+01 3.2129555212318803e+00 0.0000000000000000e+00  -1.0978067094245070e+01 6.9686648729031635e+00 0.0000000000000000e+00  -1.1107297652157904e+01 6.8129231206913730e+00 0.0000000000000000e+00  -1.0054210196695177e+01 1.0022053118226381e+01 0.0000000000000000e+00  -1.1007317211467273e+01 8.6446417901890200e+00 0.0000000000000000e+00  -9.4667752941427015e+00 1.1174882904395314e+01 0.0000000000000000e+00  -1.0092219213036234e+01 1.0302525804287813e+01 0.0000000000000000e+00  -8.7582917420907584e+00 1.2356498584403035e+01 0.0000000000000000e+00  -9.5145277068130625e+00 1.1304262129601677e+01 0.0000000000000000e+00  -8.1692749657251031e+00 1.2546890138787395e+01 0.0000000000000000e+00  -8.8173991872436819e+00 1.1674041236588849e+01 0.0000000000000000e+00  -7.3904977414012993e+00 1.2499716506355782e+01 0.0000000000000000e+00  -8.2405317381585039e+00 1.1343435566610836e+01 0.0000000000000000e+00  -6.8734594256979031e+00 1.1732082565361340e+01 0.0000000000000000e+00  -7.4746157860074707e+00 1.0968894752604079e+01 0.0000000000000000e+00  -6.4805051422016104e+00 1.0813051675869456e+01 0.0000000000000000e+00  -6.9712900848465980e+00 1.0236478706537598e+01 0.0000000000000000e+00  -6.0320314374813142e+00 9.8708093787053279e+00 0.0000000000000000e+00  -6.5926044825188415e+00 9.2114619246695675e+00 0.0000000000000000e+00  -5.5928894599598040e+00 8.9263568095747683e+00 0.0000000000000000e+00  -6.1588176506318462e+00 8.2814291361012735e+00 0.0000000000000000e+00  -5.1670740018781922e+00 8.0807938450470918e+00 0.0000000000000000e+00  -5.7348743220770775e+00 7.4560671107641028e+00 0.0000000000000000e+00  -4.7192426141671548e+00 7.3072346476397261e+00 0.0000000000000000e+00  -5.3245748671441220e+00 6.6497699454877122e+00 0.0000000000000000e+00  -4.2984190705641607e+00 6.5632918865005063e+00 0.0000000000000000e+00  -4.8924551286147704e+00 5.9465107006553994e+00 0.0000000000000000e+00  -3.9154601299657821e+00 5.8936070410714327e+00 0.0000000000000000e+00  -4.4875705876566885e+00 5.3336762115172158e+00 0.0000000000000000e+00  -3.5424519949320126e+00 5.2634028945748570e+00 0.0000000000000000e+00  -4.1206350367498850e+00 4.7184863601895577e+00 0.0000000000000000e+00  -3.2026928163955124e+00 4.6490509732178467e+00 0.0000000000000000e+00  -3.7636880996019060e+00 4.1539966212997106e+00 0.0000000000000000e+00  -2.9082445829611232e+00 4.0936363613542790e+00 0.0000000000000000e+00  -3.4399662586894446e+00 3.6665333360312959e+00 0.0000000000000000e+00  -2.6272757345881481e+00 3.5250620300210858e+00 0.0000000000000000e+00  -3.1615699654032632e+00 3.1180516278678105e+00 0.0000000000000000e+00  -2.3785749668079696e+00 3.0359744340032053e+00 0.0000000000000000e+00  -2.8964297974073929e+00 2.6774014865020264e+00 0.0000000000000000e+00  -2.1574995406653148e+00 2.5026476503913817e+00 0.0000000000000000e+00  -2.6636498724687718e+00 2.1851722935709073e+00 0.0000000000000000e+00  -1.9509471011369863e+00 2.1538978790359766e+00 0.0000000000000000e+00  -2.4579932752417171e+00 1.8584552952196620e+00 0.0000000000000000e+00  -1.7502624062347520e+00 1.6049695764424223e+00 0.0000000000000000e+00  -2.2673070988833715e+00 1.3175354620379995e+00 0.0000000000000000e+00  -1.5509133192068181e+00 1.5728148801368325e+00 0.0000000000000000e+00  -2.0812631371870691e+00 1.2883521699686089e+00 0.0000000000000000e+00  -1.3347883325525947e+00 9.2017689307824468e-01 0.0000000000000000e+00  -1.8981167504485159e+00 6.0853890335607719e-01 0.0000000000000000e+00  -1.0167903488762646e+00 1.4616775840592982e+00 0.0000000000000000e+00  -1.6951117004842133e+00 1.0002181662245173e+00 0.0000000000000000e+00  -5.0524345112160407e-01 1.2339246370372945e+00 0.0000000000000000e+00  -1.3952747632850140e+00 4.7654909616754998e-01 0.0000000000000000e+00  6.9812916413412851e-01 1.8347916059432443e-01 0.0000000000000000e+00  -8.9101487644901556e-01 -1.6008829585747117e+00 0.0000000000000000e+00  -3.0476961731343675e+00 -4.7904447379818444e+00 0.0000000000000000e+00  -2.6404156324231303e+00 -5.5094976343461486e+00 0.0000000000000000e+00  -3.4108431850746324e+00 -4.7856287026008717e+00 0.0000000000000000e+00  -3.8758641903033686e+00 -5.4092712812650321e+00 0.0000000000000000e+00  -4.4146051450145185e+00 -5.6149161219997366e+00 0.0000000000000000e+00  -4.8411370986867777e+00 -5.9741302287388374e+00 0.0000000000000000e+00  -5.1556033752627721e+00 -5.9043570049459149e+00 0.0000000000000000e+00  -5.5766002264166774e+00 -6.0685310836253930e+00 0.0000000000000000e+00  -5.8603871449482163e+00 -5.9114545609290943e+00 0.0000000000000000e+00  -5.8210955575259584e+00 -5.2956611834377947e+00 0.0000000000000000e+00  -6.5842401658643883e+00 -5.6678372006922473e+00 0.0000000000000000e+00  -4.6373610848900348e+00 -1.6245654567816015e+00 0.0000000000000000e+00  -1.3039954856430999e+01 -1.2963892666172793e+01 0.0000000000000000e+00  -1.3554267509002303e+01 -1.2414546477909775e+01 0.0000000000000000e+00  -1.3795563104269821e+01 -1.1477228355313326e+01 0.0000000000000000e+00  -1.4105076562520589e+01 -1.0637784815516724e+01 0.0000000000000000e+00  -1.4543443376892446e+01 -9.9579890299268197e+00 0.0000000000000000e+00  -1.5124991063527398e+01 -9.6394786693478611e+00 0.0000000000000000e+00  -1.5791041641824737e+01 -9.3745946218652456e+00 0.0000000000000000e+00  -1.6479671082187753e+01 -9.1897420341197886e+00 0.0000000000000000e+00  -1.7127985483193914e+01 -8.9376321120799780e+00 0.0000000000000000e+00  -1.7682197207956385e+01 -8.5822903320612589e+00 0.0000000000000000e+00  -1.8105148016848847e+01 -7.7258225383076411e+00 0.0000000000000000e+00  -1.8383261183914431e+01 -7.0296658694853695e+00 0.0000000000000000e+00  -1.8519981431849573e+01 -5.3190773008711245e+00 0.0000000000000000e+00  -1.8537024780629860e+01 -4.2688691114721804e+00 0.0000000000000000e+00  -1.8472878319381490e+01 -1.8339897388536175e+00 0.0000000000000000e+00  -1.8364776447869239e+01 -8.8920673677001638e-01 0.0000000000000000e+00  -1.8260640560858487e+01 1.5922441937307819e+00 0.0000000000000000e+00  -1.8182407476636719e+01 1.5965602872548661e+00 0.0000000000000000e+00  -1.8166536191097208e+01 -1.8422607619094505e-03 0.0000000000000000e+00  -1.8181342507450847e+01 -9.8959134342391657e+00 0.0000000000000000e+00  -1.8166495053054160e+01 1.6137926145051282e-03 0.0000000000000000e+00  -1.8237771785255312e+01 -6.8783150687391812e+00 0.0000000000000000e+00  -1.1609616351401231e+01 5.3132227421930862e+00 0.0000000000000000e+00  -1.3006624910373487e+01 4.0268950173516487e+00 0.0000000000000000e+00  -1.1150167131161794e+01 8.4963065621804041e+00 0.0000000000000000e+00  -1.1053935770738335e+01 8.9345428957522799e+00 0.0000000000000000e+00  -1.0146420529397330e+01 1.0441689005657077e+01 0.0000000000000000e+00  -9.5768194245952376e+00 1.0634510463641055e+01 0.0000000000000000e+00  -8.8898523069208544e+00 1.0484500914400288e+01 0.0000000000000000e+00  -8.3238345737397275e+00 9.8266419167512087e+00 0.0000000000000000e+00  -7.5694344991832052e+00 9.4887532238335872e+00 0.0000000000000000e+00  -7.0783683524509824e+00 8.6511476178993281e+00 0.0000000000000000e+00  -6.7126169438218408e+00 7.6385292285886432e+00 0.0000000000000000e+00  -6.2921653875985299e+00 6.8284560927217326e+00 0.0000000000000000e+00  -5.8821858345852212e+00 6.0429238970013595e+00 0.0000000000000000e+00  -5.4863041488772799e+00 5.3070083749431891e+00 0.0000000000000000e+00  -5.0688327701807747e+00 4.7352362058218231e+00 0.0000000000000000e+00  -4.6788202040984439e+00 4.1770773419853215e+00 0.0000000000000000e+00  -4.3268616062032716e+00 3.6274678856412086e+00 0.0000000000000000e+00  -3.9848001931523123e+00 3.1898694908674816e+00 0.0000000000000000e+00  -3.6758853727127412e+00 2.7092309389280529e+00 0.0000000000000000e+00  -3.4120763311985471e+00 2.2883815526170288e+00 0.0000000000000000e+00  -3.1612868529228151e+00 1.8443653181963404e+00 0.0000000000000000e+00  -2.9424575632830341e+00 1.5584216536839546e+00 0.0000000000000000e+00  -2.7505399377103545e+00 1.0392234915576668e+00 0.0000000000000000e+00  -2.5729248283090138e+00 1.0176497042872441e+00 0.0000000000000000e+00  -2.4000292355353778e+00 3.4036439135736252e-01 0.0000000000000000e+00  -2.2287487790949201e+00 7.0475621597071769e-01 0.0000000000000000e+00  -2.0386430179236803e+00 3.1368755590631028e-02 0.0000000000000000e+00  -1.7495934708636587e+00 -2.3475451148332773e+00 0.0000000000000000e+00  -2.9518890102576658e+00 -4.1800774089104547e+00 0.0000000000000000e+00  -2.5805587138078621e+00 -4.9518333011673530e+00 0.0000000000000000e+00  -3.3581060869057020e+00 -4.2423894904452721e+00 0.0000000000000000e+00  -3.7186705228051222e+00 -4.7145172657812422e+00 0.0000000000000000e+00  -4.1792676474910095e+00 -4.8113173455621618e+00 0.0000000000000000e+00  -4.7111267174399565e+00 -5.3405590382943124e+00 0.0000000000000000e+00  -5.1282875999463871e+00 -5.4406155389207775e+00 0.0000000000000000e+00  -5.4309779521801600e+00 -5.4467198825073213e+00 0.0000000000000000e+00  -5.8378477514060831e+00 -5.4967592396918565e+00 0.0000000000000000e+00  -6.1057768645057182e+00 -5.3663345029315677e+00 0.0000000000000000e+00  -6.0499867486764609e+00 -4.5347139521385342e+00 0.0000000000000000e+00  -6.7972458705826293e+00 -4.5564879577891180e+00 0.0000000000000000e+00  -4.8327623546642524e+00 -3.7556732554239713e-01 0.0000000000000000e+00  -1.3213031414848983e+01 -1.1658881765606084e+01 0.0000000000000000e+00  -1.3706660743393586e+01 -1.1127390685869681e+01 0.0000000000000000e+00  -1.3930921506220860e+01 -1.0186067887885349e+01 0.0000000000000000e+00  -1.4222978391112656e+01 -9.3138240830200516e+00 0.0000000000000000e+00  -1.4642105502460973e+01 -8.7820166411442031e+00 0.0000000000000000e+00  -1.5201908366900488e+01 -8.3918560969997458e+00 0.0000000000000000e+00  -1.5844051316359863e+01 -8.1745356745517768e+00 0.0000000000000000e+00  -1.6506541766227432e+01 -7.9835390579427541e+00 0.0000000000000000e+00  -1.7127335481309998e+01 -7.7692935814875943e+00 0.0000000000000000e+00  -1.7654140033186295e+01 -7.1095277002748469e+00 0.0000000000000000e+00  -1.8050134784146902e+01 -6.6276644455351228e+00 0.0000000000000000e+00  -1.8304702326439184e+01 -5.1275391244057680e+00 0.0000000000000000e+00  -1.8421666032933725e+01 -4.2497183838527164e+00 0.0000000000000000e+00  -1.8427785870794722e+01 -1.9340129526006951e+00 0.0000000000000000e+00  -1.8360043349262401e+01 -1.0388768971164239e+00 0.0000000000000000e+00  -1.8266890626385127e+01 1.4452763208784694e+00 0.0000000000000000e+00  -1.8185167742787996e+01 1.5281275267070911e+00 0.0000000000000000e+00  -1.8169801155608901e+01 -2.6338507178814471e-03 0.0000000000000000e+00  -1.8175848923227797e+01 -9.8438520164663288e+00 0.0000000000000000e+00  -1.8169764372117164e+01 2.3072324523209465e-03 0.0000000000000000e+00  -1.8231395604427387e+01 -6.7844527374575412e+00 0.0000000000000000e+00  -1.8284442010031466e+01 -4.6427033294787581e+00 0.0000000000000000e+00  -1.1637516749985947e+01 6.1104886902580988e+00 0.0000000000000000e+00  -1.3021343795130781e+01 5.7130504949156311e+00 0.0000000000000000e+00  -1.1167127479661787e+01 8.7945862161952526e+00 0.0000000000000000e+00  -1.1079188515030941e+01 9.0901946244416170e+00 0.0000000000000000e+00  -1.0184029521000101e+01 9.7900937938591799e+00 0.0000000000000000e+00  -9.6281206401808905e+00 9.4657410039755163e+00 0.0000000000000000e+00  -8.9564679340861062e+00 8.9898324267689240e+00 0.0000000000000000e+00  -8.4060843274997161e+00 8.3701108022302488e+00 0.0000000000000000e+00  -7.6682014230692470e+00 7.9279185594947412e+00 0.0000000000000000e+00  -7.1943083979779789e+00 7.1039852029564541e+00 0.0000000000000000e+00  -6.8463459667956137e+00 6.2123899066601638e+00 0.0000000000000000e+00  -6.4445027619124051e+00 5.4431784161034162e+00 0.0000000000000000e+00  -6.0539949564191877e+00 4.7289837451876995e+00 0.0000000000000000e+00  -5.6781908040940348e+00 4.1251746673554042e+00 0.0000000000000000e+00  -5.2812589907019989e+00 3.6083961080011768e+00 0.0000000000000000e+00  -4.9120468583326051e+00 3.1159431512286382e+00 0.0000000000000000e+00  -4.5808611958365040e+00 2.6931197610864994e+00 0.0000000000000000e+00  -4.2594216732040051e+00 2.2619112854557182e+00 0.0000000000000000e+00  -3.9707385009494409e+00 1.9085301079218855e+00 0.0000000000000000e+00  -3.7267433139094339e+00 1.4834256066835543e+00 0.0000000000000000e+00  -3.4949721340131381e+00 1.2452513221923562e+00 0.0000000000000000e+00  -3.2947217921994802e+00 7.6533372684125167e-01 0.0000000000000000e+00  -3.1201300829932870e+00 7.6557612865500280e-01 0.0000000000000000e+00  -2.9597544202197890e+00 9.3066625592316293e-02 0.0000000000000000e+00  -2.8018618820583638e+00 4.6232869750263794e-01 0.0000000000000000e+00  -2.6475509519094556e+00 -2.4479745732908853e-01 0.0000000000000000e+00  -2.4679734315048427e+00 -2.7660452718815192e+00 0.0000000000000000e+00  -3.1270041820573935e+00 -3.6237536726588488e+00 0.0000000000000000e+00  -2.7813081758518221e+00 -4.4323818845561114e+00 0.0000000000000000e+00  -3.4971693738463983e+00 -3.6346036259661267e+00 0.0000000000000000e+00  -3.9008465011975959e+00 -4.1763673748551717e+00 0.0000000000000000e+00  -4.2572124189437863e+00 -4.1248148478157756e+00 0.0000000000000000e+00  -4.7109889359855996e+00 -4.5493914384509875e+00 0.0000000000000000e+00  -5.2328647612283641e+00 -4.8240406092918606e+00 0.0000000000000000e+00  -5.6364382026800799e+00 -5.0043121396846342e+00 0.0000000000000000e+00  -5.9220418519158091e+00 -4.9003579198324534e+00 0.0000000000000000e+00  -6.3088962946801779e+00 -4.9799768761489878e+00 0.0000000000000000e+00  -6.5551494426615369e+00 -4.6338823710369033e+00 0.0000000000000000e+00  -6.4777510094480366e+00 -3.4506762659970049e+00 0.0000000000000000e+00  -7.2042805102705945e+00 -3.3385157443519469e+00 0.0000000000000000e+00  -5.2157381373421643e+00 8.9041128341285047e-01 0.0000000000000000e+00  -1.3566483410528773e+01 -1.0406804156198399e+01 0.0000000000000000e+00  -1.4034948133996526e+01 -9.8642349558980129e+00 0.0000000000000000e+00  -1.4239262327860851e+01 -8.8910200580186398e+00 0.0000000000000000e+00  -1.4509935328945060e+01 -8.1705287071270032e+00 0.0000000000000000e+00  -1.4904359124227236e+01 -7.5731617076767810e+00 0.0000000000000000e+00  -1.5433992285512863e+01 -7.2355017458162862e+00 0.0000000000000000e+00  -1.6040854720000169e+01 -7.0176294025711954e+00 0.0000000000000000e+00  -1.6663285926752081e+01 -6.8685443859174731e+00 0.0000000000000000e+00  -1.7240189646320577e+01 -6.3516421918148200e+00 0.0000000000000000e+00  -1.7720594637922385e+01 -6.0655790711609043e+00 0.0000000000000000e+00  -1.8071062064982517e+01 -4.7774174543690737e+00 0.0000000000000000e+00  -1.8281875475285702e+01 -4.0991023633585426e+00 0.0000000000000000e+00  -1.8364097165599652e+01 -1.9468764688988998e+00 0.0000000000000000e+00  -1.8344004526932498e+01 -1.1434211928047968e+00 0.0000000000000000e+00  -1.8273556290888994e+01 1.3032785611870230e+00 0.0000000000000000e+00  -1.8192023279813114e+01 1.4526431955506318e+00 0.0000000000000000e+00  -1.8174