<?xml version="1.0"?>
<VTKFile type="UnstructuredGrid"  version="0.1"  >
<UnstructuredGrid>
<Piece  NumberOfPoints="1933" NumberOfCells="3640">
<Points>
<DataArray  type="Float64"  NumberOfComponents="3"  format="ascii">0.2940232690019425 -0.001164621443012204 0  5.294023287639365 -0.001131974543839965 0  5.293974303912501 7.498868065734899 0  0.2939742814676124 7.498835413495687 0  10.29402332197442 -0.001099355777809352 0  10.29397433945429 7.49890068339195 0  15.29402338702647 -0.001066754022259259 0  15.29397439204498 7.498933282572316 0  20.29402349328533 -0.001034150093664259 0  20.29397446404527 7.498965883961132 0  25.29402364683649 -0.001001521262798619 0  25.2939745561734 7.498998510653981 0  30.29402385013204 -0.0009688431253486284 0  30.29397466733443 7.499031187050949 0  35.29402410270426 -0.0009360902487986836 0  35.29397479448726 7.499063938470369 0  40.29402440164799 -0.0009032362171843792 0  40.29397493251796 7.499096791190734 0  45.29402474185797 -0.0008702533617789726 0  45.29397507406962 7.499129772743626 0  50.29402511604539 -0.0008371123103357995 0  50.29397520928656 7.49916291236451 0  55.29402551455482 -0.0008037814089108502 0  55.29397532543945 7.4991962415611 0  60.29402592498738 -0.0007702260269549678 0  60.29397540639919 7.499229794792263 0  65.29402633161669 -0.000736407728808512 0  65.29397543191915 7.499263610273081 0  70.29402671455722 -0.0007022832727140914 0  70.29397537667478 7.499297730940073 0  75.29402704861621 -0.0006678033756112217 0  75.29397520898785 7.499332205628451 0  80.29402730171192 -0.0006329111531985512 0  80.29397488913547 7.499367090533441 0  85.29402743267215 -0.00059754010474849 0  85.29397436710576 7.499402451052029 0  90.294027388112 -0.0005616114545850708 0  90.29397357961108 7.499438364128468 0  95.29402709790043 -0.0005250305789515087 0  95.29397244611557 7.499474921251952 0  100.29402646839 -0.0004876821295458315 0  100.2939708635749 7.499512232260328 0  105.294025372005 -0.0004494233086334495 0  105.293968699572 7.499550430046244 0  110.2940236307355 -0.0004100745698486518 0  110.293965783645 7.499589676036079 0  115.2940209891918 -0.000369406890841237 0  115.2939618970704 7.499630165680643 0  120.2940170694081 -0.0003271249462915419 0  120.2939567626655 7.49967213163259 0  125.2940112932143 -0.0002828467545958627 0  125.2939500393896 7.49971583865965 0  130.2940027462991 -0.0002360847787582249 0  130.2939413339063 7.499761556302261 0  135.2939899366221 -0.0001862469244895734 0  135.2939302574352 7.499809478182444 0  140.2939703606227 -0.0001327157858050192 0  140.2939165904602 7.499859522663211 0  145.2939397181895 -7.518751091537978e-05 0  145.2939006887806 7.49991089032281 0  150.29389047371 -1.486994168985049e-05 0  150.2938844124955 7.499961200406768 0  160.2938926261462 7.29812128583919e-19 0  165.2938965271858 -1.436883849890169e-05 0  165.2938931947759 7.499980430038033 0  160.2938886829026 7.499987186965162 0  170.2939062427747 -1.584041672698521e-05 0  170.2938974561868 7.499981793212751 0  175.2939175584742 -8.705759054334489e-06 0  175.2939022104558 7.499990166779531 0  180.2939287168837 4.489122266739773e-06 0  180.2939073340962 7.500003952843119 0  185.293939021033 2.205837660380799e-05 0  185.2939125634031 7.500021816443558 0  190.2939482464075 4.283973215794284e-05 0  190.2939176774154 7.500042747119203 0  195.2939563765851 6.601501938466341e-05 0  195.2939225285446 7.500065998469887 0  200.2939634813485 9.09984549703335e-05 0  200.293927032197 7.500091020249831 0  205.2939696605129 0.0001173635919927963 0  205.2939311490066 7.500117404071262 0  210.2939750186413 0.0001447947682697 0  210.2939348692754 7.500144843610787 0  215.2939796543208 0.0001730545005663488 0  215.2939382014953 7.500173106284569 0  220.2939836562413 0.000201961329819248 0  220.2939411645362 7.500202013239266 0  225.2939871023725 0.0002313745534175049 0  225.2939437825742 7.500231425177518 0  230.2939900604837 0.0002611835346090098 0  230.2939460819238 7.500261232232109 0  235.2939925891811 0.000291300090459406 0  235.2939480891376 7.500291346649617 0  240.2939947390865 0.0003216529815254429 0  240.2939498299303 7.500321697437616 0  245.2939965539998 0.0003521838615636834 0  245.2939513286289 7.500352226400006 0  250.2939980719814 0.0003828442621364885 0  250.2939526079572 7.500382885169599 0  255.2939993263498 0.0004135933288272845 0  255.2939536890336 7.500413632972112 0  260.2940003465968 0.0004443961210844006 0  260.2939545914934 7.500444434942631 0  265.294001159249 0.0004752223547092401 0  265.2939553336952 7.500475260877419 0  270.2940017886828 0.0005060455168768536 0  270.2939559329689 7.500506084351112 0  275.2940022579288 0.0005368423272361012 0  275.2939564058741 7.500536882168925 0  280.2940025894605 0.000567592562582671 0  280.2939567684563 7.50056763416043 0  285.2940028059678 0.000598279314176867 0  285.293957036452 7.500598323360246 0  290.2940029310549 0.0006288898139546111 0  290.2939572254309 7.500628936663716 0  295.2940029897247 0.0006594170554015657 0  295.2939573508339 7.500659466091038 0  300.2940030083179 0.0006898625412805105 0  300.2939574279222 7.50068991083443 0  305.2940030132012 0.0007202405443804758 0  305.2939574717616 7.500720280290089 0  310.2940030267049 0.0007505838971758614 0  310.2939574977053 7.500750598348675 0  5.293925267523529 14.99886814748289 0  0.293925246565604 14.99883549880958 0  10.29392529228869 14.99890075149271 0  15.29392532182042 14.99893333586644 0  20.2939253549616 14.99896592398891 0  25.2939253892922 14.99899853929212 0  30.29392542121958 14.99903120569955 0  35.29392544580569 14.99906394782737 0  40.29392545650962 14.99909679122099 0  45.29392544489124 14.9991297626842 0  50.29392540027555 14.99916289070149 0  55.293925309359 14.99919620594722 0  60.29392515573645 14.99922974188164 0  65.29392491932678 14.99926353544297 0  70.29392457567496 14.99929762785143 0  75.29392409511509 14.99933206554629 0  80.29392344178362 14.99936690127669 0  85.29392257249852 14.99940219535712 0  90.29392143556009 14.99943801706996 0  95.29391996962005 14.99947444612902 0  100.2939181029327 14.99951157397029 0  105.2939157536053 14.99954950433702 0  110.2939128319994 14.99958835203507 0  115.2939092473315 14.99962823760662 0  120.2939049219357 14.99966927357955 0  125.293899818682 14.99971153421646 0  130.2938939894315 14.99975499437428 0  135.2938876537296 14.99979941332929 0  140.2938813126314 14.99984412690044 0  145.2938758801157 14.99988770214142 0  150.2938727423794 14.99992742025366 0  165.2938803717251 14.99996695501803 0  160.2938779970048 14.999962164641 0  170.2938817226625 14.99997491522019 0  175.2938829206669 14.99998679498218 0  180.2938843405443 15.00000240549032 0  185.2938860557012 15.00002120760448 0  190.2938880103977 15.00004261319654 0  195.2938901111574 15.00006609708747 0  200.29389226706 15.00009122493027 0  205.2938944040842 15.00011764927633 0  210.293896467677 15.00014509597071 0  215.2938984206594 15.00017334945932 0  220.2939002397636 15.00020223990854 0  225.2939019121955 15.00023163278072 0  230.2939034327283 15.00026142069432 0  235.2939048014269 15.00029151716797 0  240.2939060219441 15.00032185183843 0  245.2939071002869 15.00035236680623 0  250.2939080439482 15.00038301383801 0  255.2939088613076 15.00041375222293 0  260.2939095612302 15.00044454713659 0  265.2939101528033 15.00047536840949 0  270.2939106451726 15.00050618963275 0  275.2939110474328 15.00053698756211 0  280.2939113685638 15.00056774180376 0  285.2939116173977 15.00059843478355 0  290.2939118026234 15.00062905200786 0  295.2939119328984 15.00065958261346 0  300.2939120171753 15.00069002015478 0  305.2939120655024 15.00072036345762 0  310.2939120907463 15.00075061712561 0  5.293876242654986 22.49886828341366 0  0.2938762239069261 22.49883566935465 0  10.2938762581076 22.49890085289334 0  15.29387626824847 22.49893340518944 0  20.29387627018017 22.49896596451151 0  25.29387626020218 22.49899855384718 0  30.29387623381514 22.49903119601993 0  35.29387618559545 22.49906391427375 0  40.29387610899454 22.49909673267238 0  45.29387599610393 22.49912967645221 0  50.29387583740761 22.49916277238727 0  55.29387562152721 22.49919604918669 0  60.29387533496541 22.49922953793028 0  65.29387496185628 22.49926327254014 0  70.29387448374095 22.49929729027802 0  75.29387387940876 22.49933163224749 0  80.2938731248725 22.49936634385621 0  85.29387219359457 22.49940147515315 0  90.29387105715782 22.4994370808815 0  95.2938696866851 22.49947321996148 0  100.2938680554767 22.49950995389984 0  105.2938661435637 22.49954734326187 0  110.2938639451645 22.49958544075749 0  115.2938614803349 22.4996242785844 0  120.2938588122808 22.4996638463499 0  125.2938560714961 22.49970405419333 0  130.293853486343 22.49974467412635 0  135.2938514155093 22.49978525281779 0  140.293850368788 22.49982499590198 0  145.2938509866469 22.49986264958335 0  150.2938539282178 22.49989647961575 0  165.2938589193372 22.49995130147959 0  160.2938582472549 22.49993803499171 0  170.2938587125436 22.49996538915175 0  175.2938581237766 22.49998131664491 0  180.2938575216584 22.49999945282272 0  185.2938571081348 22.50001977481804 0  190.2938569580263 22.50004206944009 0  195.2938570704169 22.50006605776017 0  200.2938574073636 22.50009145962698 0  205.2938579177546 22.50011802183167 0  210.2938585501922 22.50014552708839 0  215.2938592590078 22.5001737939298 0  220.2938600063901 22.50020267287539 0  225.2938607625119 22.50023204150601 0  230.293861504738 22.50026179963306 0  235.2938622165136 22.50029186502611 0  240.2938628862246 22.50032216982062 0  245.2938635061694 22.50035265757798 0  250.29386407168 22.50038328091755 0  255.2938645804077 22.50041399962852 0  260.2938650317417 22.50044477917947 0  265.2938654263534 22.50047558955571 0  270.2938657658329 22.50050640437061 0  275.2938660524114 22.50053720020827 0  280.2938662887541 22.50056795616162 0  285.2938664778419 22.50059865352757 0  290.2938666229609 22.50062927560369 0  295.2938667278729 22.50065980748835 0  300.2
[...]
<PointData  Vectors="v"> 
<DataArray  type="Float64"  Name="v"  NumberOfComponents="3" format="ascii">1.0988785069644931e+00 7.6638303150666518e+00 0.0000000000000000e+00  1.6562715895747129e+00 7.1766054844409011e+00 0.0000000000000000e+00  1.5259152333214772e+00 6.3407887956837197e+00 0.0000000000000000e+00  1.0958542309482258e+00 7.0190235610224656e+00 0.0000000000000000e+00  2.3503480198515554e+00 7.7564722630449161e+00 0.0000000000000000e+00  2.0828777716666167e+00 6.7163293126473178e+00 0.0000000000000000e+00  2.9717772179388464e+00 8.7779899831119952e+00 0.0000000000000000e+00  2.7757077309514595e+00 7.8473823305167594e+00 0.0000000000000000e+00  3.5156218340812373e+00 9.0906536280365966e+00 0.0000000000000000e+00  3.3951488134375776e+00 8.2771899304648429e+00 0.0000000000000000e+00  4.1970559505101193e+00 9.9644709502398321e+00 0.0000000000000000e+00  3.9362130853517745e+00 8.9453228184799176e+00 0.0000000000000000e+00  4.7363679821957287e+00 1.0318881752789920e+01 0.0000000000000000e+00  4.6139462069898416e+00 9.5135418555915798e+00 0.0000000000000000e+00  4.8154042348399848e+00 1.0055437226764145e+01 0.0000000000000000e+00  5.1487316651495902e+00 9.9412931767290882e+00 0.0000000000000000e+00  5.8994964340939271e+00 1.1151692752134988e+01 0.0000000000000000e+00  5.2224912322110164e+00 9.5306438745737179e+00 0.0000000000000000e+00  2.7945577380614335e+00 5.9887860698672650e+00 0.0000000000000000e+00  6.3003646173092127e+00 1.0652036793582679e+01 0.0000000000000000e+00  1.3913980605613725e+01 2.1870315335667893e+01 0.0000000000000000e+00  3.1884729339797797e+00 5.1971450653796483e+00 0.0000000000000000e+00  1.3594521343131891e+01 2.0096849583126037e+01 0.0000000000000000e+00  1.4300444071293324e+01 2.0583283543127123e+01 0.0000000000000000e+00  1.3671917393584540e+01 1.8777749219546354e+01 0.0000000000000000e+00  1.3972454312626809e+01 1.8669888961322552e+01 0.0000000000000000e+00  1.4203157534044058e+01 1.8110989883075131e+01 0.0000000000000000e+00  1.4040024679091816e+01 1.7323684131958480e+01 0.0000000000000000e+00  1.5143402983060543e+01 1.8078363084025241e+01 0.0000000000000000e+00  1.4560070230051718e+01 1.6678899169278715e+01 0.0000000000000000e+00  1.6393645640784506e+01 1.8469940063373372e+01 0.0000000000000000e+00  1.5487276021217550e+01 1.6606515578808413e+01 0.0000000000000000e+00  1.7860254886641087e+01 1.9078694697383064e+01 0.0000000000000000e+00  1.6723001890213304e+01 1.6892150474091835e+01 0.0000000000000000e+00  1.9452649141355682e+01 1.9965691846396176e+01 0.0000000000000000e+00  1.8173762710248592e+01 1.7591722734596331e+01 0.0000000000000000e+00  2.1080375172300013e+01 2.0704720155899370e+01 0.0000000000000000e+00  1.9748454607365368e+01 1.8278578972680727e+01 0.0000000000000000e+00  2.2666717306545710e+01 2.1329222480051687e+01 0.0000000000000000e+00  2.1357328143182741e+01 1.8966580930289759e+01 0.0000000000000000e+00  2.4148104784013594e+01 2.1677250038227850e+01 0.0000000000000000e+00  2.2923485101425534e+01 1.9472840420177697e+01 0.0000000000000000e+00  2.5469108144804295e+01 2.1712528723050617e+01 0.0000000000000000e+00  2.4383438458626635e+01 1.9749647445323237e+01 0.0000000000000000e+00  2.6593978711656113e+01 2.0983549827438907e+01 0.0000000000000000e+00  2.5681593746770780e+01 1.9315361388742303e+01 0.0000000000000000e+00  2.7509076004425374e+01 2.0264672457879168e+01 0.0000000000000000e+00  2.6783620861220239e+01 1.8912636770877281e+01 0.0000000000000000e+00  2.8208743178566401e+01 1.8117200282251257e+01 0.0000000000000000e+00  2.7673467797616699e+01 1.7087162087249069e+01 0.0000000000000000e+00  2.8714943204307239e+01 1.6447129176955787e+01 0.0000000000000000e+00  2.8349626715570938e+01 1.5710264166874092e+01 0.0000000000000000e+00  2.9046463114581488e+01 1.2766782252301669e+01 0.0000000000000000e+00  2.8828542933053061e+01 1.2288339146172476e+01 0.0000000000000000e+00  2.9247317322544443e+01 1.0107087146203320e+01 0.0000000000000000e+00  2.9137338550310002e+01 9.8302992584943958e+00 0.0000000000000000e+00  2.9342354945412328e+01 5.2207763499939404e+00 0.0000000000000000e+00  2.9308828431104402e+01 5.0949466756136887e+00 0.0000000000000000e+00  2.9381792187308630e+01 1.2616396914493893e+00 0.0000000000000000e+00  2.9383384474338389e+01 1.2295600493453156e+00 0.0000000000000000e+00  2.9389262613370750e+01 -1.0577176809388113e-09 0.0000000000000000e+00  2.9389916201589408e+01 6.8475408996972295e-04 0.0000000000000000e+00  2.9389262614623181e+01 -3.9929248391707111e-19 0.0000000000000000e+00  2.0124576326809830e+01 -7.1050766418418698e+00 0.0000000000000000e+00  2.9383845124697810e+01 6.7663729731155478e+00 0.0000000000000000e+00  2.9389904734207551e+01 -6.5390901629693249e-04 0.0000000000000000e+00  2.0749494399451354e+01 -1.3369191459054669e+01 0.0000000000000000e+00  2.0152744138486121e+01 -1.4346487556965975e+01 0.0000000000000000e+00  1.7730599391997249e+01 -2.0810537343938162e+01 0.0000000000000000e+00  2.0815190741636574e+01 -1.6312586495578572e+01 0.0000000000000000e+00  1.6953635222240425e+01 -2.2288139719391747e+01 0.0000000000000000e+00  1.7834539384567634e+01 -2.1157430741145564e+01 0.0000000000000000e+00  1.5273902122302124e+01 -2.5065918406733015e+01 0.0000000000000000e+00  1.7095139217970178e+01 -2.2579154538911322e+01 0.0000000000000000e+00  1.4062468565017769e+01 -2.5279186092144037e+01 0.0000000000000000e+00  1.5452379522955349e+01 -2.3495711104583496e+01 0.0000000000000000e+00  1.2767874761613394e+01 -2.5358708818429115e+01 0.0000000000000000e+00  1.4278221334841287e+01 -2.3449228583582510e+01 0.0000000000000000e+00  1.1652374533241865e+01 -2.4306841906284561e+01 0.0000000000000000e+00  1.3020081515020616e+01 -2.2666552372653715e+01 0.0000000000000000e+00  1.0324658910154433e+01 -2.3139251546976372e+01 0.0000000000000000e+00  1.1940663270879456e+01 -2.1179949351882030e+01 0.0000000000000000e+00  9.3691379002909621e+00 -2.1298335013741561e+01 0.0000000000000000e+00  1.0648849320248045e+01 -1.9897130760221007e+01 0.0000000000000000e+00  8.5858283953327597e+00 -1.9443612791135241e+01 0.0000000000000000e+00  9.7287706627338721e+00 -1.8300520130934817e+01 0.0000000000000000e+00  7.7339553539020782e+00 -1.7750995405459498e+01 0.0000000000000000e+00  8.9805254740288429e+00 -1.6504783449590988e+01 0.0000000000000000e+00  6.9271635644590965e+00 -1.6152119836183491e+01 0.0000000000000000e+00  8.1635150310217934e+00 -1.4973147897482940e+01 0.0000000000000000e+00  6.1693195089517348e+00 -1.4736763212597499e+01 0.0000000000000000e+00  7.3911727363595636e+00 -1.3631018164965026e+01 0.0000000000000000e+00  5.4238562539021968e+00 -1.3441688824027800e+01 0.0000000000000000e+00  6.6674095297461831e+00 -1.2354165568431924e+01 0.0000000000000000e+00  4.7456411605310320e+00 -1.2201271904871346e+01 0.0000000000000000e+00  5.9557218356831667e+00 -1.1214287128740523e+01 0.0000000000000000e+00  4.1424322251559138e+00 -1.1063222177860700e+01 0.0000000000000000e+00  5.3108944077858844e+00 -1.0188459872584694e+01 0.0000000000000000e+00  3.5767400292565084e+00 -9.9749515664535977e+00 0.0000000000000000e+00  4.7406604255419440e+00 -9.1561706258037390e+00 0.0000000000000000e+00  3.0738850053367406e+00 -8.9125233367394010e+00 0.0000000000000000e+00  4.2076621705042427e+00 -8.1876176648833159e+00 0.0000000000000000e+00  2.6428857966862815e+00 -7.9151219001579882e+00 0.0000000000000000e+00  3.7370365427110630e+00 -7.2978118240364802e+00 0.0000000000000000e+00  2.2476845235549265e+00 -6.9113203373149457e+00 0.0000000000000000e+00  3.3380390838962422e+00 -6.3472578149213605e+00 0.0000000000000000e+00  1.9066973222344485e+00 -5.9766623044932068e+00 0.0000000000000000e+00  2.9742792564752514e+00 -5.4938702173303877e+00 0.0000000000000000e+00  1.6194811934855948e+00 -5.0239886595312653e+00 0.0000000000000000e+00  2.6647843967323666e+00 -4.6211601742993311e+00 0.0000000000000000e+00  1.3667324011732720e+00 -4.2093021134723099e+00 0.0000000000000000e+00  2.4080192690265525e+00 -3.8586433712161252e+00 0.0000000000000000e+00  1.1484488418001026e+00 -3.2708063110599439e+00 0.0000000000000000e+00  2.1866384573482596e+00 -2.9702816926337587e+00 0.0000000000000000e+00  9.5741203020029331e-01 -2.7332919034502119e+00 0.0000000000000000e+00  1.9973192980935439e+00 -2.4756140271526519e+00 0.0000000000000000e+00  7.8107410238676844e-01 -1.7834022131622989e+00 0.0000000000000000e+00  1.8384049347471163e+00 -1.5438230067123133e+00 0.0000000000000000e+00  5.4324583860599596e-01 -1.7268177858212761e+00 0.0000000000000000e+00  1.6881407001171369e+00 -1.4009940617241410e+00 0.0000000000000000e+00  1.8256253071601558e-01 -1.2024536398598211e+00 0.0000000000000000e+00  1.4864883869829411e+00 -6.8123945827494259e-01 0.0000000000000000e+00  -6.6141554082636778e-01 -7.3783013978852693e-03 0.0000000000000000e+00  1.1402685512721471e+00 1.2172102423015010e+00 0.0000000000000000e+00  1.8033925337156635e+00 5.6953403297587322e+00 0.0000000000000000e+00  1.3294574995966377e+00 6.3090969870757636e+00 0.0000000000000000e+00  2.2337735650511119e+00 5.8809608450850206e+00 0.0000000000000000e+00  2.7902076837598435e+00 6.8089745563989004e+00 0.0000000000000000e+00  3.4812891142783822e+00 7.3496742564611699e+00 0.0000000000000000e+00  4.0975508293516194e+00 8.1361400131307473e+00 0.0000000000000000e+00  4.6339843479332181e+00 8.5003880992191370e+00 0.0000000000000000e+00  5.3054490703476480e+00 9.1436376145033460e+00 0.0000000000000000e+00  5.8322056235518644e+00 9.4252791333376198e+00 0.0000000000000000e+00  5.8964657929628270e+00 9.0415304728104502e+00 0.0000000000000000e+00  6.9633446432462023e+00 9.8722750553576919e+00 0.0000000000000000e+00  3.8397071277543549e+00 3.9212242134875073e+00 0.0000000000000000e+00  1.4940958216994460e+01 1.9168343565092059e+01 0.0000000000000000e+00  1.4601817913735646e+01 1.7230210700409440e+01 0.0000000000000000e+00  1.4655771905168525e+01 1.5907829641115661e+01 0.0000000000000000e+00  1.5159543601891484e+01 1.5227132933940561e+01 0.0000000000000000e+00  1.6066853956817411e+01 1.5052030432110691e+01 0.0000000000000000e+00  1.7279157327773202e+01 1.5430493003624349e+01 0.0000000000000000e+00  1.8703475969067966e+01 1.5933891873442164e+01 0.0000000000000000e+00  2.0248147934166450e+01 1.6572699880071234e+01 0.0000000000000000e+00  2.1823570542155309e+01 1.7144081738963617e+01 0.0000000000000000e+00  2.3353644764100096e+01 1.7582924929089533e+01 0.0000000000000000e+00  2.4773980045451967e+01 1.7392538771712314e+01 0.0000000000000000e+00  2.6029873384759902e+01 1.7285800376290673e+01 0.0000000000000000e+00  2.7087021173798686e+01 1.5779165488617137e+01 0.0000000000000000e+00  2.7930261688004801e+01 1.4726134413944962e+01 0.0000000000000000e+00  2.8556787964756758e+01 1.1596306274500337e+01 0.0000000000000000e+00  2.8987860131248127e+01 9.4014253968082055e+00 0.0000000000000000e+00  2.9243723061693046e+01 4.8591606468361332e+00 0.0000000000000000e+00  2.9371273362495238e+01 1.1579761849844228e+00 0.0000000000000000e+00  2.9391483918998944e+01 1.3052769416627512e-03 0.0000000000000000e+00  2.9362804009343957e+01 6.8287243244871174e+00 0.0000000000000000e+00  2.9391462870454355e+01 -1.2860178855237535e-03 0.0000000000000000e+00  2.9301271099497576e+01 -5.1229588359829148e-01 0.0000000000000000e+00  2.0104399434148213e+01 -1.7333218780033253e+01 0.0000000000000000e+00  2.0811306766489370e+01 -1.6711888088537972e+01 0.0000000000000000e+00  1.7873143462122037e+01 -2.1496417394076783e+01 0.0000000000000000e+00  1.7176730261903259e+01 -2.1054545437928457e+01 0.0000000000000000e+00  1.5573501424557776e+01 -2.1712392871409087e+01 0.0000000000000000e+00  1.4438725637943055e+01 -2.0801666915675938e+01 0.0000000000000000e+00  1.3217707994120008e+01 -1.9582362262305384e+01 0.0000000000000000e+00  1.2174119178905372e+01 -1.7980603185557424e+01 0.0000000000000000e+00  1.0917210617079816e+01 -1.6941031201315337e+01 0.0000000000000000e+00  1.0031239443443168e+01 -1.5402373963515982e+01 0.0000000000000000e+00  9.3162795988262559e+00 -1.3767580623014283e+01 0.0000000000000000e+00  8.5322084211476383e+00 -1.2492038077722924e+01 0.0000000000000000e+00  7.7922386200538813e+00 -1.1287617770854672e+01 0.0000000000000000e+00  7.1002322173745558e+00 -1.0165671275733814e+01 0.0000000000000000e+00  6.4198176098777004e+00 -9.2397331833149483e+00 0.0000000000000000e+00  5.8056503445498882e+00 -8.3189196928717255e+00 0.0000000000000000e+00  5.2654279334430951e+00 -7.4059081017893016e+00 0.0000000000000000e+00  4.7618557076052621e+00 -6.6093360740961522e+00 0.0000000000000000e+00  4.3200616244925039e+00 -5.7657030777251039e+00 0.0000000000000000e+00  3.9491933506101558e+00 -4.9650653351930494e+00 0.0000000000000000e+00  3.6130886552826222e+00 -4.1730376848371389e+00 0.0000000000000000e+00  3.3304595777887807e+00 -3.4898088596546648e+00 0.0000000000000000e+00  3.1002344791586545e+00 -2.6532195168525723e+00 0.0000000000000000e+00  2.9042950119192477e+00 -2.2080168990014113e+00 0.0000000000000000e+00  2.7407454143124408e+00 -1.3183254691615702e+00 0.0000000000000000e+00  2.6052698118519833e+00 -1.1935545132972036e+00 0.0000000000000000e+00  2.4806357842567870e+00 -3.8786963422128046e-01 0.0000000000000000e+00  2.3004535696188801e+00 1.7170641659187735e+00 0.0000000000000000e+00  2.5164713686775251e+00 4.9836244517767261e+00 0.0000000000000000e+00  2.0882587987401693e+00 5.6682625669950903e+00 0.0000000000000000e+00  2.9916217311474758e+00 5.2345221695105950e+00 0.0000000000000000e+00  3.4232732949935629e+00 5.9746373331217146e+00 0.0000000000000000e+00  3.9791792909642791e+00 6.3148140392099501e+00 0.0000000000000000e+00  4.6677227666137071e+00 7.2152316896303175e+00 0.0000000000000000e+00  5.2790153117201015e+00 7.7014214935059355e+00 0.0000000000000000e+00  5.8073821259821772e+00 8.1441793434254031e+00 0.0000000000000000e+00  6.4677691931086576e+00 8.6452058792544495e+00 0.0000000000000000e+00  6.9803289193519813e+00 8.9575944587031877e+00 0.0000000000000000e+00  7.0272158972403238e+00 8.2859669716266495e+00 0.0000000000000000e+00  8.0749337851941636e+00 8.6211333563330008e+00 0.0000000000000000e+00  4.9334357200560666e+00 2.5280648473747900e+00 0.0000000000000000e+00  1.6020292119405823e+01 1.7749997133996729e+01 0.0000000000000000e+00  1.5667116454991540e+01 1.5841021110273159e+01 0.0000000000000000e+00  1.5702779904030288e+01 1.4489804028485056e+01 0.0000000000000000e+00  1.6181836875678719e+01 1.3713947337129618e+01 0.0000000000000000e+00  1.7057689186685845e+01 1.3640031812224843e+01 0.0000000000000000e+00  1.8231632881018371e+01 1.3830356001282535e+01 0.0000000000000000e+00  1.9610240861901261e+01 1.4293301280523831e+01 0.0000000000000000e+00  2.1102329259951610e+01 1.4823431747283260e+01 0.0000000000000000e+00  2.2618533851484095e+01 1.5335428821847346e+01 0.0000000000000000e+00  2.4081911616380360e+01 1.5313398375059668e+01 0.0000000000000000e+00  2.5429473927704560e+01 1.5459118129944359e+01 0.0000000000000000e+00  2.6605551205247952e+01 1.4252768140165097e+01 0.0000000000000000e+00  2.7578266815524863e+01 1.3526843756286313e+01 0.0000000000000000e+00  2.8330328420567419e+01 1.0719703223588626e+01 0.0000000000000000e+00  2.8865875414185812e+01 8.8285938412584315e+00 0.0000000000000000e+00  2.9198554869917629e+01 4.5318877920575149e+00 0.0000000000000000e+00  2.9368628361353728e+01 1.0507167652509992e+00 0.0000000000000000e+00  2.9393932826618816e+01 1.8678470299777548e-03 0.0000000000000000e+00  2.9344488162354981e+01 6.9898579968827210e+00 0.0000000000000000e+00  2.9393914074937840e+01 -1.8402796764526680e-03 0.0000000000000000e+00  2.9151844840541759e+01 -3.8994838431021683e-01 0.0000000000000000e+00  2.9080587029941761e+01 -3.5789759464930904e+00 0.0000000000000000e+00  1.9941377983008312e+01 -1.7827470533785512e+01 0.0000000000000000e+00  2.0720784064081318e+01 -1.7139837367278968e+01 0.0000000000000000e+00  1.7851700575225649e+01 -2.0061960088845389e+01 0.0000000000000000e+00  1.7221248069542142e+01 -1.9353796523951978e+01 0.0000000000000000e+00  1.5678653583769357e+01 -1.9144463735910644e+01 0.0000000000000000e+00  1.4601246795370013e+01 -1.7792692073147307e+01 0.0000000000000000e+00  1.3433267011175975e+01 -1.6455143067005327e+01 0.0000000000000000e+00  1.2440194370254565e+01 -1.5093814391567038e+01 0.0000000000000000e+00  1.1231583390368966e+01 -1.4110682623700237e+01 0.0000000000000000e+00  1.0392387398013529e+01 -1.2731414207645066e+01 0.0000000000000000e+00  9.7232185043713049e+00 -1.1351637045789323e+01 0.0000000000000000e+00  8.9841842821065079e+00 -1.0212814283705624e+01 0.0000000000000000e+00  8.2883938357586882e+00 -9.1621412594006379e+00 0.0000000000000000e+00  7.6397720187151847e+00 -8.2528742643093604e+00 0.0000000000000000e+00  7.0017908748722810e+00 -7.4307649522158146e+00 0.0000000000000000e+00  6.4290384915807381e+00 -6.6278164001811986e+00 0.0000000000000000e+00  5.9291520924789998e+00 -5.8854914708779322e+00 0.0000000000000000e+00  5.4648772442495925e+00 -5.1336135107359127e+00 0.0000000000000000e+00  5.0611428327878567e+00 -4.4387577584437210e+00 0.0000000000000000e+00  4.7274149767678999e+00 -3.6976784096379887e+00 0.0000000000000000e+00  4.4269916657504771e+00 -3.0945039119447473e+00 0.0000000000000000e+00  4.1794368578915631e+00 -2.3345885510641060e+00 0.0000000000000000e+00  3.9822445136525966e+00 -1.9418804595021502e+00 0.0000000000000000e+00  3.8196499209852797e+00 -1.0965170936162842e+00 0.0000000000000000e+00  3.6854485713044953e+00 -1.0189943006047997e+00 0.0000000000000000e+00  3.5835804499204680e+00 -2.1881372509741256e-01 0.0000000000000000e+00  3.4798684684949510e+00 1.9571729560174809e+00 0.0000000000000000e+00  3.4362881933763152e+00 4.3400280692678876e+00 0.0000000000000000e+00  3.0462211625387416e+00 5.0852014228120614e+00 0.0000000000000000e+00  3.8665055799807089e+00 4.5197633017996175e+00 0.0000000000000000e+00  4.3449674773408367e+00 5.3250845403503559e+00 0.0000000000000000e+00  4.7794750564344994e+00 5.4799446785109414e+00 0.0000000000000000e+00  5.3366831985657965e+00 6.1832208189216820e+00 0.0000000000000000e+00  6.0238145088180080e+00 6.7874859123125733e+00 0.0000000000000000e+00  6.6303255787192041e+00 7.3574971408220904e+00 0.0000000000000000e+00  7.1499248732663627e+00 7.6635920366323242e+00 0.0000000000000000e+00  7.7970525529427279e+00 8.2007648295681381e+00 0.0000000000000000e+00  8.2920169622126689e+00 8.2305020887204616e+00 0.0000000000000000e+00  8.3182487553424203e+00 7.0652153423342590e+00 0.0000000000000000e+00  9.3452760114915545e+00 7.2532253499017481e+00 0.0000000000000000e+00  6.1887342548212345e+00 1.1263305547692726e+00 0.0000000000000000e+00  1.7268508609254514e+01 1.6375816135710622e+01 0.0000000000000000e+00  1.6909108682453205e+01 1.4445081525550941e+01 0.0000000000000000e+00  1.6932397733146974e+01 1.3010324091984689e+01 0.0000000000000000e+00  1.7390121342353588e+01 1.2348588356842265e+01 0.0000000000000000e+00  1.8233859552525246e+01 1.2098793831960970e+01 0.0000000000000000e+00  1.9365312914565344e+01 1.2262579600477940e+01 0.0000000000000000e+00  2.0690742499350268e+01 1.2629859882539947e+01 0.0000000000000000e+00  2.2118635604820742e+01 1.3113297617262662e+01 0.0000000000000000e+00  2.3559645974148612e+01 1.3177838396596878e+01 0.0000000000000000e+00  2.4937399349894520e+01 1.3505996433144240e+01 0.0000000000000000e+00  2.6187308714270792e+01 1.2561903796167854e+01 0.0000000000000000e+00  2.7257102137705260e+01 1.2151329066026824e+01 0.0000000000000000e+00  2.8111951145923747e+01 9.6744054801199457e+00 0.0000000000000000e+00  2.8743434739940376e+01 8.1220680584223715e+00 0.0000000000000000e+00  2.9147086380798079e+01 4.1107174818245911e+00 0.0000000000000000e+00  2.9361997237079585e+01 9.0633721171689852e-01 0.0000000000000000e+00  2.9397169132828722e+01 2.3696232101975022e-03 0.0000000000000000e+00  2.9330404858768265e+01 7.2390669391620381e+00 0.0000000000000000e+00  2.9397151700266637e+01 -2.3316857065119284e-03 0.0000000000000000e+00  2.9032349626076027e+01 6.2421899596302004e-03 0.0000000000000000e+00  2.8736580358225208e+01 -3.44915139861