<?xml version="1.0"?>
<VTKFile type="UnstructuredGrid"  version="0.1"  >
<UnstructuredGrid>
<Piece  NumberOfPoints="1933" NumberOfCells="3640">
<Points>
<DataArray  type="Float64"  NumberOfComponents="3"  format="ascii">-0.0002539301964424312 0.001399413343668733 0  4.999746103981167 0.001329361712326891 0  4.999851255352592 7.501329490555723 0  -0.0001488256502397145 7.501399459550086 0  9.999746137536613 0.001259181487325768 0  9.999851409291411 7.501259342272159 0  14.99974623894656 0.001188784638089729 0  14.9998516781864 7.501188956870497 0  19.99974648952435 0.001118145441842629 0  19.9998521047522 7.50111832104941 0  24.99974696927504 0.001047276656155899 0  24.99985273298723 7.501047453131844 0  29.99974775282949 0.0009762157663120103 0  29.99985360727007 7.500976393193427 0  34.9997489095235 0.0009050170079599879 0  34.99985477171112 7.500905196701401 0  39.99975050509634 0.0008337470396238146 0  39.99985627000367 7.500833930927179 0  44.99975260392888 0.0007624830552468906 0  44.99985814565773 7.5007626734154 0  49.99975527138031 0.0006913126307148804 0  49.99986044243791 7.500691512007786 0  54.99975857607129 0.0006203349162824449 0  54.99986320485555 7.500620546126429 0  59.99976259208041 0.0005496630056222201 0  59.99986647858619 7.500549889190678 0  64.99976740107429 0.0004794274789099752 0  64.99987031069102 7.50047967218461 0  69.99977309438886 0.0004097812639836271 0  69.99987474950997 7.500410048524349 0  74.99977977507127 0.0003409061125794572 0  74.9998798440495 7.500341200514931 0  79.99978755983666 0.0002730211748297039 0  79.99988564260775 7.500273347855599 0  84.99979658081658 0.0002063944077935379 0  84.99989219026924 7.500206758872581 0  89.99980698680307 0.0001413579200425495 0  89.99989952470602 7.500141765460934 0  94.99981894339911 7.832890625256573e-05 0  94.99990766946419 7.500078783136557 0  99.99983263089 1.783867680667464e-05 0  99.99991662356231 7.500018338177957 0  104.9998482375447 -3.942638365531478e-05 0  104.9999263457737 7.499961104606249 0  109.9998659438548 -9.256601033614781e-05 0  109.9999367315515 7.499907954684322 0  114.999885888982 -0.0001403802348793063 0  114.9999475805035 7.499860027520568 0  119.9999081022827 -0.000181242406790988 0  119.9999585535744 7.499818820581548 0  124.9999323662512 -0.0002129097290527301 0  124.9999691240993 7.499786306705261 0  129.9999579443529 -0.0002322410334866841 0  129.9999785413705 7.499765070413214 0  134.999983041426 -0.0002347866503662593 0  134.999985862987 7.499758433522907 0  140.0000037294973 -0.0002142465177868992 0  139.9999902056338 7.499770490452097 0  145.000011778435 -0.0001620261907398663 0  144.9999915971667 7.499805924699094 0  149.9999900925405 -6.84441221168982e-05 0  149.9999934419814 7.499869789086972 0  160.0000000000016 7.664092337538302e-19 0  164.9998358760147 -0.0002258147985945101 0  164.9999719898349 7.499740435247237 0  160.0000201492697 7.499920326614213 0  169.9997454362544 -0.0004192411951456842 0  169.9999230527862 7.499563696760854 0  174.9996946246985 -0.0005892025095112827 0  174.9998826897545 7.499401367765413 0  179.9996660634215 -0.0007407702510525652 0  179.9998518779514 7.499253766278118 0  184.9996503886583 -0.000877867863015371 0  184.9998292929554 7.499118864038413 0  189.9996423741558 -0.001003603429722475 0  189.9998131971942 7.498994389169199 0  194.9996390139203 -0.001120386313881095 0  194.9998020218748 7.498878351625651 0  199.9996385264117 -0.001230058735321865 0  199.9997945042392 7.498769132496856 0  204.9996398227488 -0.001334026165833898 0  204.9997896758627 7.498665448906523 0  209.9996422165352 -0.001433367202152136 0  209.9997868097271 7.498566290971119 0  214.9996452621164 -0.001528918472151561 0  214.9997853643549 7.498470861325493 0  219.9996486622799 -0.001621337502897179 0  219.999784936768 7.498378525349883 0  224.9996522141945 -0.001711148422021915 0  224.9997852261466 7.498288772596057 0  229.9996557768469 -0.001798775041345837 0  229.9997860068518 7.498201187633081 0  234.9996592508513 -0.001884564913733424 0  234.9997871087624 7.498115428187155 0  239.9996625655733 -0.001968806998650546 0  239.9997884030403 7.498031208724673 0  244.9996656707124 -0.00205174480509855 0  244.9997897918394 7.497948288034117 0  249.9996685306866 -0.002133586316561964 0  249.999791200851 7.497866459732945 0  254.999671120855 -0.002214511603650123 0  254.999792573902 7.497785544921776 0  259.9996734249924 -0.002294678751104212 0  259.9997938690366 7.497705386430762 0  264.9996754336839 -0.002374228528266334 0  264.9997950556972 7.497625844269878 0  269.9996771434292 -0.002453288085266153 0  269.9997961127307 7.497546792023607 0  274.999678556367 -0.002531973835752965 0  274.9997970270067 7.497468114038189 0  279.9996796805912 -0.002610393566057587 0  279.9997977925057 7.497389703353368 0  284.9996805310773 -0.002688647659562547 0  284.9997984097438 7.497311460448916 0  289.9996811312309 -0.002766829095751343 0  289.999798885388 7.4972332930292 0  294.999681515045 -0.002845021491112586 0  294.9997992319586 7.497155117279896 0  299.9996817295421 -0.002923293731357167 0  299.9997994675143 7.49707686131753 0  304.9996818365384 -0.003001688381998023 0  304.9997996155501 7.49699847189781 0  309.9996819109015 -0.003080198455100262 0  309.9997997062712 7.496919925767549 0  4.99995596356715 15.00132979922295 0  -4.412866582820252e-05 15.0013995763128 0  9.999956128499816 15.00125972178479 0  14.99995640456625 15.00118935216649 0  19.9999568194249 15.0011187105293 0  24.99995739677958 15.00104783149792 0  29.99995815912483 15.00097676278101 0  34.99995912857885 15.00090556320063 0  39.99996032692117 15.00083430132906 0  44.99996177532302 15.00076305506761 0  49.99996349394043 15.00069191220482 0  54.99996550138877 15.00062097192828 0  59.99996781404355 15.00055034729394 0  64.99997044507488 15.00048016872 0  69.99997340309039 15.00041058865284 0  74.99997669023909 15.0003417876469 0  79.99998029959552 15.00027398220836 0  84.99998421162671 15.00020743487753 0  89.99998838954173 15.00014246716275 0  94.99999277339735 15.00007947606763 0  99.99999727302614 15.00001895501824 0  105.0000017603683 14.99996151985684 0  110.0000060628298 14.99990793992243 0  115.0000099613894 14.99985917244156 0  120.0000132010315 14.99981639419751 0  125.0000155277865 14.99978101513878 0  130.0000167772575 14.99975463916092 0  135.0000170538136 14.99973889779324 0  140.0000170514288 14.99973500157013 0  145.0000185487985 14.99974267222834 0  150.0000249569623 14.99975759631363 0  165.0000499015814 14.99964766844612 0  160.0000570543339 14.99977694511992 0  170.0000329112083 14.99950747569384 0  175.0000122040792 14.99936750140906 0  179.9999918780395 14.99923312596627 0  184.9999738691173 14.99910604936015 0  189.9999588145617 14.99898625993382 0  194.9999466943688 14.99887307739699 0  199.999937202201 14.99876563493199 0  204.9999299390787 14.99866308291863 0  209.9999245062527 14.99856466337195 0  214.9999205445196 14.9984697273473 0  219.9999177466645 14.99837772914069 0  224.9999158573593 14.99828821261199 0  229.9999146678776 14.99820079622439 0  234.9999140092677 14.9981151593601 0  239.9999137456111 14.99803103067733 0  244.9999137680468 14.99794817852676 0  249.999913989744 14.99786640317697 0  254.9999143417907 14.99778553053586 0  259.9999147698958 14.99770540707976 0  264.9999152317549 14.99762589575267 0  269.9999156949663 14.99754687265899 0  274.9999161353571 14.99746822443049 0  279.9999165356288 14.99738984620394 0  284.9999168842412 14.99731164019395 0  289.9999171744705 14.99723351487516 0  294.9999174037208 14.99715538475597 0  299.9999175732523 14.99707717053392 0  304.9999176888984 14.99699879878868 0  309.9999177638094 14.99692019857201 0  5.000060145716485 22.50133044983409 0  6.005356293353747e-05 22.50140003185705 0  10.00006028739555 22.50126044613307 0  15.00006050833449 22.50119008669773 0  20.0000608263281 22.50111942769395 0  25.00006125251334 22.50104852443761 0  30.00006179450452 22.50097743571154 0  35.00006245787704 22.50090622574535 0  40.00006324659658 22.50083496530723 0  45.00006416282025 22.50076373269955 0  50.00006520632 22.5006926150616 0  55.00006637364337 22.50062171019042 0  60.00006765705177 22.50055112901015 0  65.00006904322649 22.50048099880343 0  70.00007051171708 22.50041146732931 0  75.00007203311122 22.50034270797721 0  80.00007356693482 22.50027492612543 0  85.00007505936412 22.50020836687359 0  90.00007644096894 22.50014332426495 0  95.0000776249521 22.50008015195555 0  100.0000785067623 22.50001927491446 0  105.000078966628 22.49996120097528 0  110.0000788775872 22.49990652957345 0  115.000078123045 22.49985595226056 0  120.0000766297086 22.49981023471339 0  125.0000744234643 22.49977016167079 0  130.0000717157916 22.49973641291011 0  135.0000690228462 22.49970931881654 0  140.0000672997676 22.49968842055858 0  145.0000680221472 22.49967175030853 0  150.0000730373901 22.49965484102689 0  165.0001128150223 22.49954450883228 0  160.0001009303641 22.49964289285233 0  170.0001153033017 22.49943282718357 0  175.000111136065 22.49931532885003 0  180.000103162489 22.49919717045589 0  185.0000935929356 22.49908131608639 0  190.000083861949 22.49896915920482 0  195.0000747818665 22.49886114737054 0  200.0000667422799 22.49875722140739 0  205.0000598724652 22.49865708158887 0  210.0000541541388 22.49856033579426 0  215.0000494933822 22.49846657637362 0  220.0000457638839 22.49837541672249 0  225.0000428315479 22.49828650616728 0  230.0000405676026 22.49819953373877 0  235.0000388548845 22.49811422662088 0  240.000037590229 22.49803034633892 0  245.0000366847457 22.49794768424323 0  250.0000360630128 22.49786605703759 0  255.0000356618025 22.49778530267703 0  260.0000354286381 22.49770527674903 0  265.0000353203746 22.49762584935077 0  270.0000353018589 22.49754690243336 0  275.0000353447035 22.49746832756815 0  280.0000354261879 22.49739002408281 0  285.0000355282797 22.49731189749247 0  290.0000356368237 22.49723385809505 0  295.0000357409844 22.49715581945307 0  300
[...]
<PointData  Vectors="v"> 
<DataArray  type="Float64"  Name="v"  NumberOfComponents="3" format="ascii">1.5800885748036249e+00 -5.7323906216315796e+00 0.0000000000000000e+00  1.1458742348125457e+00 -5.5669774644296215e+00 0.0000000000000000e+00  8.4473740714913270e-01 -4.9158117601882996e+00 0.0000000000000000e+00  1.1767642223832755e+00 -5.2349576018859203e+00 0.0000000000000000e+00  5.6637419155579660e-01 -6.2406070310671096e+00 0.0000000000000000e+00  4.1073026458066131e-01 -5.3722434785122726e+00 0.0000000000000000e+00  -5.9677658048051746e-03 -7.3247025962833279e+00 0.0000000000000000e+00  -1.6782580379817652e-01 -6.4674931122524013e+00 0.0000000000000000e+00  -5.6305884361475933e-01 -7.9561797605042122e+00 0.0000000000000000e+00  -7.3860088615302322e-01 -7.1226305470576259e+00 0.0000000000000000e+00  -1.2345720690418649e+00 -9.0157056719814079e+00 0.0000000000000000e+00  -1.2934527347953810e+00 -8.0112912886760341e+00 0.0000000000000000e+00  -1.8120922172329426e+00 -9.7011888043683356e+00 0.0000000000000000e+00  -1.9616360445244800e+00 -8.8383311696096900e+00 0.0000000000000000e+00  -1.9674094033676437e+00 -9.7995723204847387e+00 0.0000000000000000e+00  -2.5349987146036281e+00 -9.5710231368020775e+00 0.0000000000000000e+00  -2.9458049631921903e+00 -1.1010113135702817e+01 0.0000000000000000e+00  -2.6852659385434214e+00 -9.5478792061562867e+00 0.0000000000000000e+00  1.4487302033161170e-01 -6.1324415139215818e+00 0.0000000000000000e+00  -3.6573128160865456e+00 -1.0774261968999790e+01 0.0000000000000000e+00  -9.4318186071077008e+00 -1.9996545336972197e+01 0.0000000000000000e+00  -5.5926714092169161e-01 -5.6392395073166970e+00 0.0000000000000000e+00  -8.3846920658545887e+00 -1.7476167701371558e+01 0.0000000000000000e+00  -1.0128358368067587e+01 -1.9054621031968733e+01 0.0000000000000000e+00  -8.2548298241744398e+00 -1.6247110338958528e+01 0.0000000000000000e+00  -9.0719257420230921e+00 -1.6451777570359951e+01 0.0000000000000000e+00  -8.7906612938588928e+00 -1.6024754615143468e+01 0.0000000000000000e+00  -8.9304142873783352e+00 -1.5232982285934126e+01 0.0000000000000000e+00  -9.8595471176450094e+00 -1.6613064643973868e+01 0.0000000000000000e+00  -9.4524793844316335e+00 -1.5024096799764727e+01 0.0000000000000000e+00  -1.1285876238198998e+01 -1.7675984209336836e+01 0.0000000000000000e+00  -1.0504441650065321e+01 -1.5552391902086745e+01 0.0000000000000000e+00  -1.2977176330333011e+01 -1.8997383048072798e+01 0.0000000000000000e+00  -1.1911598115085706e+01 -1.6479097337232165e+01 0.0000000000000000e+00  -1.4849897196698977e+01 -2.0590306297199710e+01 0.0000000000000000e+00  -1.3581447902908199e+01 -1.7802192776567779e+01 0.0000000000000000e+00  -1.6820420504364883e+01 -2.2077406755187951e+01 0.0000000000000000e+00  -1.5429094095810783e+01 -1.9144317553165628e+01 0.0000000000000000e+00  -1.8819283860777851e+01 -2.3475575090556738e+01 0.0000000000000000e+00  -1.7372374396031915e+01 -2.0503322207624283e+01 0.0000000000000000e+00  -2.0782264393715764e+01 -2.4632477358921943e+01 0.0000000000000000e+00  -1.9340819851143575e+01 -2.1716066756921428e+01 0.0000000000000000e+00  -2.2633767210414174e+01 -2.5463503877911521e+01 0.0000000000000000e+00  -2.1270257053491100e+01 -2.2717240557343743e+01 0.0000000000000000e+00  -2.4313216332988262e+01 -2.5575987314603264e+01 0.0000000000000000e+00  -2.3084208676240106e+01 -2.3089798090707877e+01 0.0000000000000000e+00  -2.5779769149925130e+01 -2.5510492375221535e+01 0.0000000000000000e+00  -2.4725077885717024e+01 -2.3348488095713240e+01 0.0000000000000000e+00  -2.6984712441173638e+01 -2.4057723556306012e+01 0.0000000000000000e+00  -2.6145541970722373e+01 -2.2286764547512483e+01 0.0000000000000000e+00  -2.7930334446959211e+01 -2.2607200196442939e+01 0.0000000000000000e+00  -2.7307147447530895e+01 -2.1234724988129990e+01 0.0000000000000000e+00  -2.8598959946091355e+01 -1.9165127004428602e+01 0.0000000000000000e+00  -2.8197061600587990e+01 -1.8200848669805954e+01 0.0000000000000000e+00  -2.9041241429205051e+01 -1.5775036703755873e+01 0.0000000000000000e+00  -2.8819320861758431e+01 -1.5167683923088889e+01 0.0000000000000000e+00  -2.9266239948774373e+01 -1.0252276137562767e+01 0.0000000000000000e+00  -2.9194370024632118e+01 -9.9531321469692760e+00 0.0000000000000000e+00  -2.9368183889980212e+01 -3.6920201722300052e+00 0.0000000000000000e+00  -2.9372131408511340e+01 -3.6079488986351023e+00 0.0000000000000000e+00  -2.9389262612939994e+01 -3.5392371570830037e-11 0.0000000000000000e+00  -2.9389474441850965e+01 -2.1072283504428518e-04 0.0000000000000000e+00  -2.9389262614589796e+01 7.4561854175707000e-20 0.0000000000000000e+00  -2.1018449809460598e+01 1.1482217184844144e+01 0.0000000000000000e+00  -2.9366977383554065e+01 -1.0360830866926183e+00 0.0000000000000000e+00  -2.9389472732190669e+01 2.1399457072037825e-04 0.0000000000000000e+00  -2.0624269674239777e+01 2.0690797127416772e+01 0.0000000000000000e+00  -2.1047203999205035e+01 2.0167331868324673e+01 0.0000000000000000e+00  -1.7601958628223016e+01 2.7678408674062254e+01 0.0000000000000000e+00  -2.0712655803249998e+01 2.3186675788185411e+01 0.0000000000000000e+00  -1.6451007815044768e+01 2.9109151529989582e+01 0.0000000000000000e+00  -1.7747827645420191e+01 2.7433985502571872e+01 0.0000000000000000e+00  -1.4656980676552253e+01 3.0551405549527068e+01 0.0000000000000000e+00  -1.6650431703849623e+01 2.7905366781964400e+01 0.0000000000000000e+00  -1.3283929572446620e+01 2.9745965859850376e+01 0.0000000000000000e+00  -1.4907555143513559e+01 2.7732136397230192e+01 0.0000000000000000e+00  -1.1897535714272310e+01 2.8693837990997810e+01 0.0000000000000000e+00  -1.3585086698974012e+01 2.6656249289425844e+01 0.0000000000000000e+00  -1.0681306085651778e+01 2.6801466816809725e+01 0.0000000000000000e+00  -1.2246360743155968e+01 2.5019747304587156e+01 0.0000000000000000e+00  -9.3115165022329371e+00 2.4958728636106393e+01 0.0000000000000000e+00  -1.1076382546513239e+01 2.2944352635344334e+01 0.0000000000000000e+00  -8.2824109885849353e+00 2.2746943373106934e+01 0.0000000000000000e+00  -9.7518251463023446e+00 2.1242739260781129e+01 0.0000000000000000e+00  -7.4083050157287973e+00 2.0663386056184841e+01 0.0000000000000000e+00  -8.7663420187738144e+00 1.9390857070796926e+01 0.0000000000000000e+00  -6.4786751967061909e+00 1.8865555356916911e+01 0.0000000000000000e+00  -7.9346993875607534e+00 1.7508812553896352e+01 0.0000000000000000e+00  -5.6126173523034524e+00 1.7221744431187968e+01 0.0000000000000000e+00  -7.0467842712746460e+00 1.5959327515952189e+01 0.0000000000000000e+00  -4.8123729267628690e+00 1.5776232528039628e+01 0.0000000000000000e+00  -6.2212570558137505e+00 1.4612022559293463e+01 0.0000000000000000e+00  -4.0541698336622858e+00 1.4453306186494896e+01 0.0000000000000000e+00  -5.4606349645188832e+00 1.3351316538193469e+01 0.0000000000000000e+00  -3.3777347283710997e+00 1.3189350435420472e+01 0.0000000000000000e+00  -4.7413640641534904e+00 1.2209303465870931e+01 0.0000000000000000e+00  -2.7847940074020534e+00 1.2016919828559960e+01 0.0000000000000000e+00  -4.1030036797508620e+00 1.1161602136562948e+01 0.0000000000000000e+00  -2.2426177621957191e+00 1.0885489121291599e+01 0.0000000000000000e+00  -3.5473904566030976e+00 1.0105757872041689e+01 0.0000000000000000e+00  -1.7688730947686535e+00 9.7800932121774409e+00 0.0000000000000000e+00  -3.0420485726797293e+00 9.1024053878058169e+00 0.0000000000000000e+00  -1.3660982688144552e+00 8.7210570898361759e+00 0.0000000000000000e+00  -2.6044083496569885e+00 8.1495371567227188e+00 0.0000000000000000e+00  -1.0077860213680845e+00 7.6647507867375060e+00 0.0000000000000000e+00  -2.2373603044356472e+00 7.1593236171781722e+00 0.0000000000000000e+00  -7.0495200985737239e-01 6.6408867761240149e+00 0.0000000000000000e+00  -1.9140873831804555e+00 6.2185627367679555e+00 0.0000000000000000e+00  -4.6150003462272432e-01 5.6321282300944269e+00 0.0000000000000000e+00  -1.6462860388804774e+00 5.2980946321211633e+00 0.0000000000000000e+00  -2.5934158081520137e-01 4.6620402148642039e+00 0.0000000000000000e+00  -1.4366794343911167e+00 4.3904645327623575e+00 0.0000000000000000e+00  -1.0706368226178327e-01 3.6917723478897662e+00 0.0000000000000000e+00  -1.2694119328778362e+00 3.4932738310603777e+00 0.0000000000000000e+00  2.3951083553163045e-03 2.8536453626703695e+00 0.0000000000000000e+00  -1.1493423287539974e+00 2.7216284105116553e+00 0.0000000000000000e+00  7.1335907936736484e-02 1.9684771075113527e+00 0.0000000000000000e+00  -1.0756703853659475e+00 1.8928365173726298e+00 0.0000000000000000e+00  1.3784900278481771e-01 1.3351105136264527e+00 0.0000000000000000e+00  -1.0357682868959199e+00 1.2698701797721190e+00 0.0000000000000000e+00  2.0931943531308753e-01 7.1282619488151688e-01 0.0000000000000000e+00  -1.0096517685219799e+00 6.2775165087259210e-01 0.0000000000000000e+00  3.7251428634722933e-01 -1.7143020749201962e-01 0.0000000000000000e+00  -9.5434800211187720e-01 -3.6996577980987644e-01 0.0000000000000000e+00  1.2567438004747142e-01 -4.4168918940750697e+00 0.0000000000000000e+00  4.8526400039583500e-01 -4.6975466304184526e+00 0.0000000000000000e+00  -2.0760848783989963e-01 -4.7204591412712400e+00 0.0000000000000000e+00  -6.4268581892179411e-01 -5.5994764727284050e+00 0.0000000000000000e+00  -1.2214991955984698e+00 -6.2668194000632589e+00 0.0000000000000000e+00  -1.7914875208364394e+00 -7.1798046056502791e+00 0.0000000000000000e+00  -2.3444770844584877e+00 -7.8379242859944700e+00 0.0000000000000000e+00  -3.0092564818282264e+00 -8.7139704343149837e+00 0.0000000000000000e+00  -3.5772864987271307e+00 -9.3260311228623252e+00 0.0000000000000000e+00  -3.7206225676564224e+00 -9.3214954730606152e+00 0.0000000000000000e+00  -4.6832421717287680e+00 -1.0292955215653768e+01 0.0000000000000000e+00  -1.5746771431249154e+00 -4.7055323804273002e+00 0.0000000000000000e+00  -1.1137607578035254e+01 -1.8039836924804767e+01 0.0000000000000000e+00  -1.0074045294070462e+01 -1.5452614549439211e+01 0.0000000000000000e+00  -9.9196762070869440e+00 -1.4249688347529009e+01 0.0000000000000000e+00  -1.0425023466963333e+01 -1.3987512416297985e+01 0.0000000000000000e+00  -1.1454541269144842e+01 -1.4384040766901123e+01 0.0000000000000000e+00  -1.2834430649620003e+01 -1.5314915630223620e+01 0.0000000000000000e+00  -1.4472898609582643e+01 -1.6394414989784504e+01 0.0000000000000000e+00  -1.6283549073303536e+01 -1.7613196036275678e+01 0.0000000000000000e+00  -1.8184281544176535e+01 -1.8789655063449764e+01 0.0000000000000000e+00  -2.0105746558066425e+01 -1.9855106433102225e+01 0.0000000000000000e+00  -2.1980894923278463e+01 -2.0403082919276024e+01 0.0000000000000000e+00  -2.3734815585366917e+01 -2.0926205012975736e+01 0.0000000000000000e+00  -2.5308506331018464e+01 -2.0197234914369194e+01 0.0000000000000000e+00  -2.6655781715000330e+01 -1.9543164091471432e+01 0.0000000000000000e+00  -2.7733534908495439e+01 -1.6910175265086711e+01 0.0000000000000000e+00  -2.8539021645350182e+01 -1.4302241861510137e+01 0.0000000000000000e+00  -2.9056997823186851e+01 -9.4305444034763877e+00 0.0000000000000000e+00  -2.9341483341944137e+01 -3.4359696168260307e+00 0.0000000000000000e+00  -2.9389987335502081e+01 -4.0237641311299262e-04 0.0000000000000000e+00  -2.9328824235220743e+01 -1.1957754763607309e+00 0.0000000000000000e+00  -2.9389984123993390e+01 4.3344237500041367e-04 0.0000000000000000e+00  -2.9172571887436817e+01 7.7078158021559497e+00 0.0000000000000000e+00  -2.0917616676188473e+01 2.2737141998757313e+01 0.0000000000000000e+00  -2.0663972777757561e+01 2.3028966647521752e+01 0.0000000000000000e+00  -1.7767446706233226e+01 2.6300402193867566e+01 0.0000000000000000e+00  -1.6735928457185135e+01 2.5150443229543356e+01 0.0000000000000000e+00  -1.5049438913081628e+01 2.4708099718926771e+01 0.0000000000000000e+00  -1.3782634883994136e+01 2.3041611764726724e+01 0.0000000000000000e+00  -1.2493827284119778e+01 2.1217816968155013e+01 0.0000000000000000e+00  -1.1370973299755084e+01 1.9283547284620688e+01 0.0000000000000000e+00  -1.0091364444761801e+01 1.7938688456265709e+01 0.0000000000000000e+00  -9.1488038056414442e+00 1.6285851983858592e+01 0.0000000000000000e+00  -8.3580749494338402e+00 1.4651900411612548e+01 0.0000000000000000e+00  -7.5101089034699831e+00 1.3396995040868051e+01 0.0000000000000000e+00  -6.7229907594908438e+00 1.2232645663174626e+01 0.0000000000000000e+00  -5.9993270785398751e+00 1.1152301657230934e+01 0.0000000000000000e+00  -5.3159989680021491e+00 1.0225113210819826e+01 0.0000000000000000e+00  -4.7123710203639382e+00 9.2926091270212954e+00 0.0000000000000000e+00  -4.1903352322956522e+00 8.3642648697147699e+00 0.0000000000000000e+00  -3.7177127626190209e+00 7.5123992267267301e+00 0.0000000000000000e+00  -3.3119138954667213e+00 6.6273700724665590e+00 0.0000000000000000e+00  -2.9757865025078525e+00 5.7521882870231877e+00 0.0000000000000000e+00  -2.6829069706183040e+00 4.9140961533699974e+00 0.0000000000000000e+00  -2.4446176172240235e+00 4.0939873546138292e+00 0.0000000000000000e+00  -2.2642168993665450e+00 3.2589224544614304e+00 0.0000000000000000e+00  -2.1250265525025367e+00 2.5596703512918628e+00 0.0000000000000000e+00  -2.0335185051031410e+00 1.7965943282328845e+00 0.0000000000000000e+00  -1.9858756464135117e+00 1.2300505163904745e+00 0.0000000000000000e+00  -1.9745680500050526e+00 5.9873725849418935e-01 0.0000000000000000e+00  -1.9724554655274285e+00 -4.3119857756246049e-01 0.0000000000000000e+00  -1.1239022507342988e+00 -3.8755653291895733e+00 0.0000000000000000e+00  -8.0228555507966459e-01 -4.2181138457895253e+00 0.0000000000000000e+00  -1.4865577322940866e+00 -4.2176251905396676e+00 0.0000000000000000e+00  -1.8245027624838150e+00 -4.9446170279987820e+00 0.0000000000000000e+00  -2.2631263109923752e+00 -5.3969463874248493e+00 0.0000000000000000e+00  -2.8447313855426688e+00 -6.3242552282678099e+00 0.0000000000000000e+00  -3.4160398606766824e+00 -7.0096723181395850e+00 0.0000000000000000e+00  -3.9677584155260233e+00 -7.7196561694190926e+00 0.0000000000000000e+00  -4.6287371994001107e+00 -8.4792701770376002e+00 0.0000000000000000e+00  -5.1896578820147887e+00 -9.1148329238984207e+00 0.0000000000000000e+00  -5.3213724824366624e+00 -8.8601473228154930e+00 0.0000000000000000e+00  -6.2688562083052517e+00 -9.3795776553793910e+00 0.0000000000000000e+00  -3.1489953759469640e+00 -3.7000413098986997e+00 0.0000000000000000e+00  -1.2710963102452908e+01 -1.7049858155844081e+01 0.0000000000000000e+00  -1.1645382542818499e+01 -1.4491846164861947e+01 0.0000000000000000e+00  -1.1478458490945096e+01 -1.3246524054169493e+01 0.0000000000000000e+00  -1.1961274419912085e+01 -1.2863388790795776e+01 0.0000000000000000e+00  -1.2959140348787031e+01 -1.3275553450736089e+01 0.0000000000000000e+00  -1.4298703712349035e+01 -1.3973733535766756e+01 0.0000000000000000e+00  -1.5887119762440358e+01 -1.4940408201082183e+01 0.0000000000000000e+00  -1.7638825975946471e+01 -1.5988990645337402e+01 0.0000000000000000e+00  -1.9471262549986722e+01 -1.7031696357339733e+01 0.0000000000000000e+00  -2.1312202376250024e+01 -1.7655363907400204e+01 0.0000000000000000e+00  -2.3096570777843763e+01 -1.8372667048377078e+01 0.0000000000000000e+00  -2.4744854488849025e+01 -1.7919097850588237e+01 0.0000000000000000e+00  -2.6201712722890800e+01 -1.7621900695029634e+01 0.0000000000000000e+00  -2.7412325968444691e+01 -1.5391854825352357e+01 0.0000000000000000e+00  -2.8346500633525213e+01 -1.3225781684788027e+01 0.0000000000000000e+00  -2.8977779378277898e+01 -8.7541046430912779e+00 0.0000000000000000e+00  -2.9334549712892631e+01 -3.1940456239396422e+00 0.0000000000000000e+00  -2.9390789076537438e+01 -5.7641225091173377e-04 0.0000000000000000e+00  -2.9304827120165715e+01 -1.5086465138440628e+00 0.0000000000000000e+00  -2.9390786135581980e+01 6.2798670283441434e-04 0.0000000000000000e+00  -2.8937338126659636e+01 7.4159169761914789e+00 0.0000000000000000e+00  -2.8768860769444007e+01 1.0436078538871822e+01 0.0000000000000000e+00  -2.0626022853469891e+01 2.2749723169382079e+01 0.0000000000000000e+00  -2.0502877533192972e+01 2.2036543610329900e+01 0.0000000000000000e+00  -1.7715941955893854e+01 2.3682965092171148e+01 0.0000000000000000e+00  -1.6782865217557607e+01 2.2243514837810263e+01 0.0000000000000000e+00  -1.5182156118594785e+01 2.1204154826842313e+01 0.0000000000000000e+00  -1.3994497239337271e+01 1.9340613643926787e+01 0.0000000000000000e+00  -1.2776191207137177e+01 1.7651593307205580e+01 0.0000000000000000e+00  -1.1719425372409697e+01 1.6068035261430499e+01 0.0000000000000000e+00  -1.0501439910039494e+01 1.4918888742853841e+01 0.0000000000000000e+00  -9.6173799282834711e+00 1.3510356540485885e+01 0.0000000000000000e+00  -8.8829399495109147e+00 1.2168178718355790e+01 0.0000000000000000e+00  -8.0892289338707553e+00 1.1093596196840501e+01 0.0000000000000000e+00  -7.3541144644547627e+00 1.0106778355636884e+01 0.0000000000000000e+00  -6.6805604761061543e+00 9.2385998436068402e+00 0.0000000000000000e+00  -6.0453460725693100e+00 8.4243738283678411e+00 0.0000000000000000e+00  -5.4879223809887980e+00 7.6169589471959105e+00 0.0000000000000000e+00  -5.0103707613099520e+00 6.8381131016042742e+00 0.0000000000000000e+00  -4.5807083385445457e+00 6.0521291868111486e+00 0.0000000000000000e+00  -4.2162531736564368e+00 5.2806642786462943e+00 0.0000000000000000e+00  -3.9204031987747023e+00 4.5061257878638967e+00 0.0000000000000000e+00  -3.6662316625745626e+00 3.7678208041988723e+00 0.0000000000000000e+00  -3.4661167889608917e+00 3.0175409351340865e+00 0.0000000000000000e+00  -3.3218213889479853e+00 2.3814890971995868e+00 0.0000000000000000e+00  -3.2193587824141781e+00 1.6853286952285556e+00 0.0000000000000000e+00  -3.1603042589456756e+00 1.1904895051425037e+00 0.0000000000000000e+00  -3.1500938534721210e+00 6.0173794816863602e-01 0.0000000000000000e+00  -3.1621617554824986e+00 -4.0070431311345089e-01 0.0000000000000000e+00  -2.4369685519853435e+00 -3.3903167268400236e+00 0.0000000000000000e+00  -2.1515098305476203e+00 -3.7940434207159388e+00 0.0000000000000000e+00  -2.7630301441493730e+00 -3.6687866740348691e+00 0.0000000000000000e+00  -3.1336077236549662e+00 -4.4316472644839626e+00 0.0000000000000000e+00  -3.4803497949607105e+00 -4.7329658866428828e+00 0.0000000000000000e+00  -3.9279177897662323e+00 -5.4465518010845129e+00 0.0000000000000000e+00  -4.5172114420164835e+00 -6.1483985136538992e+00 0.0000000000000000e+00  -5.0943771090471435e+00 -6.8899361076551573e+00 0.0000000000000000e+00  -5.6489937720080325e+00 -7.4884073678826546e+00 0.0000000000000000e+00  -6.3085387597047369e+00 -8.2773313781804188e+00 0.0000000000000000e+00  -6.8626572763598235e+00 -8.6710454230635499e+00 0.0000000000000000e+00  -6.9825423183041400e+00 -7.9686173088296988e+00 0.0000000000000000e+00  -7.9172761917098153e+00 -8.3839086587443976e+00 0.0000000000000000e+00  -4.7971398393478442e+00 -2.6978748890746367e+00 0.0000000000000000e+00  -1.4377179423860898e+01 -1.6078278320290675e+01 0.0000000000000000e+00  -1.3326702377303668e+01 -1.3496394715900685e+01 0.0000000000000000e+00  -1.3159708865278173e+01 -1.2148005417708100e+01 0.0000000000000000e+00  -1.3629403464985030e+01 -1.1797668867528973e+01 0.0000000000000000e+00  -1.4600011254545736e+01 -1.1990883361672168e+01 0.0000000000000000e+00  -1.5900999115458053e+01 -1.2593816325827794e+01 0.0000000000000000e+00  -1.7438653608042110e+01 -1.3405754758103670e+01 0.0000000000000000e+00  -1.9126552590483175e+01 -1.4337073124164325e+01 0.0000000000000000e+00  -2.0881200922617815e+01 -1.4957939359196404e+01 0.0000000000000000e+00  -2.2630013921819295e+01 -1.5774622661538135e+01 0.0000000000000000e+00  -2.4301869712899165e+01 -1.5533424268032938e+01 0.0000000000000000e+00  -2.5821965582507360e+01 -1.5546962610764758e+01 0.0000000000000000e+00  -2.7122799777220319e+01 -1.3687735574037152e+01 0.0000000000000000e+00  -2.8164563340045493e+01 -1.1978123044623912e+01 0.0000000000000000e+00  -2.8887972335361944e+01 -7.9306999554612769e+00 0.0000000000000000e+00  -2.9317098568838624e+01 -2.8850006515854365e+00 0.0000000000000000e+00  -2.9391849795