<?xml version="1.0"?>
<VTKFile type="UnstructuredGrid"  version="0.1"  >
<UnstructuredGrid>
<Piece  NumberOfPoints="1933" NumberOfCells="3640">
<Points>
<DataArray  type="Float64"  NumberOfComponents="3"  format="ascii">-0.0002741838017881193 0.002099184741004468 0  4.999725808432598 0.002025970913495289 0  4.999835680985971 7.502025982862865 0  -0.000164329701446031 7.50209916246911 0  9.999725782023683 0.001952727014047275 0  9.999835712053738 7.501952755889798 0  14.99972575296164 0.001879396986773069 0  14.999835779453 7.501879434419872 0  19.99972574877934 0.001805945961167777 0  19.99983590129076 7.501805987898321 0  24.9997258014208 0.001732353870722625 0  24.99983609814467 7.501732398552427 0  29.9997259442903 0.001658610879995219 0  29.99983639278973 7.501658657817904 0  34.9997262114016 0.001584714189046894 0  34.99983681000895 7.501584763627244 0  39.99972663759305 0.001510665906381691 0  39.99983737664294 7.501510718542518 0  44.99972725929273 0.001436471735249527 0  44.99983812187954 7.501436528588052 0  49.99972811558737 0.001362140279844416 0  49.99983907774672 7.501362202643038 0  54.99972924949213 0.001287682839014441 0  54.99984027977418 7.501287752290922 0  59.99973070939727 0.001213113608732748 0  59.9998417678016 7.501213192063764 0  64.99973255071545 0.001138450260581268 0  64.99984358692406 7.501138540059956 0  69.9997348377849 0.001063714905019343 0  69.99984578857558 7.501063818952801 0  74.99973764611578 0.0009889354900083165 0  74.99984843175874 7.500989057449363 0  79.99974106509852 0.0009141477337948184 0  79.99985158442651 7.500914292309544 0  84.9997452013408 0.0008393977538846077 0  84.99985532501965 7.500839571103477 0  89.99975018286102 0.0007647456455624514 0  89.99985974413642 7.500764955984374 0  94.99975616446372 0.0006902704048057861 0  94.99986494627224 7.500690528906494 0  99.99976333475617 0.0006160768213325115 0  99.99987105147358 7.500616398961764 0  104.9997719254695 0.0005423053604162849 0  104.9998781965827 7.500542712908451 0  109.9997822240341 0.000469146746131049 0  109.9998865354348 7.500469670633054 0  114.9997945907374 0.000396864228095122 0  114.9998962368167 7.500397548416158 0  119.9998094822384 0.0003258289156884837 0  119.9999074780252 7.500326734791146 0  124.9998274835102 0.0002565782651048746 0  124.999920430308 7.500257787032313 0  129.9998493497861 0.000189917328404299 0  129.9999352301957 7.500191521723044 0  134.9998760568388 0.0001271023189670709 0  134.99995192829 7.500129161620289 0  139.9999088464507 7.018885219000416e-05 0  139.999970407584 7.500072574742982 0  144.9999492183265 2.271816604322911e-05 0  144.9999902795202 7.500024664165968 0  149.9999987092344 -8.917018445476886e-06 0  150.0000108459176 7.499990024814939 0  160 4.817341690084025e-19 0  164.9999173699788 -8.804586185270247e-05 0  164.9999844330902 7.499902153123839 0  160.0000125223404 7.499975171816103 0  169.9998621471899 -0.0001764156361799485 0  169.9999558464146 7.499818556978675 0  174.9998234969165 -0.0002647775572469769 0  174.9999306149939 7.499732268734946 0  179.9997955255872 -0.0003523854554203333 0  179.9999094209654 7.499645760053163 0  184.9997747570013 -0.0004388965092793176 0  184.9998919893154 7.499559889748366 0  189.9997590353661 -0.0005242365180674055 0  189.9998777880474 7.499474941594782 0  194.999746968189 -0.0006084521250174163 0  194.9998662684993 7.499390973773133 0  199.9997376212799 -0.0006916324631308833 0  199.9998569436359 7.499307954991984 0  204.999730345062 -0.0007738748421996667 0  204.999849405573 7.499225821234758 0  209.9997246728047 -0.0008552716937403569 0  209.9998433210739 7.499144499679121 0  214.999720259353 -0.0009359066662706203 0  214.9998384204366 7.499063918447031 0  219.9997168431508 -0.001015854292859208 0  219.9998344857439 7.49898401021328 0  224.9997142219583 -0.001095180852927429 0  224.9998313405162 7.498904713211313 0  229.9997122368158 -0.001173945489328288 0  229.9998288412306 7.498825971192673 0  234.9997107611086 -0.001252201253704584 0  234.9998268705825 7.498747733009195 0  239.9997096928747 -0.001329995998339859 0  239.9998253322005 7.498669952092206 0  244.9997089492387 -0.00140737312235395 0  244.9998241465079 7.498592585929656 0  249.9997084622755 -0.001484372207194346 0  249.9998232474766 7.498515595568239 0  254.9997081758711 -0.00156102958063109 0  254.9998225800673 7.498438945137112 0  259.9997080432904 -0.001637378846063872 0  259.9998220982001 7.49836260137788 0  264.9997080252704 -0.001713451411036658 0  264.999821763144 7.498286533160626 0  269.9997080885161 -0.001789277047301352 0  269.9998215422399 7.498210710963558 0  274.9997082045314 -0.001864884514299628 0  274.9998214078983 7.498135106293319 0  279.9997083487564 -0.001940302276378523 0  279.9998213368371 7.498059691024659 0  284.9997085000324 -0.002015559335957563 0  284.9998213095224 7.497984436646021 0  289.999708640468 -0.002090686176821301 0  289.9998213097972 7.49790931341831 0  294.9997087558623 -0.00216571573055916 0  294.9998213246657 7.497834289500208 0  299.9997088369449 -0.00224068405863502 0  299.9998213441817 7.497759330181895 0  304.9997088818017 -0.002315629840460966 0  304.9998213613903 7.497684397503776 0  309.9997088999583 -0.002390590020552343 0  309.9998213723307 7.497609450601613 0  4.999945398265195 15.00202603436267 0  -5.461967398467937e-05 15.00209911575896 0  9.999945447428559 15.00195285795403 0  14.99994554558738 15.00187956122818 0  19.99994570768048 15.0018061268527 0  24.99994594813596 15.00173254465282 0  29.99994628209928 15.00165881036765 0  34.99994672603726 15.00158492439531 0  39.99994729805648 15.00151089078616 0  44.99994801811977 15.00143671657746 0  49.99994890824849 15.00136241148311 0  54.99994999274174 15.00128798792793 0  59.99995129841447 15.00121346141993 0  64.99995285483926 15.00113885127309 0  69.9999546945611 15.00106418172033 0  74.99995685324011 15.00098948349307 0  79.99995936965243 15.00091479599165 0  84.99996228544767 15.00084017023644 0  89.99996564450724 15.00076567288432 0  94.99996949167436 15.00069139173115 0  99.99997387051789 15.00061744332171 0  104.9999788196479 15.00054398358019 0  109.9999843669302 15.00047122278592 0  114.9999905207899 15.00039944676047 0  119.9999972577917 15.00032904672921 0  125.0000045061587 15.00026056062631 0  130.0000121265811 15.00019472749251 0  135.0000198960025 15.00013255068265 0  140.0000275093925 15.00007534494582 0  145.0000346305715 15.0000246768848 0  150.0000410363097 14.99998189737672 0  165.0000363422434 14.99987675675404 0  160.0000431216235 14.99994299466597 0  170.0000265331081 14.99980135641191 0  175.0000151973947 14.99972086954361 0  180.000003759204 14.99963812622902 0  184.9999930387175 14.99955466937843 0  189.9999834111109 14.99947128270501 0  194.9999749891586 14.99938834382652 0  199.9999677463339 14.99930601871551 0  204.9999615898121 14.99922436439611 0  209.9999564010958 14.99914338268364 0  214.9999520574309 14.99906304825251 0  219.9999484423223 14.99898332327804 0  224.9999454500754 14.99890416504885 0  229.9999429871861 14.99882552988872 0  234.9999409721516 14.99874737513241 0  239.9999393345546 14.99866966006739 0  244.9999380138769 14.99859234631881 0  249.9999369582732 14.99851539792709 0  254.9999361234161 14.99843878124703 0  259.9999354714583 14.9983624647338 0  264.9999349701266 14.99828641864589 0  269.9999345919447 14.99821061467702 0  274.9999343135706 14.99813502551844 0  279.9999341152291 14.99805962434951 0  284.9999339802163 14.99798438425477 0  289.999933894431 14.99790927756867 0  294.9999338459028 14.9978342751469 0  299.9999338242555 14.99775934552663 0  304.9999338200676 14.99768445377113 0  309.9999338241006 14.99760955920639 0  5.00005484421773 22.50202619004691 0  5.482367105957842e-05 22.50209913515375 0  10.00005489314275 22.5019530899196 0  15.00005498757249 22.50187983499225 0  20.00005513978972 22.50180642463251 0  25.00005535972731 22.50173285935607 0  30.00005565650429 22.50165914164227 0  35.00005603930924 22.50158527616167 0  40.00005651786005 22.50151126978258 0  45.0000571025994 22.50143713157622 0  50.00005780472691 22.50136287294645 0  55.00005863611714 22.50128850795711 0  60.000059609139 22.50121405390886 0  65.00006073636486 22.5011395322169 0  70.00006203013399 22.50106496965238 0  75.00006350191606 22.50099040003681 0  80.00006516139443 22.50091586651241 0  85.00006701516538 22.50084142456188 0  90.00006906491959 22.50076714601355 0  95.00007130494436 22.50069312434991 0  100.0000737187702 22.50061948173194 0  105.0000762748027 22.5005463782461 0  110.0000789208819 22.50047402392725 0  115.0000815779726 22.50040269399233 0  120.0000841337524 22.50033274716998 0  125.0000864379295 22.50026464543593 0  130.0000883028975 22.50019896963897 0  135.00008951577 22.50013641699823 0  140.0000898698317 22.50007774899091 0  145.0000892204772 22.50002362640761 0  150.0000875499449 22.49997422816745 0  165.0000931268548 22.49984960742355 0  160.000089070385 22.49991312518207 0  170.0000941733761 22.49977912111164 0  175.0000927458853 22.49970367606254 0  180.0000896307646 22.49962513809975 0  185.0000855700462 22.49954490886361 0  190.0000811242112 22.49946391665836 0  195.0000766673545 22.4993827347772 0  200.0000724264917 22.49930170017915 0  205.0000685251309 22.49922100089492 0  210.0000650186983 22.49914073374993 0  215.0000619201157 22.49906094069298 0  220.0000592171524 22.49898163114551 0  225.0000568837395 22.49890279560634 0  230.0000548871203 22.49882441389751 0  235.0000531922425 22.49874646015134 0  240.0000517643615 22.49866890581709 0  245.0000505705122 22.49859172145574 0  250.0000495802713 22.49851487778569 0  255.0000487660902 22.49843834625631 0  260.0000481033646 22.49836209931692 0  265.0000475703563 22.49828611048184 0  270.000047148024 22.49821035425315 0  275.0000468198032 22.49813480593927 0  280.0000465713412 22.49805944139408 0  285.0000463901897 22.49798423669279 0  290.0000462654312 22.49790916775185 0  295.0000461872131 22.49783420988155 0  300.0000461461361 22.497
[...]
<PointData  Vectors="v"> 
<DataArray  type="Float64"  Name="v"  NumberOfComponents="3" format="ascii">1.5787276137945023e+00 -5.7296476408505743e+00 0.0000000000000000e+00  1.1445387685235220e+00 -5.5685743691943932e+00 0.0000000000000000e+00  8.4339527795542901e-01 -4.9174466649527533e+00 0.0000000000000000e+00  1.1752665775898579e+00 -5.2324474635367304e+00 0.0000000000000000e+00  5.6481194199178442e-01 -6.2437308922340282e+00 0.0000000000000000e+00  4.0941327461521537e-01 -5.3750277158190167e+00 0.0000000000000000e+00  -7.6990377007082455e-03 -7.3272648919803851e+00 0.0000000000000000e+00  -1.6936984355503906e-01 -6.4698027031013181e+00 0.0000000000000000e+00  -5.6486885847271939e-01 -7.9594828099839718e+00 0.0000000000000000e+00  -7.4031377557817235e-01 -7.1258158777844685e+00 0.0000000000000000e+00  -1.2366362688116017e+00 -9.0191737883784668e+00 0.0000000000000000e+00  -1.2952445956018914e+00 -8.0143789053003403e+00 0.0000000000000000e+00  -1.8142283159445207e+00 -9.7050493816886352e+00 0.0000000000000000e+00  -1.9636820683239018e+00 -8.8420842595502283e+00 0.0000000000000000e+00  -1.9693033345443873e+00 -9.8029870246313529e+00 0.0000000000000000e+00  -2.5371167965011234e+00 -9.5748007061630762e+00 0.0000000000000000e+00  -2.9477387029623587e+00 -1.1013769566960464e+01 0.0000000000000000e+00  -2.6871419393897122e+00 -9.5514768309384177e+00 0.0000000000000000e+00  1.4281571010087071e-01 -6.1362850894699852e+00 0.0000000000000000e+00  -3.6592288299411240e+00 -1.0777913924794349e+01 0.0000000000000000e+00  -9.4331025828155841e+00 -1.9999312946119058e+01 0.0000000000000000e+00  -5.6130653762305949e-01 -5.6431836540213407e+00 0.0000000000000000e+00  -8.3858022419825318e+00 -1.7479071506292069e+01 0.0000000000000000e+00  -1.0129625152507806e+01 -1.9057781594010386e+01 0.0000000000000000e+00  -8.2557757600392243e+00 -1.6250176713114236e+01 0.0000000000000000e+00  -9.0730186937992698e+00 -1.6455087839752650e+01 0.0000000000000000e+00  -8.7914556049603370e+00 -1.6027899129730269e+01 0.0000000000000000e+00  -8.9313431629758444e+00 -1.5236353119926640e+01 0.0000000000000000e+00  -9.8602041412081292e+00 -1.6616401385730036e+01 0.0000000000000000e+00  -9.4532569539758153e+00 -1.5027639747704809e+01 0.0000000000000000e+00  -1.1286411430364254e+01 -1.7679413017706853e+01 0.0000000000000000e+00  -1.0505082357676468e+01 -1.5556004874698665e+01 0.0000000000000000e+00  -1.2977604985473780e+01 -1.9000811273922668e+01 0.0000000000000000e+00  -1.1912117507037546e+01 -1.6482687786373596e+01 0.0000000000000000e+00  -1.4850234188697394e+01 -2.0593846811397366e+01 0.0000000000000000e+00  -1.3581861724611464e+01 -1.7805874612341764e+01 0.0000000000000000e+00  -1.6820679460741015e+01 -2.2081023502255320e+01 0.0000000000000000e+00  -1.5429417036013156e+01 -1.9148055783006591e+01 0.0000000000000000e+00  -1.8819477504881021e+01 -2.3479194175508979e+01 0.0000000000000000e+00  -1.7372620602725451e+01 -2.0507044485554008e+01 0.0000000000000000e+00  -2.0782404100960015e+01 -2.4636384195149990e+01 0.0000000000000000e+00  -1.9341002217228837e+01 -2.1720059987116951e+01 0.0000000000000000e+00  -2.2633863673733064e+01 -2.5467633486498421e+01 0.0000000000000000e+00  -2.1270387359423321e+01 -2.2721440181997099e+01 0.0000000000000000e+00  -2.4313278500141308e+01 -2.5580537260804604e+01 0.0000000000000000e+00  -2.3084296777516560e+01 -2.3094401244828891e+01 0.0000000000000000e+00  -2.5779808351745338e+01 -2.5515563559880437e+01 0.0000000000000000e+00  -2.4725135425709517e+01 -2.3353594770112899e+01 0.0000000000000000e+00  -2.6984733867924568e+01 -2.4063898459080225e+01 0.0000000000000000e+00  -2.6145574585929371e+01 -2.2292954369530037e+01 0.0000000000000000e+00  -2.7930353097633652e+01 -2.2614002894042635e+01 0.0000000000000000e+00  -2.7307168154720721e+01 -2.1241517923106500e+01 0.0000000000000000e+00  -2.8598973720382432e+01 -1.9174033452241225e+01 0.0000000000000000e+00  -2.8197070781284197e+01 -1.8209719878467709e+01 0.0000000000000000e+00  -2.9041268672659466e+01 -1.5784953754047271e+01 0.0000000000000000e+00  -2.8819331165944931e+01 -1.5177533290952100e+01 0.0000000000000000e+00  -2.9266267184075033e+01 -1.0264582140987759e+01 0.0000000000000000e+00  -2.9194377529171522e+01 -9.9653563695216523e+00 0.0000000000000000e+00  -2.9368187987498960e+01 -3.7087926334759889e+00 0.0000000000000000e+00  -2.9372131165593743e+01 -3.6246761858296286e+00 0.0000000000000000e+00  -2.9389262614409120e+01 -4.6109861072128951e-12 0.0000000000000000e+00  -2.9389474445390718e+01 -2.1072595892068658e-04 0.0000000000000000e+00  -2.9389262614624077e+01 1.1176291600126133e-19 0.0000000000000000e+00  -2.1018702122345438e+01 1.1504770173246676e+01 0.0000000000000000e+00  -2.9366975688137707e+01 -1.0133766197362117e+00 0.0000000000000000e+00  -2.9389472733971921e+01 2.1399646905136805e-04 0.0000000000000000e+00  -2.0625003346321797e+01 2.0691133309449146e+01 0.0000000000000000e+00  -2.1047596067345051e+01 2.0168228428685897e+01 0.0000000000000000e+00  -1.7602256212261540e+01 2.7676826617524345e+01 0.0000000000000000e+00  -2.0713458599044380e+01 2.3184281502055114e+01 0.0000000000000000e+00  -1.6451839701340415e+01 2.9101580726796570e+01 0.0000000000000000e+00  -1.7748156710143522e+01 2.7427177172732236e+01 0.0000000000000000e+00  -1.4657932629604652e+01 3.0542694876592993e+01 0.0000000000000000e+00  -1.6651281003488542e+01 2.7896793714662831e+01 0.0000000000000000e+00  -1.3285124124184152e+01 2.9735879824625744e+01 0.0000000000000000e+00  -1.4908504662395083e+01 2.7722405023262972e+01 0.0000000000000000e+00  -1.1898942096522344e+01 2.8683009448386713e+01 0.0000000000000000e+00  -1.3586272051661940e+01 2.6645731912626328e+01 0.0000000000000000e+00  -1.0682974059970237e+01 2.6790563893383865e+01 0.0000000000000000e+00  -1.2247750115753311e+01 2.5009238138225150e+01 0.0000000000000000e+00  -9.3134355614759485e+00 2.4948062446734887e+01 0.0000000000000000e+00  -1.1078029089401566e+01 2.2934062299657228e+01 0.0000000000000000e+00  -8.2844766598246178e+00 2.2736613230078468e+01 0.0000000000000000e+00  -9.7537200212620760e+00 2.1232631891704631e+01 0.0000000000000000e+00  -7.4102804401799602e+00 2.0653863161784525e+01 0.0000000000000000e+00  -8.7683822596328049e+00 1.9381201149041797e+01 0.0000000000000000e+00  -6.4805953966566872e+00 1.8856778344655080e+01 0.0000000000000000e+00  -7.9366479283380569e+00 1.7499953099135261e+01 0.0000000000000000e+00  -5.6145014315242436e+00 1.7213652213257991e+01 0.0000000000000000e+00  -7.0486763169346647e+00 1.5951180978952772e+01 0.0000000000000000e+00  -4.8142282630712838e+00 1.5768711839915200e+01 0.0000000000000000e+00  -6.2231119443129232e+00 1.4604458140452634e+01 0.0000000000000000e+00  -4.0560025004616431e+00 1.4446395676453134e+01 0.0000000000000000e+00  -5.4624599698479201e+00 1.3344371175897773e+01 0.0000000000000000e+00  -3.3795535184421333e+00 1.3182981345902478e+01 0.0000000000000000e+00  -4.7431653570468377e+00 1.2202912794032803e+01 0.0000000000000000e+00  -2.7865838566431576e+00 1.2011006852170649e+01 0.0000000000000000e+00  -4.1047901998104619e+00 1.1155645011116942e+01 0.0000000000000000e+00  -2.2443711191623263e+00 1.0880083843262378e+01 0.0000000000000000e+00  -3.5491470997170778e+00 1.0100297165629389e+01 0.0000000000000000e+00  -1.7705765952688888e+00 9.7751514275976437e+00 0.0000000000000000e+00  -3.0437678729499296e+00 9.0973882282324219e+00 0.0000000000000000e+00  -1.3677279251563130e+00 8.7165245151270661e+00 0.0000000000000000e+00  -2.6060770297350015e+00 8.1448932884403309e+00 0.0000000000000000e+00  -1.0093279415326881e+00 7.6606705060456068e+00 0.0000000000000000e+00  -2.2389543543360615e+00 7.1551112772502279e+00 0.0000000000000000e+00  -7.0638366225992444e-01 6.6372200911251129e+00 0.0000000000000000e+00  -1.9155930023015026e+00 6.2147302284234183e+00 0.0000000000000000e+00  -4.6280324466408346e-01 5.6288481996575692e+00 0.0000000000000000e+00  -1.6476807173303665e+00 5.2946215770537872e+00 0.0000000000000000e+00  -2.6048884728976557e-01 4.6591645492251228e+00 0.0000000000000000e+00  -1.4379450459004322e+00 4.3873545753510497e+00 0.0000000000000000e+00  -1.0804938185852536e-01 3.6892880718144272e+00 0.0000000000000000e+00  -1.2705209615346651e+00 3.4905468907261539e+00 0.0000000000000000e+00  1.6196972507409064e-03 2.8515247649636821e+00 0.0000000000000000e+00  -1.1502893063925079e+00 2.7191919077619477e+00 0.0000000000000000e+00  7.0758770120127018e-02 1.9667923024419709e+00 0.0000000000000000e+00  -1.0764064074927753e+00 1.8908539628636181e+00 0.0000000000000000e+00  1.3754518798501097e-01 1.3337658761306996e+00 0.0000000000000000e+00  -1.0363056842084315e+00 1.2681147992437529e+00 0.0000000000000000e+00  2.0942031216195398e-01 7.1231711931712793e-01 0.0000000000000000e+00  -1.0099150895193307e+00 6.2663496359973592e-01 0.0000000000000000e+00  3.7239287946775645e-01 -1.7137136998890481e-01 0.0000000000000000e+00  -9.5420607135217106e-01 -3.6957437960600764e-01 0.0000000000000000e+00  1.2419538019839101e-01 -4.4187593637756102e+00 0.0000000000000000e+00  4.8364607165088108e-01 -4.6952443351137676e+00 0.0000000000000000e+00  -2.0893242670526943e-01 -4.7232811204076350e+00 0.0000000000000000e+00  -6.4398504104963838e-01 -5.6014461745612003e+00 0.0000000000000000e+00  -1.2230254480311482e+00 -6.2697516820600878e+00 0.0000000000000000e+00  -1.7931830996049862e+00 -7.1827741607836186e+00 0.0000000000000000e+00  -2.3462518653621891e+00 -7.8412964978002506e+00 0.0000000000000000e+00  -3.0112858980457311e+00 -8.7176400929736566e+00 0.0000000000000000e+00  -3.5793883906583495e+00 -9.3299909954393971e+00 0.0000000000000000e+00  -3.7224829210358488e+00 -9.3250882822832910e+00 0.0000000000000000e+00  -4.6851429736021464e+00 -1.0296705491884071e+01 0.0000000000000000e+00  -1.5767011105044544e+00 -4.7098732163977024e+00 0.0000000000000000e+00  -1.1138861005347600e+01 -1.8043402220993833e+01 0.0000000000000000e+00  -1.0075125255712226e+01 -1.5456227933975001e+01 0.0000000000000000e+00  -9.9205926838778389e+00 -1.4253456612089549e+01 0.0000000000000000e+00  -1.0425789349449296e+01 -1.3991330820068422e+01 0.0000000000000000e+00  -1.1455171138400349e+01 -1.4387814720716342e+01 0.0000000000000000e+00  -1.2834940530991091e+01 -1.5318759159899626e+01 0.0000000000000000e+00  -1.4473304033512127e+01 -1.6398293856997746e+01 0.0000000000000000e+00  -1.6283865249895246e+01 -1.7617038919462964e+01 0.0000000000000000e+00  -1.8184522751023813e+01 -1.8793750269804320e+01 0.0000000000000000e+00  -2.0105926009916278e+01 -1.9859390687413043e+01 0.0000000000000000e+00  -2.1981023592419774e+01 -2.0407753679572789e+01 0.0000000000000000e+00  -2.3734905575838692e+01 -2.0931361957356803e+01 0.0000000000000000e+00  -2.5308564512352294e+01 -2.0203457816308731e+01 0.0000000000000000e+00  -2.6655819600269346e+01 -1.9549970006883964e+01 0.0000000000000000e+00  -2.7733555255882145e+01 -1.6919042895870614e+01 0.0000000000000000e+00  -2.8539034217799131e+01 -1.4312068497140977e+01 0.0000000000000000e+00  -2.9057003503692062e+01 -9.4427412756021329e+00 0.0000000000000000e+00  -2.9341483498951842e+01 -3.4526849889828761e+00 0.0000000000000000e+00  -2.9389987351719604e+01 -4.0238182213967925e-04 0.0000000000000000e+00  -2.9328823510783675e+01 -1.1730666952526594e+00 0.0000000000000000e+00  -2.9389984136191952e+01 4.3344713599626660e-04 0.0000000000000000e+00  -2.9172603700146865e+01 7.7089705540551128e+00 0.0000000000000000e+00  -2.0917991054895275e+01 2.2735333229496330e+01 0.0000000000000000e+00  -2.0664740643465379e+01 2.3021373639350749e+01 0.0000000000000000e+00  -1.7767728659513988e+01 2.6292593912434196e+01 0.0000000000000000e+00  -1.6736718514435694e+01 2.5140848011281427e+01 0.0000000000000000e+00  -1.5050324054180191e+01 2.4697933197829698e+01 0.0000000000000000e+00  -1.3783750278379733e+01 2.3031409438087216e+01 0.0000000000000000e+00  -1.2495143326765648e+01 2.1207916376759613e+01 0.0000000000000000e+00  -1.1372544906676026e+01 1.9273813252466478e+01 0.0000000000000000e+00  -1.0093183476617506e+01 1.7929253206345994e+01 0.0000000000000000e+00  -9.1507671861100786e+00 1.6276857835852145e+01 0.0000000000000000e+00  -8.3599459170980222e+00 1.4643670294274266e+01 0.0000000000000000e+00  -7.5119227789412921e+00 1.3389375404483634e+01 0.0000000000000000e+00  -6.7247667159906506e+00 1.2225655812992562e+01 0.0000000000000000e+00  -6.0010724646377129e+00 1.1145875507137578e+01 0.0000000000000000e+00  -5.3177200748105049e+00 1.0219133931221092e+01 0.0000000000000000e+00  -4.7140767079965595e+00 9.2871037426594736e+00 0.0000000000000000e+00  -4.1920104778147653e+00 8.3591918034863539e+00 0.0000000000000000e+00  -3.7193501788122743e+00 7.5076795225505935e+00 0.0000000000000000e+00  -3.3135001576356728e+00 6.6230460019507431e+00 0.0000000000000000e+00  -2.9772976881639117e+00 5.7482233024487606e+00 0.0000000000000000e+00  -2.6843292956662124e+00 4.9104568635657841e+00 0.0000000000000000e+00  -2.4459285949801646e+00 4.0906839662708396e+00 0.0000000000000000e+00  -2.2653983927138168e+00 3.2559608176508736e+00 0.0000000000000000e+00  -2.1260511661419308e+00 2.5569907610593270e+00 0.0000000000000000e+00  -2.0343806077317761e+00 1.7942954480116733e+00 0.0000000000000000e+00  -1.9865265662059728e+00 1.2279969275731519e+00 0.0000000000000000e+00  -1.9750198476210867e+00 5.9720934748248322e-01 0.0000000000000000e+00  -1.9726324736757075e+00 -4.3141502794600567e-01 0.0000000000000000e+00  -1.1254801444390079e+00 -3.8776401201689383e+00 0.0000000000000000e+00  -8.0405423663987996e-01 -4.2160967580752553e+00 0.0000000000000000e+00  -1.4879972665650631e+00 -4.2206791485781112e+00 0.0000000000000000e+00  -1.8257878580370888e+00 -4.9466237567595828e+00 0.0000000000000000e+00  -2.2643869097071310e+00 -5.3995379019308158e+00 0.0000000000000000e+00  -2.8462198419692779e+00 -6.3269707235381887e+00 0.0000000000000000e+00  -3.4176982866104120e+00 -7.0129252811600091e+00 0.0000000000000000e+00  -3.9694970235048888e+00 -7.7229436620776264e+00 0.0000000000000000e+00  -4.6307314297407025e+00 -8.4831206812008055e+00 0.0000000000000000e+00  -5.1917257927851512e+00 -9.1187862744518604e+00 0.0000000000000000e+00  -5.3231998967882808e+00 -8.8638368027517505e+00 0.0000000000000000e+00  -6.2707250961189880e+00 -9.3837215649753638e+00 0.0000000000000000e+00  -3.1509881236223927e+00 -3.7047877063876973e+00 0.0000000000000000e+00  -1.2712188696949324e+01 -1.7053723915519782e+01 0.0000000000000000e+00  -1.1646435787335719e+01 -1.4495854421499045e+01 0.0000000000000000e+00  -1.1479349568338622e+01 -1.3250565220504717e+01 0.0000000000000000e+00  -1.1962016385824633e+01 -1.2867365531774670e+01 0.0000000000000000e+00  -1.2959748279696885e+01 -1.3279577640508744e+01 0.0000000000000000e+00  -1.4299193431971759e+01 -1.3977770895207959e+01 0.0000000000000000e+00  -1.5887507262880458e+01 -1.4944388045933346e+01 0.0000000000000000e+00  -1.7639126539189682e+01 -1.5993202132008241e+01 0.0000000000000000e+00  -1.9471490675962404e+01 -1.7036077473306737e+01 0.0000000000000000e+00  -2.1312370553237479e+01 -1.7660113536971750e+01 0.0000000000000000e+00  -2.3096691666473873e+01 -1.8377884812742781e+01 0.0000000000000000e+00  -2.4744936606595171e+01 -1.7925365230398956e+01 0.0000000000000000e+00  -2.6201766997691333e+01 -1.7628733422484721e+01 0.0000000000000000e+00  -2.7412357417745714e+01 -1.5400735810425873e+01 0.0000000000000000e+00  -2.8346517730183397e+01 -1.3235607300323055e+01 0.0000000000000000e+00  -2.8977786198407998e+01 -8.7662957478171908e+00 0.0000000000000000e+00  -2.9334550395271286e+01 -3.2107583716832444e+00 0.0000000000000000e+00  -2.9390789112977746e+01 -5.7641946663313437e-04 0.0000000000000000e+00  -2.9304828604060358e+01 -1.4859384769087129e+00 0.0000000000000000e+00  -2.9390786166831266e+01 6.2799348709872613e-04 0.0000000000000000e+00  -2.8937349650826366e+01 7.4170953567678630e+00 0.0000000000000000e+00  -2.8768894014454823e+01 1.0434591005073758e+01 0.0000000000000000e+00  -2.0626376725797702e+01 2.2742718131734350e+01 0.0000000000000000e+00  -2.0503620820549763e+01 2.2027961703701123e+01 0.0000000000000000e+00  -1.7716189017730489e+01 2.3674130010568529e+01 0.0000000000000000e+00  -1.6783617133172513e+01 2.2233481629795556e+01 0.0000000000000000e+00  -1.5182998200466610e+01 2.1194298163202919e+01 0.0000000000000000e+00  -1.3995566670691707e+01 1.9331015117328540e+01 0.0000000000000000e+00  -1.2777459540015949e+01 1.7642244813104444e+01 0.0000000000000000e+00  -1.1720948372361329e+01 1.6058970400324583e+01 0.0000000000000000e+00  -1.0503208969361561e+01 1.4910112474840243e+01 0.0000000000000000e+00  -9.6192923562874473e+00 1.3501989306794718e+01 0.0000000000000000e+00  -8.8847592130468822e+00 1.2160473568377704e+01 0.0000000000000000e+00  -8.0909901426486091e+00 1.1086549435573570e+01 0.0000000000000000e+00  -7.3558368635456874e+00 1.0100306199732435e+01 0.0000000000000000e+00  -6.6822515473586241e+00 9.2325837283507326e+00 0.0000000000000000e+00  -6.0470120249205417e+00 8.4188450372419190e+00 0.0000000000000000e+00  -5.4895721683940568e+00 7.6118400358037928e+00 0.0000000000000000e+00  -5.0119894636815197e+00 6.8333364013405484e+00 0.0000000000000000e+00  -4.5822885307378769e+00 6.0477282556249898e+00 0.0000000000000000e+00  -4.2177816390193126e+00 5.2765865798276366e+00 0.0000000000000000e+00  -3.9218560465466519e+00 4.5023530812360031e+00 0.0000000000000000e+00  -3.6675951496217660e+00 3.7643502463908871e+00 0.0000000000000000e+00  -3.4673684185013509e+00 3.0143849630493649e+00 0.0000000000000000e+00  -3.3229431701515009e+00 2.3785738483947392e+00 0.0000000000000000e+00  -3.2203231334166222e+00 1.6827858228841033e+00 0.0000000000000000e+00  -3.1611058234763068e+00 1.1881185099911475e+00 0.0000000000000000e+00  -3.1506836045682749e+00 5.9991094474180873e-01 0.0000000000000000e+00  -3.1625517124940448e+00 -4.0133319892242475e-01 0.0000000000000000e+00  -2.4386719162231887e+00 -3.3926764793853352e+00 0.0000000000000000e+00  -2.1533515977393165e+00 -3.7922329281794513e+00 0.0000000000000000e+00  -2.7645433736867142e+00 -3.6720475533232300e+00 0.0000000000000000e+00  -3.1349833676044359e+00 -4.4338852649898781e+00 0.0000000000000000e+00  -3.4815714323847904e+00 -4.7355934304659639e+00 0.0000000000000000e+00  -3.9291160661180276e+00 -5.4489252508681441e+00 0.0000000000000000e+00  -4.5186386127813787e+00 -6.1513958385765060e+00 0.0000000000000000e+00  -5.0959757221534963e+00 -6.8931024986971146e+00 0.0000000000000000e+00  -5.6506741343406572e+00 -7.4918736100376062e+00 0.0000000000000000e+00  -6.3104766282867324e+00 -8.2811730224402744e+00 0.0000000000000000e+00  -6.8646706562620112e+00 -8.6750928012961896e+00 0.0000000000000000e+00  -6.9843169412872204e+00 -7.9726976621813774e+00 0.0000000000000000e+00  -7.9190945744278123e+00 -8.3884549564655924e+00 0.0000000000000000e+00  -4.7990837150938388e+00 -2.7029193480511324e+00 0.0000000000000000e+00  -1.4378360547198110e+01 -1.6082535924458025e+01 0.0000000000000000e+00  -1.3327713162054197e+01 -1.3500672663397911e+01 0.0000000000000000e+00  -1.3160559739578847e+01 -1.2152201443996308e+01 0.0000000000000000e+00  -1.3630107977235879e+01 -1.1801891995308967e+01 0.0000000000000000e+00  -1.4600584368669308e+01 -1.1995097123881992e+01 0.0000000000000000e+00  -1.5901457044482800e+01 -1.2597949811881703e+01 0.0000000000000000e+00  -1.7439012391817016e+01 -1.3410097687288904e+01 0.0000000000000000e+00  -1.9126827671999429e+01 -1.4341564237625215e+01 0.0000000000000000e+00  -2.0881406207380145e+01 -1.4962779010919064e+01 0.0000000000000000e+00  -2.2630163066246499e+01 -1.5779911363131868e+01 0.0000000000000000e+00  -2.4301972938858064e+01 -1.5539745557544812e+01 0.0000000000000000e+00  -2.5822034007134363e+01 -1.5553832062047679e+01 0.0000000000000000e+00  -2.7122840594750517e+01 -1.3696640313949617e+01 0.0000000000000000e+00  -2.8164584854887739e+01 -1.1987959476993934e+01 0.0000000000000000e+00  -2.8887980765381560e+01 -7.9428952833298556e+00 0.0000000000000000e+00  -2.9317099711505588e+01 -2.9017147011979327e+00 0.0000000000000000e+00  -2.9391849857