<?xml version="1.0"?>
<VTKFile type="UnstructuredGrid"  version="0.1"  >
<UnstructuredGrid>
<Piece  NumberOfPoints="1933" NumberOfCells="3640">
<Points>
<DataArray  type="Float64"  NumberOfComponents="3"  format="ascii">-0.4752665128613855 -0.002171978109832173 0  4.524733512799501 -0.002106064788048658 0  4.524634606656164 7.497893980283325 0  -0.4753654168597102 7.497828073100887 0  9.5247335650994 -0.002040175417785921 0  9.524634638937243 7.497959861915787 0  14.52473365684417 -0.001974275064908683 0  14.52463467895335 7.498025755829614 0  19.52473379083761 -0.001908326647289762 0  19.52463472287353 7.498091699371907 0  24.52473396271209 -0.001842294204381045 0  24.52463476388667 7.498157728103855 0  29.52473416300318 -0.001776143532181845 0  29.52463479209362 7.498223875749152 0  34.52473437836667 -0.0017098418016187 0  34.52463479441609 7.498290174720933 0  39.52473459210812 -0.001643356823468178 0  39.52463475442521 7.498356656868303 0  44.52473478420124 -0.001576656225401969 0  44.52463465202747 7.498423354274332 0  49.52473493091845 -0.001509706635135274 0  49.52463446296937 7.498490300040931 0  54.52473500413971 -0.001442472888069714 0  54.52463415813305 7.4985575290486 0  59.52473497035743 -0.001374917243616749 0  59.52463370259123 7.498625078705103 0  64.52473478935346 -0.001306998577078076 0  64.52463305437645 7.49869298971065 0  69.52473441248 -0.001238671501902152 0  69.52463216290153 7.49876130687557 0  74.52473378042933 -0.001169885364095413 0  74.52463096693994 7.498830080033438 0  79.52473282030623 -0.001100583032446819 0  79.52462939204108 7.498899365099278 0  84.52473144171698 -0.001030699381504166 0  84.52462734721018 7.498969225328276 0  89.52472953142406 -0.0009601593257177192 0  89.52462472062918 7.499039732828505 0  94.52472694585026 -0.0008888752107028165 0  94.52462137414139 7.499110970358337 0  99.52472350025612 -0.0008167433042475865 0  99.52461713618492 7.499183033360048 0  104.5247189526301 -0.0007436390751839389 0  104.5246117929004 7.499256031969868 0  109.5247129789445 -0.0006694109689365799 0  109.5246050773884 7.49933009223188 0  114.5247051339639 -0.000593872674956984 0  114.5245966578635 7.49940535456931 0  119.5246947873757 -0.0005167949428822973 0  119.5245861273922 7.49948196496695 0  124.5246810170686 -0.0004379011655900683 0  124.5245730024162 7.499560048709532 0  129.5246624271626 -0.0003568796342772853 0  129.524556747156 7.499639644693181 0  134.524636833138 -0.0002734486014761174 0  134.5245368617741 7.499720554049103 0  139.5246007123294 -0.0001875728615403083 0  139.5245131141578 7.499802009126721 0  144.5245482423842 -0.0001001061270477773 0  144.5244860765078 7.499881983968558 0  149.5244696187742 -1.466690359551852e-05 0  149.5244582791636 7.499955859298778 0  159.5244717418524 7.165598316962131e-19 0  164.524505613822 1.260543965146853e-05 0  164.5244783991307 7.500009546932731 0  159.5244625867321 7.499992664906522 0  169.5245371879116 4.130959583787017e-05 0  169.5244940027284 7.500040116014097 0  174.5245649842376 8.068868757454688e-05 0  174.5245090062727 7.500080312416682 0  179.5245888613545 0.0001273375374098881 0  179.5245230299389 7.500127313355833 0  184.5246091567724 0.0001790514078525628 0  184.5245358474778 7.500179170478612 0  189.5246263377294 0.000234363978814224 0  189.5245473728257 7.500234532820021 0  194.5246408661748 0.0002922754397744066 0  194.5245576157562 7.500292453097885 0  199.5246531530042 0.0003520879344196293 0  199.524566642334 7.500352257433461 0  204.5246635483065 0.000413303707188788 0  204.5245745470345 7.500413458925722 0  209.5246723450479 0.0004755606990994153 0  209.5245814351139 7.500475700314062 0  214.5246797868401 0.0005385909225646189 0  214.524587412271 7.500538715623849 0  219.5246860761208 0.0006021929425928168 0  219.5245925790451 7.500602304168657 0  224.5246913814712 0.0006662132623593595 0  224.5245970281147 7.500666312643033 0  229.5246958437662 0.0007305334466682202 0  229.524600843305 7.500730622573227 0  234.5246995812217 0.0007950610249185911 0  234.5246040995636 7.50079514136976 0  239.5247026935066 0.0008597229415048416 0  239.5246068634581 7.500859795845045 0  244.524705265108 0.0009244607650685017 0  244.5246091939289 7.500924527451867 0  249.5247073681108 0.0009892271441573276 0  249.5246111431524 7.500989288751195 0  254.52470906453 0.001053983173254636 0  254.5246127574298 7.501054040782541 0  259.5247104083023 0.001118696450043675 0  259.5246140780516 7.501118751121441 0  264.5247114470292 0.001183339686736913 0  264.5246151421188 7.501183392486905 0  269.5247122235287 0.001247889801023616 0  269.5246159833022 7.501247941821001 0  274.5247127772559 0.001312327466604692 0  274.5246166325196 7.501312379812358 0  279.5247131456 0.001376637157968631 0  279.5246171185235 7.50137669088106 0  284.5247133650462 0.001440807786244824 0  284.5246174683549 7.501440863688423 0  289.524713472098 0.001504834097813047 0  289.5246177076483 7.501504892281562 0  294.5247135037264 0.001568719091298632 0  294.5246178607509 7.501568778023281 0  299.5247134968297 0.001632477763203003 0  299.5246179506892 7.501632532477484 0  304.5247134856693 0.001696142341256473 0  304.5246179991634 7.501696181405409 0  309.524713495201 0.001759768060094891 0  309.5246180271537 7.501759770095389 0  4.524535692756081 14.99789406245362 0  -0.4754643261861788 14.99782819654611 0  9.524535704773621 14.99795990803394 0  14.52453570440884 14.99802577412324 0  19.52453568461526 14.99809169650197 0  24.52453563695927 14.99815770831129 0  29.52453555127585 14.9982238410714 0  34.52453541522888 14.99829012539943 0  39.52453521387305 14.99835659167849 0  44.52453492920601 14.99842327071404 0  49.52453453967755 14.99849019437337 0  54.52453401962113 14.99855739620377 0  59.52453333858006 14.99862491203224 0  64.52453246050695 14.99869278055372 0  69.52453134281994 14.99876104391333 0  74.52452993531249 14.99882974828169 0  79.52452817892862 14.99889894440464 0  84.52452600445903 14.9989686880734 0  89.52452333128137 14.99903904039287 0  94.52452006640672 14.99911006759309 0  99.52451610433751 14.99918183987705 0  104.5245113286661 14.99925442832674 0  109.5245056170621 14.99932789801723 0  114.5244988524534 14.99940229390942 0  119.5244909449481 14.9994776133062 0  124.5244818713742 14.99955375394713 0  129.5244717416507 14.99963041941701 0  134.5244609012721 14.99970695356547 0  139.5244500705128 14.99978206739195 0  144.5244404873909 14.99985343399092 0  149.524433927328 14.99991721938954 0  164.5244449741875 15.00000167910823 0  159.5244393043664 14.99997295545437 0  169.5244503978987 15.00003755570412 0  174.5244561243973 15.00008008160277 0  179.524462126937 15.00012803951054 0  184.5244682162104 15.00018022551993 0  189.5244741967587 15.00023563735269 0  194.5244799166829 15.00029349079164 0  199.5244852749931 15.00035318719932 0  204.5244902142135 15.00041427333355 0  209.5244947095974 15.00047640604019 0  214.5244987591893 15.00053932441357 0  219.5245023759411 15.00060282880131 0  224.5245055819132 15.00066676525504 0  229.5245084042122 15.00073101407201 0  234.5245108722509 15.00079548133524 0  239.5245130159655 15.00086009263457 0  244.5245148647044 15.00092478837718 0  249.5245164465848 15.00098952026804 0  254.5245177881554 15.00105424866587 0  259.5245189142655 15.00111894061122 0  264.5245198480571 15.00118356838958 0  269.5245206110357 15.00124810854288 0  274.524521223169 15.00131254128119 0  279.5245217030079 15.00137685027643 0  284.5245220678211 15.00144102284136 0  289.5245223337675 15.00150505050482 0  294.5245225162072 15.00156892998057 0  299.5245226303085 15.00163266447794 0  304.5245226922955 15.0016962652112 0  309.5245227219169 15.00175975286952 0  4.524436894943292 22.49789417343672 0  -0.4755631202590148 22.49782840197362 0  9.524436895387954 22.49795994716347 0  14.52443687212817 22.49802575741066 0  19.52443681692676 22.49809163474728 0  24.52443672142169 22.498157607764 0  29.52443657655725 22.49822370409086 0  34.52443637209655 22.49828995104221 0  39.52443609619832 22.49835637611188 0  44.52443573504925 22.49842300741048 0  49.52443527254108 22.49848987407091 0  54.52443468998054 22.49855700662062 0  59.5244339658325 22.49862443730863 0  64.52443307551029 22.49869220036624 0  69.52443199124875 22.49876033216634 0  74.52443068212766 22.49882887122368 0  79.52442911435858 22.49889785793732 0  84.52442725201546 22.49896733390884 0  89.52442505849412 22.49903734055685 0  94.52442249913197 22.49910791656337 0  99.52441954562688 22.49917909338711 0  104.52441618317 22.49925088760154 0  109.5244124215263 22.49932328807991 0  114.5244083115791 22.49939623497312 0  119.5244039688722 22.49946958599405 0  124.5243996049291 22.49954306398343 0  129.5243955645971 22.4996161791078 0  134.5243923616394 22.49968812231083 0  139.5243906930187 22.49975764131785 0  144.5243913936899 22.49982295366554 0  149.5243952756093 22.49988185786454 0  164.5243993971808 22.49999174304321 0  159.5243997040099 22.49995349657518 0  169.5243990248867 22.50003348315158 0  174.5243990157685 22.50007926679625 0  179.5243995531459 22.50012889435723 0  184.5244006309711 22.50018184578539 0  189.5244021494205 22.50023753094288 0  194.5244039796004 22.50029540193346 0  199.5244059976071 22.50035499157879 0  204.5244080988965 22.50041591795187 0  209.524410201962 22.50047787550264 0  214.5244122469465 22.50054062235098 0  219.5244141922957 22.50060396779686 0  224.524416011022 22.50066776149377 0  229.5244176872679 22.5007318845877 0  234.5244192134234 22.50079624267175 0  239.5244205878258 22.50086076026751 0  244.5244218129848 22.50092537653454 0  249.5244228942376 22.50099004194968 0  254.5244238387529 22.50105471574733 0  259.5244246547924 22.50111936396114 0  264.5244253511744 22.50118395794659 0  269.5244259368871 22.50124847329648 0  274.5244264208221 22.50131288908364 0  279.524426811614 22.50137718737783 0  284.5244271176046 22.50144135298331 0  289.5244273469696 22.50150537332449 0  294.5244275081056 22.50156923835998 0  299.5244276104131 
[...]
<PointData  Vectors="v"> 
<DataArray  type="Float64"  Name="v"  NumberOfComponents="3" format="ascii">-4.3396709663670103e+00 -3.1238580046346605e+00 0.0000000000000000e+00  -4.5385981912136932e+00 -2.5931784206729365e+00 0.0000000000000000e+00  -3.8409379870330369e+00 -2.2949484547696350e+00 0.0000000000000000e+00  -3.6822577561725236e+00 -2.8852692426733890e+00 0.0000000000000000e+00  -4.7230951801887358e+00 -2.4376952155059284e+00 0.0000000000000000e+00  -4.0395393843674654e+00 -2.1611353658485157e+00 0.0000000000000000e+00  -4.8016895116682630e+00 -2.3371796777731748e+00 0.0000000000000000e+00  -4.2235706972555072e+00 -2.2197429711518253e+00 0.0000000000000000e+00  -4.7795664502787689e+00 -1.8190389247435341e+00 0.0000000000000000e+00  -4.3014594694252839e+00 -1.8526084644551117e+00 0.0000000000000000e+00  -4.7946867804898980e+00 -1.5179227471293946e+00 0.0000000000000000e+00  -4.2784761578585435e+00 -1.4955590647090125e+00 0.0000000000000000e+00  -4.7322229712504411e+00 -9.8090509423477357e-01 0.0000000000000000e+00  -4.2929838305990762e+00 -1.0749738648918892e+00 0.0000000000000000e+00  -4.6089589465371583e+00 -3.9635183103867300e-01 0.0000000000000000e+00  -4.2299265587753565e+00 -5.8119419717125764e-01 0.0000000000000000e+00  -4.7793444449344227e+00 -2.1039216199636562e-01 0.0000000000000000e+00  -4.1062900060726122e+00 4.5513123778551497e-02 0.0000000000000000e+00  -4.7549300673038193e+00 2.5200306293763641e-01 0.0000000000000000e+00  -4.2768879137686389e+00 2.1589243011577972e-01 0.0000000000000000e+00  -7.2546957476959841e+00 -3.0163311917456834e+00 0.0000000000000000e+00  -4.2531312076524879e+00 7.3456759284888473e-01 0.0000000000000000e+00  -8.4315989661604149e+00 -4.2239508076697136e+00 0.0000000000000000e+00  -6.7531176526344758e+00 -2.4575082215977355e+00 0.0000000000000000e+00  -8.7665956969713079e+00 -4.0774667612710802e+00 0.0000000000000000e+00  -7.9312720588525902e+00 -3.5721869700154891e+00 0.0000000000000000e+00  -8.7589207456207809e+00 -3.3579881341666122e+00 0.0000000000000000e+00  -8.2692208746394851e+00 -3.3655538833294365e+00 0.0000000000000000e+00  -8.5506151428409396e+00 -2.3527452788663279e+00 0.0000000000000000e+00  -8.2657098182631970e+00 -2.6596653404835573e+00 0.0000000000000000e+00  -8.2655947729354260e+00 -1.2663196119809761e+00 0.0000000000000000e+00  -8.0636876862045703e+00 -1.6875489434754805e+00 0.0000000000000000e+00  -7.9019669966292723e+00 -1.1338285876850042e-01 0.0000000000000000e+00  -7.7861962041185864e+00 -6.5040017522856330e-01 0.0000000000000000e+00  -7.4483515614358868e+00 1.0288198829062567e+00 0.0000000000000000e+00  -7.4316358793024913e+00 3.5849018507198416e-01 0.0000000000000000e+00  -6.8936657870243092e+00 2.2390936266740664e+00 0.0000000000000000e+00  -6.9899390594311166e+00 1.4186217088293875e+00 0.0000000000000000e+00  -6.2261723080978220e+00 3.4904955432184441e+00 0.0000000000000000e+00  -6.4488256866847440e+00 2.5039283614599555e+00 0.0000000000000000e+00  -5.4469168293391546e+00 4.7995425661259512e+00 0.0000000000000000e+00  -5.7978820486607452e+00 3.6473236115164900e+00 0.0000000000000000e+00  -4.5885226565071919e+00 6.0870631539914672e+00 0.0000000000000000e+00  -5.0382138564325194e+00 4.8193661896628246e+00 0.0000000000000000e+00  -3.6911402330516685e+00 7.4491998818755647e+00 0.0000000000000000e+00  -4.2035877284474994e+00 6.1255064486515716e+00 0.0000000000000000e+00  -2.7988147516614372e+00 8.5069025273874939e+00 0.0000000000000000e+00  -3.3316757465271207e+00 7.1962278116462226e+00 0.0000000000000000e+00  -1.9811547235796940e+00 9.6333988814760936e+00 0.0000000000000000e+00  -2.4730204214490241e+00 8.4344614881598599e+00 0.0000000000000000e+00  -1.2700695084264608e+00 9.9892830673158155e+00 0.0000000000000000e+00  -1.6874648426216625e+00 8.9607658468380240e+00 0.0000000000000000e+00  -7.2447172070962607e-01 1.0379910614875660e+01 0.0000000000000000e+00  -1.0223057023326196e+00 9.5937405619315985e+00 0.0000000000000000e+00  -3.3372145891021726e-01 9.1999180698487919e+00 0.0000000000000000e+00  -5.1498408053669498e-01 8.6649949999069147e+00 0.0000000000000000e+00  -1.2329028033545465e-01 8.1752147079183182e+00 0.0000000000000000e+00  -1.8544974316326734e-01 7.8947145288069960e+00 0.0000000000000000e+00  -2.2037613071979018e-02 3.9802867685006285e+00 0.0000000000000000e+00  -1.8313428184830473e-02 3.8960789500987536e+00 0.0000000000000000e+00  -1.0696357311810226e-05 -7.3884038599982192e-05 0.0000000000000000e+00  -7.4072210761433538e-04 -8.3733982527782881e-04 0.0000000000000000e+00  1.2031291045358792e-12 4.5415328782055893e-19 0.0000000000000000e+00  1.4485437551382505e+00 -7.1385227879943738e+00 0.0000000000000000e+00  -2.7286372295676476e-02 -9.3308008527992321e+00 0.0000000000000000e+00  -7.0761813354279187e-04 6.6112639641932038e-04 0.0000000000000000e+00  -1.9933328960360117e-01 -1.1843319920136549e+01 0.0000000000000000e+00  1.4502533715895687e+00 -9.4159431580884885e+00 0.0000000000000000e+00  -2.0616508514246953e-01 -1.1108501195550492e+01 0.0000000000000000e+00  -1.6216030399650552e-01 -1.1115875813985310e+01 0.0000000000000000e+00  -8.0990984573501057e-01 -1.1016929992905357e+01 0.0000000000000000e+00  -1.3799222850759429e-01 -1.0137858863675479e+01 0.0000000000000000e+00  -9.9480000859248474e-01 -8.8542325798841794e+00 0.0000000000000000e+00  -7.1590542432011683e-01 -8.5963198048104985e+00 0.0000000000000000e+00  -1.2558391303144851e+00 -7.2027065574621068e+00 0.0000000000000000e+00  -8.7795728962973496e-01 -6.8306429787590943e+00 0.0000000000000000e+00  -1.4041160841607407e+00 -5.3704206323962653e+00 0.0000000000000000e+00  -1.1174824150486664e+00 -5.1634989710696191e+00 0.0000000000000000e+00  -1.5666418638713973e+00 -4.0104496331966857e+00 0.0000000000000000e+00  -1.2476566219002259e+00 -3.7823580291629577e+00 0.0000000000000000e+00  -1.6343297269774024e+00 -2.9189487937147720e+00 0.0000000000000000e+00  -1.3937453932094226e+00 -2.8304670516459822e+00 0.0000000000000000e+00  -1.7532602109316318e+00 -2.3198646590403431e+00 0.0000000000000000e+00  -1.4463349789701332e+00 -2.1535051697745722e+00 0.0000000000000000e+00  -1.9006348581273185e+00 -1.9517381692351876e+00 0.0000000000000000e+00  -1.5520136091781054e+00 -1.7417090231663483e+00 0.0000000000000000e+00  -2.0267817592840638e+00 -1.7833560526539163e+00 0.0000000000000000e+00  -1.6874095882906373e+00 -1.6040823276967691e+00 0.0000000000000000e+00  -2.1229549662235150e+00 -1.7123210532482243e+00 0.0000000000000000e+00  -1.8024592646612916e+00 -1.5769445528443722e+00 0.0000000000000000e+00  -2.1917642774042405e+00 -1.6648659441568285e+00 0.0000000000000000e+00  -1.8887792158167316e+00 -1.5700045032518219e+00 0.0000000000000000e+00  -2.2125712267864817e+00 -1.6211810416727845e+00 0.0000000000000000e+00  -1.9486147153191746e+00 -1.5975159252717024e+00 0.0000000000000000e+00  -2.2098394259237479e+00 -1.5842686103874994e+00 0.0000000000000000e+00  -1.9610703830062184e+00 -1.5953012236969892e+00 0.0000000000000000e+00  -2.1933710015687709e+00 -1.5296061098394798e+00 0.0000000000000000e+00  -1.9507447033250940e+00 -1.5608732847999387e+00 0.0000000000000000e+00  -2.1554840211842956e+00 -1.4608292704627781e+00 0.0000000000000000e+00  -1.9272291491606575e+00 -1.5237899831888946e+00 0.0000000000000000e+00  -2.1085571928532558e+00 -1.3922608963574523e+00 0.0000000000000000e+00  -1.8826375456854088e+00 -1.4684193883829029e+00 0.0000000000000000e+00  -2.0630885165687629e+00 -1.2933757244144550e+00 0.0000000000000000e+00  -1.8294336301825258e+00 -1.3671849788377528e+00 0.0000000000000000e+00  -2.0036276893871832e+00 -1.2093685203495648e+00 0.0000000000000000e+00  -1.7779357294511284e+00 -1.3039208643063989e+00 0.0000000000000000e+00  -1.9421598375103968e+00 -1.0659021432501701e+00 0.0000000000000000e+00  -1.7126479142548900e+00 -1.1633598401483782e+00 0.0000000000000000e+00  -1.8716212209388190e+00 -9.7600694161976775e-01 0.0000000000000000e+00  -1.6454480925585375e+00 -1.0869267396877540e+00 0.0000000000000000e+00  -1.7901055518379099e+00 -7.2544112585737741e-01 0.0000000000000000e+00  -1.5694115437245779e+00 -8.5290041886717971e-01 0.0000000000000000e+00  -1.6836244768520230e+00 -6.7495867288529854e-01 0.0000000000000000e+00  -1.4821952789801633e+00 -8.3957870004890978e-01 0.0000000000000000e+00  -1.5520509757539014e+00 -1.8932723827066628e-01 0.0000000000000000e+00  -1.3704519145225331e+00 -3.9201612327981900e-01 0.0000000000000000e+00  -1.3786398218258848e+00 -2.9521685981221663e-01 0.0000000000000000e+00  -1.2329565618833624e+00 -5.5994538596149401e-01 0.0000000000000000e+00  -1.1019080363643126e+00 6.3758364511502108e-01 0.0000000000000000e+00  -1.0547259284513930e+00 2.1667039337044147e-01 0.0000000000000000e+00  -6.3477319966161894e-01 7.9381649616811389e-01 0.0000000000000000e+00  -7.7117746546705535e-01 8.9379333945537653e-02 0.0000000000000000e+00  4.6804837208071726e-01 2.8943581778329647e-01 0.0000000000000000e+00  -3.0132354392614130e-01 -1.3726881321814286e+00 0.0000000000000000e+00  -3.1264244533048946e+00 -2.0577116523197923e+00 0.0000000000000000e+00  -2.9413502343828988e+00 -2.6059873350557909e+00 0.0000000000000000e+00  -3.2836257786007783e+00 -1.8646157455087202e+00 0.0000000000000000e+00  -3.4796644950120115e+00 -1.9454130189611121e+00 0.0000000000000000e+00  -3.6604266970553030e+00 -1.7378954896030314e+00 0.0000000000000000e+00  -3.7344597398731252e+00 -1.5327009142033661e+00 0.0000000000000000e+00  -3.7069852434474817e+00 -1.0558076024706191e+00 0.0000000000000000e+00  -3.7168623803816008e+00 -6.7828623458718862e-01 0.0000000000000000e+00  -3.6494375326847424e+00 -1.4267441288876512e-01 0.0000000000000000e+00  -3.5216482677626981e+00 4.7007677991570196e-01 0.0000000000000000e+00  -3.6896988264913464e+00 6.9849529045848469e-01 0.0000000000000000e+00  -3.6639361698961750e+00 1.2887431500264714e+00 0.0000000000000000e+00  -6.1565435347121280e+00 -1.8096361428750827e+00 0.0000000000000000e+00  -7.3281955871360953e+00 -2.8593217272802720e+00 0.0000000000000000e+00  -7.6649210652387509e+00 -2.6653880528297966e+00 0.0000000000000000e+00  -7.6621293742577246e+00 -1.9879654597082035e+00 0.0000000000000000e+00  -7.4642287777375032e+00 -1.0631440409847108e+00 0.0000000000000000e+00  -7.1929625508009982e+00 -1.6929143002361463e-01 0.0000000000000000e+00  -6.8463863839526011e+00 7.6276218112777883e-01 0.0000000000000000e+00  -6.4159741520599418e+00 1.7007972127074924e+00 0.0000000000000000e+00  -5.8895739783840284e+00 2.6801280159138439e+00 0.0000000000000000e+00  -5.2562586300960046e+00 3.6940106780016899e+00 0.0000000000000000e+00  -4.5203079478499602e+00 4.8893608516974663e+00 0.0000000000000000e+00  -3.7144409914437024e+00 5.9090424597917046e+00 0.0000000000000000e+00  -2.8785663397161665e+00 7.1697987627318955e+00 0.0000000000000000e+00  -2.0629407042812860e+00 7.8160161609466332e+00 0.0000000000000000e+00  -1.3326933910328909e+00 8.6250212818667347e+00 0.0000000000000000e+00  -7.2674904258592543e-01 7.9585236261045544e+00 0.0000000000000000e+00  -3.0245931483235655e-01 7.4305727647678887e+00 0.0000000000000000e+00  -4.8363109726786403e-02 3.7335622191453761e+00 0.0000000000000000e+00  -2.4887808330933108e-03 -1.5921696764942361e-03 0.0000000000000000e+00  -5.5057208207243871e-02 -9.1734218687633291e+00 0.0000000000000000e+00  -2.4476053629638459e-03 1.2963782244755488e-03 0.0000000000000000e+00  -2.0800930974193352e-01 -1.1643050200239781e+01 0.0000000000000000e+00  1.3188914904401057e+00 -8.7380541698628633e+00 0.0000000000000000e+00  -2.3467198178956181e-01 -1.0200803567674098e+01 0.0000000000000000e+00  -1.6875748062480975e-01 -7.7532318002533556e+00 0.0000000000000000e+00  -7.0971577733815117e-01 -6.6030692885665632e+00 0.0000000000000000e+00  -8.4450447904863646e-01 -4.8222418353194998e+00 0.0000000000000000e+00  -1.0577189671930591e+00 -3.5994725786340309e+00 0.0000000000000000e+00  -1.1672015945084833e+00 -2.6225650210338007e+00 0.0000000000000000e+00  -1.2950108384688681e+00 -2.0851006312170317e+00 0.0000000000000000e+00  -1.3313322558134555e+00 -1.5920471233854063e+00 0.0000000000000000e+00  -1.4227392484236394e+00 -1.4084302134551832e+00 0.0000000000000000e+00  -1.5457800957067493e+00 -1.4117033152387977e+00 0.0000000000000000e+00  -1.6494723945957270e+00 -1.4466011308762923e+00 0.0000000000000000e+00  -1.7260159734654006e+00 -1.5129202051522468e+00 0.0000000000000000e+00  -1.7774259774382493e+00 -1.5814795706740592e+00 0.0000000000000000e+00  -1.7823145649993692e+00 -1.5804869837862252e+00 0.0000000000000000e+00  -1.7653940252011473e+00 -1.5625991756464150e+00 0.0000000000000000e+00  -1.7361023325981226e+00 -1.5386988457068616e+00 0.0000000000000000e+00  -1.6861737470805631e+00 -1.4500162908410898e+00 0.0000000000000000e+00  -1.6280968856589761e+00 -1.3839033347660403e+00 0.0000000000000000e+00  -1.5720759118274144e+00 -1.2640598516096517e+00 0.0000000000000000e+00  -1.5023530931235038e+00 -1.1903072528895751e+00 0.0000000000000000e+00  -1.4308652096472294e+00 -9.6959196780945234e-01 0.0000000000000000e+00  -1.3505142504722514e+00 -9.7291565713984751e-01 0.0000000000000000e+00  -1.2590191200490453e+00 -5.6249014065237701e-01 0.0000000000000000e+00  -1.1427650070619930e+00 -7.6845857021469366e-01 0.0000000000000000e+00  -1.0010561448115438e+00 -5.4023097259528828e-02 0.0000000000000000e+00  -8.1804115009400724e-01 -3.3764626757108146e-01 0.0000000000000000e+00  -5.3043039733286745e-01 -2.0811494190626827e+00 0.0000000000000000e+00  -2.2582691558904506e+00 -1.7818429603248236e+00 0.0000000000000000e+00  -2.0856520712077447e+00 -2.3445318400966491e+00 0.0000000000000000e+00  -2.4403847706785329e+00 -1.6320821614529393e+00 0.0000000000000000e+00  -2.5921224263997584e+00 -1.6555090043138059e+00 0.0000000000000000e+00  -2.7815455877018120e+00 -1.4722799421389572e+00 0.0000000000000000e+00  -2.9537004168935570e+00 -1.4282251632609675e+00 0.0000000000000000e+00  -3.0175463217788643e+00 -1.1042150204964165e+00 0.0000000000000000e+00  -2.9790813942028631e+00 -6.7139020089724744e-01 0.0000000000000000e+00  -2.9771803022079308e+00 -2.5153097953410780e-01 0.0000000000000000e+00  -2.8982917890604920e+00 2.7181924626823839e-01 0.0000000000000000e+00  -2.7611860048837005e+00 9.4585274893735649e-01 0.0000000000000000e+00  -2.9227039631266050e+00 1.2454975421459247e+00 0.0000000000000000e+00  -2.8863190002244439e+00 1.9164622055286573e+00 0.0000000000000000e+00  -5.3571963988962965e+00 -1.1163945500528449e+00 0.0000000000000000e+00  -6.5094129596453323e+00 -2.1658201057970508e+00 0.0000000000000000e+00  -6.8368629690897000e+00 -1.9941718520256937e+00 0.0000000000000000e+00  -6.8305393578094131e+00 -1.3587867154386761e+00 0.0000000000000000e+00  -6.6329604487750373e+00 -5.7223195406707994e-01 0.0000000000000000e+00  -6.3648711184239826e+00 2.4942205184546454e-01 0.0000000000000000e+00  -6.0253202690320480e+00 1.0641111571009401e+00 0.0000000000000000e+00  -5.6051976748530263e+00 1.9032961881975763e+00 0.0000000000000000e+00  -5.0934850497174695e+00 2.7620255658552688e+00 0.0000000000000000e+00  -4.4825289475513648e+00 3.8074541183902713e+00 0.0000000000000000e+00  -3.7757262774162150e+00 4.7328532026937697e+00 0.0000000000000000e+00  -3.0115995159659321e+00 5.9533534071727345e+00 0.0000000000000000e+00  -2.2281722026379409e+00 6.6477418071265761e+00 0.0000000000000000e+00  -1.4860826040653925e+00 7.5866057727864620e+00 0.0000000000000000e+00  -8.4096847419553522e-01 7.1435447773737728e+00 0.0000000000000000e+00  -3.5763766144931125e-01 6.8655270519439648e+00 0.0000000000000000e+00  -5.5373122723974169e-02 3.5156054365430878e+00 0.0000000000000000e+00  -5.2170332191092917e-03 -2.2756824278646090e-03 0.0000000000000000e+00  -6.4344246828894169e-02 -8.9279833216735689e+00 0.0000000000000000e+00  -5.1801305804096472e-03 1.8527845718474835e-03 0.0000000000000000e+00  -3.4697143049812568e-01 -1.1368768907353235e+01 0.0000000000000000e+00  -5.0414018829867147e-01 -1.1092179759011936e+01 0.0000000000000000e+00  1.1108018635451335e+00 -7.9449044777126083e+00 0.0000000000000000e+00  -3.4894420016437461e-01 -7.9006552864527286e+00 0.0000000000000000e+00  -2.1754993419033636e-01 -5.8365731640530392e+00 0.0000000000000000e+00  -7.0596317475331472e-01 -4.6505557390890715e+00 0.0000000000000000e+00  -8.0009434083687314e-01 -3.3084680929965513e+00 0.0000000000000000e+00  -9.7808516272002866e-01 -2.4812854000917186e+00 0.0000000000000000e+00  -1.0593055356874981e+00 -1.9135254912402502e+00 0.0000000000000000e+00  -1.1619002916915342e+00 -1.5547501795582439e+00 0.0000000000000000e+00  -1.1766503614202422e+00 -1.2869297576020935e+00 0.0000000000000000e+00  -1.2490722421291729e+00 -1.2405974388903742e+00 0.0000000000000000e+00  -1.3551111021801125e+00 -1.3031087989062062e+00 0.0000000000000000e+00  -1.4438784602545740e+00 -1.4086068613959581e+00 0.0000000000000000e+00  -1.5077522000575658e+00 -1.5132686797925479e+00 0.0000000000000000e+00  -1.5482687931621459e+00 -1.5807873575841542e+00 0.0000000000000000e+00  -1.5439601276415964e+00 -1.5946356859396993e+00 0.0000000000000000e+00  -1.5192832077883571e+00 -1.5883153383862181e+00 0.0000000000000000e+00  -1.4832709771290848e+00 -1.5299793718596846e+00 0.0000000000000000e+00  -1.4274126248616714e+00 -1.4756433340547355e+00 0.0000000000000000e+00  -1.3640152999016399e+00 -1.3524189380144183e+00 0.0000000000000000e+00  -1.3029138283468753e+00 -1.2990210602280086e+00 0.0000000000000000e+00  -1.2282871366514141e+00 -1.0810761786540215e+00 0.0000000000000000e+00  -1.1517819191667138e+00 -1.0975125087269593e+00 0.0000000000000000e+00  -1.0664451946190201e+00 -7.0430184533930518e-01 0.0000000000000000e+00  -9.6948343474700560e-01 -9.4685555977163760e-01 0.0000000000000000e+00  -8.4818229299071757e-01 -2.7181809461102774e-01 0.0000000000000000e+00  -7.0029726355102184e-01 -6.1550626006802389e-01 0.0000000000000000e+00  -5.1334909835948883e-01 -2.5182710588864876e+00 0.0000000000000000e+00  -1.6217690189705753e+00 -1.5253246786525612e+00 0.0000000000000000e+00  -1.4524682740557351e+00 -2.0871181577495088e+00 0.0000000000000000e+00  -1.7904734756775049e+00 -1.3634398505677072e+00 0.0000000000000000e+00  -1.9651531232446209e+00 -1.4343313361670729e+00 0.0000000000000000e+00  -2.1072551734241194e+00 -1.1962668149815345e+00 0.0000000000000000e+00  -2.2843293222461662e+00 -1.1798823671738152e+00 0.0000000000000000e+00  -2.4417485952919962e+00 -1.0202753910611475e+00 0.0000000000000000e+00  -2.4883867081493554e+00 -7.4204039591113802e-01 0.0000000000000000e+00  -2.4310434789592894e+00 -2.6791314126115473e-01 0.0000000000000000e+00  -2.4100131352477683e+00 1.4034647025313937e-01 0.0000000000000000e+00  -2.3136518707249052e+00 7.2995226126812740e-01 0.0000000000000000e+00  -2.1622470156366353e+00 1.4790451859218861e+00 0.0000000000000000e+00  -2.3109152504061363e+00 1.8482588538389644e+00 0.0000000000000000e+00  -2.2506421507167409e+00 2.5631387898330331e+00 0.0000000000000000e+00  -4.6808246763823957e+00 -4.6465544145604737e-01 0.0000000000000000e+00  -5.7985413438127376e+00 -1.5178428448589956e+00 0.0000000000000000e+00  -6.1060863535506824e+00 -1.3780810109883599e+00 0.0000000000000000e+00  -6.0864869507535078e+00 -8.7411865807745548e-01 0.0000000000000000e+00  -5.8810493398251102e+00 -1.5735784931704572e-01 0.0000000000000000e+00  -5.6066298869278315e+00 5.5285883411812786e-01 0.0000000000000000e+00  -5.2631694778750422e+00 1.2726625225163264e+00 0.0000000000000000e+00  -4.8424214002505739e+00 1.9973900880613606e+00 0.0000000000000000e+00  -4.3348933389174329e+00 2.8982246389377888e+00 0.0000000000000000e+00  -3.7344742115441849e+00 3.6892444962114967e+00 0.0000000000000000e+00  -3.0516789068694976e+00 4.8290343565147138e+00 0.0000000000000000e+00  -2.3230204375974166e+00 5.5159616624328214e+00 0.0000000000000000e+00  -1.6012757475030972e+00 6.5205249437865991e+00 0.0000000000000000e+00  -9.3732195814498931e-01 6.2678906773161893e+00 0.0000000000000000e+00  -4.1975808204747533e-01 6.2146252921857688e+00 0.0000000000000000e+00  -7.2963760664958924e-02 3.2491150125350061e+0