<?xml version="1.0"?>
<VTKFile type="UnstructuredGrid"  version="0.1"  >
<UnstructuredGrid>
<Piece  NumberOfPoints="1933" NumberOfCells="3640">
<Points>
<DataArray  type="Float64"  NumberOfComponents="3"  format="ascii">-0.4754204070717666 -0.001384115320847177 0  4.524579642968504 -0.001359984116290057 0  4.524543456048423 7.498640147211901 0  -0.4754566216589194 7.498615969619351 0  9.524579720071827 -0.001335959640410978 0  9.524543589329525 7.498664184094205 0  14.52457988111914 -0.001312062055158991 0  14.52454380393088 7.498688082370744 0  19.52458018088391 -0.00128826959658398 0  19.52454412317113 7.498711872005807 0  24.52458066594926 -0.001264537146839557 0  24.52454456814434 7.498735601256159 0  29.52458137427472 -0.001240805650651077 0  29.52454515704326 7.498759330334464 0  34.52458233652135 -0.001217006792028938 0  34.5245459046612 7.498783127914448 0  39.52458357769988 -0.001193064972605799 0  39.52454682212876 7.498807069636808 0  44.52458511863585 -0.001168897637241655 0  44.52454791674634 7.498831237985439 0  49.52458697709817 -0.001144414493036834 0  49.52454919175848 7.498855723148609 0  54.5245891685634 -0.001119515886089624 0  54.52455064594513 7.498880624666511 0  59.52459170661312 -0.001094090424418182 0  59.52455227291401 7.498906053802676 0  64.52459460295245 -0.001068011810001766 0  64.52455405996831 7.498932136682973 0  69.52459786699082 -0.001041134735198612 0  69.52455598639824 7.49895901834061 0  74.52460150486981 -0.001013289585356727 0  74.52455802098453 7.498986867904438 0  79.52460551771523 -0.0009842755484660093 0  79.5245601184144 7.49901588528602 0  84.52460989873285 -0.0009538515388506656 0  84.52456221419135 7.499046309871407 0  89.52461462848463 -0.0009217240607502057 0  89.52456421743449 7.499078431920919 0  94.52461966721016 -0.0008875307196626207 0  94.52456600073691 7.499112607632913 0  99.52462494218963 -0.0008508174630920721 0  99.52456738598292 7.499149279126074 0  104.5246303265997 -0.0008110067008050275 0  104.5245681247616 7.499189000882144 0  109.5246356034197 -0.0007673521046459304 0  109.5245678720066 7.499232474272835 0  114.5246404025955 -0.0007188740479785335 0  114.5245661522459 7.499280591172157 0  119.5246440895423 -0.0006642674893415768 0  119.5245623206865 7.499334485103589 0  124.524645563931 -0.0006017726974774878 0  124.5245555293211 7.499395581106647 0  129.5246428912827 -0.0005290025244097385 0  129.5245447280134 7.499465617509827 0  134.5246326203005 -0.000442741610897101 0  134.5245287768055 7.499546572279234 0  139.5246085039336 -0.0003388220587422568 0  139.5245068507107 7.499640346249605 0  144.5245590679245 -0.0002125340741797185 0  144.524479556981 7.499747944779825 0  149.5244628324625 -6.154976472121194e-05 0  149.5244517633826 7.499868044226328 0  159.5244717418527 9.26321781975821e-19 0  164.5244015670807 -0.000132594496123522 0  164.5244611355955 7.499842555368225 0  159.5244757645162 7.499942177340225 0  169.5243765665099 -0.000227520346356976 0  169.5244459794103 7.499760184948328 0  174.524373215914 -0.000295921288026876 0  174.5244357652586 7.499697562960612 0  179.5243801068239 -0.0003446440039485267 0  179.5244306946426 7.499651784768529 0  184.5243915232196 -0.0003785810955747452 0  184.5244296649996 7.499619426575387 0  189.5244045726866 -0.000401320445604799 0  189.524431458656 7.499597559887965 0  194.5244177998215 -0.0004154985600311885 0  194.5244350698832 7.499583875584846 0  199.5244304902725 -0.0004230594321994588 0  199.5244397515135 7.499576600352389 0  204.5244423144323 -0.0004254480118135834 0  204.5244449776316 7.499574380617745 0  209.5244531426428 -0.0004237507826859394 0  209.5244503904076 7.499576179766929 0  214.5244629483589 -0.0004187957817148012 0  214.5244557527738 7.499581197480028 0  219.5244717569493 -0.0004112231384013465 0  219.5244609118817 7.499588809338084 0  224.5244796184552 -0.0004015348593400709 0  224.5244657726126 7.499598522437431 0  229.5244865930759 -0.0003901302162153757 0  229.5244702790031 7.499609942912161 0  234.5244927435098 -0.0003773311822973564 0  234.5244744014634 7.499622752089206 0  239.52449813104 -0.0003634009612457779 0  239.5244781280769 7.499636688844833 0  244.5245028137076 -0.000348557675795779 0  244.5244814587408 7.499651536419295 0  249.5245068456705 -0.0003329846192124868 0  249.5244844012613 7.499667112459358 0  254.5245102772676 -0.0003168380225467393 0  254.5244869688078 7.499683261429176 0  259.5245131555239 -0.0003002529831629369 0  259.5244891783046 7.499699848794576 0  264.5245155249798 -0.0002833479833673715 0  264.5244910494856 7.499716756578601 0  269.5245174287688 -0.0002662282653744094 0  269.5244926044135 7.499733880033493 0  274.5245189099492 -0.0002489881922303635 0  274.5244938673138 7.499751125296735 0  279.5245200130828 -0.0002317125884267364 0  279.5244948646078 7.499768408014467 0  284.5245207860571 -0.0002144768914403212 0  284.5244956250325 7.499785653040238 0  289.524521282054 -0.0001973457200850567 0  289.5244961797166 7.499802795463879 0  294.5245215614144 -0.0001803691268635029 0  294.524496562128 7.499819783403127 0  299.5245216926504 -0.0001635752857626362 0  299.5244968078456 7.499836583194725 0  304.5245217509178 -0.000146957654468996 0  304.5244969545021 7.499853187827417 0  309.5245218099709 -0.0001304541366405989 0  309.5244970432413 7.499869629734341 0  4.524506978370492 14.99864043150349 0  -0.4754931017761647 14.99861617406746 0  9.524507097727623 14.99866447644769 0  14.52450727515893 14.99868835622346 0  19.5245075210275 14.9987121205271 0  24.52450784176213 14.99873582551471 0  29.52450824125702 14.9987595339916 0  34.52450872095143 14.99878331491733 0  39.52450927940154 14.9988072432507 0  44.52450991164502 14.99883140038735 0  49.52451060843059 14.99885587521065 0  54.52451135528892 14.99888076573725 0  59.52451213137954 14.9989061813656 0  64.52451290803091 14.99893224578129 0  69.52451364687482 14.99895910062399 0  74.52451429747441 14.9989869100757 0  79.52451479434131 14.99901586658266 0  84.52451505326725 14.99904619796859 0  89.52451496696864 14.9990781762167 0  94.5245144002343 14.99911212814458 0  99.52451318514153 14.99914844797786 0  104.5245111176969 14.99918761124577 0  109.5245079586793 14.99923018809122 0  114.524503444061 14.99927685126495 0  119.5244973147334 14.99932836838194 0  124.5244893821169 14.99938555701055 0  129.5244796556839 14.99944916072403 0  134.5244685680327 14.99951956795364 0  139.524457332238 14.99959623368947 0  144.5244484201245 14.99967655605396 0  149.5244459524078 14.99975370041654 0  164.5244763586333 14.99977376662858 0  159.5244749271038 14.9998271516213 0  169.5244710617687 14.99972090448393 0  174.5244636833963 14.99967531397834 0  179.5244568545039 14.99963915976624 0  184.5244516240144 14.99961224181492 0  189.5244481939347 14.99959347373849 0  194.5244463880452 14.9995815726342 0  199.5244458995865 14.99957533510023 0  204.5244464086067 14.99957372560292 0  209.5244476304894 14.99957588659635 0  214.5244493307295 14.9995811197754 0  219.5244513245083 14.99958885966635 0  224.5244534703858 14.99959864798103 0  229.5244556624976 14.99961011155284 0  234.5244578231783 14.99962294433897 0  239.5244598966727 14.99963689310338 0  244.5244618440674 14.9996517461535 0  249.5244636393392 14.99966732451466 0  254.5244652663302 14.99968347501937 0  259.5244667164714 14.99970006490411 0  264.5244679870708 14.99971697760952 0  269.5244690800367 14.99973410957438 0  274.5244700009101 14.99975136789145 0  279.5244707581131 14.99976866876212 0  284.5244713623786 14.99978593674015 0  289.5244718263279 14.99980310478313 0  294.5244721643542 14.99982011509572 0  299.5244723930863 14.99983692057596 0  304.5244725331493 14.99985348617652 0  309.5244726134964 14.99986978824803 0  4.524470284879307 22.4986409635879 0  -0.4755297913330895 22.49861667918772 0  9.524470377371358 22.49866498157675 0  14.52447049580846 22.49868881054494 0  19.52447064298201 22.49871251776781 0  24.52447081731847 22.49873616789162 0  29.5244710142902 22.49875982676037 0  34.52447122685533 22.49878356336631 0  39.52447144528947 22.49880745108104 0  44.52447165667298 22.49883156876843 0  49.52447184418064 22.49885600206559 0  54.5244719862361 22.49888084496693 0  59.52447205555519 22.49890620178382 0  64.52447201808637 22.49893218953357 0  69.52447183186896 22.49895894080386 0  74.52447144586517 22.4989866071319 0  79.52447079889072 22.49901536290709 0  84.52446981888575 22.49904540973646 0  89.5244684229673 22.49907698105911 0  94.52446651901967 22.49911034649852 0  99.52446401006722 22.49914581488353 0  104.5244608034024 22.49918373386924 0  109.5244568274527 22.49922448234448 0  114.5244520606277 22.4992684488857 0  119.5244465776105 22.49931598481608 0  124.5244406189146 22.49936731336377 0  129.524434686941 22.49942236696785 0  134.5244296619485 22.49948051520989 0  139.5244269062479 22.49954014529746 0  144.5244282721461 22.49959809460443 0  149.5244358376089 22.4996491052025 0  164.5244685445641 22.49969590280162 0  159.5244609947103 22.49971878228243 0  169.5244698385147 22.49966798649752 0  174.5244671528704 22.49964054327389 0  179.5244625583248 22.49961673417637 0  184.5244574936415 22.49959793438498 0  189.5244527876809 22.49958441944568 0  194.5244488321368 22.4995758953166 0  199.5244457487842 22.49957182554719 0  204.5244435107587 22.49957160903519 0  209.5244420198671 22.49957466665798 0  214.5244411518658 22.49958047750021 0  219.5244407809842 22.49958858916192 0  224.524440791914 22.49959861577679 0  229.5244410846446 22.49961023093282 0  234.5244415754606 22.49962315909198 0  239.524442196031 22.49963716718708 0  244.5244428916887 22.49965205708522 0  249.524443619472 22.49966765912478 0  254.5244443462321 22.49968382671167 0  259.524445046911 22.49970043187564 0  264.5244457030502 22.49971736166459 0  269.5244463015109 22.49973451526188 0  274.5244468333988 22.4997518017262 0  279.5244472931828 22.49976913826212 0  284.5244476780248 22.49978644891584 0  289.5244479873855 22.49980366353474 0  294.524448223
[...]
<PointData  Vectors="v"> 
<DataArray  type="Float64"  Name="v"  NumberOfComponents="3" format="ascii">-3.3625383625674954e+00 -6.6673857252817692e+00 0.0000000000000000e+00  -3.8298471860248950e+00 -6.0340603320957173e+00 0.0000000000000000e+00  -3.3182560573562343e+00 -5.3333569679856510e+00 0.0000000000000000e+00  -2.9543482916304433e+00 -6.1213345402818060e+00 0.0000000000000000e+00  -4.3724994646554753e+00 -6.2947850251169823e+00 0.0000000000000000e+00  -3.7851108187769702e+00 -5.4815390280647529e+00 0.0000000000000000e+00  -4.8048239017309751e+00 -6.8643625101938746e+00 0.0000000000000000e+00  -4.3267132740405909e+00 -6.2171308377284324e+00 0.0000000000000000e+00  -5.1270022742044015e+00 -6.7364574120493570e+00 0.0000000000000000e+00  -4.7573638091949384e+00 -6.2548568262332163e+00 0.0000000000000000e+00  -5.5571254312508191e+00 -7.0901639983782792e+00 0.0000000000000000e+00  -5.0772977201180316e+00 -6.4470514209351615e+00 0.0000000000000000e+00  -5.8515966319594117e+00 -6.9768011036981363e+00 0.0000000000000000e+00  -5.5047503006473928e+00 -6.5375732385197320e+00 0.0000000000000000e+00  -5.8243116772560537e+00 -6.4530376420177733e+00 0.0000000000000000e+00  -5.7960583653329598e+00 -6.4966452796352447e+00 0.0000000000000000e+00  -6.5994336779108185e+00 -7.0153116907588986e+00 0.0000000000000000e+00  -5.7652798517189447e+00 -5.8556043370531698e+00 0.0000000000000000e+00  -4.6647346525622302e+00 -3.5380633715472749e+00 0.0000000000000000e+00  -6.5366901496583365e+00 -6.4432617672038397e+00 0.0000000000000000e+00  -1.3083655916041385e+01 -1.5375640535097840e+01 0.0000000000000000e+00  -4.5980961268575635e+00 -2.7506663532257063e+00 0.0000000000000000e+00  -1.3613407913422206e+01 -1.5025463391773512e+01 0.0000000000000000e+00  -1.3012542195320844e+01 -1.4234620376234892e+01 0.0000000000000000e+00  -1.3868149631385227e+01 -1.4119302988395489e+01 0.0000000000000000e+00  -1.3537792937089781e+01 -1.3740533472509625e+01 0.0000000000000000e+00  -1.4191646352256436e+01 -1.3262367683467829e+01 0.0000000000000000e+00  -1.3788285738670517e+01 -1.2780574818104633e+01 0.0000000000000000e+00  -1.4643962354216235e+01 -1.2620710843039438e+01 0.0000000000000000e+00  -1.4107437490856448e+01 -1.1945553457643650e+01 0.0000000000000000e+00  -1.5240477905783180e+01 -1.2191217746812146e+01 0.0000000000000000e+00  -1.4555577420409449e+01 -1.1299940685446410e+01 0.0000000000000000e+00  -1.5922146580337120e+01 -1.1854973271758704e+01 0.0000000000000000e+00  -1.5147772887727205e+01 -1.0835544608316075e+01 0.0000000000000000e+00  -1.6625949068910810e+01 -1.1697271322017368e+01 0.0000000000000000e+00  -1.5825252290127272e+01 -1.0644391358786068e+01 0.0000000000000000e+00  -1.7289123371460747e+01 -1.1406093963383455e+01 0.0000000000000000e+00  -1.6525477737946503e+01 -1.0413759117704615e+01 0.0000000000000000e+00  -1.7857001225059076e+01 -1.1018818518318900e+01 0.0000000000000000e+00  -1.7185388248902537e+01 -1.0168379117792805e+01 0.0000000000000000e+00  -1.8290937277686520e+01 -1.0424767938344567e+01 0.0000000000000000e+00  -1.7751017856653220e+01 -9.7744980355263600e+00 0.0000000000000000e+00  -1.8576835913057884e+01 -9.6508267988275076e+00 0.0000000000000000e+00  -1.8183811625324577e+01 -9.2211979843126777e+00 0.0000000000000000e+00  -1.8717411981454401e+01 -8.3581724085003053e+00 0.0000000000000000e+00  -1.8470272698852185e+01 -8.1452812368715044e+00 0.0000000000000000e+00  -1.8731468616539242e+01 -7.2599228047894258e+00 0.0000000000000000e+00  -1.8612476439058554e+01 -7.2343762875386695e+00 0.0000000000000000e+00  -1.8658513652289258e+01 -5.2354770344058563e+00 0.0000000000000000e+00  -1.8631724111117066e+01 -5.3398785361969967e+00 0.0000000000000000e+00  -1.8531866551774264e+01 -3.9830111794843499e+00 0.0000000000000000e+00  -1.8564090625849360e+01 -4.1632743309812383e+00 0.0000000000000000e+00  -1.8399524471030023e+01 -1.4648965770849103e+00 0.0000000000000000e+00  -1.8448949024130478e+01 -1.6550949795265695e+00 0.0000000000000000e+00  -1.8282142572610411e+01 -5.4956277672082132e-01 0.0000000000000000e+00  -1.8326229204258713e+01 -7.0910775840650153e-01 0.0000000000000000e+00  -1.8210802172325955e+01 1.8393189272269388e+00 0.0000000000000000e+00  -1.8228519948817368e+01 1.7437215615950519e+00 0.0000000000000000e+00  -1.8172580022032925e+01 1.6990283484152437e+00 0.0000000000000000e+00  -1.8171281338306507e+01 1.6668017220639186e+00 0.0000000000000000e+00  -1.8163571103330465e+01 -5.4631108638664490e-05 0.0000000000000000e+00  -1.8164444432924192e+01 -9.6814095011300459e-04 0.0000000000000000e+00  -1.8163563200203537e+01 4.6204041241486477e-19 0.0000000000000000e+00  -1.1541789085007522e+01 -4.4170491738692655e-02 0.0000000000000000e+00  -1.8177126529372675e+01 -9.9730358259568046e+00 0.0000000000000000e+00  -1.8164414098381137e+01 8.2215356433115966e-04 0.0000000000000000e+00  -1.2946168578434852e+01 9.4403539988613483e-01 0.0000000000000000e+00  -1.1557874324018828e+01 3.0478639328488111e+00 0.0000000000000000e+00  -1.1085142514238647e+01 5.9980273430808708e+00 0.0000000000000000e+00  -1.2963570649017177e+01 3.2146013707081083e+00 0.0000000000000000e+00  -1.0977576462223011e+01 6.9742243270995141e+00 0.0000000000000000e+00  -1.1107054733581496e+01 6.8179814260117011e+00 0.0000000000000000e+00  -1.0053653453807437e+01 1.0028508739880055e+01 0.0000000000000000e+00  -1.1006725829006246e+01 8.6510383421470429e+00 0.0000000000000000e+00  -9.4660686174034190e+00 1.1182336579074146e+01 0.0000000000000000e+00  -1.0091573933144689e+01 1.0309770246970022e+01 0.0000000000000000e+00  -8.7574483230947333e+00 1.2364489879903322e+01 0.0000000000000000e+00  -9.5137354705380108e+00 1.1312062878610837e+01 0.0000000000000000e+00  -8.1682524187743120e+00 1.2554925437153754e+01 0.0000000000000000e+00  -8.8164761760361738e+00 1.1681813784787538e+01 0.0000000000000000e+00  -7.3893018153989098e+00 1.2507552154743161e+01 0.0000000000000000e+00  -8.2394334290784954e+00 1.1351016268369388e+01 0.0000000000000000e+00  -6.8721738763830178e+00 1.1739644404232953e+01 0.0000000000000000e+00  -7.4733470473158574e+00 1.0976322458515329e+01 0.0000000000000000e+00  -6.4793113647485718e+00 1.0819990393269959e+01 0.0000000000000000e+00  -6.9699330438300375e+00 1.0243554462390078e+01 0.0000000000000000e+00  -6.0309025173618664e+00 9.8771846403748391e+00 0.0000000000000000e+00  -6.5913406583771703e+00 9.2179342298954499e+00 0.0000000000000000e+00  -5.5918064228643880e+00 8.9322281874926475e+00 0.0000000000000000e+00  -6.1576198215771090e+00 8.2873692329099651e+00 0.0000000000000000e+00  -5.1660242560293046e+00 8.0862557721025894e+00 0.0000000000000000e+00  -5.7337232549129347e+00 7.4615791829724829e+00 0.0000000000000000e+00  -4.7182203531091629e+00 7.3122702763421321e+00 0.0000000000000000e+00  -5.3234580432640319e+00 6.6548472705450310e+00 0.0000000000000000e+00  -4.2974135411043139e+00 6.5679582275216832e+00 0.0000000000000000e+00  -4.8913666627515662e+00 5.9512026263595716e+00 0.0000000000000000e+00  -3.9144766010096306e+00 5.8979685020852681e+00 0.0000000000000000e+00  -4.4864996087296332e+00 5.3380712101880103e+00 0.0000000000000000e+00  -3.5414953157609901e+00 5.2674264822785970e+00 0.0000000000000000e+00  -4.1195868460659266e+00 4.7225507899801915e+00 0.0000000000000000e+00  -3.2017696324570473e+00 4.6527650171295303e+00 0.0000000000000000e+00  -3.7626675005092478e+00 4.1577614324453647e+00 0.0000000000000000e+00  -2.9073685933350886e+00 4.0970780721069202e+00 0.0000000000000000e+00  -3.4389798108608254e+00 3.6700463553177487e+00 0.0000000000000000e+00  -2.6264560992311843e+00 3.5281933292913958e+00 0.0000000000000000e+00  -3.1606314209723134e+00 3.1212679284621521e+00 0.0000000000000000e+00  -2.3778268193863807e+00 3.0388221419332271e+00 0.0000000000000000e+00  -2.8955482056033786e+00 2.6803569244518468e+00 0.0000000000000000e+00  -2.1568319312122730e+00 2.5052118684825673e+00 0.0000000000000000e+00  -2.6628404269993795e+00 2.1878577312482932e+00 0.0000000000000000e+00  -1.9503809467797106e+00 2.1561812120775028e+00 0.0000000000000000e+00  -2.4572648695742663e+00 1.8608913633384738e+00 0.0000000000000000e+00  -1.7497975531277785e+00 1.6069387814278080e+00 0.0000000000000000e+00  -2.2666808728167358e+00 1.3196569667654450e+00 0.0000000000000000e+00  -1.5505834343809031e+00 1.5745448776764659e+00 0.0000000000000000e+00  -2.0807384921480816e+00 1.2902854180398768e+00 0.0000000000000000e+00  -1.3345783817087042e+00 9.2152082874591756e-01 0.0000000000000000e+00  -1.8977280353715771e+00 6.1006296496642365e-01 0.0000000000000000e+00  -1.0167439459098890e+00 1.4628639607434017e+00 0.0000000000000000e+00  -1.6948428313306065e+00 1.0016512573184437e+00 0.0000000000000000e+00  -5.0543932026850114e-01 1.2344457174614127e+00 0.0000000000000000e+00  -1.3951707062958232e+00 4.7743424213293867e-01 0.0000000000000000e+00  6.9829686164365168e-01 1.8348699201124791e-01 0.0000000000000000e+00  -8.9115439849128841e-01 -1.6014197012086657e+00 0.0000000000000000e+00  -3.0481413724641775e+00 -4.7877415316130687e+00 0.0000000000000000e+00  -2.6408032761057552e+00 -5.5098831412211453e+00 0.0000000000000000e+00  -3.4113463563236355e+00 -4.7821664488431104e+00 0.0000000000000000e+00  -3.8762991520833796e+00 -5.4063320352778037e+00 0.0000000000000000e+00  -4.4147916195261292e+00 -5.6112161630794342e+00 0.0000000000000000e+00  -4.8410999249361479e+00 -5.9703010447248506e+00 0.0000000000000000e+00  -5.1553918009349156e+00 -5.9001382194942629e+00 0.0000000000000000e+00  -5.5761098992360321e+00 -6.0640318866679150e+00 0.0000000000000000e+00  -5.8597546043699209e+00 -5.9067023264269762e+00 0.0000000000000000e+00  -5.8205392274760781e+00 -5.2911303576358266e+00 0.0000000000000000e+00  -6.5835763557324656e+00 -5.6631815292776437e+00 0.0000000000000000e+00  -4.6364768729992338e+00 -1.6193761244453884e+00 0.0000000000000000e+00  -1.3039734995235506e+01 -1.2959522043141892e+01 0.0000000000000000e+00  -1.3554075583680360e+01 -1.2410105922283241e+01 0.0000000000000000e+00  -1.3795397813984968e+01 -1.1472653757893410e+01 0.0000000000000000e+00  -1.4104936463037147e+01 -1.0633172620916760e+01 0.0000000000000000e+00  -1.4543326760461737e+01 -9.9534240486506516e+00 0.0000000000000000e+00  -1.5124895618022540e+01 -9.6348975582497864e+00 0.0000000000000000e+00  -1.5790965227029460e+01 -9.3700313180081558e+00 0.0000000000000000e+00  -1.6479611276051887e+01 -9.1852631092999175e+00 0.0000000000000000e+00  -1.7127939854468806e+01 -8.9330255867790189e+00 0.0000000000000000e+00  -1.7682163200266654e+01 -8.5776166451330891e+00 0.0000000000000000e+00  -1.8105123971689789e+01 -7.7209108604472796e+00 0.0000000000000000e+00  -1.8383243597403730e+01 -7.0244794453145021e+00 0.0000000000000000e+00  -1.8519970476673574e+01 -5.3131163179755347e+00 0.0000000000000000e+00  -1.8537015836665084e+01 -4.2625614325026815e+00 0.0000000000000000e+00  -1.8472874106192432e+01 -1.8261145513704147e+00 0.0000000000000000e+00  -1.8364771583958817e+01 -8.8068907698843168e-01 0.0000000000000000e+00  -1.8260639360448067e+01 1.6025768769188211e+00 0.0000000000000000e+00  -1.8182407201947377e+01 1.6105861320863890e+00 0.0000000000000000e+00  -1.8166536125954963e+01 -1.8422351816244874e-03 0.0000000000000000e+00  -1.8181349536481900e+01 -9.9143923096892177e+00 0.0000000000000000e+00  -1.8166495000764371e+01 1.6137876853938682e-03 0.0000000000000000e+00  -1.8237752012744188e+01 -6.8795007145226741e+00 0.0000000000000000e+00  -1.1609154518801462e+01 5.3145823358517505e+00 0.0000000000000000e+00  -1.3005987404233396e+01 4.0325799230914869e+00 0.0000000000000000e+00  -1.1149916639127008e+01 8.5021946746583001e+00 0.0000000000000000e+00  -1.1053344061661493e+01 8.9417238144934164e+00 0.0000000000000000e+00  -1.0145777414577735e+01 1.0449279033438106e+01 0.0000000000000000e+00  -9.5760338307295747e+00 1.0642092808743659e+01 0.0000000000000000e+00  -8.8889391322479341e+00 1.0491820287813889e+01 0.0000000000000000e+00  -8.3227483014256602e+00 9.8338159815833439e+00 0.0000000000000000e+00  -7.5681789947760514e+00 9.4956962492787049e+00 0.0000000000000000e+00  -7.0770258014776513e+00 8.6577583186302682e+00 0.0000000000000000e+00  -6.7113684566698426e+00 7.6445675059129146e+00 0.0000000000000000e+00  -6.2909835336245523e+00 6.8340378617209359e+00 0.0000000000000000e+00  -5.8810514755717884e+00 6.0480522440419602e+00 0.0000000000000000e+00  -5.4852046791268378e+00 5.3117427901987062e+00 0.0000000000000000e+00  -5.0677622068174619e+00 4.7396575239205196e+00 0.0000000000000000e+00  -4.6777677298389806e+00 4.1811759998567988e+00 0.0000000000000000e+00  -4.3258324734759315e+00 3.6312741951302674e+00 0.0000000000000000e+00  -3.9837991248416902e+00 3.1934339094631761e+00 0.0000000000000000e+00  -3.6749190030856593e+00 2.7125191503086139e+00 0.0000000000000000e+00  -3.4111582918041523e+00 2.2914225842717295e+00 0.0000000000000000e+00  -3.1604262716670952e+00 1.8471590564817664e+00 0.0000000000000000e+00  -2.9416694725363461e+00 1.5609795157891275e+00 0.0000000000000000e+00  -2.7498334804773688e+00 1.0414982746555932e+00 0.0000000000000000e+00  -2.5723206787998034e+00 1.0197358382845254e+00 0.0000000000000000e+00  -2.3995275212322467e+00 3.4209221835514486e-01 0.0000000000000000e+00  -2.2283827823454079e+00 7.0637003697671641e-01 0.0000000000000000e+00  -2.0383979701480563e+00 3.2501162752879599e-02 0.0000000000000000e+00  -1.7495147352693028e+00 -2.3477175191427544e+00 0.0000000000000000e+00  -2.9522869572702115e+00 -4.1772883848149522e+00 0.0000000000000000e+00  -2.5808685003670746e+00 -4.9520871222418306e+00 0.0000000000000000e+00  -3.3585611442308427e+00 -4.2388402602779953e+00 0.0000000000000000e+00  -3.7191832426094966e+00 -4.7116797629570923e+00 0.0000000000000000e+00  -4.1797123793701489e+00 -4.8079898833719890e+00 0.0000000000000000e+00  -4.7113226788779423e+00 -5.3370650342474963e+00 0.0000000000000000e+00  -5.1282599378154687e+00 -5.4366585123919764e+00 0.0000000000000000e+00  -5.4307756893928953e+00 -5.4426387310365651e+00 0.0000000000000000e+00  -5.8373666247073048e+00 -5.4922206194373535e+00 0.0000000000000000e+00  -6.1051533114255276e+00 -5.3616902820710592e+00 0.0000000000000000e+00  -6.0494393710219807e+00 -4.5302190588152458e+00 0.0000000000000000e+00  -6.7965909954236965e+00 -4.5516352356660050e+00 0.0000000000000000e+00  -4.8318872516059468e+00 -3.7018163438273871e-01 0.0000000000000000e+00  -1.3212819037079427e+01 -1.1654400165423445e+01 0.0000000000000000e+00  -1.3706475936641516e+01 -1.1122777829152373e+01 0.0000000000000000e+00  -1.3930763032911958e+01 -1.0181419528893207e+01 0.0000000000000000e+00  -1.4222844792030187e+01 -9.3092252031534475e+00 0.0000000000000000e+00  -1.4641994756950712e+01 -8.7774042323875126e+00 0.0000000000000000e+00  -1.5201818372858410e+01 -8.3872644151769862e+00 0.0000000000000000e+00  -1.5843979661181880e+01 -8.1700316203218133e+00 0.0000000000000000e+00  -1.6506486058778467e+01 -7.9789111070167902e+00 0.0000000000000000e+00  -1.7127293196296076e+01 -7.7646026017495133e+00 0.0000000000000000e+00  -1.7654109380533857e+01 -7.1046030365687054e+00 0.0000000000000000e+00  -1.8050112685772643e+01 -6.6224699868187464e+00 0.0000000000000000e+00  -1.8304688245354054e+01 -5.1215738807539548e+00 0.0000000000000000e+00  -1.8421656271367532e+01 -4.2434110560036373e+00 0.0000000000000000e+00  -1.8427781121013815e+01 -1.9261384571554148e+00 0.0000000000000000e+00  -1.8360039887672421e+01 -1.0303624184704341e+00 0.0000000000000000e+00  -1.8266889442202093e+01 1.4556105337649115e+00 0.0000000000000000e+00  -1.8185167294490661e+01 1.5421554735020049e+00 0.0000000000000000e+00  -1.8169801010890133e+01 -2.6338158092452822e-03 0.0000000000000000e+00  -1.8175846785690190e+01 -9.8623299041862111e+00 0.0000000000000000e+00  -1.8169764244215102e+01 2.3072239428158963e-03 0.0000000000000000e+00  -1.8231392790172521e+01 -6.7856712703875779e+00 0.0000000000000000e+00  -1.8284414184109984e+01 -4.6418792287161361e+00 0.0000000000000000e+00  -1.1637059388601051e+01 6.1158915272315477e+00 0.0000000000000000e+00  -1.3020706750840642e+01 5.7195531227405452e+00 0.0000000000000000e+00  -1.1166883633451253e+01 8.8012583521087233e+00 0.0000000000000000e+00  -1.1078604397827554e+01 9.0977190379180861e+00 0.0000000000000000e+00  -1.0183397548858157e+01 9.7974662371779413e+00 0.0000000000000000e+00  -9.6273485844202948e+00 9.4728715887058197e+00 0.0000000000000000e+00  -8.9555701758514115e+00 8.9967470763455086e+00 0.0000000000000000e+00  -8.4050143531140442e+00 8.3768016496289022e+00 0.0000000000000000e+00  -7.6669634506804378e+00 7.9343982214720068e+00 0.0000000000000000e+00  -7.1929841960786023e+00 7.1101634916424885e+00 0.0000000000000000e+00  -6.8451163753086348e+00 6.2180712331183594e+00 0.0000000000000000e+00  -6.4433404751568997e+00 5.4483777172394339e+00 0.0000000000000000e+00  -6.0528807611751603e+00 4.7337703365139578e+00 0.0000000000000000e+00  -5.6771119932670224e+00 4.1296395284248879e+00 0.0000000000000000e+00  -5.2802096581288893e+00 3.6125220836513954e+00 0.0000000000000000e+00  -4.9110161485448760e+00 3.1197846404488265e+00 0.0000000000000000e+00  -4.5798542797285426e+00 2.6967265896017416e+00 0.0000000000000000e+00  -4.2584433669728714e+00 2.2652517778261991e+00 0.0000000000000000e+00  -3.9697953209963983e+00 1.9116439149443891e+00 0.0000000000000000e+00  -3.7258489850793337e+00 1.4863057793169607e+00 0.0000000000000000e+00  -3.4941356204574570e+00 1.2479183350405116e+00 0.0000000000000000e+00  -3.2939584128159516e+00 7.6773111928745252e-01 0.0000000000000000e+00  -3.1194484854971045e+00 7.6781641787241128e-01 0.0000000000000000e+00  -2.9591760800851663e+00 9.4948121751944517e-02 0.0000000000000000e+00  -2.8013857847268779e+00 4.6414723756448317e-01 0.0000000000000000e+00  -2.6472118328424967e+00 -2.4348361651277831e-01 0.0000000000000000e+00  -2.4677567916443390e+00 -2.7659695032239235e+00 0.0000000000000000e+00  -3.1273269686418486e+00 -3.6208331129923939e+00 0.0000000000000000e+00  -2.7815769561845221e+00 -4.4325554060380092e+00 0.0000000000000000e+00  -3.4975798504424240e+00 -3.6309687414859773e+00 0.0000000000000000e+00  -3.9013137421076496e+00 -4.1734431005952581e+00 0.0000000000000000e+00  -4.2577375000717428e+00 -4.1215893840437232e+00 0.0000000000000000e+00  -4.7114456780224980e+00 -4.5462702163203970e+00 0.0000000000000000e+00  -5.2330726783642350e+00 -4.8204191115806863e+00 0.0000000000000000e+00  -5.6364221985784759e+00 -5.0004931519057374e+00 0.0000000000000000e+00  -5.9218510312981634e+00 -4.8962377911402273e+00 0.0000000000000000e+00  -6.3084262626215875e+00 -4.9755467596516549e+00 0.0000000000000000e+00  -6.5545367919164104e+00 -4.6292746503144713e+00 0.0000000000000000e+00  -6.4772144675221419e+00 -3.4459848738688659e+00 0.0000000000000000e+00  -7.2036361280924019e+00 -3.3334674543436966e+00 0.0000000000000000e+00  -5.2148734948164970e+00 8.9590760113568102e-01 0.0000000000000000e+00  -1.3566279579338728e+01 -1.0402150968134936e+01 0.0000000000000000e+00  -1.4034771368124686e+01 -9.8595490605897869e+00 0.0000000000000000e+00  -1.4239111445920898e+01 -8.8863857817217724e+00 0.0000000000000000e+00  -1.4509808606794786e+01 -8.1658832563446850e+00 0.0000000000000000e+00  -1.4904254723950048e+01 -7.5685396882282161e+00 0.0000000000000000e+00  -1.5433907868861775e+01 -7.2309704308478064e+00 0.0000000000000000e+00  -1.6040787887777370e+01 -7.0129775653437560e+00 0.0000000000000000e+00  -1.6663234197574450e+01 -6.8638332914553963e+00 0.0000000000000000e+00  -1.7240151063844767e+01 -6.3467012118999557e+00 0.0000000000000000e+00  -1.7720566394996286e+01 -6.0603726064799641e+00 0.0000000000000000e+00  -1.8071043081499376e+01 -4.7714434395954477e+00 0.0000000000000000e+00  -1.8281862778570979e+01 -4.0927903444266702e+00 0.0000000000000000e+00  -1.8364090160211724e+01 -1.9389982869864497e+00 0.0000000000000000e+00  -1.8344000521932525e+01 -1.1349056505441246e+00 0.0000000000000000e+00  -1.8273554538846557e+01 1.3136153151846077e+00 0.0000000000000000e+00  -1.8192022617882653e+01 1.4666726794406253e+00 0.0000000000000000e+00  -1.8174