<?xml version="1.0"?>
<VTKFile type="UnstructuredGrid"  version="0.1"  >
<UnstructuredGrid>
<Piece  NumberOfPoints="1933" NumberOfCells="3640">
<Points>
<DataArray  type="Float64"  NumberOfComponents="3"  format="ascii">-0.0002721626737974825 0.002029239369391941 0  4.999727833754793 0.001956340706734631 0  4.999837235772846 7.50195636434553 0  -0.0001627819461970104 7.502029223944982 0  9.999727813341861 0.001883402119799923 0  9.999837279127947 7.501883444186693 0  14.99972779732631 0.001810364354473247 0  14.99983736667732 7.501810415267856 0  19.99972781861931 0.001737193454464183 0  19.99983751898893 7.501737248759078 0  24.99972791397132 0.001663872635268752 0  24.99983775898277 7.501663930496843 0  29.99972812090971 0.001590396793227942 0  29.99983811159446 7.501590456780571 0  34.99972847698081 0.001516768831751486 0  34.99983860354008 7.501516831296031 0  39.99972902011354 0.001442997314189272 0  39.99983926334586 7.501443063076088 0  44.99972978953168 0.001369095092740546 0  44.99984012163225 7.501369165296979 0  49.9997308269498 0.001295078668672952 0  49.99984121160137 7.501295154734064 0  54.99973217794414 0.001220968125896562 0  54.99984256968155 7.501221051754578 0  59.99973389347444 0.001146787550089737 0  59.99984423629667 7.501146880779253 0  64.99973603157956 0.001072565903643681 0  64.99984625673903 7.50107267119502 0  69.99973865929839 0.000998338378724068 0  69.99984868213419 7.500998458749444 0  74.99974185489572 0.0009241483036635153 0  74.99985157048577 7.50092428750941 0  79.99974571049589 0.0008500497399247134 0  79.99985498778253 7.500850212528807 0  84.99975033526042 0.000776110989046216 0  84.99985900913086 7.500776303453511 0  89.99975585928692 0.0007024193477861882 0  89.99986371983779 7.500702649411133 0  94.99976243846197 0.0006290876322288632 0  94.99986921630574 7.500629365712449 0  99.99977026056351 0.0005562632845221526 0  99.99987560648054 7.500556603168561 0  104.9997795529801 0.0004841413624130723 0  104.9998830094001 7.500484561264815 0  109.9997905924525 0.0004129835448341917 0  109.9998915530648 7.500413507126546 0  114.9998037171619 0.0003431467544342208 0  114.9999013693473 7.500343803318898 0  119.9998193410451 0.0002751276564630373 0  119.999912583914 7.500275949271352 0  124.9998379688388 0.0002096342440306168 0  124.9999252982268 7.500210643818962 0  129.9998602066164 0.0001477051857405421 0  129.9999395600981 7.500148880346151 0  134.9998867530824 9.091604983785874e-05 0  134.9999553208349 7.500092091528326 0  139.9999183330806 4.174691422735494e-05 0  139.9999723868 7.500042368046671 0  144.9999554733807 4.244370017124596e-06 0  144.9999904110678 7.500002791061923 0  149.9999978475343 -1.486994104789586e-05 0  150.0000091056817 7.499978001386787 0  160 7.69513917405313e-19 0  164.9999092196028 -0.0001018239565266665 0  164.9999831886081 7.499885980014683 0  160.0000132852258 7.499969686892137 0  169.9998504744566 -0.0002007005106379933 0  169.9999525665593 7.499793068610596 0  174.9998106075704 -0.0002972234644269011 0  174.9999258216706 7.499699175227593 0  179.9997825768726 -0.0003912284339134344 0  179.9999036655939 7.499606556185671 0  184.9997623173724 -0.0004827992300614656 0  184.9998857183752 7.499515781601063 0  189.9997473662106 -0.0005721798823518638 0  189.9998713274575 7.499426879686387 0  194.9997361695315 -0.0006596533060882512 0  194.9998598421622 7.499339703801481 0  199.9997277084008 -0.0007454839424901312 0  199.9998506978772 7.499254063893947 0  204.9997212893043 -0.0008298999169161574 0  204.9998434306605 7.499169774061945 0  209.9997164235401 -0.0009130922767797156 0  209.9998376678946 7.499086667777594 0  214.9997127558993 -0.0009952199679812606 0  214.9998331126966 7.49900460061461 0  219.9997100212572 -0.001076415822529775 0  219.999829528641 7.49892344851872 0  224.999708017312 -0.001156791904299501 0  224.9998267268123 7.498843104855495 0  229.9997065868968 -0.001236443822754867 0  229.9998245554741 7.49876347745849 0  234.9997056061182 -0.001315454079443782 0  234.9998228920387 7.498684486067147 0  239.9997049761454 -0.001393894637208455 0  239.999821636887 7.49860606021645 0  244.999704617359 -0.001471828906041749 0  244.9998207086142 7.498528137524493 0  249.9997044650676 -0.001549313307515318 0  249.9998200403631 7.498450662295118 0  254.9997044663035 -0.001626398543631105 0  254.9998195769806 7.49837358435467 0  259.9997045773816 -0.001703130665892664 0  259.9998192727982 7.498296858053632 0  264.9997047620238 -0.001779552018012624 0  264.9998190899016 7.498220441376086 0  269.9997049899131 -0.001855702109589095 0  269.9998189967822 7.498144295110859 0  274.9997052356167 -0.001931618465515603 0  274.9998189672954 7.498068382048516 0  279.9997054778394 -0.002007337482400513 0  279.9998189798857 7.497992666180249 0  284.9997056990358 -0.002082895300868227 0  284.9998190170228 7.497917111893524 0  289.9997058854433 -0.002158328654448373 0  289.9998190648326 7.497841683193431 0  294.9997060276806 -0.002233675543493026 0  294.99981911287 7.497766343041104 0  299.9997061221057 -0.002308975312300209 0  299.9998191539898 7.497691053008985 0  304.9997061731769 -0.002384267029484241 0  304.9998191842811 7.49761577360848 0  309.9997061969543 -0.002459583247108251 0  309.9998192031996 7.497540465735724 0  4.99994645372698 15.00195644156231 0  -5.357164176778006e-05 15.00202919358113 0  9.999946514467798 15.0018835739967 0  14.99994663041845 15.00181056892627 0  19.99994681778993 15.00173741276759 0  24.99994709193808 15.00166409982555 0  29.99994746874348 15.001590631036 0  34.99994796523833 15.00151701263928 0  39.99994859989676 15.00144325513783 0  44.99994939280273 15.00136937265523 0  49.99995036579146 15.00129538271274 0  54.99995154259401 15.00122130641143 0  59.99995294898181 15.00114716901406 0  64.99995461288778 15.00107300094503 0  69.99995656446356 15.00099883925861 0  74.99995883601899 15.0009247296686 0  79.99996146176072 15.00085072928603 0  84.99996447722084 15.0007769102835 0  89.99996791821459 15.00070336480335 0  94.99997181910754 15.00063021156272 0  99.99997621009609 15.00055760479526 0  104.9999811131246 15.00048574641808 0  109.9999865360142 15.0004149026181 0  114.9999924644465 15.0003454263598 0  119.9999988518293 15.00027778742795 0  125.0000056081663 15.00021261096361 0  130.0000125916381 15.0001507225014 0  135.0000196119269 15.00009318822667 0  140.0000264638948 15.00004131248752 0  145.0000330228357 14.99999647743145 0  150.000039428927 14.99995946754635 0  165.0000376986632 14.99985384622647 0  160.000044515432 14.99992638869662 0  170.0000271713024 14.99977196577053 0  175.0000148983198 14.99968552918727 0  180.0000025712077 14.9995976216326 0  184.9999911217431 14.99950980175008 0  189.9999809513151 14.99942277372912 0  194.9999721594234 14.99933680940391 0  199.999964691561 14.99925197147211 0  204.999958424288 14.99916822629581 0  209.999953211081 14.99908549971184 0  214.9999489055398 14.99900370403369 0  219.9999453720966 14.99892275064942 0  224.9999424900923 14.99884255550527 0  229.9999401544996 14.9987630411393 0  234.9999382750698 14.99868413709127 0  239.9999367748352 14.99860577958587 0  244.999935588442 14.99852791092096 0  249.999934660546 14.99845047875982 0  254.9999339443608 14.99837343541266 0  259.9999334003943 14.99829673713675 0  264.9999329953691 14.99822034345919 0  269.9999327013168 14.99814421651474 0  274.9999324948115 14.9980683203887 0  279.9999323563255 14.99799262045609 0  284.9999322696709 14.99791708271441 0  289.9999322214841 14.99784167311197 0  294.999932200732 14.99776635686956 0  299.9999321982015 14.99769109774013 0  304.9999322059967 14.99761585693819 0  309.9999322171174 14.99754059076181 0  5.000055374877225 22.50195664674034 0  5.534716962596331e-05 22.50202925659008 0  10.00005543307824 22.50188385520283 0  15.00005554016006 22.50181088877007 0  20.00005570895684 22.50173775248939 0  25.00005594952203 22.50166445235634 0  30.00005627082429 22.50159099648046 0  35.00005668169106 22.50151739548814 0  40.00005719126518 22.50144366263759 0  45.00005780916091 22.50136981392308 0  50.00005854543539 22.501295868322 0  55.00005941043064 22.50122184827145 0  60.0000604145051 22.50114778043445 0  65.00006156764229 22.50107369681297 0  70.00006287890291 22.50099963627709 0  75.00006435566854 22.50092564660517 0  80.00006600260734 22.50085178716327 0  85.0000678202738 22.5007781323961 0  90.00006980324682 22.50070477635399 0  95.00007193770563 22.50063183853744 0  100.0000741983727 22.50055947138924 0  105.0000765448358 22.50048786977202 0  110.0000789174546 22.50041728266262 0  115.0000812334373 22.5003480269144 0  120.0000833843631 22.50028050195478 0  125.0000852375557 22.50021520204159 0  130.0000866453135 22.50015271792464 0  135.0000874676492 22.50009371015099 0  140.0000876140253 22.50003881818233 0  145.0000871018474 22.49998843996667 0  150.0000860998623 22.49994228984755 0  165.0000950968908 22.49981909554082 0  160.0000902575492 22.49988610060966 0  170.0000962876163 22.49974448888385 0  175.00009458615 22.49966483759782 0  180.0000909851591 22.49958233661742 0  185.0000863735169 22.49949854385068 0  190.0000813991173 22.49941443413347 0  195.0000764798848 22.49933056819586 0  200.000071859096 22.49924724338989 0  205.0000676608385 22.49916459897482 0  210.0000639331682 22.49908268288417 0  215.0000606783241 22.49900149210875 0  220.0000578726673 22.49892099646857 0  225.0000554793263 22.49884115234611 0  230.000053455943 22.49876191048484 0  235.0000517592535 22.49868322032269 0  240.0000503476708 22.49860503231679 0  245.0000491826373 22.49852729910726 0  250.0000482292293 22.4984499760112 0  255.0000474563301 22.49837302112861 0  260.0000468365479 22.49829639522274 0  265.0000463460034 22.49822006146621 0  270.0000459640439 22.49814398510602 0  275.0000456729227 22.49806813307688 0  280.0000454574497 22.49799247358008 0  285.0000453046186 22.49791697563473 0  290.0000452031874 22.49784160859538 0  295.0000451432052 22.49776634159748 0  300.0000451154446 22.4976911
[...]
<PointData  Vectors="v"> 
<DataArray  type="Float64"  Name="v"  NumberOfComponents="3" format="ascii">1.5808511435743631e+00 -5.7319632232258195e+00 0.0000000000000000e+00  1.1465473222816880e+00 -5.5701883481365835e+00 0.0000000000000000e+00  8.4550936649023845e-01 -4.9188882128032096e+00 0.0000000000000000e+00  1.1774810416999764e+00 -5.2346124962795502e+00 0.0000000000000000e+00  5.6676300278594582e-01 -6.2451943305198228e+00 0.0000000000000000e+00  4.1141244133820543e-01 -5.3764048981188299e+00 0.0000000000000000e+00  -5.8376403521514797e-03 -7.3290043972319117e+00 0.0000000000000000e+00  -1.6742808750727367e-01 -6.4714077010597810e+00 0.0000000000000000e+00  -5.6314044729008783e-01 -7.9612000091455251e+00 0.0000000000000000e+00  -7.3846160479439293e-01 -7.1273336490660864e+00 0.0000000000000000e+00  -1.2349728792225390e+00 -9.0209851621805832e+00 0.0000000000000000e+00  -1.2935252723593538e+00 -8.0160927853394952e+00 0.0000000000000000e+00  -1.8126619237754811e+00 -9.7068433807340746e+00 0.0000000000000000e+00  -1.9620276184942329e+00 -8.8437328579428378e+00 0.0000000000000000e+00  -1.9679148008991705e+00 -9.8049750985546495e+00 0.0000000000000000e+00  -2.5355591562355939e+00 -9.5765221871171526e+00 0.0000000000000000e+00  -2.9464454285538402e+00 -1.1015744240688786e+01 0.0000000000000000e+00  -2.6857619548144318e+00 -9.5533086960086884e+00 0.0000000000000000e+00  1.4398627486062210e-01 -6.1383162545414605e+00 0.0000000000000000e+00  -3.6579438670605113e+00 -1.0779761833141894e+01 0.0000000000000000e+00  -9.4319756726378827e+00 -2.0001259464395098e+01 0.0000000000000000e+00  -5.6014406805806138e-01 -5.6450632334270976e+00 0.0000000000000000e+00  -8.3848356608793573e+00 -1.7481067591698309e+01 0.0000000000000000e+00  -1.0128506020165879e+01 -1.9059537790919901e+01 0.0000000000000000e+00  -8.2549585312516243e+00 -1.6252193031991744e+01 0.0000000000000000e+00  -9.0720596286318340e+00 -1.6456880595323494e+01 0.0000000000000000e+00  -8.7907749276667051e+00 -1.6029927154507281e+01 0.0000000000000000e+00  -8.9305331555731993e+00 -1.5238176661181470e+01 0.0000000000000000e+00  -9.8596460947757674e+00 -1.6618389541783934e+01 0.0000000000000000e+00  -9.4525831807867196e+00 -1.5029444171833715e+01 0.0000000000000000e+00  -1.1285961280542848e+01 -1.7681351426928138e+01 0.0000000000000000e+00  -1.0504530869941199e+01 -1.5557781538193460e+01 0.0000000000000000e+00  -1.2977248188303946e+01 -1.9002695742052570e+01 0.0000000000000000e+00  -1.1911673556741414e+01 -1.6484432235382481e+01 0.0000000000000000e+00  -1.4849956823215919e+01 -2.0595628463617999e+01 0.0000000000000000e+00  -1.3581510722822880e+01 -1.7807536990958166e+01 0.0000000000000000e+00  -1.6820468400799587e+01 -2.2082698213415881e+01 0.0000000000000000e+00  -1.5429145065099471e+01 -1.9149630842558807e+01 0.0000000000000000e+00  -1.8819320755649674e+01 -2.3480764026601236e+01 0.0000000000000000e+00  -1.7372414488007315e+01 -2.0508532609189281e+01 0.0000000000000000e+00  -2.0782291043403671e+01 -2.4637792781488706e+01 0.0000000000000000e+00  -1.9340849947679651e+01 -2.1721402746016693e+01 0.0000000000000000e+00  -2.2633784851543567e+01 -2.5468887642970895e+01 0.0000000000000000e+00  -2.1270278268861912e+01 -2.2722642726371348e+01 0.0000000000000000e+00  -2.4313225835028067e+01 -2.5581630300697842e+01 0.0000000000000000e+00  -2.3084221489923291e+01 -2.3095455128224732e+01 0.0000000000000000e+00  -2.5779774797801416e+01 -2.5516452698348971e+01 0.0000000000000000e+00  -2.4725085612319685e+01 -2.3354455407083524e+01 0.0000000000000000e+00  -2.6984713957496378e+01 -2.4064553863544301e+01 0.0000000000000000e+00  -2.6145543739405085e+01 -2.2293590720219040e+01 0.0000000000000000e+00  -2.7930341480309185e+01 -2.2614469852038926e+01 0.0000000000000000e+00  -2.7307150064162844e+01 -2.1241974115737516e+01 0.0000000000000000e+00  -2.8598967581197083e+01 -1.9174167852204913e+01 0.0000000000000000e+00  -2.8197061511715720e+01 -1.8209850538789237e+01 0.0000000000000000e+00  -2.9041264060144027e+01 -1.5784849592256428e+01 0.0000000000000000e+00  -2.8819326493629887e+01 -1.5177431885637180e+01 0.0000000000000000e+00  -2.9266263872174378e+01 -1.0264201520212008e+01 0.0000000000000000e+00  -2.9194375639913105e+01 -9.9649821694003631e+00 0.0000000000000000e+00  -2.9368187484679712e+01 -3.7078060804596751e+00 0.0000000000000000e+00  -2.9372131099025488e+01 -3.6236937400959826e+00 0.0000000000000000e+00  -2.9389262614265842e+01 -7.6892756630972192e-12 0.0000000000000000e+00  -2.9389474446006940e+01 -2.1072660807646134e-04 0.0000000000000000e+00  -2.9389262614624258e+01 9.2063283780112359e-20 0.0000000000000000e+00  -2.1018979335923525e+01 1.1501869667633629e+01 0.0000000000000000e+00  -2.9366975914787631e+01 -1.0158380050047580e+00 0.0000000000000000e+00  -2.9389472734756556e+01 2.1399725773195915e-04 0.0000000000000000e+00  -2.0625056197055780e+01 2.0691351595608765e+01 0.0000000000000000e+00  -2.1047860405415978e+01 2.0168127333477070e+01 0.0000000000000000e+00  -1.7602389359852648e+01 2.7676938914156157e+01 0.0000000000000000e+00  -2.0713506657741934e+01 2.3184530937559433e+01 0.0000000000000000e+00  -1.6451811474061710e+01 2.9102738269282561e+01 0.0000000000000000e+00  -1.7748289859408978e+01 2.7428097503439250e+01 0.0000000000000000e+00  -1.4657871725105297e+01 3.0543888827418815e+01 0.0000000000000000e+00  -1.6651255224587260e+01 2.7897943817011086e+01 0.0000000000000000e+00  -1.3284976766498355e+01 2.9737380885482384e+01 0.0000000000000000e+00  -1.4908449221658206e+01 2.7723778265347413e+01 0.0000000000000000e+00  -1.1898727937318990e+01 2.8684674777062099e+01 0.0000000000000000e+00  -1.3586131869539001e+01 2.6647298621094407e+01 0.0000000000000000e+00  -1.0682687617591110e+01 2.6792284586170574e+01 0.0000000000000000e+00  -1.2247544943205551e+01 2.5010851194477471e+01 0.0000000000000000e+00  -9.3130818363689336e+00 2.4949796725889790e+01 0.0000000000000000e+00  -1.1077753103104490e+01 2.2935696647193041e+01 0.0000000000000000e+00  -8.2840640151750460e+00 2.2738351366787398e+01 0.0000000000000000e+00  -9.7533780466994262e+00 2.1234282276615790e+01 0.0000000000000000e+00  -7.4098490610282726e+00 2.0655507395444047e+01 0.0000000000000000e+00  -8.7679825028563148e+00 1.9382817949172527e+01 0.0000000000000000e+00  -6.4801358483028242e+00 1.8858327578650549e+01 0.0000000000000000e+00  -7.9362305877350714e+00 1.7501460934838764e+01 0.0000000000000000e+00  -5.6140169904508150e+00 1.7215093978732703e+01 0.0000000000000000e+00  -7.0482319283699058e+00 1.5952586306092584e+01 0.0000000000000000e+00  -4.8137264627581144e+00 1.5770052856965663e+01 0.0000000000000000e+00  -6.2226437502997998e+00 1.4605774057352141e+01 0.0000000000000000e+00  -4.0554836012064843e+00 1.4447609555428102e+01 0.0000000000000000e+00  -5.4619755047668033e+00 1.3345560357816085e+01 0.0000000000000000e+00  -3.3790204888063387e+00 1.3184072232121762e+01 0.0000000000000000e+00  -4.7426648577897748e+00 1.2203983419399684e+01 0.0000000000000000e+00  -2.7860471303826406e+00 1.2011987917677114e+01 0.0000000000000000e+00  -4.1042766085553879e+00 1.1156621452290759e+01 0.0000000000000000e+00  -2.2438324555984783e+00 1.0880936733649243e+01 0.0000000000000000e+00  -3.5486308422304993e+00 1.0101148056223835e+01 0.0000000000000000e+00  -1.7700421284002759e+00 9.7758886235513902e+00 0.0000000000000000e+00  -3.0432506875774643e+00 9.0981326047239666e+00 0.0000000000000000e+00  -1.3672074715006357e+00 8.7171598073577705e+00 0.0000000000000000e+00  -2.6055650271718500e+00 8.1455504719420819e+00 0.0000000000000000e+00  -1.0088247975255122e+00 7.6612003157059432e+00 0.0000000000000000e+00  -2.2384573456664225e+00 7.1556679017911504e+00 0.0000000000000000e+00  -7.0590421223768907e-01 6.6376549351097438e+00 0.0000000000000000e+00  -1.9151142558408798e+00 6.2152014585790374e+00 0.0000000000000000e+00  -4.6235570544816090e-01 5.6292130708811126e+00 0.0000000000000000e+00  -1.6472266148736492e+00 5.2950351330894438e+00 0.0000000000000000e+00  -2.6007794334700624e-01 4.6594417331134412e+00 0.0000000000000000e+00  -1.4375237698448480e+00 4.3876875443167220e+00 0.0000000000000000e+00  -1.0767948512599743e-01 3.6895216434534106e+00 0.0000000000000000e+00  -1.2701372609205477e+00 3.4908427561337714e+00 0.0000000000000000e+00  1.9370071120959841e-03 2.8516726313853207e+00 0.0000000000000000e+00  -1.1499474711196798e+00 2.7194195071033200e+00 0.0000000000000000e+00  7.1022199486677290e-02 1.9669291875583621e+00 0.0000000000000000e+00  -1.0761181218819842e+00 1.8910723995756693e+00 0.0000000000000000e+00  1.3773606498265009e-01 1.3337716115132987e+00 0.0000000000000000e+00  -1.0360720441601008e+00 1.2682303007064450e+00 0.0000000000000000e+00  2.0948826147351887e-01 7.1223735864872828e-01 0.0000000000000000e+00  -1.0097550857639446e+00 6.2674020493824512e-01 0.0000000000000000e+00  3.7234059580297829e-01 -1.7140531429214409e-01 0.0000000000000000e+00  -9.5416945264263964e-01 -3.6942673041787283e-01 0.0000000000000000e+00  1.2639115669261786e-01 -4.4200504448084512e+00 0.0000000000000000e+00  4.8592082089096905e-01 -4.6972908963908973e+00 0.0000000000000000e+00  -2.0683691491688749e-01 -4.7244859902835756e+00 0.0000000000000000e+00  -6.4200426573872205e-01 -5.6029651084450700e+00 0.0000000000000000e+00  -1.2211018653995724e+00 -6.2711352120043529e+00 0.0000000000000000e+00  -1.7913487713497360e+00 -7.1842889277811750e+00 0.0000000000000000e+00  -2.3445500128769678e+00 -7.8428479789746417e+00 0.0000000000000000e+00  -3.0096484678807855e+00 -8.7192166085566285e+00 0.0000000000000000e+00  -3.5778472661882121e+00 -9.3315567550479344e+00 0.0000000000000000e+00  -3.7211188914016038e+00 -9.3267938903468348e+00 0.0000000000000000e+00  -4.6838733697940151e+00 -1.0298402556196116e+01 0.0000000000000000e+00  -1.5755534318136155e+00 -4.7115626173695935e+00 0.0000000000000000e+00  -1.1137755855646164e+01 -1.8044955814979811e+01 0.0000000000000000e+00  -1.0074179506134785e+01 -1.5457828638393030e+01 0.0000000000000000e+00  -9.9197952651411807e+00 -1.4255057240061907e+01 0.0000000000000000e+00  -1.0425127413372731e+01 -1.3992924457323136e+01 0.0000000000000000e+00  -1.1454630697605278e+01 -1.4389398137311758e+01 0.0000000000000000e+00  -1.2834506772190135e+01 -1.5320282195024010e+01 0.0000000000000000e+00  -1.4472962394081502e+01 -1.6399750369885290e+01 0.0000000000000000e+00  -1.6283601748731378e+01 -1.7618428144934633e+01 0.0000000000000000e+00  -1.8184324194078833e+01 -1.8795012048491046e+01 0.0000000000000000e+00  -2.0105780374079650e+01 -1.9860528241336254e+01 0.0000000000000000e+00  -2.1980920283933735e+01 -2.0408756849514283e+01 0.0000000000000000e+00  -2.3734835001431350e+01 -2.0932184348883847e+01 0.0000000000000000e+00  -2.5308518834877152e+01 -2.0204066545720419e+01 0.0000000000000000e+00  -2.6655791738397252e+01 -1.9550407989668045e+01 0.0000000000000000e+00  -2.7733540003999700e+01 -1.6919162752332223e+01 0.0000000000000000e+00  -2.8539026769765712e+01 -1.4311962771985442e+01 0.0000000000000000e+00  -2.9057000735069870e+01 -9.4423663270019400e+00 0.0000000000000000e+00  -2.9341483199656881e+01 -3.4517027182910165e+00 0.0000000000000000e+00  -2.9389987353413648e+01 -4.0238311639418029e-04 0.0000000000000000e+00  -2.9328823446265094e+01 -1.1755283441939683e+00 0.0000000000000000e+00  -2.9389984138273281e+01 4.3344864105198305e-04 0.0000000000000000e+00  -2.9172600610794010e+01 7.7092994027792088e+00 0.0000000000000000e+00  -2.0918258172993820e+01 2.2735261941321763e+01 0.0000000000000000e+00  -2.0664794265128020e+01 2.3022429641274186e+01 0.0000000000000000e+00  -1.7767869649219740e+01 2.6293507838861125e+01 0.0000000000000000e+00  -1.6736702877474354e+01 2.5142178819440634e+01 0.0000000000000000e+00  -1.5050280351207402e+01 2.4699373748156681e+01 0.0000000000000000e+00  -1.3783623492792895e+01 2.3032925578431104e+01 0.0000000000000000e+00  -1.2494952978912501e+01 2.1209444762256773e+01 0.0000000000000000e+00  -1.1372284998001851e+01 1.9275365219019001e+01 0.0000000000000000e+00  -1.0092858751295596e+01 1.7930783711019235e+01 0.0000000000000000e+00  -9.1503858477596882e+00 1.6278339642775485e+01 0.0000000000000000e+00  -8.3595481180991271e+00 1.4645035552128943e+01 0.0000000000000000e+00  -7.5114990217154771e+00 1.3390656166088947e+01 0.0000000000000000e+00  -6.7243202360453189e+00 1.2226821146835952e+01 0.0000000000000000e+00  -6.0006107648386493e+00 1.1146922646538265e+01 0.0000000000000000e+00  -5.3172433513588686e+00 1.0220091291571894e+01 0.0000000000000000e+00  -4.7135878830199314e+00 9.2879511628533837e+00 0.0000000000000000e+00  -4.1915199412337492e+00 8.3599353009731150e+00 0.0000000000000000e+00  -3.7188596309862039e+00 7.5083449798547992e+00 0.0000000000000000e+00  -3.3130156871564704e+00 6.6236255863056455e+00 0.0000000000000000e+00  -2.9768290689409764e+00 5.7487223890736567e+00 0.0000000000000000e+00  -2.6838797708265236e+00 4.9109078246244557e+00 0.0000000000000000e+00  -2.4455045156780257e+00 4.0910666168436300e+00 0.0000000000000000e+00  -2.2650079274296915e+00 3.2563134484894016e+00 0.0000000000000000e+00  -2.1256990181584356e+00 2.5572816158749103e+00 0.0000000000000000e+00  -2.0340710890029610e+00 1.7945945582926504e+00 0.0000000000000000e+00  -1.9862712754228868e+00 1.2281949237186780e+00 0.0000000000000000e+00  -1.9748199652678036e+00 5.9742530968202912e-01 0.0000000000000000e+00  -1.9725068961512702e+00 -4.3108175574066171e-01 0.0000000000000000e+00  -1.1232439966509491e+00 -3.8788129064872163e+00 0.0000000000000000e+00  -8.0171778372213909e-01 -4.2179928535763915e+00 0.0000000000000000e+00  -1.4858399171309047e+00 -4.2217338354343186e+00 0.0000000000000000e+00  -1.8237304470161273e+00 -4.9479708470438695e+00 0.0000000000000000e+00  -2.2624438079516480e+00 -5.4008360126500055e+00 0.0000000000000000e+00  -2.8443333077053743e+00 -6.3283520652006118e+00 0.0000000000000000e+00  -3.4159002609142366e+00 -7.0142786372987924e+00 0.0000000000000000e+00  -3.9678305628520767e+00 -7.7244241884849467e+00 0.0000000000000000e+00  -4.6291283629968607e+00 -8.4845427462041663e+00 0.0000000000000000e+00  -5.1902178774229553e+00 -9.1202271957775469e+00 0.0000000000000000e+00  -5.3218678298527449e+00 -8.8653930744639062e+00 0.0000000000000000e+00  -6.2694861285755241e+00 -9.3852301742968613e+00 0.0000000000000000e+00  -3.1498697393326767e+00 -3.7062758817134474e+00 0.0000000000000000e+00  -1.2711111193573077e+01 -1.7055087232930020e+01 0.0000000000000000e+00  -1.1645516213923983e+01 -1.4497234057985212e+01 0.0000000000000000e+00  -1.1478576778461184e+01 -1.3251956964398229e+01 0.0000000000000000e+00  -1.1961377460626581e+01 -1.2868767862967175e+01 0.0000000000000000e+00  -1.2959229155301887e+01 -1.3280941639614740e+01 0.0000000000000000e+00  -1.4298779301625201e+01 -1.3979090114061158e+01 0.0000000000000000e+00  -1.5887183498201052e+01 -1.4945660814052227e+01 0.0000000000000000e+00  -1.7638879157272726e+01 -1.5994367169763459e+01 0.0000000000000000e+00  -1.9471306478975393e+01 -1.7037136280756773e+01 0.0000000000000000e+00  -2.1312237588771801e+01 -1.7661053970339442e+01 0.0000000000000000e+00  -2.3096599205814421e+01 -1.8378658861547507e+01 0.0000000000000000e+00  -2.4744875429958579e+01 -1.7925937924613059e+01 0.0000000000000000e+00  -2.6201728903732281e+01 -1.7629146064135881e+01 0.0000000000000000e+00  -2.7412335963820240e+01 -1.5400838959983972e+01 0.0000000000000000e+00  -2.8346507235715638e+01 -1.3235492198355685e+01 0.0000000000000000e+00  -2.8977782339091096e+01 -8.7659161394267162e+00 0.0000000000000000e+00  -2.9334549938177556e+01 -3.2097747169325901e+00 0.0000000000000000e+00  -2.9390789116313755e+01 -5.7642136994652874e-04 0.0000000000000000e+00  -2.9304828007077305e+01 -1.4884011596833093e+00 0.0000000000000000e+00  -2.9390786170673017e+01 6.2799567524574127e-04 0.0000000000000000e+00  -2.8937346738700743e+01 7.4174225276264449e+00 0.0000000000000000e+00  -2.8768889846417011e+01 1.0434945370491358e+01 0.0000000000000000e+00  -2.0626646392553841e+01 2.2743455330099632e+01 0.0000000000000000e+00  -2.0503678939536019e+01 2.2029012349309209e+01 0.0000000000000000e+00  -1.7716337115248454e+01 2.3675227350762611e+01 0.0000000000000000e+00  -1.6783610563693863e+01 2.2234882260637100e+01 0.0000000000000000e+00  -1.5182965699512275e+01 2.1195690935826374e+01 0.0000000000000000e+00  -1.3995453050796245e+01 1.9332449326474691e+01 0.0000000000000000e+00  -1.2777284204668289e+01 1.7643693494860702e+01 0.0000000000000000e+00  -1.1720705233025209e+01 1.6060405019306174e+01 0.0000000000000000e+00  -1.0502902799963444e+01 1.4911510472540312e+01 0.0000000000000000e+00  -9.6189312960161306e+00 1.3503330942277078e+01 0.0000000000000000e+00  -8.8843833524059104e+00 1.2161716572231677e+01 0.0000000000000000e+00  -8.0905899625756472e+00 1.1087681843971900e+01 0.0000000000000000e+00  -7.3554155421781688e+00 1.0101331641996707e+01 0.0000000000000000e+00  -6.6818165180054416e+00 9.2335196730868905e+00 0.0000000000000000e+00  -6.0465634339381653e+00 8.4196753689347741e+00 0.0000000000000000e+00  -5.4891128691751003e+00 7.6125819765646128e+00 0.0000000000000000e+00  -5.0115297734720468e+00 6.8340028204736036e+00 0.0000000000000000e+00  -4.5818300959329985e+00 6.0483178775296942e+00 0.0000000000000000e+00  -4.2173304769878355e+00 5.2771103291244854e+00 0.0000000000000000e+00  -3.9214218778594234e+00 4.5028335257826120e+00 0.0000000000000000e+00  -3.6671811534829026e+00 3.7647718928492186e+00 0.0000000000000000e+00  -3.4669809143644472e+00 3.0147887776166553e+00 0.0000000000000000e+00  -3.3225902451780018e+00 2.3789229889199510e+00 0.0000000000000000e+00  -3.2200095103484139e+00 1.6831495561666012e+00 0.0000000000000000e+00  -3.1608356763668235e+00 1.1883987088540706e+00 0.0000000000000000e+00  -3.1504686833470341e+00 6.0021056184712540e-01 0.0000000000000000e+00  -3.1623928481446257e+00 -4.0088759517062528e-01 0.0000000000000000e+00  -2.4363942024491752e+00 -3.3936990124783946e+00 0.0000000000000000e+00  -2.1509895843421241e+00 -3.7940025337855237e+00 0.0000000000000000e+00  -2.7623657425957693e+00 -3.6729843166208203e+00 0.0000000000000000e+00  -3.1328840896606174e+00 -4.4350828387684897e+00 0.0000000000000000e+00  -3.4795714897601266e+00 -4.7367206429120357e+00 0.0000000000000000e+00  -3.9272295524034151e+00 -5.4502224125741652e+00 0.0000000000000000e+00  -4.5168075802232277e+00 -6.1526172879874199e+00 0.0000000000000000e+00  -5.0942318642874174e+00 -6.8943866891706920e+00 0.0000000000000000e+00  -5.6490603062871338e+00 -7.4932017183963433e+00 0.0000000000000000e+00  -6.3089244505504851e+00 -8.2824724985841911e+00 0.0000000000000000e+00  -6.8632117294028721e+00 -8.6763868596740625e+00 0.0000000000000000e+00  -6.9830318288978477e+00 -7.9740681152807538e+00 0.0000000000000000e+00  -7.9179003580295975e+00 -8.3897650900084777e+00 0.0000000000000000e+00  -4.7980078869671123e+00 -2.7042199757416472e+00 0.0000000000000000e+00  -1.4377323095159971e+01 -1.6083681063542148e+01 0.0000000000000000e+00  -1.3326831289792182e+01 -1.3501846418836278e+01 0.0000000000000000e+00  -1.3159822193813199e+01 -1.2153405003209267e+01 0.0000000000000000e+00  -1.3629501736591211e+01 -1.1803078127365296e+01 0.0000000000000000e+00  -1.4600095330495158e+01 -1.1996260569355272e+01 0.0000000000000000e+00  -1.5901070353845290e+01 -1.2599088639467029e+01 0.0000000000000000e+00  -1.7438713418398297e+01 -1.3411149676335693e+01 0.0000000000000000e+00  -1.9126602423753823e+01 -1.4342529741996710e+01 0.0000000000000000e+00  -2.0881241575561667e+01 -1.4963644166071640e+01 0.0000000000000000e+00  -2.2630047034050566e+01 -1.5780626230753633e+01 0.0000000000000000e+00  -2.4301895038140010e+01 -1.5540273240088492e+01 0.0000000000000000e+00  -2.5821984844524231e+01 -1.5554212118891401e+01 0.0000000000000000e+00  -2.7122812347263164e+01 -1.3696720926961039e+01 0.0000000000000000e+00  -2.8164570884665444e+01 -1.1987830550982105e+01 0.0000000000000000e+00  -2.8887975526907113e+01 -7.9425079830981531e+00 0.0000000000000000e+00  -2.9317099013417639e+01 -2.9007284994337410e+00 0.0000000000000000e+00  -2.9391849862