<?xml version="1.0"?>
<VTKFile type="UnstructuredGrid"  version="0.1"  >
<UnstructuredGrid>
<Piece  NumberOfPoints="1933" NumberOfCells="3640">
<Points>
<DataArray  type="Float64"  NumberOfComponents="3"  format="ascii">0.2935675145458528 0.002451431861619535 0  5.293567506679568 0.002365080830453373 0  5.293697095770001 7.502365098978949 0  0.2936970806768607 7.50245140757431 0  10.29356747717366 0.002278690642372911 0  10.29369713692631 7.50227872948498 0  15.29356744685162 0.002192193358076402 0  15.29369722404253 7.502192242511883 0  20.29356745035454 0.002105547673051806 0  20.29369737954273 7.5021056021738 0  25.29356752740521 0.002018730725810785 0  25.29369762876516 7.502018788454365 0  30.29356771925495 0.00193173234147005 0  30.29369799961678 7.501931792738826 0  35.29356806770316 0.001844551066550058 0  35.29369852233327 7.501844614463997 0  40.29356861540617 0.001757191565748397 0  40.29369922953184 7.501757258841007 0  45.29356940684121 0.001669663044648279 0  45.29370015655468 7.501669735459554 0  50.29357048962554 0.001581978450888976 0  50.29370134205378 7.501582057595117 0  55.29357191606582 0.00149415428797656 0  55.2937028287718 7.501494242090191 0  60.29357374490893 0.001406210945635197 0  60.29370466448885 7.501406309734603 0  65.29357604332182 0.001318173509790311 0  65.29370690311892 7.501318286121429 0  70.29357888916387 0.001230073068692601 0  70.29370960595226 7.501230203005255 0  75.29358237365206 0.001141948585805035 0  75.2937128430441 7.501142100243206 0  80.29358660455314 0.001053849472980608 0  80.29371669474821 7.501054028463994 0  85.2935917100876 0.0009658390803129586 0  85.29372125338089 7.50096605269749 0  90.29359784379423 0.000877999438770413 0  90.29372662496768 7.500878257323071 0  95.29360519070319 0.0007904377765700733 0  95.2937329309657 7.500790752887253 0  100.2936139752932 0.0007032956297721917 0  100.2937403097344 7.50070368564413 0  105.2936244718975 0.0006167618722304848 0  105.2937489173164 7.500617251161965 0  110.2936370184579 0.0005310918704347301 0  110.2937589267114 7.500531714142563 0  115.2936520347878 0.0004466365554306749 0  115.2937705241901 7.500447437931199 0  120.2936700466653 0.0003638881558350703 0  120.2937839001324 7.500364929402215 0  125.2936917167388 0.0002835550039510736 0  125.2937992302941 7.500284908538409 0  130.2937178813061 0.0002066890536408553 0  130.2938166413863 7.500208417883534 0  135.2937495855851 0.0001349125798771558 0  135.293836153579 7.500136996210896 0  140.293788091306 7.08372624187164e-05 0  140.2938575969495 7.500072954934209 0  145.2938347768815 1.885835023266518e-05 0  145.2938805271723 7.500019822336831 0  150.2938906891019 -1.338171376487769e-05 0  150.2939042852306 7.499983114541298 0  160.2938926261462 6.543081141215927e-19 0  165.2937918116105 -0.0001092587556223884 0  165.2938736933214 7.499878288644848 0  160.2939078218814 7.499968918117806 0  170.2937251540606 -0.0002176980389958219 0  170.2938390327472 7.499775897110576 0  175.2936789737954 -0.0003251994791488303 0  175.2938085582689 7.499671055270314 0  180.2936458604118 -0.0004311023229089752 0  180.2937830775231 7.499566563668461 0  185.2936214761531 -0.0005351747489647647 0  185.2937622218486 7.499463310133378 0  190.2936031543649 -0.0006374599492742173 0  190.2937453143777 7.49936152252395 0  195.2935891878238 -0.0007381099318155568 0  195.2937316663375 7.4992611850293 0  200.2935784408974 -0.0008373013521267814 0  200.2937206716265 7.499162195960889 0  205.2935701300659 -0.0009352018984585873 0  205.2937118262648 7.499064430567508 0  210.2935636962187 -0.001031960084288243 0  210.293704721098 7.498967765484793 0  215.2935587283206 -0.001127704400771562 0  215.2936990268581 7.498872087233799 0  220.2935549164423 -0.001222545593064252 0  220.2936944788648 7.498777294213029 0  225.2935520219401 -0.001316579562003344 0  225.2936908637609 7.498683296217116 0  230.2935498578983 -0.00140989001825182 0  230.2936880087585 7.498590013170568 0  235.2935482758773 -0.001502550671197732 0  235.293685773168 7.498497373743895 0  240.2935471566461 -0.001594626972657572 0  240.2936840418033 7.498405314083783 0  245.2935464035135 -0.001686177504369618 0  245.2936827198535 7.498313776709552 0  250.2935459373975 -0.001777255104868202 0  250.2936817288839 7.498222709560617 0  255.2935456930996 -0.001867907819103122 0  255.2936810037039 7.498132065157566 0  260.2935456164336 -0.001958179739584889 0  260.2936804898957 7.498041799835551 0  265.2935456619885 -0.002048111796243423 0  265.2936801418654 7.497951873010048 0  270.2935457913727 -0.002137742544401318 0  270.2936799213067 7.497862246437877 0  275.2935459718684 -0.002227108994944248 0  275.2936797960018 7.497772883440039 0  280.2935461754531 -0.002316247524460733 0  280.2936797389149 7.497683748058799 0  285.2935463782199 -0.002405194888406746 0  285.2936797275311 7.497594804134735 0  290.2935465602818 -0.002493989320088418 0  290.2936797434203 7.497506014318851 0  295.2935467063394 -0.002582671591259559 0  295.2936797719801 7.497417339095231 0  300.2935468072022 -0.002671285631215908 0  300.2936798023031 7.497328736001865 0  305.2935468626613 -0.002759877559781439 0  305.2936798271093 7.497240159404686 0  310.2935468861661 -0.002848489893911421 0  310.293679842796 7.49715156126575 0  5.293826490030987 15.00236516898471 0  0.2938264661569057 15.00245135730869 0  10.29382655252357 15.00227886049672 0  15.29382667551502 15.00219240277254 0  20.29382687724524 15.00210577637157 0  25.29382717523389 15.00201897062824 0  30.293827587796 15.0019319821696 0  35.29382813476971 15.0018448134008 0  40.29382883788562 15.00175747129951 0  45.2938297210072 15.0016699666387 0  50.29383081034943 15.00158231365547 0  55.29383213471167 15.00149453015336 0  60.2938337257257 15.00140663803133 0  65.29383561809698 15.00131866425692 0  70.2938378497993 15.00123064233569 0  75.29384046216539 15.00114261437476 0  80.29384349978554 15.00105463389734 0  85.29384701009009 15.0009667696462 0  90.29385104242969 15.00087911072707 0  95.29385564638424 15.00079177360534 0  100.293860868918 15.00070491170111 0  105.2938667498517 15.00061872865633 0  110.2938733149723 15.00053349679252 0  115.2938805660072 15.00044958282388 0  120.2938884668486 15.00036748339995 0  125.2938969262362 15.00028787302307 0  130.2939057794921 15.00021166481328 0  135.2939147774864 15.000140076197 0  140.2939236022682 15.00007466462661 0  145.2939319466737 15.00001721558458 0  150.2939397044106 14.99996909889509 0  165.2939358925034 14.99984555252117 0  160.2939440084644 14.99992620563344 0  170.2939239193791 14.9997540120976 0  175.2939100708214 14.99965669354111 0  180.2938961334905 14.99955703078108 0  185.2938831172036 14.99945684514384 0  190.2938714731351 14.99935702654599 0  195.2938613276298 14.99925797668678 0  200.2938526371834 14.999159849399 0  205.2938452792844 14.9990626755522 0  210.2938391023558 14.99896642709915 0  215.2938339516833 14.99887104963836 0  220.2938296818589 14.99877647878258 0  225.2938261619238 14.99868264822691 0  230.293823276721 14.9985894935792 0  235.2938209263909 14.9984969540379 0  240.2938190250492 14.9984049729834 0  245.293817499187 14.99831349802412 0  250.2938162860694 14.9982224807692 0  255.2938153322501 14.99813187646049 0  260.2938145922549 14.99804164352505 0  265.2938140274418 14.9979517430723 0  270.2938136050323 14.99786213834091 0  275.2938132972863 14.99777279409197 0  280.293813080803 14.9976836759421 0  285.2938129359104 14.99759474963336 0  290.2938128460933 14.99750598024075 0  295.2938127974262 14.99741733131539 0  300.2938127779439 14.99732876391233 0  305.293812776928 14.99724023523894 0  310.2938127841044 14.99715169592113 0  5.29395555216966 22.50236537118327 0  0.2939555252801649 22.5024513949878 0  10.29395561358902 22.50227915363424 0  15.29395573037042 22.50219274478502 0  20.29395591733497 22.50210614575201 0  25.29395618635974 22.50201935894799 0  30.29395654826223 22.50193238917766 0  35.29395701387336 22.5018452439734 0  40.2939575945832 22.50175793364552 0  45.29395830255962 22.50167047132856 0  50.29395915076439 22.50158287318357 0  55.29396015282795 22.50149515884808 0  60.2939613228022 22.5014073521993 0  65.29396267477773 22.50131948249357 0  70.29396422232375 22.50123158596005 0  75.29396597768783 22.50114370795675 0  80.29396795066464 22.50105590583771 0  85.29397014701736 22.50096825273643 0  90.29397256630847 22.50088084254151 0  95.2939751989751 22.50079379642652 0  100.2939780224821 22.50070727138992 0  105.293980996437 22.50062147133621 0  110.2939840567085 22.50053666122168 0  115.2939871089486 22.50045318453871 0  120.2939900226445 22.50037148358026 0  125.2939926281184 22.50029211977921 0  130.2939947209312 22.50021578647837 0  135.2939960807285 22.500143295918 0  140.2939965130383 22.50007550117278 0  145.2939959170364 22.50001307674683 0  150.2939943537662 22.49995603872728 0  165.2940028806405 22.49981035848122 0  160.293997822683 22.49988657669698 0  170.2940041163691 22.4997256223129 0  175.294002261205 22.49963498020046 0  180.2939983322014 22.49954077449455 0  185.2939932659569 22.49944472414645 0  190.2939877592215 22.49934794375164 0  195.2939822707161 22.4992511049704 0  200.2939770743841 22.49915458980844 0  205.2939723157371 22.49905860099691 0  210.2939680568138 22.49896323371776 0  215.2939643082353 22.49886852006261 0  220.2939610507131 22.49877445594022 0  225.2939582489247 22.4986810171524 0  230.2939558601781 22.49858816892271 0  235.2939538396602 22.49849587150401 0  240.2939521434925 22.49840408344325 0  245.2939507304127 22.49831276344109 0  250.2939495626065 22.49822187136224 0  255.2939486060324 22.49813136872425 0  260.2939478304413 22.49804121885968 0  265.2939472092278 22.49795138686564 0  270.2939467191836 22.49786183940981 0  275.2939463401962 22.49777254443355 0  280.2939460549023 22.49768347077831 0  285.2939458482971 22.49759458775039 0  290.2939457072725 22.49750586462804 0  295.2939456200584 22.49741727008771 0  300.2939455755088 22.49732877145797 0  305.29
[...]
<PointData  Vectors="v"> 
<DataArray  type="Float64"  Name="v"  NumberOfComponents="3" format="ascii">3.6577454286323823e+00 -1.6109678697126100e+00 0.0000000000000000e+00  3.5123364187690624e+00 -1.8381789974653546e+00 0.0000000000000000e+00  2.8950476728082561e+00 -1.6200646272782848e+00 0.0000000000000000e+00  3.0021407959651936e+00 -1.4510591002773430e+00 0.0000000000000000e+00  3.2681560339434670e+00 -2.3511172439523631e+00 0.0000000000000000e+00  2.7495710172321766e+00 -1.9852731608329901e+00 0.0000000000000000e+00  2.9629599483100537e+00 -3.0830755279198625e+00 0.0000000000000000e+00  2.5056895173337770e+00 -2.6257981791830396e+00 0.0000000000000000e+00  2.6049430039327537e+00 -3.7937781141267184e+00 0.0000000000000000e+00  2.2010220054421903e+00 -3.2578065266779630e+00 0.0000000000000000e+00  2.1991857286126870e+00 -4.6347744565189366e+00 0.0000000000000000e+00  1.8438597205894338e+00 -4.0277035480633616e+00 0.0000000000000000e+00  1.8036405290431750e+00 -5.3903795395749130e+00 0.0000000000000000e+00  1.4397800917442416e+00 -4.7989486059542736e+00 0.0000000000000000e+00  1.6314653182377079e+00 -5.8124175237202236e+00 0.0000000000000000e+00  1.0464382497972202e+00 -5.5569300752229811e+00 0.0000000000000000e+00  1.1321481343969777e+00 -6.6754336953521207e+00 0.0000000000000000e+00  8.7715324443549780e-01 -5.9299634676271893e+00 0.0000000000000000e+00  3.0268867888196662e+00 -3.9470562970419576e+00 0.0000000000000000e+00  3.8189136106384902e-01 -6.7930935895745099e+00 0.0000000000000000e+00  -1.3460535291899207e+00 -1.0494498107396371e+01 0.0000000000000000e+00  2.2815889939273690e+00 -3.9404865103848561e+00 0.0000000000000000e+00  2.8409680335427095e-02 -8.1907014434644836e+00 0.0000000000000000e+00  -2.0865192380752924e+00 -1.0257839758393661e+01 0.0000000000000000e+00  3.1570319816214981e-01 -7.5217571101780205e+00 0.0000000000000000e+00  -7.0553210906857688e-01 -7.9605193187081422e+00 0.0000000000000000e+00  -2.0175565610688347e-02 -7.8290282875087467e+00 0.0000000000000000e+00  -4.0921498982075061e-01 -7.3350573013843556e+00 0.0000000000000000e+00  -8.0947783601450352e-01 -8.8139114531323877e+00 0.0000000000000000e+00  -7.3401204749440085e-01 -7.6422668826195732e+00 0.0000000000000000e+00  -1.8670998519196438e+00 -1.0142247620865472e+01 0.0000000000000000e+00  -1.5089715563614965e+00 -8.5695472087742957e+00 0.0000000000000000e+00  -3.1370657416052978e+00 -1.1671408323938845e+01 0.0000000000000000e+00  -2.5500911581573673e+00 -9.7832127888734117e+00 0.0000000000000000e+00  -4.5747739380204342e+00 -1.3361769011819504e+01 0.0000000000000000e+00  -3.8011949473183013e+00 -1.1224415323992709e+01 0.0000000000000000e+00  -6.1353984977502485e+00 -1.5028792073064663e+01 0.0000000000000000e+00  -5.2160402807028783e+00 -1.2709039077126265e+01 0.0000000000000000e+00  -7.7832630453510223e+00 -1.6666266447602336e+01 0.0000000000000000e+00  -6.7514393036950002e+00 -1.4219650419333181e+01 0.0000000000000000e+00  -9.4780284913641282e+00 -1.8190328478537584e+01 0.0000000000000000e+00  -8.3702764017768150e+00 -1.5675842577584522e+01 0.0000000000000000e+00  -1.1152811835220392e+01 -1.9499697022792468e+01 0.0000000000000000e+00  -1.0032205515035415e+01 -1.7018994034519867e+01 0.0000000000000000e+00  -1.2745361298030867e+01 -2.0411148525018710e+01 0.0000000000000000e+00  -1.1669093677004112e+01 -1.8056567900509005e+01 0.0000000000000000e+00  -1.4203207856533822e+01 -2.1024533499201592e+01 0.0000000000000000e+00  -1.3222056688066413e+01 -1.8878352810105152e+01 0.0000000000000000e+00  -1.5453228864970315e+01 -2.0823188502765532e+01 0.0000000000000000e+00  -1.4630613120445561e+01 -1.8987737583458991e+01 0.0000000000000000e+00  -1.6477109889541850e+01 -2.0146956030800347e+01 0.0000000000000000e+00  -1.5834004593099538e+01 -1.8663098759460635e+01 0.0000000000000000e+00  -1.7227522172328730e+01 -1.8261709601706475e+01 0.0000000000000000e+00  -1.6795074034285296e+01 -1.7179897834429983e+01 0.0000000000000000e+00  -1.7742336926191111e+01 -1.5437674032352353e+01 0.0000000000000000e+00  -1.7493164317441337e+01 -1.4731719578697724e+01 0.0000000000000000e+00  -1.8011421297772650e+01 -1.1392227946209903e+01 0.0000000000000000e+00  -1.7928591627156305e+01 -1.1033984015296463e+01 0.0000000000000000e+00  -1.8136944109833635e+01 -4.7460514948357426e+00 0.0000000000000000e+00  -1.8141698827244760e+01 -4.6420724182547843e+00 0.0000000000000000e+00  -1.8163563200645886e+01 1.1163685124491373e-11 0.0000000000000000e+00  -1.8163229804171529e+01 3.1823270610238798e-04 0.0000000000000000e+00  -1.8163563200134831e+01 -1.6648129977427686e-19 0.0000000000000000e+00  -1.3885413557821940e+01 1.1515440245088183e+01 0.0000000000000000e+00  -1.8132849753657677e+01 5.1336017416973236e+00 0.0000000000000000e+00  -1.8163230956572569e+01 -3.3661400242479924e-04 0.0000000000000000e+00  -1.2623388571571097e+01 2.0107810662663230e+01 0.0000000000000000e+00  -1.3904316313722640e+01 1.8284079502095050e+01 0.0000000000000000e+00  -1.0751271162269108e+01 2.3970369433139687e+01 0.0000000000000000e+00  -1.2701028805652756e+01 2.1198754233116052e+01 0.0000000000000000e+00  -9.6668769664192062e+00 2.4796417142224588e+01 0.0000000000000000e+00  -1.0883573989822077e+01 2.3217886704172923e+01 0.0000000000000000e+00  -8.4439464993776081e+00 2.4350460574413713e+01 0.0000000000000000e+00  -9.8482470041138015e+00 2.2555818331759763e+01 0.0000000000000000e+00  -7.4340805589058601e+00 2.2831624069209965e+01 0.0000000000000000e+00  -8.6710257497373018e+00 2.1357119249067196e+01 0.0000000000000000e+00  -6.4856988669223092e+00 2.1048665793163106e+01 0.0000000000000000e+00  -7.7057141402598326e+00 1.9661597918197682e+01 0.0000000000000000e+00  -5.6336635028876474e+00 1.9038619855077393e+01 0.0000000000000000e+00  -6.7979707278498376e+00 1.7796597527497006e+01 0.0000000000000000e+00  -4.7453557866255229e+00 1.7225248467456581e+01 0.0000000000000000e+00  -5.9846719777940853e+00 1.5925751583508440e+01 0.0000000000000000e+00  -4.0358706987018920e+00 1.5488193629124225e+01 0.0000000000000000e+00  -5.1336452012893217e+00 1.4455788938562636e+01 0.0000000000000000e+00  -3.4045282583612191e+00 1.3973253463573457e+01 0.0000000000000000e+00  -4.4593087880781628e+00 1.3056936885311046e+01 0.0000000000000000e+00  -2.7520003300502243e+00 1.2758342163301732e+01 0.0000000000000000e+00  -3.8616107620708275e+00 1.1809003232892335e+01 0.0000000000000000e+00  -2.1572995033922604e+00 1.1698752482433957e+01 0.0000000000000000e+00  -3.2417209697011629e+00 1.0834859731315850e+01 0.0000000000000000e+00  -1.6201858116781935e+00 1.0776255730674945e+01 0.0000000000000000e+00  -2.6781587325429439e+00 9.9980976784884312e+00 0.0000000000000000e+00  -1.1387287389830680e+00 9.9318581684749461e+00 0.0000000000000000e+00  -2.1710782529458603e+00 9.2361649800003320e+00 0.0000000000000000e+00  -7.2235668587367485e-01 9.1280762172819419e+00 0.0000000000000000e+00  -1.7188435002870133e+00 8.5291947774429726e+00 0.0000000000000000e+00  -3.6607063059824435e-01 8.3698619674904009e+00 0.0000000000000000e+00  -1.3306962886513647e+00 7.8605633875352448e+00 0.0000000000000000e+00  -5.4395380390135209e-02 7.6282786916828149e+00 0.0000000000000000e+00  -1.0018348882229002e+00 7.1852811208463887e+00 0.0000000000000000e+00  2.0940489545112234e-01 6.9029076309452151e+00 0.0000000000000000e+00  -7.1706793207998576e-01 6.5311255276684497e+00 0.0000000000000000e+00  4.3025417169596075e-01 6.1874330383201128e+00 0.0000000000000000e+00  -4.7946119702030054e-01 5.8797995167018566e+00 0.0000000000000000e+00  6.1498080498796692e-01 5.4828577375655803e+00 0.0000000000000000e+00  -2.8441786898723698e-01 5.2288853616666371e+00 0.0000000000000000e+00  7.6418700293226527e-01 4.7615725068623220e+00 0.0000000000000000e+00  -1.2494848699415512e-01 4.5607441749878168e+00 0.0000000000000000e+00  8.7109740126554480e-01 4.0827333582642567e+00 0.0000000000000000e+00  -9.3530592161810366e-04 3.9447768886991224e+00 0.0000000000000000e+00  9.4570827737837992e-01 3.3284837567300252e+00 0.0000000000000000e+00  8.1658184666925593e-02 3.2393393231188568e+00 0.0000000000000000e+00  9.7407175838490656e-01 2.6978068662471033e+00 0.0000000000000000e+00  1.3118496182570305e-01 2.6767814104616807e+00 0.0000000000000000e+00  9.6047107588640013e-01 1.8798122229329222e+00 0.0000000000000000e+00  1.3638588131225704e-01 1.9233833709756600e+00 0.0000000000000000e+00  8.9598045870893994e-01 1.3983942116962658e+00 0.0000000000000000e+00  9.7015387662724287e-02 1.5151470438156438e+00 0.0000000000000000e+00  7.6614636387341672e-01 4.3056876567175839e-01 0.0000000000000000e+00  1.1589293571602212e-02 6.5023860795628952e-01 0.0000000000000000e+00  5.2170295643497544e-01 -5.0309811026764677e-02 0.0000000000000000e+00  -1.4741208779755599e-01 3.3233622913674105e-01 0.0000000000000000e+00  -5.9097161122680250e-02 -2.8478502731784600e-01 0.0000000000000000e+00  -4.0350863380572971e-01 6.1987986548173579e-01 0.0000000000000000e+00  2.0090629765639783e+00 -1.4584014730935984e+00 0.0000000000000000e+00  2.1168725412539140e+00 -1.2916000553881282e+00 0.0000000000000000e+00  1.9002852575985525e+00 -1.7657195816983768e+00 0.0000000000000000e+00  1.7525667507792606e+00 -2.2587905892104119e+00 0.0000000000000000e+00  1.5065022378338055e+00 -2.7997102616239622e+00 0.0000000000000000e+00  1.1999405553833282e+00 -3.4907991804644678e+00 0.0000000000000000e+00  8.4115204460967130e-01 -4.1923786130429717e+00 0.0000000000000000e+00  4.3631522217647351e-01 -4.9672185043259454e+00 0.0000000000000000e+00  4.3569442574462054e-02 -5.6765502397863328e+00 0.0000000000000000e+00  -1.2399784325923066e-01 -6.0524112179272525e+00 0.0000000000000000e+00  -6.1500854696660090e-01 -6.7938980568808756e+00 0.0000000000000000e+00  1.2899495940216381e+00 -3.7060383564942638e+00 0.0000000000000000e+00  -3.0789124461400696e+00 -1.0031189173675203e+01 0.0000000000000000e+00  -1.6975371043779803e+00 -7.7836565308954322e+00 0.0000000000000000e+00  -1.3940287241627933e+00 -7.1601660542782604e+00 0.0000000000000000e+00  -1.7080482755810873e+00 -7.4168087807975587e+00 0.0000000000000000e+00  -2.4665886342837084e+00 -8.2333919270391576e+00 0.0000000000000000e+00  -3.4870073520693277e+00 -9.3610914904135338e+00 0.0000000000000000e+00  -4.7137813191397901e+00 -1.0604242961978178e+01 0.0000000000000000e+00  -6.0987870892546105e+00 -1.1937165727746027e+01 0.0000000000000000e+00  -7.5987966189875680e+00 -1.3269528530332327e+01 0.0000000000000000e+00  -9.1777028791327862e+00 -1.4554652664679123e+01 0.0000000000000000e+00  -1.0791422925239655e+01 -1.5632163715284280e+01 0.0000000000000000e+00  -1.2373434015726295e+01 -1.6585827598244382e+01 0.0000000000000000e+00  -1.3862608896589784e+01 -1.6914780295342108e+01 0.0000000000000000e+00  -1.5199333950655044e+01 -1.6910204279508356e+01 0.0000000000000000e+00  -1.6316721321474702e+01 -1.5783552648353327e+01 0.0000000000000000e+00  -1.7189004794010906e+01 -1.3760255519409377e+01 0.0000000000000000e+00  -1.7771328619715653e+01 -1.0424182983402467e+01 0.0000000000000000e+00  -1.8104142148911105e+01 -4.4353894936614990e+00 0.0000000000000000e+00  -1.8162421559645846e+01 6.0657470534167723e-04 0.0000000000000000e+00  -1.8092019454928572e+01 4.9376335996229814e+00 0.0000000000000000e+00  -1.8162423635331614e+01 -6.9196876223744596e-04 0.0000000000000000e+00  -1.7900934080654064e+01 1.1960148500391492e+01 0.0000000000000000e+00  -1.3742957536356002e+01 1.9451357439136611e+01 0.0000000000000000e+00  -1.2626028942941085e+01 2.0534225368041437e+01 0.0000000000000000e+00  -1.0876593950498666e+01 2.1042917262402394e+01 0.0000000000000000e+00  -9.9048085630138765e+00 1.9620996941724560e+01 0.0000000000000000e+00  -8.7792845234269432e+00 1.8246724778068064e+01 0.0000000000000000e+00  -7.8646290661955298e+00 1.6461127898412290e+01 0.0000000000000000e+00  -7.0005201758310962e+00 1.4730311214900643e+01 0.0000000000000000e+00  -6.2276397795788343e+00 1.3202805282608292e+01 0.0000000000000000e+00  -5.4144468346716534e+00 1.2067010747267284e+01 0.0000000000000000e+00  -4.7754570400024159e+00 1.0932206323067435e+01 0.0000000000000000e+00  -4.2106807855355752e+00 9.9246715700317818e+00 0.0000000000000000e+00  -3.6225008124216043e+00 9.1708924923671464e+00 0.0000000000000000e+00  -3.0887189053579318e+00 8.4924957402291916e+00 0.0000000000000000e+00  -2.6096876018052741e+00 7.8673887807419023e+00 0.0000000000000000e+00  -2.1843443090600321e+00 7.2939052567887614e+00 0.0000000000000000e+00  -1.8217391021011349e+00 6.7067051345391127e+00 0.0000000000000000e+00  -1.5171999100576545e+00 6.1183551818029676e+00 0.0000000000000000e+00  -1.2559539968970781e+00 5.5372021135418326e+00 0.0000000000000000e+00  -1.0410377842310348e+00 4.9495198813239787e+00 0.0000000000000000e+00  -8.6790081628573279e-01 4.3347065563443063e+00 0.0000000000000000e+00  -7.2995606421719472e-01 3.7712948801427180e+00 0.0000000000000000e+00  -6.2683420930503242e-01 3.1281604324905499e+00 0.0000000000000000e+00  -5.6495485707745219e-01 2.6142747005800899e+00 0.0000000000000000e+00  -5.3542989291940379e-01 1.9285583476858676e+00 0.0000000000000000e+00  -5.5066143591809102e-01 1.5844269956579906e+00 0.0000000000000000e+00  -6.0873296423407053e-01 7.9281570058057804e-01 0.0000000000000000e+00  -7.1477644065548318e-01 5.7817168672652308e-01 0.0000000000000000e+00  -8.9110470846527012e-01 1.0197472201154729e+00 0.0000000000000000e+00  7.0025229508753983e-01 -1.2944129200654158e+00 0.0000000000000000e+00  7.9227722112846288e-01 -1.1569790622561962e+00 0.0000000000000000e+00  5.8872516712443557e-01 -1.5987307156537738e+00 0.0000000000000000e+00  4.7369288185568148e-01 -2.0332480594296429e+00 0.0000000000000000e+00  3.1969071189571080e-01 -2.4261699400030294e+00 0.0000000000000000e+00  6.6584041946615047e-02 -3.0265381862320426e+00 0.0000000000000000e+00  -2.4709064799485470e-01 -3.6505113084218110e+00 0.0000000000000000e+00  -6.1188484902689555e-01 -4.3568310018994838e+00 0.0000000000000000e+00  -1.0216520910184517e+00 -5.0859287799353350e+00 0.0000000000000000e+00  -1.4170881010298806e+00 -5.8021596489764029e+00 0.0000000000000000e+00  -1.5832313835858522e+00 -6.0613316669068977e+00 0.0000000000000000e+00  -2.0689260589497658e+00 -6.5675802597640232e+00 0.0000000000000000e+00  -1.6355117020549109e-01 -3.4726803582418806e+00 0.0000000000000000e+00  -4.5452475346804189e+00 -9.8478758624650204e+00 0.0000000000000000e+00  -3.1746340133938626e+00 -7.6185683145808767e+00 0.0000000000000000e+00  -2.8690968650103437e+00 -6.9550633413760004e+00 0.0000000000000000e+00  -3.1713726905291719e+00 -7.1109371004873854e+00 0.0000000000000000e+00  -3.9101499996323170e+00 -7.8517491666988697e+00 0.0000000000000000e+00  -4.9036813978482963e+00 -8.7910011059866022e+00 0.0000000000000000e+00  -6.0951783222302582e+00 -9.8918768655661253e+00 0.0000000000000000e+00  -7.4373941766308302e+00 -1.1058585237370556e+01 0.0000000000000000e+00  -8.8861159169908532e+00 -1.2233754716702151e+01 0.0000000000000000e+00  -1.0401436814588836e+01 -1.3265382986369403e+01 0.0000000000000000e+00  -1.1941034648178150e+01 -1.4280780993090985e+01 0.0000000000000000e+00  -1.3431963865721581e+01 -1.4755055885594356e+01 0.0000000000000000e+00  -1.4816512738542306e+01 -1.5000806848495657e+01 0.0000000000000000e+00  -1.6023330593653007e+01 -1.4203441577668276e+01 0.0000000000000000e+00  -1.6999355922588652e+01 -1.2591318980388216e+01 0.0000000000000000e+00  -1.7688196428933207e+01 -9.6569428621429996e+00 0.0000000000000000e+00  -1.8095456360406736e+01 -4.1512161200024682e+00 0.0000000000000000e+00  -1.8161163058105828e+01 8.6606135830176532e-04 0.0000000000000000e+00  -1.8071376987630956e+01 4.5925258013280823e+00 0.0000000000000000e+00  -1.8161165171140222e+01 -1.0058291553010780e-03 0.0000000000000000e+00  -1.7669556608035897e+01 1.1610242374461926e+01 0.0000000000000000e+00  -1.7468316054340839e+01 1.3303886312849329e+01 0.0000000000000000e+00  -1.3434036820302866e+01 1.8967431962036063e+01 0.0000000000000000e+00  -1.2455752754244196e+01 1.8498717571511946e+01 0.0000000000000000e+00  -1.0814509104233352e+01 1.8240404918938765e+01 0.0000000000000000e+00  -9.9360398857981789e+00 1.6617522440056725e+01 0.0000000000000000e+00  -8.8886543549871693e+00 1.5145725557616972e+01 0.0000000000000000e+00  -8.0446802267440614e+00 1.3482936128990300e+01 0.0000000000000000e+00  -7.2416092551869715e+00 1.2088272017761057e+01 0.0000000000000000e+00  -6.5251584946026222e+00 1.0887974285746267e+01 0.0000000000000000e+00  -5.7633828756620620e+00 1.0012346129072046e+01 0.0000000000000000e+00  -5.1722830008284451e+00 9.1133646383138132e+00 0.0000000000000000e+00  -4.6528048472759949e+00 8.3227313599549664e+00 0.0000000000000000e+00  -4.1073815529106374e+00 7.7240471097024930e+00 0.0000000000000000e+00  -3.6135713523233468e+00 7.1790547523366168e+00 0.0000000000000000e+00  -3.1722437105255143e+00 6.6843924630201563e+00 0.0000000000000000e+00  -2.7823215704466073e+00 6.1899087078670814e+00 0.0000000000000000e+00  -2.4530668495024117e+00 5.6871523503990762e+00 0.0000000000000000e+00  -2.1801753361782721e+00 5.1698813980649359e+00 0.0000000000000000e+00  -1.9491452858873850e+00 4.6506833084562258e+00 0.0000000000000000e+00  -1.7630704267375072e+00 4.0978659429865276e+00 0.0000000000000000e+00  -1.6179660055352607e+00 3.5863059460274553e+00 0.0000000000000000e+00  -1.5069768526493332e+00 2.9954289113447676e+00 0.0000000000000000e+00  -1.4305466432895471e+00 2.5420324338884512e+00 0.0000000000000000e+00  -1.3940677776654484e+00 1.9060041093950661e+00 0.0000000000000000e+00  -1.3906130883457535e+00 1.6258279290175757e+00 0.0000000000000000e+00  -1.4290313386943665e+00 9.0286249971578370e-01 0.0000000000000000e+00  -1.5140425348707902e+00 7.5164188106149410e-01 0.0000000000000000e+00  -1.6369447861143480e+00 1.3085999525362177e+00 0.0000000000000000e+00  -5.0463565638811025e-01 -1.1531488610458713e+00 0.0000000000000000e+00  -4.3289079423289123e-01 -1.0540527968534334e+00 0.0000000000000000e+00  -6.0181999619599857e-01 -1.4256362313763808e+00 0.0000000000000000e+00  -7.2283525908921353e-01 -1.8529797173239069e+00 0.0000000000000000e+00  -8.4926267810056666e-01 -2.1864085453793827e+00 0.0000000000000000e+00  -1.0164218220716810e+00 -2.6374867600801393e+00 0.0000000000000000e+00  -1.2833881826989149e+00 -3.1700240240728785e+00 0.0000000000000000e+00  -1.6113162170399917e+00 -3.8003131689744047e+00 0.0000000000000000e+00  -1.9895686083026671e+00 -4.4632912319533560e+00 0.0000000000000000e+00  -2.4102710756738150e+00 -5.2032866520317409e+00 0.0000000000000000e+00  -2.8123022012497367e+00 -5.8110322004949895e+00 0.0000000000000000e+00  -2.9799726207159538e+00 -5.8399845117124585e+00 0.0000000000000000e+00  -3.4657290868306228e+00 -6.3248717926958804e+00 0.0000000000000000e+00  -1.5749454220950450e+00 -3.2530643496228189e+00 0.0000000000000000e+00  -5.9929590239124373e+00 -9.6503017139768481e+00 0.0000000000000000e+00  -4.6529981986854052e+00 -7.4038747285576649e+00 0.0000000000000000e+00  -4.3597171976286315e+00 -6.6569312383448302e+00 0.0000000000000000e+00  -4.6620850151477429e+00 -6.7518697640743541e+00 0.0000000000000000e+00  -5.3888709699017214e+00 -7.3142146409028577e+00 0.0000000000000000e+00  -6.3624713831519077e+00 -8.1257168708185610e+00 0.0000000000000000e+00  -7.5250103177619110e+00 -9.0723841415028676e+00 0.0000000000000000e+00  -8.8281757686282258e+00 -1.0095886734055886e+01 0.0000000000000000e+00  -1.0226235438109903e+01 -1.1036411567593223e+01 0.0000000000000000e+00  -1.1678103002202562e+01 -1.2030172183921021e+01 0.0000000000000000e+00  -1.3133328785336573e+01 -1.2585811033194162e+01 0.0000000000000000e+00  -1.4523106774359478e+01 -1.3018989873242944e+01 0.0000000000000000e+00  -1.5773108593153527e+01 -1.2491405052242971e+01 0.0000000000000000e+00  -1.6827270168732266e+01 -1.1279078786675633e+01 0.0000000000000000e+00  -1.7594209413945784e+01 -8.7458129017012300e+00 0.0000000000000000e+00  -1.8073710846920342e+01 -3.7955617544331659e+00 0.0000000000000000e+00  -1.8159505223427484e+01 1.0956042127657894e-03 0.0000000000