<?xml version="1.0"?>
<VTKFile type="UnstructuredGrid"  version="0.1"  >
<UnstructuredGrid>
<Piece  NumberOfPoints="1933" NumberOfCells="3640">
<Points>
<DataArray  type="Float64"  NumberOfComponents="3"  format="ascii">0.2940293472411502 -0.001374547731147548 0  5.294029378441721 -0.001340952352318973 0  5.293978978628843 7.498659122965064 0  0.2939789351094133 7.498625507721239 0  10.29402943074682 -0.001307414663060137 0  10.29397905101271 7.498692664050268 0  15.29402953492198 -0.001273933132909247 0  15.2939791640338 7.498726143872745 0  20.29402971759113 -0.001240485833776191 0  20.29397932743507 7.498759588293722 0  25.29402999925788 -0.001207040188979367 0  25.29397954896071 7.498793031237574 0  30.29403039474209 -0.001173557597784198 0  30.29397983399669 7.498826511696439 0  35.29403091417233 -0.001139995516824629 0  35.29398018529971 7.49886007224916 0  40.29403156391347 -0.001106308164982598 0  40.29398060281143 7.49889375858708 0  45.29403234724562 -0.001072446426197522 0  45.29398108347112 7.49892761969793 0  50.29403326476137 -0.001038357236605023 0  50.29398162094366 7.498961708505945 0  55.29403431448645 -0.001003982586745088 0  55.29398220519382 7.498996082870438 0  60.29403549172806 -0.0009692581766746669 0  60.29398282184271 7.499030806916438 0  65.29403678863551 -0.0009341116980833543 0  65.29398345123303 7.499065952724648 0  70.29403819342195 -0.0008984606639389182 0  70.29398406711124 7.499101602454355 0  75.29403968915528 -0.0008622096499986085 0  75.29398463479959 7.499137851020003 0  80.29404125195019 -0.0008252467423592099 0  80.29398510867794 7.499174809498433 0  85.29404284829103 -0.0007874388884094102 0  85.29398542872634 7.499212609513214 0  90.29404443102403 -0.0007486257084909171 0  90.29398551577796 7.499251408930823 0  95.29404593325668 -0.0007086111192702352 0  95.29398526501079 7.499291399308577 0  100.2940472588437 -0.0006671518163162916 0  100.2939845370699 7.499332815639861 0  105.2940482671689 -0.0006239412262124584 0  105.2939831461149 7.49937594899575 0  110.2940487481391 -0.0005785869406068466 0  110.2939808441661 7.499421162515123 0  115.2940483800241 -0.000530578921969766 0  115.2939773017424 7.499468910496911 0  120.2940466566632 -0.000479245183561007 0  120.2939720867504 7.499519758273888 0  125.2940427591379 -0.0004236921435329247 0  125.2939646487708 7.499574395283809 0  130.2940353255984 -0.0003627314345323467 0  130.2939543282916 7.499633621450742 0  135.2940220327159 -0.0002948129353274753 0  135.2939404386319 7.499698260119111 0  140.2939988259989 -0.0002180459280111434 0  140.2939225303944 7.499768897579156 0  145.2939584864061 -0.0001306106497689578 0  145.2939010843335 7.499845268552018 0  150.2938878886837 -3.272843896439762e-05 0  150.2938791913867 7.499925129706118 0  160.2938926261461 1.227948695774031e-18 0  165.2938720793069 -5.570060196468933e-05 0  165.2938894620532 7.499931913677131 0  160.2938909710828 7.499970732898924 0  170.2938712301761 -8.868975741878446e-05 0  170.2938876187317 7.499905333833697 0  175.293878897803 -0.0001060352647419922 0  175.293887833885 7.499890894909048 0  180.293889879472 -0.0001120285633206847 0  180.2938900724979 7.499886352894997 0  185.293901711957 -0.0001096354457304152 0  185.2938937560425 7.499889506701949 0  190.2939132496199 -0.0001009729003695081 0  190.293898301896 7.499898579167718 0  195.2939239919989 -8.756792785942738e-05 0  195.2939032564427 7.499912209420003 0  200.2939337546794 -7.053224501652003e-05 0  200.2939083023816 7.49992937092347 0  205.2939425056904 -5.068475102664084e-05 0  205.2939132321917 7.499949289629492 0  210.2939502836987 -2.863695943944035e-05 0  210.2939179180464 7.499971378094076 0  215.2939571571445 -4.852248166284194e-06 0  215.2939222869088 7.499995186085576 0  220.2939632040224 2.031302514376093e-05 0  220.2939263021336 7.500020364561091 0  225.2939685021268 4.658080328730999e-05 0  225.2939299505971 7.50004663961787 0  230.2939731246115 7.373104883557139e-05 0  230.293933233981 7.500073793633332 0  235.2939771382529 0.0001015872285837601 0  235.293936162994 7.500101651515955 0  240.2939806030718 0.0001300057710775047 0  240.2939387536119 7.500130070583538 0  245.2939835726418 0.0001588682972797142 0  245.2939410246819 7.500158933029986 0  250.2939860947261 0.0001880758183289695 0  250.2939429964445 7.500188140259242 0  255.2939882120862 0.0002175443571550183 0  255.2939446896783 7.500217608588445 0  260.2939899633672 0.0002472016290075061 0  260.293946125257 7.500247265979271 0  265.2939913840509 0.0002769845413571014 0  265.293947323991 7.500277049570012 0  270.2939925074519 0.0003068373680796227 0  270.2939483066626 7.500306903867267 0  275.2939933657926 0.0003367105327818323 0  275.2939490941698 7.500336779528245 0  280.2939939913416 0.0003665600158922805 0  280.2939497077368 7.500366632732144 0  285.2939944176306 0.0003963474946188554 0  285.2939501691161 7.500396425211115 0  290.2939946806528 0.0004260414524328078 0  290.2939505007243 7.500426125093671 0  295.2939948198688 0.0004556196775989476 0  295.2939507256576 7.500455708808223 0  300.2939948785078 0.0004850738258466969 0  300.2939508675786 7.500485164394952 0  305.2939949020551 0.0005144170043366696 0  305.2939509506883 7.500514496664691 0  310.2939949324438 0.0005436952253847272 0  310.2939510005892 7.500543734791343 0  5.293928439787918 14.99865928183198 0  0.2939283965624784 14.99862564204548 0  10.29392849926456 14.99869281535429 0  15.29392858215041 14.99872627768182 0  20.29392869110402 14.99875970344751 0  25.2939288264878 14.99879312952321 0  30.29392898691357 14.99882659542325 0  35.29392916913834 14.99886014329102 0  40.29392936772271 14.99889381802848 0  45.2939295745887 14.9989276676986 0  50.29392977850119 14.99896174420825 0  55.29392996445105 14.99899610426051 0  60.29393011290076 14.99903081057994 0  65.29393019884779 14.99906593343587 0  70.2939301906552 14.99910155251241 0  75.29393004860279 14.99913775919554 0  80.29392972311554 14.99917465936593 0  85.29392915265535 14.99921237679377 0  90.29392826131921 14.99925105721665 0  95.29392695632124 14.99929087311049 0  100.2939251257923 14.99933202897556 0  105.2939226378362 14.99937476653064 0  110.2939193426734 14.99941936830005 0  115.2939150812832 14.9994661562486 0  120.2939097065226 14.99951547857373 0  125.2939031266014 14.99956767114591 0  130.2938953858551 14.99962296828394 0  135.2938868020624 14.99968131772376 0  140.2938781759937 14.99974202402871 0  145.2938710561156 14.9998031008016 0  150.2938679189432 14.99986012995177 0  165.2938844400242 14.99989822719364 0  160.293882177068 14.99991234834009 0  170.2938836368825 14.999886749608 0  175.2938820237765 14.9998807830212 0  180.2938807775925 14.99988090373331 0  185.2938803064721 14.99988661974514 0  190.2938806332946 14.99989710432807 0  195.2938816247539 14.99991151493692 0  200.2938831059926 14.9999291073907 0  205.2938849111493 14.99994926224887 0  210.2938869016006 14.99997147741657 0  215.2938889692369 14.99999535025372 0  220.293891033578 15.00002055856246 0  225.2938930369429 15.00004684377595 0  230.2938949395403 15.000073997154 0  235.2938967152017 15.00010184882899 0  240.293898347931 15.00013025924864 0  245.293899829234 15.00015911253082 0  250.2939011561083 15.00018831131044 0  255.2939023295594 15.00021777274246 0  260.2939033535192 15.00024742540875 0  265.2939042340674 15.00027720694541 0  270.2939049788712 15.00030706226679 0  275.2939055967777 15.00033694231078 0  280.2939060975093 15.00036680327085 0  285.2939064914478 15.0003966063119 0  290.2939067894962 15.00042631778244 0  295.2939070031239 15.00045590991508 0  300.2939071447749 15.00048536191239 0  305.2939072290743 15.00051466105507 0  310.2939072756052 15.00054380286449 0  5.293877836043862 22.49865956620816 0  0.2938777958346873 22.49862594340243 0  10.29387787930342 22.4986930644371 0  15.29387792737909 22.49872648520212 0  20.29387797902672 22.49875986975223 0  25.29387803090669 22.49879325751512 0  30.29387807806788 22.4988266882053 0  35.29387811400234 22.49886020293441 0  40.29387813043549 22.49889384493611 0  45.29387811697273 22.4989276602161 0  50.29387806066924 22.49896169826894 0  55.29387794554808 22.49899601292363 0  60.29387775207902 22.49903066334693 0  65.29387745662818 22.499065715221 0  70.29387703089874 22.49910124210387 0  75.29387644141481 22.49913732696929 0  80.2938756491407 22.49917406389568 0  85.29387460941149 22.49921155981697 0  90.29387327247233 22.49924993614079 0  95.29387158511891 22.49928932983968 0  100.2938694942249 22.49932989326312 0  105.2938669533665 22.49937179130135 0  110.2938639343191 22.49941519348581 0  115.2938604458686 22.49946025691658 0  120.2938565629292 22.49950709328846 0  125.2938524688483 22.49955570957368 0  130.2938485117176 22.49960590746753 0  135.2938452689448 22.49965712359395 0  140.2938435988931 22.49970819749937 0  145.2938446281071 22.49975708680526 0  150.2938495752902 22.49980066347894 0  165.293864826648 22.49985977025819 0  160.2938618059557 22.49985696344355 0  170.2938650526015 22.49986149939403 0  175.2938636421596 22.4998648108755 0  180.2938615827553 22.49987106083869 0  185.2938595168141 22.49988069516954 0  190.2938577813662 22.49989364023912 0  195.2938565069653 22.49990957940855 0  200.293855704443 22.4999281136929 0  205.2938553244208 22.49994884356054 0  210.2938552933921 22.49997140504439 0  215.2938555336396 22.49999548179893 0  220.2938559731311 22.50002080553672 0  225.2938565496333 22.50004715148717 0  230.2938572117095 22.50007433222432 0  235.2938579181732 22.50010219143317 0  240.2938586368861 22.50013059827181 0  245.2938593433696 22.50015944253836 0  250.2938600194578 22.50018863064761 0  255.2938606520989 22.50021808234033 0  260.2938612323213 22.50024772802648 0  265.2938617543751 22.50027750666616 0  270.2938622150167 22.50030736410742 0  275.2938626129314 22.50033725181322 0  280.2938629482751 22.50036712591857 0  285.2938632223532 22.50039694655242 0  290.2938634374805 22.50042667732677 0  295.2938635971249 22.500456
[...]
<PointData  Vectors="v"> 
<DataArray  type="Float64"  Name="v"  NumberOfComponents="3" format="ascii">1.0988149498466400e+00 7.6634383264337629e+00 0.0000000000000000e+00  1.6562218594233804e+00 7.1774984299469278e+00 0.0000000000000000e+00  1.5258572223605353e+00 6.3416610802191098e+00 0.0000000000000000e+00  1.0958262949903486e+00 7.0186768550794358e+00 0.0000000000000000e+00  2.3503899567952096e+00 7.7578209085652476e+00 0.0000000000000000e+00  2.0828334474748735e+00 6.7175402237589594e+00 0.0000000000000000e+00  2.9718992034723399e+00 8.7791893952212323e+00 0.0000000000000000e+00  2.7757550008015692e+00 7.8484613428260310e+00 0.0000000000000000e+00  3.5157955035911947e+00 9.0921182693518379e+00 0.0000000000000000e+00  3.3952762625109463e+00 8.2785769199662216e+00 0.0000000000000000e+00  4.1973332805617689e+00 9.9659955771563684e+00 0.0000000000000000e+00  3.9363921924786158e+00 8.9466916641618059e+00 0.0000000000000000e+00  4.7366947796776895e+00 1.0320552305561847e+01 0.0000000000000000e+00  4.6142290697338728e+00 9.5151380793785947e+00 0.0000000000000000e+00  4.8156856897703149e+00 1.0056984161302507e+01 0.0000000000000000e+00  5.1490640292055678e+00 9.9429082240868301e+00 0.0000000000000000e+00  5.8998080579321410e+00 1.1153316315501497e+01 0.0000000000000000e+00  5.2227783294199659e+00 9.5322218036782278e+00 0.0000000000000000e+00  2.7949669138487279e+00 5.9905186167058204e+00 0.0000000000000000e+00  6.3006819268570515e+00 1.0653624836265728e+01 0.0000000000000000e+00  1.3914122406774297e+01 2.1871646509032221e+01 0.0000000000000000e+00  3.1888879749065562e+00 5.1988714310948509e+00 0.0000000000000000e+00  1.3594639793589879e+01 2.0098232505165452e+01 0.0000000000000000e+00  1.4300591608494576e+01 2.0584702201647151e+01 0.0000000000000000e+00  1.3672014571237293e+01 1.8779186473612235e+01 0.0000000000000000e+00  1.3972578623128188e+01 1.8671358718472991e+01 0.0000000000000000e+00  1.4203235645421163e+01 1.8112450306749128e+01 0.0000000000000000e+00  1.4040127801374485e+01 1.7325173509956404e+01 0.0000000000000000e+00  1.5143464311994419e+01 1.8079878426912959e+01 0.0000000000000000e+00  1.4560154325160367e+01 1.6680439737381970e+01 0.0000000000000000e+00  1.6393692547869108e+01 1.8471474309022692e+01 0.0000000000000000e+00  1.5487343353945613e+01 1.6608071239333821e+01 0.0000000000000000e+00  1.7860289696560255e+01 1.9080216638268208e+01 0.0000000000000000e+00  1.6723054797819341e+01 1.6893690125885211e+01 0.0000000000000000e+00  1.9452673970938413e+01 1.9967231007678993e+01 0.0000000000000000e+00  1.8173803361606286e+01 1.7593276079656427e+01 0.0000000000000000e+00  2.1080392128963652e+01 2.0706265122638108e+01 0.0000000000000000e+00  1.9748485212270705e+01 1.8280134928357935e+01 0.0000000000000000e+00  2.2666728157933530e+01 2.1330742578254302e+01 0.0000000000000000e+00  2.1357350652848154e+01 1.8968109295133122e+01 0.0000000000000000e+00  2.4148111020582004e+01 2.1678835490362729e+01 0.0000000000000000e+00  2.2923501267069614e+01 1.9474432066846401e+01 0.0000000000000000e+00  2.5469110858512369e+01 2.1714143667376057e+01 0.0000000000000000e+00  2.4383449677087363e+01 1.9751267283914075e+01 0.0000000000000000e+00  2.6593979021338995e+01 2.0985267686379686e+01 0.0000000000000000e+00  2.5681601515928175e+01 1.9317083890543675e+01 0.0000000000000000e+00  2.7509073542474514e+01 2.0266484666462890e+01 0.0000000000000000e+00  2.6783625300181782e+01 1.8914454344370220e+01 0.0000000000000000e+00  2.8208739602076772e+01 1.8119331074119163e+01 0.0000000000000000e+00  2.7673470746220346e+01 1.7089300109499668e+01 0.0000000000000000e+00  2.8714936058497443e+01 1.6449350159393770e+01 0.0000000000000000e+00  2.8349626639448978e+01 1.5712495548690404e+01 0.0000000000000000e+00  2.9046456496718950e+01 1.2769644051449495e+01 0.0000000000000000e+00  2.8828542872825473e+01 1.2291214034846785e+01 0.0000000000000000e+00  2.9247306078089640e+01 1.0110161390966512e+01 0.0000000000000000e+00  2.9137335604132115e+01 9.8333916364730740e+00 0.0000000000000000e+00  2.9342348289284484e+01 5.2245052824789866e+00 0.0000000000000000e+00  2.9308826894015123e+01 5.0986904594898679e+00 0.0000000000000000e+00  2.9381791809655024e+01 1.2670140320838719e+00 0.0000000000000000e+00  2.9383384519273267e+01 1.2349392686190737e+00 0.0000000000000000e+00  2.9389262611867970e+01 -2.3280137209664159e-09 0.0000000000000000e+00  2.9389916198010201e+01 6.8475088714948910e-04 0.0000000000000000e+00  2.9389262614624489e+01 -4.3674338328564651e-19 0.0000000000000000e+00  2.0124737651822905e+01 -7.1121962351378256e+00 0.0000000000000000e+00  2.9383847395451323e+01 6.7589598150544754e+00 0.0000000000000000e+00  2.9389904732369498e+01 -6.5390777269466358e-04 0.0000000000000000e+00  2.0749707929151906e+01 -1.3369038315227280e+01 0.0000000000000000e+00  2.0152851806438381e+01 -1.4346442198007461e+01 0.0000000000000000e+00  1.7730625920227919e+01 -2.0810288902593058e+01 0.0000000000000000e+00  2.0815365298009581e+01 -1.6312106921986327e+01 0.0000000000000000e+00  1.6953806259141874e+01 -2.2285974326821222e+01 0.0000000000000000e+00  1.7834537609299581e+01 -2.1155492191929152e+01 0.0000000000000000e+00  1.5274070571744156e+01 -2.5063547356193876e+01 0.0000000000000000e+00  1.7095283073048304e+01 -2.2576796587689369e+01 0.0000000000000000e+00  1.4062693746093624e+01 -2.5276409292911772e+01 0.0000000000000000e+00  1.5452527093847729e+01 -2.3493024547291689e+01 0.0000000000000000e+00  1.2768144242289067e+01 -2.5355742820960717e+01 0.0000000000000000e+00  1.4278427369952505e+01 -2.3446333440907438e+01 0.0000000000000000e+00  1.1652710934481048e+01 -2.4303860249777667e+01 0.0000000000000000e+00  1.3020334470379513e+01 -2.2663672030401081e+01 0.0000000000000000e+00  1.0325061870444996e+01 -2.3136343893843758e+01 0.0000000000000000e+00  1.1940984643346987e+01 -2.1177142683566238e+01 0.0000000000000000e+00  9.3695794050996550e+00 -2.1295520676310066e+01 0.0000000000000000e+00  1.0649238238001518e+01 -1.9894373594392679e+01 0.0000000000000000e+00  8.5862338228417059e+00 -1.9441037112624848e+01 0.0000000000000000e+00  9.7291984550031643e+00 -1.8297889577332608e+01 0.0000000000000000e+00  7.7343412292423741e+00 -1.7748624920633365e+01 0.0000000000000000e+00  8.9809175866753748e+00 -1.6502383326959155e+01 0.0000000000000000e+00  6.9275352766868936e+00 -1.6149936747505162e+01 0.0000000000000000e+00  8.1638878866441829e+00 -1.4970943384924366e+01 0.0000000000000000e+00  6.1696814823222752e+00 -1.4734727990668244e+01 0.0000000000000000e+00  7.3915316225169221e+00 -1.3628968318609701e+01 0.0000000000000000e+00  5.4242108780655354e+00 -1.3439813817504900e+01 0.0000000000000000e+00  6.6677589080246351e+00 -1.2352279627519128e+01 0.0000000000000000e+00  4.7459927201620395e+00 -1.2199534841478478e+01 0.0000000000000000e+00  5.9560640626721497e+00 -1.1212545548152795e+01 0.0000000000000000e+00  4.1427775921980121e+00 -1.1061597280639324e+01 0.0000000000000000e+00  5.3112337160555132e+00 -1.0186825774555292e+01 0.0000000000000000e+00  3.5770778828211807e+00 -9.9734557353111093e+00 0.0000000000000000e+00  4.7409937042080896e+00 -9.1546636128890491e+00 0.0000000000000000e+00  3.0742127213305031e+00 -8.9111448425648696e+00 0.0000000000000000e+00  4.2079880752133061e+00 -8.1862240263457569e+00 0.0000000000000000e+00  2.6431973075942947e+00 -7.9138446869216192e+00 0.0000000000000000e+00  3.7373524166042795e+00 -7.2965103537085261e+00 0.0000000000000000e+00  2.2479770634362191e+00 -6.9101624650905382e+00 0.0000000000000000e+00  3.3383388776289098e+00 -6.3460715154249057e+00 0.0000000000000000e+00  1.9069646302989032e+00 -5.9756099605642472e+00 0.0000000000000000e+00  2.9745601657541187e+00 -5.4927800558411404e+00 0.0000000000000000e+00  1.6197203427939864e+00 -5.0230428072267186e+00 0.0000000000000000e+00  2.6650401711574636e+00 -4.6201720874205705e+00 0.0000000000000000e+00  1.3669348241504637e+00 -4.2084579509561291e+00 0.0000000000000000e+00  2.4082469425212816e+00 -3.8577441559604595e+00 0.0000000000000000e+00  1.1486167714731297e+00 -3.2700812590147628e+00 0.0000000000000000e+00  2.1868295125644788e+00 -2.9695048871486804e+00 0.0000000000000000e+00  9.5753073705635028e-01 -2.7326422620968205e+00 0.0000000000000000e+00  1.9974758495794611e+00 -2.4748906614808210e+00 0.0000000000000000e+00  7.8115199034113536e-01 -1.7829045411270503e+00 0.0000000000000000e+00  1.8385124281898244e+00 -1.5432640805325291e+00 0.0000000000000000e+00  5.4326909661126788e-01 -1.7263473597151324e+00 0.0000000000000000e+00  1.6882072707739439e+00 -1.4004419808436450e+00 0.0000000000000000e+00  1.8248268427568270e-01 -1.2022481651674255e+00 0.0000000000000000e+00  1.4865005557266113e+00 -6.8087947444466845e-01 0.0000000000000000e+00  -6.6133031118281982e-01 -7.3642193044071011e-03 0.0000000000000000e+00  1.1401779411086728e+00 1.2169766039522179e+00 0.0000000000000000e+00  1.8033635267735564e+00 5.6962579490922662e+00 0.0000000000000000e+00  1.3294524319129710e+00 6.3087863999885743e+00 0.0000000000000000e+00  2.2337143346788286e+00 5.8821511182048054e+00 0.0000000000000000e+00  2.7901620640511737e+00 6.8099158207483681e+00 0.0000000000000000e+00  3.4813352415675425e+00 7.3509408314113376e+00 0.0000000000000000e+00  4.0976771200860354e+00 8.1374311680496039e+00 0.0000000000000000e+00  4.6341624205046710e+00 8.5018284883922597e+00 0.0000000000000000e+00  5.3057309572835925e+00 9.1451782711303586e+00 0.0000000000000000e+00  5.8325371261358576e+00 9.4269251605982021e+00 0.0000000000000000e+00  5.8967521226320274e+00 9.0430727394020902e+00 0.0000000000000000e+00  6.9636613406491579e+00 9.8738573466227884e+00 0.0000000000000000e+00  3.8401219316818009e+00 3.9230364694133573e+00 0.0000000000000000e+00  1.4941105137989256e+01 1.9169849203138686e+01 0.0000000000000000e+00  1.4601941782316606e+01 1.7231732677349726e+01 0.0000000000000000e+00  1.4655874725175538e+01 1.5909399192390362e+01 0.0000000000000000e+00  1.5159627517907586e+01 1.5228713782574971e+01 0.0000000000000000e+00  1.6066921212106575e+01 1.5053591423116092e+01 0.0000000000000000e+00  1.7279210098880100e+01 1.5432063945780378e+01 0.0000000000000000e+00  1.8703516518267410e+01 1.5935461923696462e+01 0.0000000000000000e+00  2.0248178314306550e+01 1.6574239182823217e+01 0.0000000000000000e+00  2.1823592692445363e+01 1.7145681687774839e+01 0.0000000000000000e+00  2.3353660346538128e+01 1.7584551087418461e+01 0.0000000000000000e+00  2.4773990830976487e+01 1.7394266391362645e+01 0.0000000000000000e+00  2.6029880022734378e+01 1.7287622844013534e+01 0.0000000000000000e+00  2.7087025596121940e+01 1.5781308708559546e+01 0.0000000000000000e+00  2.7930263326186989e+01 1.4728372635632045e+01 0.0000000000000000e+00  2.8556789120825997e+01 1.1599188425587561e+01 0.0000000000000000e+00  2.8987859455247815e+01 9.4045270979959614e+00 0.0000000000000000e+00  2.9243722737003353e+01 4.8629107549673680e+00 0.0000000000000000e+00  2.9371273405442846e+01 1.1633570028618212e+00 0.0000000000000000e+00  2.9391483903052077e+01 1.3052713735522950e-03 0.0000000000000000e+00  2.9362805984715038e+01 6.8213176607036567e+00 0.0000000000000000e+00  2.9391462858152018e+01 -1.2860155867788063e-03 0.0000000000000000e+00  2.9301261464120604e+01 -5.1251426671209732e-01 0.0000000000000000e+00  2.0104508240968389e+01 -1.7332841564423191e+01 0.0000000000000000e+00  2.0811486657677435e+01 -1.6709709021312023e+01 0.0000000000000000e+00  1.7873148872463311e+01 -2.1494283939905621e+01 0.0000000000000000e+00  1.7176885024770815e+01 -2.1051870969673327e+01 0.0000000000000000e+00  1.5573661225312232e+01 -2.1709588075182996e+01 0.0000000000000000e+00  1.4438945754784802e+01 -2.0798858058657977e+01 0.0000000000000000e+00  1.3217976180719482e+01 -1.9579657721078540e+01 0.0000000000000000e+00  1.2174456368986890e+01 -1.7977947514367781e+01 0.0000000000000000e+00  1.0917615577018919e+01 -1.6938458279596102e+01 0.0000000000000000e+00  1.0031683538219564e+01 -1.5399919330548535e+01 0.0000000000000000e+00  9.3166881237952399e+00 -1.3765346693853573e+01 0.0000000000000000e+00  8.5325977326674654e+00 -1.2489966953282776e+01 0.0000000000000000e+00  7.7926140630071350e+00 -1.1285717302042903e+01 0.0000000000000000e+00  7.1005982230459175e+00 -1.0163918820534995e+01 0.0000000000000000e+00  6.4201764961984837e+00 -9.2380946107656943e+00 0.0000000000000000e+00  5.8060063776249562e+00 -8.3174035066970191e+00 0.0000000000000000e+00  5.2657779816609347e+00 -7.4045032988953245e+00 0.0000000000000000e+00  4.7621984004559907e+00 -6.6080194744485299e+00 0.0000000000000000e+00  4.3203943376559737e+00 -5.7644925291083986e+00 0.0000000000000000e+00  3.9495099968192369e+00 -4.9639467547371847e+00 0.0000000000000000e+00  3.6133864512938989e+00 -4.1720117880855545e+00 0.0000000000000000e+00  3.3307322379804249e+00 -3.4888674219909386e+00 0.0000000000000000e+00  3.1004791011034958e+00 -2.6523876673981559e+00 0.0000000000000000e+00  2.9045029551141135e+00 -2.2072418067278226e+00 0.0000000000000000e+00  2.7409189916520513e+00 -1.3176928328526991e+00 0.0000000000000000e+00  2.6053941908219889e+00 -1.1929412207470651e+00 0.0000000000000000e+00  2.4807194439330198e+00 -3.8742802687658412e-01 0.0000000000000000e+00  2.3004831864040716e+00 1.7169850508799334e+00 0.0000000000000000e+00  2.5164610156046034e+00 4.9845782682258335e+00 0.0000000000000000e+00  2.0882883712564917e+00 5.6680122154301484e+00 0.0000000000000000e+00  2.9915872827495091e+00 5.2357578232349473e+00 0.0000000000000000e+00  3.4232085487032040e+00 5.9755579539758745e+00 0.0000000000000000e+00  3.9791283332786027e+00 6.3159428323328592e+00 0.0000000000000000e+00  4.6677635667883806e+00 7.2164023575255865e+00 0.0000000000000000e+00  5.2791364462468398e+00 7.7027841013731511e+00 0.0000000000000000e+00  5.8075551555358427e+00 8.1455640374330773e+00 0.0000000000000000e+00  6.4680462169553410e+00 8.6467773791401488e+00 0.0000000000000000e+00  6.9806557199426882e+00 8.9592046996910195e+00 0.0000000000000000e+00  7.0274978032767583e+00 8.2875032801716664e+00 0.0000000000000000e+00  8.0752463805371697e+00 8.6228017266122965e+00 0.0000000000000000e+00  4.9338468738772789e+00 2.5299629410463758e+00 0.0000000000000000e+00  1.6020434949326003e+01 1.7751554934544593e+01 0.0000000000000000e+00  1.5667236531268959e+01 1.5842623169529229e+01 0.0000000000000000e+00  1.5702879235079989e+01 1.4491413744368037e+01 0.0000000000000000e+00  1.6181917597099332e+01 1.3715533401793971e+01 0.0000000000000000e+00  1.7057753390921413e+01 1.3641623997676209e+01 0.0000000000000000e+00  1.8231682838874011e+01 1.3831943619207404e+01 0.0000000000000000e+00  1.9610278696806258e+01 1.4294854746257109e+01 0.0000000000000000e+00  2.1102357016850501e+01 1.4825042825975668e+01 0.0000000000000000e+00  2.2618553400999129e+01 1.5337063611088112e+01 0.0000000000000000e+00  2.4081924933090271e+01 1.5315132688245040e+01 0.0000000000000000e+00  2.5429482127407720e+01 1.5460946220454653e+01 0.0000000000000000e+00  2.6605556281724454e+01 1.4254916158352509e+01 0.0000000000000000e+00  2.7578269037456110e+01 1.3529087153821601e+01 0.0000000000000000e+00  2.8330329652464325e+01 1.0722589890207804e+01 0.0000000000000000e+00  2.8865875371622010e+01 8.8317006788594483e+00 0.0000000000000000e+00  2.9198554766453288e+01 4.5356409411691416e+00 0.0000000000000000e+00  2.9368628318273409e+01 1.0560983352823949e+00 0.0000000000000000e+00  2.9393932791085991e+01 1.8678396022864874e-03 0.0000000000000000e+00  2.9344487803636021e+01 6.9824496970481231e+00 0.0000000000000000e+00  2.9393914044117064e+01 -1.8402786257288226e-03 0.0000000000000000e+00  2.9151844023379304e+01 -3.9015600233881503e-01 0.0000000000000000e+00  2.9080577271073953e+01 -3.5788415477321984e+00 0.0000000000000000e+00  1.9941493490091876e+01 -1.7825393975745602e+01 0.0000000000000000e+00  2.0720970210233421e+01 -1.7137458168285683e+01 0.0000000000000000e+00  1.7851715317304517e+01 -2.0059510485430355e+01 0.0000000000000000e+00  1.7221412690984128e+01 -1.9351003445777199e+01 0.0000000000000000e+00  1.5678824673621246e+01 -1.9141745934182484e+01 0.0000000000000000e+00  1.4601478972218906e+01 -1.7790059783620713e+01 0.0000000000000000e+00  1.3433547689103976e+01 -1.6452590292772904e+01 0.0000000000000000e+00  1.2440544087184898e+01 -1.5091343392619827e+01 0.0000000000000000e+00  1.1232001079437463e+01 -1.4108286076277539e+01 0.0000000000000000e+00  1.0392844256278352e+01 -1.2729126141991697e+01 0.0000000000000000e+00  9.7236397275927597e+00 -1.1349536737856296e+01 0.0000000000000000e+00  8.9845863010825742e+00 -1.0210892708793585e+01 0.0000000000000000e+00  8.2887819734406314e+00 -9.1603744042192883e+00 0.0000000000000000e+00  7.6401506696355908e+00 -8.2512249047596029e+00 0.0000000000000000e+00  7.0021624022621829e+00 -7.4292443619853508e+00 0.0000000000000000e+00  6.4294071480770851e+00 -6.6264024838336608e+00 0.0000000000000000e+00  5.9295147228260747e+00 -5.8841637576145871e+00 0.0000000000000000e+00  5.4652325201075289e+00 -5.1323878811778885e+00 0.0000000000000000e+00  5.0614880963425781e+00 -4.4376149794052306e+00 0.0000000000000000e+00  4.7277441687033299e+00 -3.6966241472321872e+00 0.0000000000000000e+00  4.4273019710400119e+00 -3.0935247279625600e+00 0.0000000000000000e+00  4.1797220674365194e+00 -2.3337145480173804e+00 0.0000000000000000e+00  3.9825015975106934e+00 -1.9410504156833688e+00 0.0000000000000000e+00  3.8198704602346898e+00 -1.0958328213323627e+00 0.0000000000000000e+00  3.6856345852653924e+00 -1.0183074319748753e+00 0.0000000000000000e+00  3.5837174857662366e+00 -2.1831101635355923e-01 0.0000000000000000e+00  3.4799651469049153e+00 1.9571753301128243e+00 0.0000000000000000e+00  3.4363102124140776e+00 4.3410421235974512e+00 0.0000000000000000e+00  3.0462681310884081e+00 5.0849888995669721e+00 0.0000000000000000e+00  3.8664875124309934e+00 4.5210351267709976e+00 0.0000000000000000e+00  4.3449252459886534e+00 5.3260504711984353e+00 0.0000000000000000e+00  4.7794027194046462e+00 5.4810527175979438e+00 0.0000000000000000e+00  5.3366246811879554e+00 6.1842535423276148e+00 0.0000000000000000e+00  6.0238479536606393e+00 6.7887278375906659e+00 0.0000000000000000e+00  6.6304395113279009e+00 7.3588038216144422e+00 0.0000000000000000e+00  7.1500909332128790e+00 7.6650073057539254e+00 0.0000000000000000e+00  7.7973228240740768e+00 8.2023002488630183e+00 0.0000000000000000e+00  8.2923373402513842e+00 8.2321060695937405e+00 0.0000000000000000e+00  8.3185246761341975e+00 7.0668373789014423e+00 0.0000000000000000e+00  9.3455829452601655e+00 7.2549792993821525e+00 0.0000000000000000e+00  6.1891402962029174e+00 1.1282802690786922e+00 0.0000000000000000e+00  1.7268645953348656e+01 1.6377453623415455e+01 0.0000000000000000e+00  1.6909223714040444e+01 1.4446723344075073e+01 0.0000000000000000e+00  1.6932492467950585e+01 1.3011938635262013e+01 0.0000000000000000e+00  1.7390197789748175e+01 1.2350205286771088e+01 0.0000000000000000e+00  1.8233919893229309e+01 1.2100402457550373e+01 0.0000000000000000e+00  1.9365359300084954e+01 1.2264150528696522e+01 0.0000000000000000e+00  2.0690777048270423e+01 1.2631485174541650e+01 0.0000000000000000e+00  2.2118660311137049e+01 1.3114943761134350e+01 0.0000000000000000e+00  2.3559662938954819e+01 1.3179581601724546e+01 0.0000000000000000e+00  2.4937410074977983e+01 1.3507831689828391e+01 0.0000000000000000e+00  2.6187315222258405e+01 1.2564057375370595e+01 0.0000000000000000e+00  2.7257105342256228e+01 1.2153577411306991e+01 0.0000000000000000e+00  2.8111952720354228e+01 9.6772958465792129e+00 0.0000000000000000e+00  2.8743435101611432e+01 8.1251783064936909e+00 0.0000000000000000e+00  2.9147086390711582e+01 4.1144724907855821e+00 0.0000000000000000e+00  2.9361997151289710e+01 9.1171926617597654e-01 0.0000000000000000e+00  2.9397169073039723e+01 2.3696144987780500e-03 0.0000000000000000e+00  2.9330404771337648e+01 7.2316579055176700e+00 0.0000000000000000e+00  2.9397151645895708e+01 -2.3316849289611251e-03 0.0000000000000000e+00  2.9032349827831201e+01 6.0317003185106537e-03 0.0000000000000000e+00  2.8736581557737999e+01 -3.44900500148