<?xml version="1.0"?>
<VTKFile type="UnstructuredGrid"  version="0.1"  >
<UnstructuredGrid>
<Piece  NumberOfPoints="1933" NumberOfCells="3640">
<Points>
<DataArray  type="Float64"  NumberOfComponents="3"  format="ascii">-0.0002524107088211491 0.001346927530742164 0  4.999747626614429 0.001277113167759412 0  4.999852423741665 7.501277250778025 0  -0.0001476625346945037 7.501346978872895 0  9.999747664667131 0.001207162822037321 0  9.999852586895654 7.501207333499843 0  14.99974777586242 0.001136986064979903 0  14.99985287090263 7.501137168407122 0  19.9997480455471 0.001066557859940246 0  19.99985332032275 7.50106674349257 0  24.9997485573308 0.0009958934263210536 0  24.99985398091097 7.500996079786338 0  29.99974938893628 0.0009250337984678964 0  29.99985489866614 7.500925221012044 0  34.99975061234849 0.0008540374896967537 0  34.99985611914813 7.500854226952042 0  39.99975229562418 0.000782975999772894 0  39.99985768731415 7.500783169730932 0  44.99975450524067 0.0007119318844245705 0  44.99985964774838 7.500712132257352 0  49.99975730852748 0.0006409986423940954 0  49.9998620450956 7.500641208295192 0  54.99976077602567 0.0005702820127666394 0  54.99986492454073 7.500570503854422 0  59.99976498374041 0.0004999025065140319 0  59.99986833219694 7.500500139770895 0  64.99977001530725 0.0004299991719257152 0  64.99987231527288 7.500430255495083 0  69.99977596408689 0.0003607347481075179 0  69.99987692187634 7.500361014248774 0  74.99978293519175 0.000292302522039827 0  74.99988220026397 7.500292609856807 0  79.99979104738615 0.0002249354012024643 0  79.99988819725976 7.500225275738806 0  84.99980043471581 0.0001589179805737408 0  84.99989495544638 7.50015929677764 0  89.99981124753069 9.46027696700993e-05 0  89.99990250852633 7.500095025098912 0  94.99982365224355 3.243232801516876e-05 0  94.9999108739744 7.500032901235543 0  99.99983782851528 -2.703004501054238e-05 0  99.9999200417317 7.499973482754903 0  104.9998539613548 -8.305702085893933e-05 0  104.9999299572162 7.499917483222661 0  109.9998722232333 -0.000134695119203254 0  109.999940496502 7.499865825329743 0  114.999892736727 -0.0001806741177719665 0  114.9999514315079 7.499819712896376 0  119.9999154991442 -0.0002192732004300734 0  119.9999623844512 7.499780726558799 0  124.9999402327913 -0.0002481216695130264 0  124.9999727763224 7.499750945321837 0  129.9999660892488 -0.0002639031481434763 0  129.9999817898691 7.499733086301691 0  134.9999910655295 -0.0002619284577992919 0  134.9999884082137 7.4997306287442 0  140.0000108459218 -0.0002355792042521148 0  139.9999916905674 7.499747834044343 0  145.0000164705516 -0.0001758819511475477 0  144.9999916960204 7.499789519224115 0  149.9999894463168 -7.290845984012637e-05 0  149.9999921366744 7.499860771417516 0  160.0000000000019 1.05348454401773e-18 0  164.9998297640983 -0.0002361470176338456 0  164.9999710565639 7.499728306925705 0  160.0000207212399 7.499916213484671 0  169.9997366830992 -0.0004374523924999394 0  169.9999205932498 7.499544582965344 0  174.9996849594559 -0.0006135334825139547 0  174.9998790953613 7.499376551073317 0  179.9996563539376 -0.0007698980789255268 0  179.9998475622408 7.499224367756813 0  184.9996410612173 -0.0009107895724769792 0  184.9998245907601 7.499085788235197 0  189.9996336247585 -0.001039554707203504 0  189.9998083529277 7.498958348964956 0  194.9996309175546 -0.001158780043599224 0  194.9997972034406 7.498839906289196 0  199.9996310945132 -0.00127043927973291 0  199.9997898213615 7.498728722228527 0  204.9996330338046 -0.00137603599783055 0  204.9997851962248 7.498623422493953 0  209.9996360325569 -0.001476722756160818 0  209.999782571479 7.498522926923344 0  214.9996396375778 -0.001573392655666168 0  214.9997813852631 7.498426383740539 0  219.9996435489802 -0.00166674694783772 0  219.9997812207196 7.498333115778915 0  224.9996475638884 -0.001757344098942117 0  224.999781767703 7.49824257893918 0  229.999651542635 -0.001845635271063537 0  229.9997827944161 7.498154330851683 0  234.9996553878764 -0.001931990104786143 0  234.9997841267763 7.498068007408116 0  239.9996590313276 -0.002016715642756266 0  239.9997856335104 7.497983305152388 0  244.9996624251314 -0.002100070402360836 0  244.9997872154021 7.497899967970399 0  249.9996655361316 -0.002182274997377635 0  249.9997887975221 7.497817776922292 0  254.9996683420476 -0.002263520279261847 0  254.999790323612 7.497736542381424 0  259.9996708289427 -0.002343973668980507 0  259.9997917520254 7.497656097884468 0  264.9996729896407 -0.002423784138126807 0  264.9997930528176 7.497576295276787 0  269.9996748228757 -0.002503086140316033 0  269.9997942056987 7.497497000875726 0  274.9996763330845 -0.002582002663359161 0  274.9997951986228 7.497418092490399 0  279.9996775308097 -0.002660647442820802 0  279.9997960268653 7.497339457247843 0  284.9996784337372 -0.002739126215726122 0  284.9997966924458 7.497260990302119 0  289.9996790683701 -0.002817536648786342 0  289.9997972037435 7.49718259466579 0  294.9996794723154 -0.002895966159880502 0  294.999797575192 7.497104182626542 0  299.9996796968188 -0.002974486096520107 0  299.9997978269507 7.49702567951288 0  304.9996798084751 -0.003053139315599649 0  304.9997979847985 7.496947030934215 0  309.9996798870536 -0.003131915534094738 0  309.9997980815033 7.496868214958309 0  4.999956756121049 15.00127757873254 0  -4.334168381792125e-05 15.00134710789595 0  9.999956929736239 15.00120773382077 0  14.99995721914549 15.00113758383932 0  19.99995765296124 15.00106715176149 0  24.99995825558291 15.00099647557195 0  29.99995905005624 15.00092560687706 0  34.99996005892323 15.0008546088807 0  39.99996130423891 15.00078355499424 0  44.99996280726503 15.00071252843379 0  49.99996458801777 15.00064162284347 0  54.99996666468611 15.00057094391803 0  59.99996905286265 15.0005006120295 0  64.99997176448721 15.00043076592884 0  69.99997480637212 15.00036156767839 0  74.999978178153 15.00029320906926 0  79.99998186947668 15.00022591989048 0  84.99998585622141 15.0001599785463 0  89.99999009554573 15.00009572565879 0  94.99999451964734 15.00003358142204 0  99.99999902832832 14.99997406752805 0  105.0000034810286 14.99991783431275 0  110.000007690119 14.9998656930444 0  115.0000114195195 14.99981865130465 0  120.0000143968457 14.99977794479331 0  125.0000163544628 14.99974504885949 0  130.0000171260922 14.99972163226217 0  135.0000168406598 14.99970937364256 0  140.0000162670667 14.99970947571646 0  145.0000173426281 14.99972152185025 0  150.0000237509616 14.99974077375382 0  165.0000509184442 14.9996304875714 0  160.0000580992483 14.99976449213993 0  170.0000333894623 14.99948543546856 0  175.0000119794762 14.9993409997261 0  179.9999909868548 14.99920275197509 0  184.9999724313108 14.99907240398688 0  189.9999569697463 14.99894988445111 0  194.9999445721977 14.99883443373501 0  199.9999349113412 14.99872510756253 0  204.9999275652351 14.9986209883159 0  209.9999221141113 14.99852126102565 0  214.9999181810325 14.99842522997601 0  219.99991544448 14.99833231137221 0  224.9999136379031 14.99824201806702 0  229.9999125439341 14.99815394318404 0  234.9999119870623 14.99806774525898 0  239.9999118264567 14.99798313565277 0  244.9999119496307 14.99789986822038 0  249.9999122671297 14.99781773094742 0  254.9999127081977 14.99773653920813 0  259.9999132173108 14.99765613033034 0  264.9999137514117 14.99757635920934 0  269.9999142777298 14.99749709478025 0  274.9999147720295 14.99741821722029 0  279.9999152171987 14.99733961581294 0  284.9999156020837 14.9972611874575 0  289.999915920515 14.99718283583908 0  294.999916170599 14.99710447123998 0  299.999916354469 14.99702601076976 0  304.9999164791027 14.99694737812183 0  309.9999165593295 14.99686850007743 0  5.000060543330203 22.50127826646275 0  6.044580628750129e-05 22.50134759615117 0  10.00006069196564 22.50120849509721 0  15.00006092239254 22.5011383529275 0  20.00006125281906 22.50106790037939 0  25.00006169447247 22.50099719687872 0  30.0000622548542 22.50092630543114 0  35.00006293926864 22.5008552947331 0  40.00006375125008 22.50078424034533 0  45.00006469233413 22.50071322576247 0  50.00006576143566 22.50064234380394 0  55.00006695395273 22.50057169854676 0  60.00006826063859 22.50050140793675 0  65.00006966623275 22.50043160719662 0  70.00007114782538 22.5003624531594 0  75.00007267293809 22.50029412968209 0  80.00007419733483 22.50022685431062 0  85.00007566266041 22.50016088636574 0  90.0000769941504 22.50009653655679 0  95.00007809892622 22.50003417805267 0  100.0000788658303 22.49997425853293 0  105.0000791684776 22.499917311912 0  110.0000788742961 22.49986396683025 0  115.0000778638734 22.49981494606404 0  120.000076066844 22.49977104581103 0  125.0000735223074 22.49973307501683 0  130.0000704716751 22.49970172087782 0  135.0000674857814 22.49967728626548 0  140.000065606907 22.49965922082309 0  145.0000664321609 22.49964535957277 0  150.0000719488391 22.49963088702204 0  165.0001142914974 22.49952162737414 0  160.0001018197572 22.49962262640605 0  170.0001168878841 22.49940685608802 0  175.0001125151527 22.49928620380729 0  180.0001041771873 22.49916507395038 0  185.0000941944715 22.4990465477764 0  190.0000840671023 22.49893205363034 0  195.0000746402834 22.49882202963889 0  200.000066315799 22.49871638691455 0  205.000059223357 22.49861478914843 0  210.000053339145 22.49851680754863 0  215.0000485612316 22.49842200074521 0  220.000044754749 22.49832995243168 0  225.0000417774993 22.49824028634643 0  230.0000394935093 22.49815266971085 0  235.0000377794575 22.49806681118761 0  240.0000365270479 22.49798245655762 0  245.0000356431956 22.49789938373031 0  250.000035049104 22.4978173978583 0  255.0000346788692 22.49773632688438 0  260.0000344779241 22.49765601763134 0  265.0000344015187 22.49757633243994 0  270.0000344132907 22.49749714631988 0  275.0000344839665 22.49741834456218 0  280.000034590198 22.4973398207549 0  285.0000347135338 22.49726147512115 0  290.0000348395762 22.49718321303735 0  295.0000349574158 22.4971049434349 0  300.00003
[...]
<PointData  Vectors="v"> 
<DataArray  type="Float64"  Name="v"  NumberOfComponents="3" format="ascii">1.5800056744026980e+00 -5.7323993041595971e+00 0.0000000000000000e+00  1.1458012183287860e+00 -5.5667006975501563e+00 0.0000000000000000e+00  8.4465379591057599e-01 -4.9155498371608415e+00 0.0000000000000000e+00  1.1766830135090758e+00 -5.2349627165291217e+00 0.0000000000000000e+00  5.6632360001181725e-01 -6.2402135966119712e+00 0.0000000000000000e+00  4.1065656267538270e-01 -5.3718836366396099e+00 0.0000000000000000e+00  -5.9974819693246403e-03 -7.3243195837378323e+00 0.0000000000000000e+00  -1.6787706573731001e-01 -6.4671413437603640e+00 0.0000000000000000e+00  -5.6306802748120011e-01 -7.9557464205684658e+00 0.0000000000000000e+00  -7.3863129505597447e-01 -7.1222279676868077e+00 0.0000000000000000e+00  -1.2345556573812475e+00 -9.0152442623512155e+00 0.0000000000000000e+00  -1.2934626047082767e+00 -8.0108682030686840e+00 0.0000000000000000e+00  -1.8120619294831131e+00 -9.7007029922084076e+00 0.0000000000000000e+00  -1.9616203348356422e+00 -8.8378661324268109e+00 0.0000000000000000e+00  -1.9673800622717541e+00 -9.7990977562693153e+00 0.0000000000000000e+00  -2.5349691327921713e+00 -9.5705471666698241e+00 0.0000000000000000e+00  -2.9457628612900333e+00 -1.1009621169729682e+01 0.0000000000000000e+00  -2.6852373151836129e+00 -9.5474062974625120e+00 0.0000000000000000e+00  1.4492764660721344e-01 -6.1319408958582784e+00 0.0000000000000000e+00  -3.6572714368327288e+00 -1.0773780590802335e+01 0.0000000000000000e+00  -9.4318160840295882e+00 -1.9996128700594774e+01 0.0000000000000000e+00  -5.5921327341060134e-01 -5.6387434568354502e+00 0.0000000000000000e+00  -8.3846891836613882e+00 -1.7475735838519288e+01 0.0000000000000000e+00  -1.0128356572641987e+01 -1.9054189983686456e+01 0.0000000000000000e+00  -8.2548267953802537e+00 -1.6246663121125408e+01 0.0000000000000000e+00  -9.0719236148626070e+00 -1.6451330736784289e+01 0.0000000000000000e+00  -8.7906582458166227e+00 -1.6024298555356484e+01 0.0000000000000000e+00  -8.9304120274186403e+00 -1.5232526317025453e+01 0.0000000000000000e+00  -9.8595441405513693e+00 -1.6612596896842632e+01 0.0000000000000000e+00  -9.4524771081980781e+00 -1.5023628902894744e+01 0.0000000000000000e+00  -1.1285873405859119e+01 -1.7675513126189820e+01 0.0000000000000000e+00  -1.0504439441299681e+01 -1.5551920472848604e+01 0.0000000000000000e+00  -1.2977173714389696e+01 -1.8996916062241286e+01 0.0000000000000000e+00  -1.1911596041300527e+01 -1.6478629821765441e+01 0.0000000000000000e+00  -1.4849894847588363e+01 -2.0589839861601011e+01 0.0000000000000000e+00  -1.3581446001977040e+01 -1.7801725629568953e+01 0.0000000000000000e+00  -1.6820418504020353e+01 -2.2076944246149527e+01 0.0000000000000000e+00  -1.5429092433430146e+01 -1.9143854165265495e+01 0.0000000000000000e+00  -1.8819282262058778e+01 -2.3475120153664260e+01 0.0000000000000000e+00  -1.7372373014741719e+01 -2.0502866251800143e+01 0.0000000000000000e+00  -2.0782263234973701e+01 -2.4632015365980660e+01 0.0000000000000000e+00  -1.9340818791188866e+01 -2.1715603668079194e+01 0.0000000000000000e+00  -2.2633766478342210e+01 -2.5463035431949120e+01 0.0000000000000000e+00  -2.1270256323269379e+01 -2.2716771060985739e+01 0.0000000000000000e+00  -2.4313216032481794e+01 -2.5575500572250618e+01 0.0000000000000000e+00  -2.3084208325773702e+01 -2.3089310544851980e+01 0.0000000000000000e+00  -2.5779768987754490e+01 -2.5509976097951007e+01 0.0000000000000000e+00  -2.4725077715773789e+01 -2.3347971507564960e+01 0.0000000000000000e+00  -2.6984712494331902e+01 -2.4057144740187855e+01 0.0000000000000000e+00  -2.6145542118470360e+01 -2.2286186267581275e+01 0.0000000000000000e+00  -2.7930333952613033e+01 -2.2606572263505758e+01 0.0000000000000000e+00  -2.7307147398474893e+01 -2.1234098894685840e+01 0.0000000000000000e+00  -2.8598959347986639e+01 -1.9164369075310265e+01 0.0000000000000000e+00  -2.8197061694002539e+01 -1.8200094068897648e+01 0.0000000000000000e+00  -2.9041239550140478e+01 -1.5774206482045054e+01 0.0000000000000000e+00  -2.8819320427035727e+01 -1.5166859156479406e+01 0.0000000000000000e+00  -2.9266237950849206e+01 -1.0251243854908557e+01 0.0000000000000000e+00  -2.9194369565024644e+01 -9.9521061616077766e+00 0.0000000000000000e+00  -2.9368183592969515e+01 -3.6907934213238969e+00 0.0000000000000000e+00  -2.9372131435520632e+01 -3.6067255595112351e+00 0.0000000000000000e+00  -2.9389262612828503e+01 -3.7700853270194325e-11 0.0000000000000000e+00  -2.9389474441491409e+01 -2.1072250842864751e-04 0.0000000000000000e+00  -2.9389262614585888e+01 5.1387107094223657e-20 0.0000000000000000e+00  -2.1018400906177362e+01 1.1480804420734181e+01 0.0000000000000000e+00  -2.9366977510233379e+01 -1.0375524118804702e+00 0.0000000000000000e+00  -2.9389472731963671e+01 2.1399433434708608e-04 0.0000000000000000e+00  -2.0624202950121262e+01 2.0690627347655308e+01 0.0000000000000000e+00  -2.1047144511276514e+01 2.0167147410943691e+01 0.0000000000000000e+00  -1.7601909839930642e+01 2.7678595729101843e+01 0.0000000000000000e+00  -2.0712583709020780e+01 2.3186901542702735e+01 0.0000000000000000e+00  -1.6450938708466939e+01 2.9109662877673500e+01 0.0000000000000000e+00  -1.7747776230832368e+01 2.7434469219828909e+01 0.0000000000000000e+00  -1.4656899456909315e+01 3.0552047880732999e+01 0.0000000000000000e+00  -1.6650360940456782e+01 2.7905994058105147e+01 0.0000000000000000e+00  -1.3283837353537310e+01 2.9746684100877289e+01 0.0000000000000000e+00  -1.4907473672065336e+01 2.7732838755374036e+01 0.0000000000000000e+00  -1.1897430978570330e+01 2.8694604456976911e+01 0.0000000000000000e+00  -1.3584994650418054e+01 2.6656997398138952e+01 0.0000000000000000e+00  -1.0681186280090662e+01 2.6802234033244247e+01 0.0000000000000000e+00  -1.2246256679094353e+01 2.5020491737337956e+01 0.0000000000000000e+00  -9.3113820488827539e+00 2.4959475068404799e+01 0.0000000000000000e+00  -1.1076263659611453e+01 2.2945077078544884e+01 0.0000000000000000e+00  -8.2822705717997085e+00 2.2747657838634225e+01 0.0000000000000000e+00  -9.7516917340908353e+00 2.1243444491340433e+01 0.0000000000000000e+00  -7.4081722077964107e+00 2.0664043785678700e+01 0.0000000000000000e+00  -8.7662026530210344e+00 1.9391525963202884e+01 0.0000000000000000e+00  -6.4785501134275938e+00 1.8866157738563114e+01 0.0000000000000000e+00  -7.9345676566411081e+00 1.7509426418820809e+01 0.0000000000000000e+00  -5.6124977198462007e+00 1.7222298785939252e+01 0.0000000000000000e+00  -7.0466602781991972e+00 1.5959889983870589e+01 0.0000000000000000e+00  -4.8122574894546473e+00 1.5776746537655187e+01 0.0000000000000000e+00  -6.2211385100811212e+00 1.4612542835280443e+01 0.0000000000000000e+00  -4.0540579880937031e+00 1.4453780595377435e+01 0.0000000000000000e+00  -5.4605206189484088e+00 1.3351796326657901e+01 0.0000000000000000e+00  -3.3776256832602578e+00 1.3189790020090589e+01 0.0000000000000000e+00  -4.7412533092181031e+00 1.2209747237829838e+01 0.0000000000000000e+00  -2.7846878819335634e+00 1.2017329983875365e+01 0.0000000000000000e+00  -4.1028957141380893e+00 1.1162016656682779e+01 0.0000000000000000e+00  -2.2425151113254778e+00 1.0885868369775860e+01 0.0000000000000000e+00  -3.5472854034407284e+00 1.0106142315025393e+01 0.0000000000000000e+00  -1.7687745392726033e+00 9.7804437329033878e+00 0.0000000000000000e+00  -3.0419469815887208e+00 9.1027620275922754e+00 0.0000000000000000e+00  -1.3660047832046094e+00 8.7213816513142817e+00 0.0000000000000000e+00  -2.6043108361274068e+00 8.1498692949592240e+00 0.0000000000000000e+00  -1.0076986241221542e+00 7.6650472057314571e+00 0.0000000000000000e+00  -2.2372678452532626e+00 7.1596291364018558e+00 0.0000000000000000e+00  -7.0487186496630716e-01 6.6411565358264628e+00 0.0000000000000000e+00  -1.9140009915977447e+00 6.2188433403361962e+00 0.0000000000000000e+00  -4.6142811921107640e-01 5.6323717892923746e+00 0.0000000000000000e+00  -1.6462068772813800e+00 5.2983504980412732e+00 0.0000000000000000e+00  -2.5927941384304476e-01 4.6622570609253682e+00 0.0000000000000000e+00  -1.4366084787537519e+00 4.3906959641517114e+00 0.0000000000000000e+00  -1.0701196867094381e-01 3.6919611649874162e+00 0.0000000000000000e+00  -1.2693507013247365e+00 3.4934782897833832e+00 0.0000000000000000e+00  2.4341995337497945e-03 2.8538088494386580e+00 0.0000000000000000e+00  -1.1492915202009379e+00 2.7218107998400058e+00 0.0000000000000000e+00  7.1362488914260322e-02 1.9686082340523370e+00 0.0000000000000000e+00  -1.0756321752615501e+00 1.8929863772574591e+00 0.0000000000000000e+00  1.3785792901108088e-01 1.3352182685423737e+00 0.0000000000000000e+00  -1.0357425533205602e+00 1.2700044024666239e+00 0.0000000000000000e+00  2.0931076203123111e-01 7.1287786094426420e-01 0.0000000000000000e+00  -1.0096436630446188e+00 6.2782971388291264e-01 0.0000000000000000e+00  3.7252337450418449e-01 -1.7143853857349559e-01 0.0000000000000000e+00  -9.5435750493720839e-01 -3.7000078423858135e-01 0.0000000000000000e+00  1.2559334845844344e-01 -4.4166264188791002e+00 0.0000000000000000e+00  4.8518795047680574e-01 -4.6975443208126997e+00 0.0000000000000000e+00  -2.0769189326577436e-01 -4.7201141539744826e+00 0.0000000000000000e+00  -6.4275929640725826e-01 -5.5991583013068773e+00 0.0000000000000000e+00  -1.2215502555402189e+00 -6.2664480689805355e+00 0.0000000000000000e+00  -1.7915177179749415e+00 -7.1794122801695250e+00 0.0000000000000000e+00  -2.3444867580014779e+00 -7.8374975696690008e+00 0.0000000000000000e+00  -3.0092405777693449e+00 -8.7135152342982352e+00 0.0000000000000000e+00  -3.5772567343635533e+00 -9.3255568148332806e+00 0.0000000000000000e+00  -3.7205937681835195e+00 -9.3210331333891965e+00 0.0000000000000000e+00  -4.6832006352063260e+00 -1.0292478525607109e+01 0.0000000000000000e+00  -1.5746231897555050e+00 -4.7050215894093208e+00 0.0000000000000000e+00  -1.1137605597572344e+01 -1.8039390983637098e+01 0.0000000000000000e+00  -1.0074043013415704e+01 -1.5452159010110170e+01 0.0000000000000000e+00  -9.9196738119534533e+00 -1.4249220561587435e+01 0.0000000000000000e+00  -1.0425021066023202e+01 -1.3987040836460976e+01 0.0000000000000000e+00  -1.1454538938227731e+01 -1.4383572893999254e+01 0.0000000000000000e+00  -1.2834428422018714e+01 -1.5314447934707156e+01 0.0000000000000000e+00  -1.4472896538859237e+01 -1.6393950879890884e+01 0.0000000000000000e+00  -1.6283547187084775e+01 -1.7612739204809543e+01 0.0000000000000000e+00  -1.8184279876050297e+01 -1.8789190988024885e+01 0.0000000000000000e+00  -2.0105745122122347e+01 -1.9854635911027259e+01 0.0000000000000000e+00  -2.1980893789483126e+01 -2.0402594441889455e+01 0.0000000000000000e+00  -2.3734814634224048e+01 -2.0925687783512210e+01 0.0000000000000000e+00  -2.5308505720421770e+01 -2.0196656444053268e+01 0.0000000000000000e+00  -2.6655781139369900e+01 -1.9542538618399856e+01 0.0000000000000000e+00  -2.7733534625818802e+01 -1.6909421984675014e+01 0.0000000000000000e+00  -2.8539021283639865e+01 -1.4301419421622196e+01 0.0000000000000000e+00  -2.9056997602675690e+01 -9.4295207970162007e+00 0.0000000000000000e+00  -2.9341483357318179e+01 -3.4347472626377642e+00 0.0000000000000000e+00  -2.9389987333966445e+01 -4.0237583118638736e-04 0.0000000000000000e+00  -2.9328824310763128e+01 -1.1972449512168406e+00 0.0000000000000000e+00  -2.9389984122760595e+01 4.3344182757723744e-04 0.0000000000000000e+00  -2.9172569529173622e+01 7.7075668225884133e+00 0.0000000000000000e+00  -2.0917558464687602e+01 2.2737351091489710e+01 0.0000000000000000e+00  -2.0663903170494343e+01 2.3029486890389776e+01 0.0000000000000000e+00  -1.7767398605505338e+01 2.6301001562101884e+01 0.0000000000000000e+00  -1.6735861829614556e+01 2.5151130536903441e+01 0.0000000000000000e+00  -1.5049361874125527e+01 2.4708832124729927e+01 0.0000000000000000e+00  -1.3782547596275140e+01 2.3042338060268342e+01 0.0000000000000000e+00  -1.2493728144254650e+01 2.1218518823687813e+01 0.0000000000000000e+00  -1.1370859367541682e+01 1.9284230610778256e+01 0.0000000000000000e+00  -1.0091235966091144e+01 1.7939348168660068e+01 0.0000000000000000e+00  -9.1486693616033801e+00 1.6286477034309648e+01 0.0000000000000000e+00  -8.3579481066768953e+00 1.4652474347722412e+01 0.0000000000000000e+00  -7.5099897581251387e+00 1.3397523398846603e+01 0.0000000000000000e+00  -6.7228770353107086e+00 1.2233131677466208e+01 0.0000000000000000e+00  -5.9992175247074835e+00 1.1152750760742768e+01 0.0000000000000000e+00  -5.3158929683590328e+00 1.0225531868309499e+01 0.0000000000000000e+00  -4.7122677818656520e+00 9.2929978834009113e+00 0.0000000000000000e+00  -4.1902348743006259e+00 8.3646266511811831e+00 0.0000000000000000e+00  -3.7176158313876178e+00 7.5127374320871860e+00 0.0000000000000000e+00  -3.3118210122668335e+00 6.6276831165483996e+00 0.0000000000000000e+00  -2.9756986399760939e+00 5.7524779395394399e+00 0.0000000000000000e+00  -2.6828251427334857e+00 4.9143628133305235e+00 0.0000000000000000e+00  -2.4445429870341093e+00 4.0942310443036041e+00 0.0000000000000000e+00  -2.2641504448737337e+00 3.2591414513527837e+00 0.0000000000000000e+00  -2.1249697857067038e+00 2.5598683381940099e+00 0.0000000000000000e+00  -2.0334721365164476e+00 1.7967630481540391e+00 0.0000000000000000e+00  -1.9858418394312087e+00 1.2302034329010179e+00 0.0000000000000000e+00  -1.9745466980760098e+00 5.9884175060331690e-01 0.0000000000000000e+00  -1.9724517458330253e+00 -4.3120721634414388e-01 0.0000000000000000e+00  -1.1239780602759346e+00 -3.8752924573272174e+00 0.0000000000000000e+00  -8.0235510660068943e-01 -4.2181022326833020e+00 0.0000000000000000e+00  -1.4866384911904580e+00 -4.2172766741157597e+00 0.0000000000000000e+00  -1.8245858728416910e+00 -4.9443137278206386e+00 0.0000000000000000e+00  -2.2631995150809638e+00 -5.3966086674747356e+00 0.0000000000000000e+00  -2.8447821601014898e+00 -6.3238941604105579e+00 0.0000000000000000e+00  -3.4160697877960127e+00 -7.0092763701366652e+00 0.0000000000000000e+00  -3.9677678209258707e+00 -7.7192392939045220e+00 0.0000000000000000e+00  -4.6287210396901228e+00 -8.4788166437962929e+00 0.0000000000000000e+00  -5.1896278676703052e+00 -9.1143691967020626e+00 0.0000000000000000e+00  -5.3213434610561849e+00 -8.8596896699534700e+00 0.0000000000000000e+00  -6.2688144869642244e+00 -9.3790863217554179e+00 0.0000000000000000e+00  -3.1489413043041723e+00 -3.6995154274608324e+00 0.0000000000000000e+00  -1.2710960872095916e+01 -1.7049403566320471e+01 0.0000000000000000e+00  -1.1645380055919430e+01 -1.4491378851331280e+01 0.0000000000000000e+00  -1.1478455923433586e+01 -1.3246052622228726e+01 0.0000000000000000e+00  -1.1961271873242836e+01 -1.2862920808170797e+01 0.0000000000000000e+00  -1.2959137864314012e+01 -1.3275085450302104e+01 0.0000000000000000e+00  -1.4298701339827877e+01 -1.3973268954952019e+01 0.0000000000000000e+00  -1.5887117522661544e+01 -1.4939950761387301e+01 0.0000000000000000e+00  -1.7638823890860518e+01 -1.5988525856406094e+01 0.0000000000000000e+00  -1.9471260634675151e+01 -1.7031225070219385e+01 0.0000000000000000e+00  -2.1312200699657936e+01 -1.7654874678376377e+01 0.0000000000000000e+00  -2.3096569280006989e+01 -1.8372149237038116e+01 0.0000000000000000e+00  -2.4744853318265179e+01 -1.7918519019694987e+01 0.0000000000000000e+00  -2.6201711728523346e+01 -1.7621275345879752e+01 0.0000000000000000e+00  -2.7412325333898213e+01 -1.5391101991803554e+01 0.0000000000000000e+00  -2.8346500178029164e+01 -1.3224960214833139e+01 0.0000000000000000e+00  -2.8977779165109052e+01 -8.7530819622970437e+00 0.0000000000000000e+00  -2.9334549698999549e+01 -3.1928236202322213e+00 0.0000000000000000e+00  -2.9390789073133085e+01 -5.7641145758042416e-04 0.0000000000000000e+00  -2.9304827059385794e+01 -1.5101157873080304e+00 0.0000000000000000e+00  -2.9390786132568302e+01 6.2798591852609629e-04 0.0000000000000000e+00  -2.8937337488802246e+01 7.4156662241843305e+00 0.0000000000000000e+00  -2.8768858468955738e+01 1.0436218220319558e+01 0.0000000000000000e+00  -2.0625966237492612e+01 2.2750226389747809e+01 0.0000000000000000e+00  -2.0502809701613646e+01 2.2037178500421675e+01 0.0000000000000000e+00  -1.7715896277575073e+01 2.3683624657010981e+01 0.0000000000000000e+00  -1.6782801123349852e+01 2.2244232223969682e+01 0.0000000000000000e+00  -1.5182081848136127e+01 2.1204865622583647e+01 0.0000000000000000e+00  -1.3994412800925094e+01 1.9341297534576093e+01 0.0000000000000000e+00  -1.2776094910362120e+01 1.7652254175393008e+01 0.0000000000000000e+00  -1.1719314213303333e+01 1.6068673105908317e+01 0.0000000000000000e+00  -1.0501314170773773e+01 1.4919504640360346e+01 0.0000000000000000e+00  -9.6172481628717907e+00 1.3510941664945859e+01 0.0000000000000000e+00  -8.8828157105900516e+00 1.2168718514186706e+01 0.0000000000000000e+00  -8.0891123367490838e+00 1.1094090249518295e+01 0.0000000000000000e+00  -7.3540032315940262e+00 1.0107233633246803e+01 0.0000000000000000e+00  -6.6804533513439255e+00 9.2390237741828773e+00 0.0000000000000000e+00  -6.0452424506901297e+00 8.4247666614253518e+00 0.0000000000000000e+00  -5.4878214668722212e+00 7.6173249808289567e+00 0.0000000000000000e+00  -5.0102726718381332e+00 6.8384563870191988e+00 0.0000000000000000e+00  -4.5806136276390204e+00 6.0524482374758497e+00 0.0000000000000000e+00  -4.2161624595886948e+00 5.2809613971890963e+00 0.0000000000000000e+00  -3.9203174560096588e+00 4.5064014406992952e+00 0.0000000000000000e+00  -3.6661519070666451e+00 3.7680752344448170e+00 0.0000000000000000e+00  -3.4660441872294765e+00 3.0177721417058820e+00 0.0000000000000000e+00  -3.3217569136956033e+00 2.3817015770217380e+00 0.0000000000000000e+00  -3.2193039594268140e+00 1.6855129753182694e+00 0.0000000000000000e+00  -3.1602597874725715e+00 1.1906612456398651e+00 0.0000000000000000e+00  -3.1500619138698931e+00 6.0186111208011828e-01 0.0000000000000000e+00  -3.1621422733091840e+00 -4.0068655468495906e-01 0.0000000000000000e+00  -2.4370381119784819e+00 -3.3900345524935660e+00 0.0000000000000000e+00  -2.1515756442880383e+00 -3.7940262777574638e+00 0.0000000000000000e+00  -2.7631059272489042e+00 -3.6684307602136590e+00 0.0000000000000000e+00  -3.1336884319664517e+00 -4.4313404328760919e+00 0.0000000000000000e+00  -3.4804328748044115e+00 -4.7326430341772072e+00 0.0000000000000000e+00  -3.9279909490227602e+00 -5.4462243369203973e+00 0.0000000000000000e+00  -4.5172621855048360e+00 -6.1480338152181320e+00 0.0000000000000000e+00  -5.0944070046377066e+00 -6.8895499904933342e+00 0.0000000000000000e+00  -5.6490031563950414e+00 -7.4879921471014059e+00 0.0000000000000000e+00  -6.3085225819052733e+00 -8.2768884139400942e+00 0.0000000000000000e+00  -6.8626272659885394e+00 -8.6705863756932136e+00 0.0000000000000000e+00  -6.9825133431748094e+00 -7.9681449999420781e+00 0.0000000000000000e+00  -7.9172345286661141e+00 -8.3834022449916041e+00 0.0000000000000000e+00  -4.7970858927326034e+00 -2.6973403057631113e+00 0.0000000000000000e+00  -1.4377177181455144e+01 -1.6077811941388500e+01 0.0000000000000000e+00  -1.3326699928687825e+01 -1.3495923745805678e+01 0.0000000000000000e+00  -1.3159706375882667e+01 -1.2147537583620116e+01 0.0000000000000000e+00  -1.3629401004538492e+01 -1.1797200780114904e+01 0.0000000000000000e+00  -1.4600008877643475e+01 -1.1990418528747353e+01 0.0000000000000000e+00  -1.5900996843650226e+01 -1.2593358509481726e+01 0.0000000000000000e+00  -1.7438651458551565e+01 -1.3405289506276771e+01 0.0000000000000000e+00  -1.9126550572468528e+01 -1.4336601330409920e+01 0.0000000000000000e+00  -2.0881199093218683e+01 -1.4957449616064599e+01 0.0000000000000000e+00  -2.2630012257369046e+01 -1.5774104433433944e+01 0.0000000000000000e+00  -2.4301868335146004e+01 -1.5532845124816481e+01 0.0000000000000000e+00  -2.5821964436311710e+01 -1.5546337230605852e+01 0.0000000000000000e+00  -2.7122798992013315e+01 -1.3686982858059084e+01 0.0000000000000000e+00  -2.8164562839409168e+01 -1.1977301964004301e+01 0.0000000000000000e+00  -2.8887972116512934e+01 -7.9296776427378139e+00 0.0000000000000000e+00  -2.9317098538964952e+01 -2.8837787774872075e+00 0.0000000000000000e+00  -2.9391849789