<?xml version="1.0"?>
<VTKFile type="UnstructuredGrid"  version="0.1"  >
<UnstructuredGrid>
<Piece  NumberOfPoints="1933" NumberOfCells="3640">
<Points>
<DataArray  type="Float64"  NumberOfComponents="3"  format="ascii">0.2935766295567955 0.002136522272695186 0  5.29357664056915 0.002051594627016013 0  5.293704104531687 7.502051665384054 0  0.2937040577924123 7.502136528806989 0  10.29357663805141 0.001966583489582448 0  10.29370420098399 7.501966681697352 0  15.29357666644598 0.001881406532687631 0  15.29370437877706 7.501881516352127 0  20.29357678459518 0.00179602656846761 0  20.29370467140843 7.501796141226748 0  25.29357705384913 0.00171043550641459 0  25.29370511475557 7.50171055254809 0  30.29357753401113 0.001624644466099493 0  30.29370574644713 7.501624763589493 0  35.29357828277539 0.001538677660174818 0  35.29370660541596 7.501538799678558 0  40.29357935670365 0.001452568800959116 0  40.29370773186309 7.501452695145732 0  45.29358081285175 0.00136635926495918 0  45.2937091675754 7.501366491764994 0  50.29358271065947 0.001280097537188899 0  50.29371095648641 7.501280238345092 0  55.29358511395577 0.001193839654401949 0  55.29371314538038 7.501193991256049 0  60.29358809304714 0.001107650510408213 0  60.29371578466339 7.501107815787133 0  65.29359172691467 0.001021606000123245 0  65.29371892913402 7.501021788330124 0  70.29359610556628 0.0009357960797431544 0  70.29372263868991 7.500935999474054 0  75.29360133261052 0.0008503289245527649 0  75.29372697888789 7.500850558195328 0  80.29360752810959 0.0007653364908718656 0  80.29373202123672 7.500765597445556 0  85.29361483176939 0.0006809819566947664 0  85.29373784304198 7.500681281595053 0  90.29362340647607 0.0005974697590421423 0  90.2937445265121 7.500597816407221 0  95.29363344211843 0.0005150593155684388 0  95.2937521566767 7.500515462531506 0  100.2936451594293 0.0004340840965726868 0  100.2937608174322 7.500434553956105 0  105.2936588131825 0.0003549786394268085 0  105.2937705846897 7.500355523517658 0  110.2936746931962 0.0002783176035329198 0  110.2937815151771 7.500278938487238 0  115.2936931197753 0.0002048734426247062 0  115.2937936290344 7.500205550482276 0  120.2937144264099 0.0001357033775991747 0  120.2938068842838 7.5001363653962 0  125.2937389146317 7.228314229286961e-05 0  125.2938211426221 7.500072740213785 0  130.2937667494415 1.671594035011156e-05 0  130.2938361315051 7.500016513047882 0  135.2937977291384 -2.793890081764313e-05 0  135.2938514242536 7.499970167243896 0  140.2938307890617 -5.715970448090417e-05 0  140.2938665061056 7.49993701608753 0  145.2938629291768 -6.42772932589473e-05 0  145.2938811201102 7.49992138904754 0  150.2938868115194 -4.016934904681696e-05 0  150.2938964533789 7.499929008329758 0  160.2938926261465 1.048965411124456e-18 0  165.2937551395091 -0.000171255222652402 0  165.293868094002 7.499805515000958 0  160.2939112540144 7.499944237283167 0  170.2936726345831 -0.0003269699816806932 0  170.2938242758713 7.499661209524091 0  175.2936209819711 -0.0004711909212996063 0  175.2937869922551 7.49952214959948 0  180.2935876032911 -0.0006058753535757137 0  180.2937571835797 7.499390166578412 0  185.2935655113861 -0.0007327113320230613 0  185.2937340089545 7.499264849068519 0  190.2935506579039 -0.0008531741059556596 0  190.2937162490054 7.499145274862133 0  195.2935406095542 -0.0009684789225637214 0  195.293702755902 7.4990305064325 0  200.2935338494046 -0.001079591334756451 0  200.2936925744695 7.498919727653792 0  205.2935293962539 -0.001187267708134014 0  205.2936849484855 7.498812265282995 0  210.2935265921458 -0.001292100332852311 0  210.2936792915958 7.498707574275469 0  215.2935249808236 -0.001394556541925486 0  215.2936751522341 7.498605214681646 0  220.293524236315 -0.001495009428286156 0  220.2936721824437 7.498504829616837 0  225.2935241197121 -0.001593760924566753 0  225.2936701129153 7.498406126968713 0  230.2935244521759 -0.001691058842355829 0  230.2936687339091 7.498308865029711 0  235.293525097521 -0.001787109416365704 0  235.293667880969 7.498212841464021 0  240.2935259506144 -0.001882086596361532 0  240.2936674242987 7.498117884884375 0  245.2935269294245 -0.001976139013220143 0  245.2936672608669 7.498023848395654 0  250.2935279694236 -0.002069395286078132 0  250.2936673085128 7.497930604594424 0  255.2935290195768 -0.002161968143852408 0  255.2936675015357 7.497838041638762 0  260.2935300394271 -0.002253957695358274 0  260.293667787374 7.497746060103983 0  265.2935309969959 -0.002345454083048999 0  265.2936681241121 7.497654570418801 0  270.2935318672988 -0.002436539682246879 0  270.2936684786209 7.497563490738143 0  275.2935326314041 -0.002527290947975972 0  275.2936688251896 7.497472745161102 0  280.2935332759826 -0.0026177799514768 0  280.2936691445503 7.49738226225443 0  285.2935337933892 -0.002708075569416326 0  285.2936694232114 7.497291973905056 0  290.2935341823198 -0.002798244157958217 0  290.2936696530128 7.497201814613759 0  295.2935344491621 -0.002888349296876015 0  295.2936698308347 7.497111721476974 0  300.2935346100574 -0.002978449686221791 0  300.2936699583715 7.497021635304732 0  305.2935346934748 -0.003068593194458977 0  305.2936700420461 7.496931503585016 0  310.293534742269 -0.003158802568923431 0  310.2936700936302 7.496841286204952 0  5.293831244118037 15.00205185112183 0  0.2938311868074668 15.00213655211123 0  10.29383135871072 15.00196693756729 0  15.29383156176413 15.00188179743851 0  20.293831877242 15.00179642816722 0  25.293832326838 15.00171083924778 0  30.29383293217431 15.00162505069365 0  35.29383371563214 15.00153909120094 0  40.29383470059486 15.00145299678228 0  45.29383591146977 15.00136681009963 0  50.2938373736323 15.00128058052382 0  55.29383911332417 15.00119436490177 0  60.29384115747919 15.00110822902919 0  65.29384353342179 15.00102224987068 0  70.29384626835379 15.00093651862806 0  75.29384938852786 15.00085114482897 0  80.29385291796848 15.00076626169448 0  85.29385687657374 15.00068203315148 0  90.2938612773917 15.00059866298907 0  95.29386612284866 15.00051640681621 0  100.2938713997275 15.0004355876496 0  105.2938770728483 15.00035661609414 0  110.2938830777917 15.00028001604777 0  115.2938893139353 15.00020645635593 0  120.2938956409621 15.00013678716751 0  125.2939018856271 15.0000720753884 0  130.2939078719648 15.00001362331886 0  135.2939134981879 14.99996293105766 0  140.2939188958947 14.99992150915343 0  145.2939247096057 14.99989031289442 0  150.2939324684309 14.99986816316162 0  165.293941994069 14.99974246176431 0  160.2939502779065 14.99985148186886 0  170.2939267894484 14.99962176511468 0  175.2939087237807 14.99949767758239 0  180.2938907869303 14.99937478075082 0  185.2938744908544 14.99925496663367 0  190.2938604046642 14.99913876722465 0  195.2938485949553 14.99902610815765 0  200.2938388923084 14.99891667850449 0  205.2938310364427 14.99881010114105 0  210.2938247496676 14.99870600610752 0  215.2938197708661 14.99860405837235 0  220.2938158688065 14.99850396500182 0  225.2938128451953 14.99840547364776 0  230.2938105330254 14.99830836788066 0  235.2938087930849 14.99821246182042 0  240.2938075100143 14.99811759506449 0  245.2938065885507 14.99802362824802 0  250.2938059502159 14.99793043928313 0  255.2938055305003 14.99783792021085 0  260.2938052765301 14.9977459745681 0  265.2938051451502 14.99765451517302 0  270.2938051013638 14.99756346224939 0  275.2938051170593 14.99747274183181 0  280.2938051699485 14.99738228441797 0  285.2938052426836 14.9972920238587 0  290.2938053220698 14.99720189649234 0  295.2938053983992 14.99711184051392 0  300.2938054649435 14.99702179545089 0  305.293805517849 14.99693170119319 0  310.2938055569165 14.99684149474348 0  5.293957936951135 22.50205227604441 0  0.2939578778342145 22.50213678606518 0  10.29395804011366 22.50196745228348 0  15.29395821382761 22.5018823468024 0  20.2939584753945 22.50179698627688 0  25.29395883723325 22.50171139777989 0  30.2939593094843 22.50162561145286 0  35.29395990135257 22.50153966162981 0  40.29396062163972 22.50145358737621 0  45.29396147878511 22.5013674329807 0  50.29396248060804 22.50128124868542 0  55.29396363384182 22.501195091808 0  60.29396494348999 22.50110902835633 0  65.2939664119923 22.50102313522726 0  70.29396803816236 22.50093750309466 0  75.2939698158512 22.50085224012223 0  80.29397173228274 22.50076747667039 0  85.29397376603124 22.50068337120034 0  90.29397588465528 22.50060011759737 0  95.29397804210433 22.50051795411309 0  100.293980176207 22.50043717400928 0  105.2939822068921 22.50035813767617 0  110.2939840363686 22.5002812852993 0  115.2939855533878 22.50020714772012 0  120.2939866450022 22.50013635035601 0  125.2939872208149 22.50006959987992 0  130.2939872559768 22.50000763414836 0  135.2939868582012 22.49995110032136 0  140.2939863558482 22.49990030233057 0  145.2939863771741 22.49985473180107 0  150.2939878225377 22.49981231414526 0  165.2940117397788 22.49967306281224 0  160.294003159112 22.49976497025703 0  170.2940136243122 22.49956978923626 0  175.2940105362609 22.49946022359296 0  180.2940044209413 22.49934818912477 0  185.2939968757062 22.49923610789758 0  190.2939889906378 22.4991253038332 0  195.2939814216674 22.49901639201193 0  200.2939745158986 22.49890957617724 0  205.2939684214382 22.49880483956778 0  210.2939631671555 22.49870205733819 0  215.2939587155929 22.49860105925956 0  220.2939549961252 22.49850166302832 0  225.2939519248174 22.49840369091827 0  230.2939494157704 22.49830697729669 0  235.2939473872211 22.49821137128976 0  240.2939457645021 22.49811673697868 0  245.2939444811841 22.49802295241957 0  250.2939434792036 22.49792990817076 0  255.2939427084639 22.49783750567763 0  260.2939421261726 22.49774565568514 0  265.2939416960917 22.49765427675298 0  270.2939413877618 22.49756329390114 0  275.2939411757511 22.49747263738961 0  280.2939410389302 22.49738224162317 0  285.2939409597818 22.49729204415641 0  290.2939409237397 22.49720198473944 0  295.2939409185927 22.49711200426244 0  300.2939409339681 22.497022
[...]
<PointData  Vectors="v"> 
<DataArray  type="Float64"  Name="v"  NumberOfComponents="3" format="ascii">3.6576741941732180e+00 -1.6115415243788604e+00 0.0000000000000000e+00  3.5122871819656325e+00 -1.8368406923774478e+00 0.0000000000000000e+00  2.8949780692478675e+00 -1.6187593610199351e+00 0.0000000000000000e+00  3.0021162135934052e+00 -1.4515653007408245e+00 0.0000000000000000e+00  3.2682429133904991e+00 -2.3490948607042395e+00 0.0000000000000000e+00  2.7495234372575497e+00 -1.9834548662636173e+00 0.0000000000000000e+00  2.9631655067304190e+00 -3.0812665961389829e+00 0.0000000000000000e+00  2.5057780847503284e+00 -2.6241670937622796e+00 0.0000000000000000e+00  2.6052271740817932e+00 -3.7915825918381767e+00 0.0000000000000000e+00  2.2012292406460023e+00 -3.2557287398770267e+00 0.0000000000000000e+00  2.1996231802146471e+00 -4.6324841422315508e+00 0.0000000000000000e+00  1.8441455866246284e+00 -4.0256429225363703e+00 0.0000000000000000e+00  1.8041514242947247e+00 -5.3878777428814288e+00 0.0000000000000000e+00  1.4402192323650362e+00 -4.7965567837149017e+00 0.0000000000000000e+00  1.6319114300037245e+00 -5.8100922665036121e+00 0.0000000000000000e+00  1.0469508434524044e+00 -5.5545076379473359e+00 0.0000000000000000e+00  1.1326429922713612e+00 -6.6729917383790376e+00 0.0000000000000000e+00  8.7760105625108609e-01 -5.9275943872945653e+00 0.0000000000000000e+00  3.0275186915883170e+00 -3.9444587677074052e+00 0.0000000000000000e+00  3.8238793532752657e-01 -6.7907032828477965e+00 0.0000000000000000e+00  -1.3458172034466793e+00 -1.0492504508871384e+01 0.0000000000000000e+00  2.2822225322534595e+00 -3.9378961439610629e+00 0.0000000000000000e+00  2.8614550506339324e-02 -8.1886246767150261e+00 0.0000000000000000e+00  -2.0862811673061543e+00 -1.0255717420924013e+01 0.0000000000000000e+00  3.1587766408579787e-01 -7.5195961830071401e+00 0.0000000000000000e+00  -7.0532557370420257e-01 -7.9583134901076980e+00 0.0000000000000000e+00  -2.0029451236612723e-02 -7.8268312619271834e+00 0.0000000000000000e+00  -4.0903886640616310e-01 -7.3328178194070111e+00 0.0000000000000000e+00  -8.0935752583146692e-01 -8.8116339365278264e+00 0.0000000000000000e+00  -7.3386424515106641e-01 -7.6399501620955492e+00 0.0000000000000000e+00  -1.8670025284796536e+00 -1.0139944414293414e+01 0.0000000000000000e+00  -1.5088494948145170e+00 -8.5672085978891346e+00 0.0000000000000000e+00  -3.1369886178955593e+00 -1.1669127632965516e+01 0.0000000000000000e+00  -2.5499919938920330e+00 -9.7809004615891837e+00 0.0000000000000000e+00  -4.5747143347044759e+00 -1.3359468289636208e+01 0.0000000000000000e+00  -3.8011157981653723e+00 -1.1222086481089004e+01 0.0000000000000000e+00  -6.1353540547941012e+00 -1.5026489789797536e+01 0.0000000000000000e+00  -5.2159784766870345e+00 -1.2706711831103741e+01 0.0000000000000000e+00  -7.7832316324497937e+00 -1.6664006144305361e+01 0.0000000000000000e+00  -6.7513923376104721e+00 -1.4217367866382931e+01 0.0000000000000000e+00  -9.4780082507535770e+00 -1.8187977195944953e+01 0.0000000000000000e+00  -8.3702420422183970e+00 -1.5673471394025874e+01 0.0000000000000000e+00  -1.1152801008424550e+01 -1.9497299845528854e+01 0.0000000000000000e+00  -1.0032181757626111e+01 -1.7016579337456083e+01 0.0000000000000000e+00  -1.2745358258967110e+01 -2.0408596628288283e+01 0.0000000000000000e+00  -1.1669078765255861e+01 -1.8054001246754794e+01 0.0000000000000000e+00  -1.4203210318626445e+01 -2.1021819343547428e+01 0.0000000000000000e+00  -1.3222048517642412e+01 -1.8875627584968456e+01 0.0000000000000000e+00  -1.5453235085819582e+01 -2.0819989340045339e+01 0.0000000000000000e+00  -1.4630610261392903e+01 -1.8984532766885472e+01 0.0000000000000000e+00  -1.6477116162587116e+01 -2.0143569073489136e+01 0.0000000000000000e+00  -1.5834004367684006e+01 -1.8659714036461580e+01 0.0000000000000000e+00  -1.7227526630157186e+01 -1.8257355798775311e+01 0.0000000000000000e+00  -1.6795075155730064e+01 -1.7175556683216008e+01 0.0000000000000000e+00  -1.7742335893819835e+01 -1.5432941091667997e+01 0.0000000000000000e+00  -1.7493164645662286e+01 -1.4727012369283061e+01 0.0000000000000000e+00  -1.8011412172625800e+01 -1.1386504618041569e+01 0.0000000000000000e+00  -1.7928589582190266e+01 -1.1028299571679243e+01 0.0000000000000000e+00  -1.8136941762317512e+01 -4.7379761125341213e+00 0.0000000000000000e+00  -1.8141699027693790e+01 -4.6340232131571328e+00 0.0000000000000000e+00  -1.8163563201645438e+01 3.3510990462591283e-11 0.0000000000000000e+00  -1.8163229807992948e+01 3.1822917786580504e-04 0.0000000000000000e+00  -1.8163563200111366e+01 -1.3056760437502923e-19 0.0000000000000000e+00  -1.3885188030916913e+01 1.1504784930599145e+01 0.0000000000000000e+00  -1.8132847569540601e+01 5.1226942736446706e+00 0.0000000000000000e+00  -1.8163230959157069e+01 -3.3661121365912577e-04 0.0000000000000000e+00  -1.2623008562340900e+01 2.0107921407715384e+01 0.0000000000000000e+00  -1.3904069119029064e+01 1.8284030883406178e+01 0.0000000000000000e+00  -1.0751123242045995e+01 2.3970809729889719e+01 0.0000000000000000e+00  -1.2700655554947929e+01 2.1199583014593447e+01 0.0000000000000000e+00  -9.6664967869408311e+00 2.4799702554448235e+01 0.0000000000000000e+00  -1.0883443451247174e+01 2.3220836174550175e+01 0.0000000000000000e+00  -8.4435478502357455e+00 2.4354128611499203e+01 0.0000000000000000e+00  -9.8478919358433306e+00 2.2559463409493905e+01 0.0000000000000000e+00  -7.4335931333157683e+00 2.2835897379116705e+01 0.0000000000000000e+00  -8.6706564081911992e+00 2.1361257668583175e+01 0.0000000000000000e+00  -6.4851405653073595e+00 2.1053231336801151e+01 0.0000000000000000e+00  -7.7052575468171662e+00 1.9666054612070209e+01 0.0000000000000000e+00  -5.6330059688165264e+00 1.9043203842395979e+01 0.0000000000000000e+00  -6.7974442153639316e+00 1.7801029553056875e+01 0.0000000000000000e+00  -4.7446015380804356e+00 1.7229712429624705e+01 0.0000000000000000e+00  -5.9840464113852132e+00 1.5930068612955624e+01 0.0000000000000000e+00  -4.0350636164509979e+00 1.5492507293919829e+01 0.0000000000000000e+00  -5.1329226570885629e+00 1.4460021537406094e+01 0.0000000000000000e+00  -3.4037782446071581e+00 1.3977203174827709e+01 0.0000000000000000e+00  -4.4585330388063120e+00 1.3060970938426234e+01 0.0000000000000000e+00  -2.7512850695543163e+00 1.2761973302696417e+01 0.0000000000000000e+00  -3.8608917644772460e+00 1.1812685991366838e+01 0.0000000000000000e+00  -2.1566101546346963e+00 1.1702094806591935e+01 0.0000000000000000e+00  -3.2410364381683188e+00 1.0838240608635173e+01 0.0000000000000000e+00  -1.6195157967718126e+00 1.0779367399221236e+01 0.0000000000000000e+00  -2.6774998150957070e+00 1.0001238144201348e+01 0.0000000000000000e+00  -1.1380747703268026e+00 9.9347236602123807e+00 0.0000000000000000e+00  -2.1704383983386171e+00 9.2390543555430860e+00 0.0000000000000000e+00  -7.2171250470578041e-01 9.1307295267016961e+00 0.0000000000000000e+00  -1.7182194103025690e+00 8.5318625444115774e+00 0.0000000000000000e+00  -3.6544065674105419e-01 8.3723417509719784e+00 0.0000000000000000e+00  -1.3300816847796273e+00 7.8630642327885232e+00 0.0000000000000000e+00  -5.3781916839571495e-02 7.6305616464226071e+00 0.0000000000000000e+00  -1.0012342030342023e+00 7.1875885638389825e+00 0.0000000000000000e+00  2.0999786918113605e-01 6.9050116943360553e+00 0.0000000000000000e+00  -7.1648345122068258e-01 6.5332600238243828e+00 0.0000000000000000e+00  4.3081785947239831e-01 6.1893816778189530e+00 0.0000000000000000e+00  -4.7889689730936769e-01 5.8817917607249912e+00 0.0000000000000000e+00  6.1551062046008942e-01 5.4846262129556322e+00 0.0000000000000000e+00  -2.8388254183241113e-01 5.2307043110043363e+00 0.0000000000000000e+00  7.6467376672228105e-01 4.7631796686793875e+00 0.0000000000000000e+00  -1.2444672435447639e-01 4.5624155559345283e+00 0.0000000000000000e+00  8.7153616176000781e-01 4.0841800605344289e+00 0.0000000000000000e+00  -4.7625655295342571e-04 3.9462952492703702e+00 0.0000000000000000e+00  9.4608623293467253e-01 3.3297729614369862e+00 0.0000000000000000e+00  8.2069522904600151e-02 3.2407193410801409e+00 0.0000000000000000e+00  9.7439054263291691e-01 2.6989188321180877e+00 0.0000000000000000e+00  1.3153586897845479e-01 2.6779818020401303e+00 0.0000000000000000e+00  9.6070828592967727e-01 1.8807971699839894e+00 0.0000000000000000e+00  1.3667787579316099e-01 1.9244902377900324e+00 0.0000000000000000e+00  8.9614598315300797e-01 1.3991564622736559e+00 0.0000000000000000e+00  9.7226261071953909e-02 1.5160165708595201e+00 0.0000000000000000e+00  7.6621477149422235e-01 4.3125598073435895e-01 0.0000000000000000e+00  1.1728635044598430e-02 6.5107095290684425e-01 0.0000000000000000e+00  5.2160621492754433e-01 -5.0020275489107445e-02 0.0000000000000000e+00  -1.4736929056340056e-01 3.3287325841314175e-01 0.0000000000000000e+00  -5.8987807273821233e-02 -2.8477835044399985e-01 0.0000000000000000e+00  -4.0363059639616045e-01 6.1957697690957669e-01 0.0000000000000000e+00  2.0090385670650992e+00 -1.4570288265096107e+00 0.0000000000000000e+00  2.1168856460872090e+00 -1.2920501216258127e+00 0.0000000000000000e+00  1.9002158706841450e+00 -1.7639343952351227e+00 0.0000000000000000e+00  1.7525194487884510e+00 -2.2573636563381103e+00 0.0000000000000000e+00  1.5065911051603005e+00 -2.7978103845074918e+00 0.0000000000000000e+00  1.2001481552099940e+00 -3.4888563448181040e+00 0.0000000000000000e+00  8.4143831730754759e-01 -4.1902165292531537e+00 0.0000000000000000e+00  4.3675483605462284e-01 -4.9649060874483455e+00 0.0000000000000000e+00  4.4082569918283153e-02 -5.6740840657573051e+00 0.0000000000000000e+00  -1.2354941960567842e-01 -6.0500938191022380e+00 0.0000000000000000e+00  -6.1451130898051054e-01 -6.7915154394096060e+00 0.0000000000000000e+00  1.2905836679829408e+00 -3.7033184540286541e+00 0.0000000000000000e+00  -3.0786734451470470e+00 -1.0028938313154979e+01 0.0000000000000000e+00  -1.6973296838555294e+00 -7.7813724432392091e+00 0.0000000000000000e+00  -1.3938516831003258e+00 -7.1578070281545756e+00 0.0000000000000000e+00  -1.7078994728638695e+00 -7.4144310130862721e+00 0.0000000000000000e+00  -2.4664654450385668e+00 -8.2310441985036302e+00 0.0000000000000000e+00  -3.4869068406278152e+00 -9.3587309979892090e+00 0.0000000000000000e+00  -4.7137006164736217e+00 -1.0601887625979991e+01 0.0000000000000000e+00  -6.0987233919847412e+00 -1.1934858319441283e+01 0.0000000000000000e+00  -7.5987473479204066e+00 -1.3267135357173542e+01 0.0000000000000000e+00  -9.1776656866029711e+00 -1.4552218559765542e+01 0.0000000000000000e+00  -1.0791395839627837e+01 -1.5629580359861466e+01 0.0000000000000000e+00  -1.2373414911265366e+01 -1.6583088812853834e+01 0.0000000000000000e+00  -1.3862596407855824e+01 -1.6911565831473332e+01 0.0000000000000000e+00  -1.5199325978360823e+01 -1.6906815306065578e+01 0.0000000000000000e+00  -1.6316716904759545e+01 -1.5779213410226193e+01 0.0000000000000000e+00  -1.7189002360256016e+01 -1.3755556895962163e+01 0.0000000000000000e+00  -1.7771327024497904e+01 -1.0418512153642709e+01 0.0000000000000000e+00  -1.8104142242994499e+01 -4.4273475660165804e+00 0.0000000000000000e+00  -1.8162421575838458e+01 6.0656835437760401e-04 0.0000000000000000e+00  -1.8092017254428434e+01 4.9267346351947197e+00 0.0000000000000000e+00  -1.8162423648693540e+01 -6.9196238673724700e-04 0.0000000000000000e+00  -1.7900925947413011e+01 1.1959815442438286e+01 0.0000000000000000e+00  -1.3742721321316491e+01 1.9452015819371915e+01 0.0000000000000000e+00  -1.2625672120953666e+01 2.0537556375607707e+01 0.0000000000000000e+00  -1.0876485116015797e+01 2.1046227277411859e+01 0.0000000000000000e+00  -9.9044776117631894e+00 1.9625113999930964e+01 0.0000000000000000e+00  -8.7789402261096878e+00 1.8251048208263125e+01 0.0000000000000000e+00  -7.8641979516006222e+00 1.6465452298711281e+01 0.0000000000000000e+00  -7.0000190326087717e+00 1.4734476998226610e+01 0.0000000000000000e+00  -6.2270390280063399e+00 1.3206891037818282e+01 0.0000000000000000e+00  -5.4137485921919541e+00 1.2070963609076976e+01 0.0000000000000000e+00  -4.7747051157961904e+00 1.0935973126235346e+01 0.0000000000000000e+00  -4.2099851510020692e+00 9.9281036182629609e+00 0.0000000000000000e+00  -3.6218392132078838e+00 9.1740710199620263e+00 0.0000000000000000e+00  -3.0880825418497975e+00 8.4954134038088132e+00 0.0000000000000000e+00  -2.6090699315809021e+00 7.8700799043474134e+00 0.0000000000000000e+00  -2.1837420265893654e+00 7.2964200393611884e+00 0.0000000000000000e+00  -1.8211459587500891e+00 6.7090331265656289e+00 0.0000000000000000e+00  -1.5166203316849569e+00 6.1205136544553325e+00 0.0000000000000000e+00  -1.2553902749284440e+00 5.5392242902479456e+00 0.0000000000000000e+00  -1.0404939028313416e+00 4.9513819454595556e+00 0.0000000000000000e+00  -8.6738558206822214e-01 4.3364279265332719e+00 0.0000000000000000e+00  -7.2947404464837318e-01 3.7728769897846042e+00 0.0000000000000000e+00  -6.2639461124713525e-01 3.1296116450494607e+00 0.0000000000000000e+00  -5.6456260332915642e-01 2.6155654587513739e+00 0.0000000000000000e+00  -5.3509782572906883e-01 1.9297531961120400e+00 0.0000000000000000e+00  -5.5038785571485793e-01 1.5854180316683713e+00 0.0000000000000000e+00  -6.0854037336116185e-01 7.9375489778871755e-01 0.0000000000000000e+00  -7.1465488812491951e-01 5.7885344701940178e-01 0.0000000000000000e+00  -8.9107922076217772e-01 1.0196915578260370e+00 0.0000000000000000e+00  7.0025980568325497e-01 -1.2929842893816750e+00 0.0000000000000000e+00  7.9234473297602748e-01 -1.1573394013307901e+00 0.0000000000000000e+00  5.8869523243498256e-01 -1.5968783039653285e+00 0.0000000000000000e+00  4.7361807034232400e-01 -2.0318544051825422e+00 0.0000000000000000e+00  3.1963805238525406e-01 -2.4244744036068693e+00 0.0000000000000000e+00  6.6667678514317152e-02 -3.0247734613798727e+00 0.0000000000000000e+00  -2.4688816471441519e-01 -3.6484672320576523e+00 0.0000000000000000e+00  -6.1160354195128419e-01 -4.3547485533192498e+00 0.0000000000000000e+00  -1.0212172888303643e+00 -5.0835728795369981e+00 0.0000000000000000e+00  -1.4165795969887178e+00 -5.7997454598316205e+00 0.0000000000000000e+00  -1.5827874344091912e+00 -6.0590222572114367e+00 0.0000000000000000e+00  -2.0684331685652468e+00 -6.5650687672891319e+00 0.0000000000000000e+00  -1.6292140868058802e-01 -3.4698317204338665e+00 0.0000000000000000e+00  -4.5450122285348105e+00 -9.8455473862465155e+00 0.0000000000000000e+00  -3.1744302619911888e+00 -7.6161652350210298e+00 0.0000000000000000e+00  -2.8689233670187244e+00 -6.9526438009644664e+00 0.0000000000000000e+00  -3.1712272480352359e+00 -7.1085507834399131e+00 0.0000000000000000e+00  -3.9100298785861569e+00 -7.8493539265808749e+00 0.0000000000000000e+00  -4.9035836818864960e+00 -8.7886149174924650e+00 0.0000000000000000e+00  -6.0951000333649494e+00 -9.8895423684132577e+00 0.0000000000000000e+00  -7.4373324655151247e+00 -1.1056168494295889e+01 0.0000000000000000e+00  -8.8860681312818421e+00 -1.2231300278853571e+01 0.0000000000000000e+00  -1.0401400666964985e+01 -1.3262782322504091e+01 0.0000000000000000e+00  -1.1941007891894579e+01 -1.4278028142610214e+01 0.0000000000000000e+00  -1.3431944952501299e+01 -1.4751830732710761e+01 0.0000000000000000e+00  -1.4816499812454937e+01 -1.4997411312204164e+01 0.0000000000000000e+00  -1.6023322633458118e+01 -1.4199099901296000e+01 0.0000000000000000e+00  -1.6999351611682297e+01 -1.2586622060516982e+01 0.0000000000000000e+00  -1.7688194561355157e+01 -9.6512764590051052e+00 0.0000000000000000e+00  -1.8095456305505454e+01 -4.1431765071961859e+00 0.0000000000000000e+00  -1.8161163093937759e+01 8.6605263432009577e-04 0.0000000000000000e+00  -1.8071377033594647e+01 4.5816264955692727e+00 0.0000000000000000e+00  -1.8161165203327130e+01 -1.0058199401743991e-03 0.0000000000000000e+00  -1.7669551926580283e+01 1.1609908744999961e+01 0.0000000000000000e+00  -1.7468309053552847e+01 1.3304244279590138e+01 0.0000000000000000e+00  -1.3433806454416500e+01 1.8970588941352322e+01 0.0000000000000000e+00  -1.2455404250172561e+01 1.8502407293073507e+01 0.0000000000000000e+00  -1.0814410291890615e+01 1.8244188043109542e+01 0.0000000000000000e+00  -9.9357192929226699e+00 1.6621825438010053e+01 0.0000000000000000e+00  -8.8883205986742428e+00 1.5149917667479929e+01 0.0000000000000000e+00  -8.0442593278166079e+00 1.3486994873366228e+01 0.0000000000000000e+00  -7.2411176669812196e+00 1.2092206693224993e+01 0.0000000000000000e+00  -6.5245666110117213e+00 1.0891780076178458e+01 0.0000000000000000e+00  -5.7626929148349513e+00 1.0016031381727839e+01 0.0000000000000000e+00  -5.1715387599160181e+00 9.1168802547992893e+00 0.0000000000000000e+00  -4.6521163092998172e+00 8.3259604695021903e+00 0.0000000000000000e+00  -4.1067265371043771e+00 7.7270022075695062e+00 0.0000000000000000e+00  -3.6129410774032880e+00 7.1817735221071546e+00 0.0000000000000000e+00  -3.1716316355955629e+00 6.6869299536960067e+00 0.0000000000000000e+00  -2.7817244273402335e+00 6.1922499912314475e+00 0.0000000000000000e+00  -2.4524783877099781e+00 5.6893307353365703e+00 0.0000000000000000e+00  -2.1795999914253805e+00 5.1719269227764357e+00 0.0000000000000000e+00  -1.9485853600710015e+00 4.6525746893339548e+00 0.0000000000000000e+00  -1.7625299231210034e+00 4.0996298242466800e+00 0.0000000000000000e+00  -1.6174537060291438e+00 3.5879374621659497e+00 0.0000000000000000e+00  -1.5064973897025373e+00 2.9969432993639984e+00 0.0000000000000000e+00  -1.4301091431038997e+00 2.5433938503124107e+00 0.0000000000000000e+00  -1.3936772990864814e+00 1.9072887859090593e+00 0.0000000000000000e+00  -1.3902822787782965e+00 1.6269064830874795e+00 0.0000000000000000e+00  -1.4287588220113507e+00 9.0392269437562223e-01 0.0000000000000000e+00  -1.5138504147615170e+00 7.5243014440499512e-01 0.0000000000000000e+00  -1.6368232031219843e+00 1.3086885516197240e+00 0.0000000000000000e+00  -5.0457959244009742e-01 -1.1516305098917266e+00 0.0000000000000000e+00  -4.3279642357909170e-01 -1.0543559223778023e+00 0.0000000000000000e+00  -6.0182384650140863e-01 -1.4237278679957535e+00 0.0000000000000000e+00  -7.2287642759372794e-01 -1.8515189225419191e+00 0.0000000000000000e+00  -8.4934861903049674e-01 -2.1847464186002310e+00 0.0000000000000000e+00  -1.0164854309227449e+00 -2.6359265506459684e+00 0.0000000000000000e+00  -1.2833153146989367e+00 -3.1681582779338262e+00 0.0000000000000000e+00  -1.6111242668942189e+00 -3.7983489842093143e+00 0.0000000000000000e+00  -1.9892975806911350e+00 -4.4611655911848382e+00 0.0000000000000000e+00  -2.4098462517813481e+00 -5.2009830697554760e+00 0.0000000000000000e+00  -2.8118033878672706e+00 -5.8086263929266160e+00 0.0000000000000000e+00  -2.9795381091258948e+00 -5.8375466398435067e+00 0.0000000000000000e+00  -3.4652452589703211e+00 -6.3222320688405160e+00 0.0000000000000000e+00  -1.5743245420368099e+00 -3.2501384032786218e+00 0.0000000000000000e+00  -5.9927318248071613e+00 -9.6478546925074120e+00 0.0000000000000000e+00  -4.6528023805132701e+00 -7.4014116407210606e+00 0.0000000000000000e+00  -4.3595513465994982e+00 -6.6545037386215862e+00 0.0000000000000000e+00  -4.6619468137356757e+00 -6.7494366502551513e+00 0.0000000000000000e+00  -5.3887576812012501e+00 -7.3117945705720464e+00 0.0000000000000000e+00  -6.3623799970959389e+00 -8.1233525936086135e+00 0.0000000000000000e+00  -7.5249378266678457e+00 -9.0699416442220162e+00 0.0000000000000000e+00  -8.8281192788003366e+00 -1.0093410396116004e+01 0.0000000000000000e+00  -1.0226192357150611e+01 -1.1033792614402225e+01 0.0000000000000000e+00  -1.1678070856332999e+01 -1.2027404565894354e+01 0.0000000000000000e+00  -1.3133305725059598e+01 -1.2582574525416499e+01 0.0000000000000000e+00  -1.4523090906728045e+01 -1.3015586622768375e+01 0.0000000000000000e+00  -1.5773098660585251e+01 -1.2487058971489667e+01 0.0000000000000000e+00  -1.6827264815000557e+01 -1.1274380529464047e+01 0.0000000000000000e+00  -1.7594207324741053e+01 -8.7401472836761656e+00 0.0000000000000000e+00  -1.8073710709728736e+01 -3.7875226874421837e+00 0.0000000000000000e+00  -1.8159505284085466e+01 1.0955936219849754e-03 0.0000000000