<?xml version="1.0"?>
<VTKFile type="UnstructuredGrid"  version="0.1"  >
<UnstructuredGrid>
<Piece  NumberOfPoints="1933" NumberOfCells="3640">
<Points>
<DataArray  type="Float64"  NumberOfComponents="3"  format="ascii">-0.2935503874663069 -0.002990104800653233 0  4.706449655531963 -0.002903745093191399 0  4.706320074822912 7.497096340774696 0  -0.2936799722140454 7.497009977362664 0  9.706449737056637 -0.002817439731309225 0  9.706320145699859 7.497182639796463 0  14.70644988611734 -0.002731151509340491 0  14.70632024533394 7.497268920451106 0  19.70645011919465 -0.002644830632163242 0  19.70632037470192 7.497355234814823 0  24.7064504422049 -0.002558423088684049 0  24.70632053067922 7.497441637168658 0  29.70645085290509 -0.002471873658606948 0  29.70632070575407 7.497528182431519 0  34.70645134268471 -0.002385126558209259 0  34.7063208878025 7.497614925972408 0  39.70645189760649 -0.002298125012157192 0  39.70632105982286 7.49770192416823 0  44.70645249878713 -0.002210810320855276 0  44.7063211995192 7.497789235354697 0  49.70645312223092 -0.002123120666171052 0  49.70632127865205 7.497876921001174 0  54.70645373818844 -0.002034989739447126 0  54.7063212620908 7.497965047049092 0  59.70645431006142 -0.001946345191835009 0  59.70632110650221 7.498053685417823 0  64.70645479282123 -0.00185710685542043 0  64.70632075858894 7.498142915724459 0  69.70645513084375 -0.001767184642311849 0  69.70632015276352 7.498232827297596 0  74.70645525499258 -0.001676475984634336 0  74.70631920809491 7.49832352159823 0  79.7064550786687 -0.001584862620806687 0  79.70631782429963 7.498415115199461 0  84.70645449238748 -0.001492206451996787 0  84.70631587646633 7.498507743521285 0  89.7064533561681 -0.001398344074628825 0  89.70631320809125 7.498601565565453 0  94.70645148858678 -0.001303079425172156 0  94.70630962187735 7.498696769932063 0  99.70644865056653 -0.001206173737712215 0  99.70630486763712 7.498793582380794 0  104.7064445206417 -0.001107331712148975 0  104.7062986266208 7.498892275019372 0  109.7064386560282 -0.001006182472789593 0  109.706290491887 7.498993176606707 0  114.7064304295047 -0.0009022537760433912 0  114.7062799454489 7.499096681890218 0  119.7064189242193 -0.000794938664340896 0  119.7062663359815 7.499203254125893 0  124.7064027541174 -0.0006834572446447858 0  124.7062488683125 7.499313406353963 0  129.7063797513144 -0.0005668277079703668 0  129.7062266328086 7.499427628271306 0  134.7063464136366 -0.0004438948065484341 0  134.7061987394759 7.499546186360503 0  139.7062969179124 -0.0003135649893013885 0  139.7061646987169 7.499668648727005 0  144.7062213417601 -0.0001757139124099267 0  144.7061253497781 7.499792864072524 0  149.7061024030173 -3.434071815896676e-05 0  149.7060849730225 7.499913075816827 0  159.7061073738536 1.218438142797068e-18 0  164.7061317385259 -1.677474955514273e-05 0  164.7061130861061 7.499973547499511 0  159.7060975620451 7.499977767629804 0  169.7061642547883 -4.820147539690695e-06 0  169.7061283616334 7.499990725850473 0  174.7061974241865 2.669938324312986e-05 0  174.7061441394425 7.500024641605265 0  179.7062282881622 7.195875026445349e-05 0  179.7061599832091 7.500071052815226 0  184.706255861385 0.0001270505176180004 0  184.7061753415406 7.500126708290201 0  189.7062800098495 0.0001892895755532663 0  189.7061898097762 7.500189223018861 0  194.7063009459364 0.0002567983377674028 0  194.7062031534737 7.500256863877206 0  199.7063190011421 0.0003282417007039469 0  199.7062152708992 7.500328367191602 0  204.7063345264053 0.0004026540804676331 0  204.7062261495357 7.500402803248432 0  209.7063478511849 0.0004793253610450352 0  209.7062358313311 7.500479480133799 0  214.7063592692391 0.0005577248793613668 0  214.7062443883482 7.500557876494008 0  219.7063690361563 0.0006374500805137338 0  219.7062519068945 7.500637594563409 0  224.7063773717148 0.0007181912864628486 0  224.7062584776931 7.500718327136447 0  229.7063844639343 0.0007997071028887962 0  229.7062641901072 7.500799834096315 0  234.7063904734428 0.0008818069486935184 0  234.7062691289791 7.50088192552175 0  239.706395537606 0.0009643384344641586 0  239.7062733731139 7.500964449366658 0  244.7063997742428 0.001047178104845094 0  244.7062769947767 7.501047282362583 0  249.7064032849007 0.001130224564965357 0  249.7062800598007 7.501130323232331 0  254.7064061577525 0.001213393340008616 0  254.7062826280611 7.501213487598639 0  259.7064084701713 0.001296613037188179 0  259.7062847541462 7.501296704173978 0  264.7064102910761 0.001379822533792878 0  264.7062864881348 7.501379911961982 0  269.7064116830976 0.001462969031994334 0  269.7062878764136 7.501463058309913 0  274.7064127046399 0.001546006921122804 0  274.706288962466 7.501546097742421 0  279.7064134118447 0.001628897487744583 0  279.7062897876001 7.501628991590723 0  284.7064138604517 0.001711609628543777 0  284.706290391539 7.501711708517441 0  289.706414107394 0.001794121865691082 0  289.7062908128133 7.501794226129038 0  294.7064142117994 0.001876426146762104 0  294.7062910889042 7.501876533959476 0  299.706414234591 0.001958534099928864 0  299.7062912561561 7.501958638181634 0  304.7064142350312 0.002040486400806456 0  304.706291349768 7.502040568433967 0  309.7064142607585 0.002122364690054215 0  309.7062914048805 7.502122387297682 0  4.706190415222227 14.99709650786821 0  -0.2938096268891895 14.99701017504772 0  9.706190458354735 14.99718276545877 0  14.70619050043324 14.99726900827891 0  19.70619053544522 14.99735529123554 0  24.70619055477867 14.99744166758144 0  29.70619054714355 14.99752819019911 0  34.70619049806167 14.99761491236088 0  39.70619038923569 14.99770188851336 0  44.70619019785584 14.99778917519142 0  49.70618989582034 14.99787683206218 0  54.70618944882265 14.99796492309078 0  59.70618881525487 14.99805351783527 0  64.70618794488111 14.99814269289359 0  69.70618677723634 14.99823253353779 0  74.70618523972082 14.9983231355756 0  79.70618324537854 14.99841460747207 0  84.70618069040636 14.99850707273333 0  89.70617745154252 14.99860067247673 0  94.70617338369807 14.99869556793932 0  99.70616831858062 14.99879194231819 0  104.7061620657769 14.99889000062155 0  109.7061544189792 14.99898996482312 0  114.7061451721032 14.99909205899698 0  119.7061341532446 14.99919647431743 0  124.7061212889826 14.99930329535899 0  129.7061067167782 14.99941235507174 0  134.7060909658372 14.99952296466557 0  139.7060752163981 14.99963343910601 0  144.7060615960386 14.99974032528249 0  149.7060533095972 14.99983727576498 0  164.7060758326522 14.99994688203217 0  159.7060686224243 14.9999247270281 0  169.7060810473356 14.99997790730449 0  174.7060861373691 15.00001888778065 0  179.7060917159155 15.00006884622872 0  184.7060978037964 15.00012624517483 0  189.7061042077673 15.00018958255324 0  194.7061106964608 15.00025757880193 0  199.7061170697206 15.00032920337716 0  204.7061231780152 15.00040364642931 0  209.7061289209272 15.00048027755362 0  214.7061342384645 15.00055860676241 0  219.7061391012057 15.00063825206015 0  224.7061435015848 15.00071891394616 0  229.7061474469588 15.00080035585773 0  234.7061509544154 15.0008823893205 0  239.7061540470305 15.00096486269889 0  244.7061567512568 15.00104765266062 0  249.7061590951594 15.00113065768453 0  254.7061611072617 15.00121379311806 0  259.7061628158253 15.00129698743232 0  264.7061642484239 15.00138017942938 0  269.7061654317152 15.00146331624207 0  274.7061663913322 15.0015463520329 0  279.7061671518445 15.00162924735197 0  284.7061677367898 15.00171196915369 0  289.7061681687831 15.00179449148837 0  294.7061684698658 15.00187679686062 0  299.7061686623557 15.00195887814662 0  304.7061687707775 15.00204074073401 0  309.7061688258825 15.00212240414006 0  4.706060843781832 22.49709676886001 0  -0.2939391928740024 22.49701054330053 0  9.706060866506556 22.49718293359761 0  14.70606086679798 22.49726909723447 0  19.70606083537161 22.49735531259509 0  24.70606076175557 22.49744162947183 0  29.70606063394147 22.49752809677921 0  34.70606043790021 22.49761476381065 0  39.70606015702904 22.49770168114392 0  44.70605977158215 22.49778890145067 0  49.70605925810716 22.49787648031075 0  54.70605858888749 22.49796447706315 0  59.70605773139683 22.49805295569733 0  64.70605664778496 22.49814198577382 0  69.70605529444185 22.49823164334451 0  74.70605362173835 22.49832201181358 0  79.70605157410722 22.49841318262369 0  84.70604909074831 22.49850525555203 0  89.70604610740978 22.49859833822683 0  94.70604255995863 22.49869254417632 0  99.7060383908278 22.49878798821803 0  104.7060335599432 22.49888477716907 0  109.7060280623768 22.4989829925272 0  114.7060219556387 22.49908265973359 0  119.7060153998517 22.49918369570612 0  124.7060087132534 22.4992858226787 0  129.7060024417844 22.49938843320803 0  134.7059974318107 22.49949039263563 0  139.7059948745147 22.49958978255099 0  144.7059962546041 22.49968364943438 0  149.7060030903043 22.49976799215987 0  164.7060177406247 22.49991537925347 0  159.7060162524203 22.49987386708785 0  169.7060175682095 22.4999598424359 0  174.7060168430492 22.50000932917175 0  179.7060163139955 22.50006439029076 0  184.706016332922 22.50012473098352 0  189.7060169828259 22.5001896964615 0  194.7060182022256 22.50025854322952 0  199.706019869007 22.50033056746733 0  204.7060218481937 22.50040515437372 0  209.7060240155713 22.50048178850514 0  214.7060262671354 22.5005600469991 0  219.7060285210099 22.50063958670329 0  224.7060307157923 22.50072013034213 0  229.7060328075124 22.50080145386013 0  234.706034766325 22.50088337563929 0  239.7060365734547 22.50096574764502 0  244.7060382185866 22.5010484483012 0  249.7060396977329 22.50113137682466 0  254.7060410115418 22.50121444875798 0  259.7060421639675 22.50129759247787 0  264.7060431612481 22.50138074649984 0  269.7060440111147 22.50146385744213 0  274.7060447222055 22.50154687854189 0  279.706045303653 22.50162976863585 0  284.706045764873 22.50171249151372 0  289.706046115622 22.50179501551662 0  294.7060463664739 22.5018773131627 0  299.706046
[...]
<PointData  Vectors="v"> 
<DataArray  type="Float64"  Name="v"  NumberOfComponents="3" format="ascii">-3.6599815763374233e+00 1.6119909588999008e+00 0.0000000000000000e+00  -3.5144374046840734e+00 1.8423468181905844e+00 0.0000000000000000e+00  -2.8973475350974662e+00 1.6240370305026020e+00 0.0000000000000000e+00  -3.0044235782278794e+00 1.4521184569348049e+00 0.0000000000000000e+00  -3.2699323007260204e+00 2.3564813770338864e+00 0.0000000000000000e+00  -2.7517394088168339e+00 1.9901435586481022e+00 0.0000000000000000e+00  -2.9644384979309204e+00 3.0882066642427426e+00 0.0000000000000000e+00  -2.5075366668071122e+00 2.6304657626746701e+00 0.0000000000000000e+00  -2.6062033459862661e+00 3.7996980593132723e+00 0.0000000000000000e+00  -2.2025689417041154e+00 3.2633816340200230e+00 0.0000000000000000e+00  -2.2001303281671065e+00 4.6408918079860637e+00 0.0000000000000000e+00  -1.8451902478402107e+00 4.0333232799193981e+00 0.0000000000000000e+00  -1.8043679369973744e+00 5.3969833474212008e+00 0.0000000000000000e+00  -1.4407933082393898e+00 4.8052062989111564e+00 0.0000000000000000e+00  -1.6323130153400713e+00 5.8186310733894882e+00 0.0000000000000000e+00  -1.0472347014884720e+00 5.5633231165713255e+00 0.0000000000000000e+00  -1.1327356306182905e+00 6.6820834405740523e+00 0.0000000000000000e+00  -8.7806906961700404e-01 5.9361953307014428e+00 0.0000000000000000e+00  -3.0272557571729992e+00 3.9536795242621294e+00 0.0000000000000000e+00  -3.8254749493787632e-01 6.7995712683746889e+00 0.0000000000000000e+00  1.3452234575556756e+00 1.0500688112652215e+01 0.0000000000000000e+00  -2.2820233319845213e+00 3.9470045405755259e+00 0.0000000000000000e+00  -2.9117259404032810e-02 8.1970450826700620e+00 0.0000000000000000e+00  2.0856284591249175e+00 1.0264151647993783e+01 0.0000000000000000e+00  -3.1635685265047575e-01 7.5282303929478163e+00 0.0000000000000000e+00  7.0476336531275863e-01 7.9669675740591632e+00 0.0000000000000000e+00  1.9564451848115377e-02 7.8355686681062711e+00 0.0000000000000000e+00  4.0849836354590713e-01 7.3415325994819547e+00 0.0000000000000000e+00  8.0890288492058049e-01 8.8206242260460961e+00 0.0000000000000000e+00  7.3333700853745876e-01 7.6488833432310273e+00 0.0000000000000000e+00  1.8665606971485187e+00 1.0149042407822151e+01 0.0000000000000000e+00  1.5083330139239943e+00 8.5762239116756938e+00 0.0000000000000000e+00  3.1365588858660565e+00 1.1678195293330647e+01 0.0000000000000000e+00  2.5494900330615451e+00 9.7898716420152549e+00 0.0000000000000000e+00  4.5742933528021945e+00 1.3368614137055751e+01 0.0000000000000000e+00  3.8006267465718042e+00 1.1231128683566899e+01 0.0000000000000000e+00  6.1349409763727847e+00 1.5035654893873327e+01 0.0000000000000000e+00  5.2155020027193366e+00 1.2715770834826891e+01 0.0000000000000000e+00  7.7828245302682015e+00 1.6673034036510742e+01 0.0000000000000000e+00  6.7509261113443380e+00 1.4226289894561884e+01 0.0000000000000000e+00  9.4776068997784257e+00 1.8197239288110648e+01 0.0000000000000000e+00  8.3697846977911219e+00 1.5682629669709902e+01 0.0000000000000000e+00  1.1152408008854954e+01 1.9506612825617168e+01 0.0000000000000000e+00  1.0031732993256307e+01 1.7025792144544361e+01 0.0000000000000000e+00  1.2744980901428828e+01 2.0418286530974946e+01 0.0000000000000000e+00  1.1668643568483922e+01 1.8063596464900023e+01 0.0000000000000000e+00  1.4202851999193085e+01 2.1031782385278799e+01 0.0000000000000000e+00  1.3221629418392226e+01 1.8885504743452813e+01 0.0000000000000000e+00  1.5452911423574937e+01 2.0831225641231928e+01 0.0000000000000000e+00  1.4630221515417148e+01 1.8995695050795668e+01 0.0000000000000000e+00  1.6476829931693654e+01 2.0155015302535368e+01 0.0000000000000000e+00  1.5833651997797972e+01 1.8671103935367551e+01 0.0000000000000000e+00  1.7227294464348137e+01 1.8271365461277146e+01 0.0000000000000000e+00  1.6794778714319946e+01 1.7189531382406543e+01 0.0000000000000000e+00  1.7742161404654279e+01 1.5447709351461908e+01 0.0000000000000000e+00  1.7492934509836758e+01 1.4741769066685979e+01 0.0000000000000000e+00  1.8011295387422578e+01 1.1403494125715783e+01 0.0000000000000000e+00  1.7928434845249200e+01 1.1045300552509008e+01 0.0000000000000000e+00  1.8136910551952955e+01 4.7625173865157970e+00 0.0000000000000000e+00  1.8141641759104555e+01 4.6585499987833572e+00 0.0000000000000000e+00  1.8163558467218358e+01 -3.2714024241428328e-05 0.0000000000000000e+00  1.8163235002533348e+01 -3.7069238648312897e-04 0.0000000000000000e+00  1.8163563200126575e+01 1.7605461508824851e-19 0.0000000000000000e+00  1.3886201514062376e+01 -1.1533950967675695e+01 0.0000000000000000e+00  1.8132910688819575e+01 -5.1531929498807356e+00 0.0000000000000000e+00  1.8163249643514384e+01 2.9279541526405897e-04 0.0000000000000000e+00  1.2624565053752381e+01 -2.0106212196950612e+01 0.0000000000000000e+00  1.3905240292996533e+01 -1.8282882424839581e+01 0.0000000000000000e+00  1.0751879675971999e+01 -2.3969972093673064e+01 0.0000000000000000e+00  1.2702271517943544e+01 -2.1197394881690187e+01 0.0000000000000000e+00  9.6679999469885463e+00 -2.4790630357032281e+01 0.0000000000000000e+00  1.0884229005805617e+01 -2.3212834405597022e+01 0.0000000000000000e+00  8.4449901699503283e+00 -2.4344497174697814e+01 0.0000000000000000e+00  9.8493915575267241e+00 -2.2549731313160457e+01 0.0000000000000000e+00  7.4352663827025873e+00 -2.2824554585771580e+01 0.0000000000000000e+00  8.6720786243476962e+00 -2.1350294720181829e+01 0.0000000000000000e+00  6.4869195849432817e+00 -2.1041255736006260e+01 0.0000000000000000e+00  7.7069073778396433e+00 -1.9654280943474951e+01 0.0000000000000000e+00  5.6350125247415468e+00 -1.9031176697678877e+01 0.0000000000000000e+00  6.7991983031113774e+00 -1.7789396680138058e+01 0.0000000000000000e+00  4.7467967054712465e+00 -1.7218071869798067e+01 0.0000000000000000e+00  5.9860320566181846e+00 -1.5918753574537057e+01 0.0000000000000000e+00  4.0373547319861531e+00 -1.5481267038437059e+01 0.0000000000000000e+00  5.1351063214366510e+00 -1.4448967595674331e+01 0.0000000000000000e+00  3.4058649703528463e+00 -1.3966970068086571e+01 0.0000000000000000e+00  4.4608217235673546e+00 -1.3050465236514144e+01 0.0000000000000000e+00  2.7532372935030041e+00 -1.2752597217239806e+01 0.0000000000000000e+00  3.8629831083066026e+00 -1.1803128166059109e+01 0.0000000000000000e+00  2.1584484151970664e+00 -1.1693501234423278e+01 0.0000000000000000e+00  3.2429995810193275e+00 -1.0829490152740727e+01 0.0000000000000000e+00  1.6212723485431175e+00 -1.0771390602046425e+01 0.0000000000000000e+00  2.6793547746074680e+00 -9.9931477506412669e+00 0.0000000000000000e+00  1.1397530194883372e+00 -9.9274006905955456e+00 0.0000000000000000e+00  2.1722157192097158e+00 -9.2316202575354716e+00 0.0000000000000000e+00  7.2333516560597610e-01 -9.1239536418717453e+00 0.0000000000000000e+00  1.7199218620379710e+00 -8.5250088126747290e+00 0.0000000000000000e+00  3.6700572008883964e-01 -8.3660080111892690e+00 0.0000000000000000e+00  1.3317319210127438e+00 -7.8566485702581303e+00 0.0000000000000000e+00  5.5281403934924346e-02 -7.6247261345271422e+00 0.0000000000000000e+00  1.0028288089022890e+00 -7.1816589094236649e+00 0.0000000000000000e+00  -2.0857008902328922e-01 -6.8996177080434888e+00 0.0000000000000000e+00  7.1801457734099561e-01 -6.5277625853256680e+00 0.0000000000000000e+00  -4.2947674978123146e-01 -6.1843702437909673e+00 0.0000000000000000e+00  4.8035806311721913e-01 -5.8766544674692236e+00 0.0000000000000000e+00  -6.1426831196624920e-01 -5.4800586090936800e+00 0.0000000000000000e+00  2.8525853964114589e-01 -5.2259924867201777e+00 0.0000000000000000e+00  -7.6355214617158895e-01 -4.7590099637925345e+00 0.0000000000000000e+00  1.2572467867777648e-01 -4.5580697479453898e+00 0.0000000000000000e+00  -8.7053719223472603e-01 -4.0804014229741110e+00 0.0000000000000000e+00  1.6361322094068053e-03 -3.9423363261141589e+00 0.0000000000000000e+00  -9.4524943546994344e-01 -3.3263956053929444e+00 0.0000000000000000e+00  -8.1033204592892566e-02 -3.2371056521939843e+00 0.0000000000000000e+00  -9.7369615539325960e-01 -2.6959736200616469e+00 0.0000000000000000e+00  -1.3065680401511953e-01 -2.6748255404549512e+00 0.0000000000000000e+00  -9.6022414578823856e-01 -1.8781855445760920e+00 0.0000000000000000e+00  -1.3594466600250754e-01 -1.9215737816518883e+00 0.0000000000000000e+00  -8.9582392692326906e-01 -1.3971139318636236e+00 0.0000000000000000e+00  -9.6692587263702640e-02 -1.5137287298405915e+00 0.0000000000000000e+00  -7.6612758817532245e-01 -4.2937027005528061e-01 0.0000000000000000e+00  -1.1367389400682210e-02 -6.4885128276598758e-01 0.0000000000000000e+00  -5.2197169730626858e-01 5.0786467365721726e-02 0.0000000000000000e+00  1.4751272061844178e-01 -3.3142934726235596e-01 0.0000000000000000e+00  5.9315009473939764e-02 2.8486928617616364e-01 0.0000000000000000e+00  4.0334168184023644e-01 -6.2052503944847470e-01 0.0000000000000000e+00  -2.0113371551562498e+00 1.4624162944504500e+00 0.0000000000000000e+00  -2.1191421236773875e+00 1.2926831444557705e+00 0.0000000000000000e+00  -1.9025801912708900e+00 1.7704008056049114e+00 0.0000000000000000e+00  -1.7547336571903720e+00 2.2629708225531648e+00 0.0000000000000000e+00  -1.5083453698413802e+00 2.8048283676779464e+00 0.0000000000000000e+00  -1.2014852223491557e+00 3.4960808201688236e+00 0.0000000000000000e+00  -8.4247875598502331e-01 4.1981456229713157e+00 0.0000000000000000e+00  -4.3732507883758320e-01 4.9732725876780677e+00 0.0000000000000000e+00  -4.4361695836909347e-02 5.6829689235220950e+00 0.0000000000000000e+00  1.2308561641402815e-01 6.0584785565217745e+00 0.0000000000000000e+00  6.1435870095315204e-01 6.8002774030707425e+00 0.0000000000000000e+00  -1.2903714854003903e+00 3.7126876180075636e+00 0.0000000000000000e+00  3.0780323847190516e+00 1.0037612912065384e+01 0.0000000000000000e+00  1.6967772764140461e+00 7.7901147909229289e+00 0.0000000000000000e+00  1.3933203185614216e+00 7.1667262839731825e+00 0.0000000000000000e+00  1.7073817748750542e+00 7.4233988144919101e+00 0.0000000000000000e+00  2.4659602434795982e+00 8.2399430941960343e+00 0.0000000000000000e+00  3.4864169811343522e+00 9.3676879190176923e+00 0.0000000000000000e+00  4.7132272124403567e+00 1.0610854803626809e+01 0.0000000000000000e+00  6.0982647725413166e+00 1.1943686772342803e+01 0.0000000000000000e+00  7.5983017729033140e+00 1.3276200912419219e+01 0.0000000000000000e+00  9.1772315612655238e+00 1.4561341117274409e+01 0.0000000000000000e+00  1.0790975303656392e+01 1.5639088851549335e+01 0.0000000000000000e+00  1.2373008589340017e+01 1.6592884532149046e+01 0.0000000000000000e+00  1.3862216736804189e+01 1.6922652698554320e+01 0.0000000000000000e+00  1.5198978569091869e+01 1.6918138715346640e+01 0.0000000000000000e+00  1.6316422735796291e+01 1.5793130638123033e+01 0.0000000000000000e+00  1.7188774688742136e+01 1.3770266373114671e+01 0.0000000000000000e+00  1.7771181377999419e+01 1.0435474392531079e+01 0.0000000000000000e+00  1.8104105045849348e+01 4.4518314407087969e+00 0.0000000000000000e+00  1.8162460750801209e+01 -7.0458583062704499e-04 0.0000000000000000e+00  1.8092156035624193e+01 -4.9572132918972072e+00 0.0000000000000000e+00  1.8162478953724978e+01 5.7391983728990298e-04 0.0000000000000000e+00  1.7901131308947061e+01 -1.1959963046622262e+01 0.0000000000000000e+00  1.3743972079823143e+01 -1.9450396433771303e+01 0.0000000000000000e+00  1.2627338735928969e+01 -2.0528212737671488e+01 0.0000000000000000e+00  1.0877295750384278e+01 -2.1037567082970185e+01 0.0000000000000000e+00  9.9059873491689086e+00 -1.9614049842936968e+01 0.0000000000000000e+00  8.7803700550455783e+00 -1.8239652916422436e+01 0.0000000000000000e+00  7.8658539138154611e+00 -1.6454019927784550e+01 0.0000000000000000e+00  7.0017829411597248e+00 -1.4723555413186261e+01 0.0000000000000000e+00  6.2290433022174634e+00 -1.3196163080338414e+01 0.0000000000000000e+00  5.4159594759995962e+00 -1.2060645232470160e+01 0.0000000000000000e+00  4.7770276868613593e+00 -1.0926144291310120e+01 0.0000000000000000e+00  4.2121164236693929e+00 -9.9191736178347814e+00 0.0000000000000000e+00  3.6238478398502734e+00 -9.1658262836022875e+00 0.0000000000000000e+00  3.0899869114706013e+00 -8.4878685079692140e+00 0.0000000000000000e+00  2.6109000392246444e+00 -7.8631180473509827e+00 0.0000000000000000e+00  2.1855005729051289e+00 -7.2899296983743271e+00 0.0000000000000000e+00  1.8228542270364214e+00 -6.7030248623016977e+00 0.0000000000000000e+00  1.5182750776195417e+00 -6.1149255364727022e+00 0.0000000000000000e+00  1.2569832976717801e+00 -5.5339871387283228e+00 0.0000000000000000e+00  1.0420184910783785e+00 -4.9465479955071157e+00 0.0000000000000000e+00  8.6882581385038893e-01 -4.3319417557497752e+00 0.0000000000000000e+00  7.3081888691248553e-01 -3.7687459642807561e+00 0.0000000000000000e+00  6.2762053012655494e-01 -3.1258217729388442e+00 0.0000000000000000e+00  5.6566994502130419e-01 -2.6121771252532304e+00 0.0000000000000000e+00  5.3604453498730353e-01 -1.9266300224777344e+00 0.0000000000000000e+00  5.5119946621057858e-01 -1.5828298760336303e+00 0.0000000000000000e+00  6.0914216462642312e-01 -7.9129445807415344e-01 0.0000000000000000e+00  7.1510137518132855e-01 -5.7708036063833923e-01 0.0000000000000000e+00  8.9132792311591258e-01 -1.0199666069088451e+00 0.0000000000000000e+00  -7.0246138726141105e-01 1.2984627819794490e+00 0.0000000000000000e+00  -7.9445266575174378e-01 1.1581422847305303e+00 0.0000000000000000e+00  -5.9094250425797357e-01 1.6034657157911774e+00 0.0000000000000000e+00  -4.7593431340507364e-01 2.0372506679145350e+00 0.0000000000000000e+00  -3.2180144587988818e-01 2.4308125038719868e+00 0.0000000000000000e+00  -6.8372633112015427e-02 3.0313749410985875e+00 0.0000000000000000e+00  2.4560215520554887e-01 3.6559526978958803e+00 0.0000000000000000e+00  6.1061392258258507e-01 4.3624072735391533e+00 0.0000000000000000e+00  1.0206988089165090e+00 5.0920217707603239e+00 0.0000000000000000e+00  1.4163516646095358e+00 5.8084273449673924e+00 0.0000000000000000e+00  1.5823774613725969e+00 6.0673144056153090e+00 0.0000000000000000e+00  2.0683402759903804e+00 6.5741032014569685e+00 0.0000000000000000e+00  1.6319323836646527e-01 3.4794583938794084e+00 0.0000000000000000e+00  4.5444288751114810e+00 9.8543227816164496e+00 0.0000000000000000e+00  3.1739345624921023e+00 7.6251259183880595e+00 0.0000000000000000e+00  2.8684493553227877e+00 6.9616131100149650e+00 0.0000000000000000e+00  3.1707687024173588e+00 7.1174190035402001e+00 0.0000000000000000e+00  3.9095845579954993e+00 7.8582566259241240e+00 0.0000000000000000e+00  4.9031569048087542e+00 8.7975158433337661e+00 0.0000000000000000e+00  6.0946914602395736e+00 9.8982989504712915e+00 0.0000000000000000e+00  7.4369407854184573e+00 1.1065161164131995e+01 0.0000000000000000e+00  8.8856912533728689e+00 1.2240351371369158e+01 0.0000000000000000e+00  1.0401039295424138e+01 1.3272221926604599e+01 0.0000000000000000e+00  1.1940659655926428e+01 1.4287758411517375e+01 0.0000000000000000e+00  1.3431620034089542e+01 1.4762855467174507e+01 0.0000000000000000e+00  1.4816201908206985e+01 1.5008676625864741e+01 0.0000000000000000e+00  1.6023071898866601e+01 1.4212962428673782e+01 0.0000000000000000e+00  1.6999162085096863e+01 1.2601280008333463e+01 0.0000000000000000e+00  1.7688086248518740e+01 9.6681911631922048e+00 0.0000000000000000e+00  1.8095461637542058e+01 4.1676148998662494e+00 0.0000000000000000e+00  1.8161253003330319e+01 -1.0064972345634980e-03 0.0000000000000000e+00  1.8071574436523878e+01 -4.6121304935930532e+00 0.0000000000000000e+00  1.8161269285943455e+01 8.1979711544320354e-04 0.0000000000000000e+00  1.7669857578348878e+01 -1.1609999291642950e+01 0.0000000000000000e+00  1.7468600145360867e+01 -1.3303903345196902e+01 0.0000000000000000e+00  1.3435121912521284e+01 -1.8961817182751897e+01 0.0000000000000000e+00  1.2457106867241224e+01 -1.8492407276439806e+01 0.0000000000000000e+00  1.0815243106990838e+01 -1.8234196188205171e+01 0.0000000000000000e+00  9.9372468324735959e+00 -1.6610327546954718e+01 0.0000000000000000e+00  8.8897658271128233e+00 -1.5138861082389873e+01 0.0000000000000000e+00  8.0459329548943543e+00 -1.3476270549266973e+01 0.0000000000000000e+00  7.2429066179496839e+00 -1.2081868769074056e+01 0.0000000000000000e+00  6.5266031105875255e+00 -1.0881784377952846e+01 0.0000000000000000e+00  5.7649416826622319e+00 -1.0006386461070408e+01 0.0000000000000000e+00  5.1739043064735597e+00 -9.1076758071604615e+00 0.0000000000000000e+00  4.6542952679525289e+00 -8.3175328224909837e+00 0.0000000000000000e+00  4.1087861005564870e+00 -7.7192995376188431e+00 0.0000000000000000e+00  3.6148991800263630e+00 -7.1746973435286590e+00 0.0000000000000000e+00  3.1735182861579672e+00 -6.6803278727325450e+00 0.0000000000000000e+00  2.7835410515053747e+00 -6.1861633084244723e+00 0.0000000000000000e+00  2.4542464828098964e+00 -5.6836601528222133e+00 0.0000000000000000e+00  2.1813160222669636e+00 -5.1665951364633917e+00 0.0000000000000000e+00  1.9502409426734226e+00 -4.6476368232732366e+00 0.0000000000000000e+00  1.7641176841962871e+00 -4.0950173641215484e+00 0.0000000000000000e+00  1.6189595825675951e+00 -3.5836618269637013e+00 0.0000000000000000e+00  1.5079069288978202e+00 -2.9929769598852531e+00 0.0000000000000000e+00  1.4314045974332206e+00 -2.5398248851381098e+00 0.0000000000000000e+00  1.3948507814836446e+00 -1.9039289478343973e+00 0.0000000000000000e+00  1.3913057174517904e+00 -1.6241069424135588e+00 0.0000000000000000e+00  1.4296369923598535e+00 -9.0115707926851218e-01 0.0000000000000000e+00  1.5145355531830247e+00 -7.5041134870585158e-01 0.0000000000000000e+00  1.6373733443217569e+00 -1.3086294505465326e+00 0.0000000000000000e+00  5.0254132671877216e-01 1.1572757097899442e+00 0.0000000000000000e+00  4.3079763170097463e-01 1.0552462531394480e+00 0.0000000000000000e+00  5.9968845864496034e-01 1.4304030977422395e+00 0.0000000000000000e+00  7.2069233312836423e-01 1.8570329348409691e+00 0.0000000000000000e+00  8.4709852731075252e-01 2.1908704478170553e+00 0.0000000000000000e+00  1.0143870508663868e+00 2.6418452168581434e+00 0.0000000000000000e+00  1.2816775262282016e+00 3.1750181078277135e+00 0.0000000000000000e+00  1.6099055699572393e+00 3.8055618296458511e+00 0.0000000000000000e+00  1.9883766013644144e+00 4.4689049352064991e+00 0.0000000000000000e+00  2.4093961670090507e+00 5.2092276734847545e+00 0.0000000000000000e+00  2.8116466251861243e+00 5.8172144020606842e+00 0.0000000000000000e+00  2.9792053342401146e+00 5.8461099624899582e+00 0.0000000000000000e+00  3.4652304797838758e+00 6.3315208058201362e+00 0.0000000000000000e+00  1.5746740447933656e+00 3.2598688670256606e+00 0.0000000000000000e+00  5.9922262404592219e+00 9.6568459711109966e+00 0.0000000000000000e+00  4.6523851635162341e+00 7.4104215935911437e+00 0.0000000000000000e+00  4.3591585512141942e+00 6.6633748782282884e+00 0.0000000000000000e+00  4.6615711167955833e+00 6.7583122190577187e+00 0.0000000000000000e+00  5.3883992872852016e+00 7.3206465804709984e+00 0.0000000000000000e+00  6.3620424006860192e+00 8.1320497936101486e+00 0.0000000000000000e+00  7.5246209720288402e+00 9.0788708002598071e+00 0.0000000000000000e+00  8.8278213218204140e+00 1.0102398212812787e+01 0.0000000000000000e+00  1.0225913185899692e+01 1.1043171286495610e+01 0.0000000000000000e+00  1.1677806497149275e+01 1.2037077393971719e+01 0.0000000000000000e+00  1.3133063227891169e+01 1.2593545012167766e+01 0.0000000000000000e+00  1.4522871146006363e+01 1.3026800527332965e+01 0.0000000000000000e+00  1.5772920309473356e+01 1.2500872291030818e+01 0.0000000000000000e+00  1.6827140192103133e+01 1.1288990371612167e+01 0.0000000000000000e+00  1.7594159471611512e+01 8.7570160176039291e+00 0.0000000000000000e+00  1.8073776758233780e+01 3.8119189718243391e+00 0.0000000000000000e+00  1.8159659590576165e+01 -1.2745099195524763e-03 0.0000000000000000e+00  1.8048157547802909e+01 -4.1761037361932534e+00 0.0000000000000000e+00  1.8159674394963695e+01 1.0367794349349271e-03 0.0000000000000000e+00  1.7543827223958303e+01 -1.0835911754257054e+01 0.