<?xml version="1.0"?>
<VTKFile type="UnstructuredGrid"  version="0.1"  >
<UnstructuredGrid>
<Piece  NumberOfPoints="1933" NumberOfCells="3640">
<Points>
<DataArray  type="Float64"  NumberOfComponents="3"  format="ascii">-0.4754340845116742 -0.000911768261255869 0  4.524565937257348 -0.0008897715928622603 0  4.524532937216461 7.499110280892343 0  -0.4754670930690634 7.499088270516829 0  9.524565973923909 -0.0008678151513892137 0  9.524532987599093 7.499132239604332 0  14.52456604694028 -0.0008458975166270942 0  14.52453306622866 7.499154155978622 0  19.52456617477832 -0.0008240031000296083 0  19.52453317981395 7.49917604833313 0  24.52456637158049 -0.0008021089405634383 0  24.52453333364047 7.499197940559809 0  29.52456664747907 -0.0007801879248734299 0  29.52453353131929 7.4992198600392 0  34.52456700929356 -0.0007582102363112698 0  34.52453377459845 7.499241836608954 0  39.52456746117743 -0.0007361438480051643 0  39.52453406323384 7.499263902230921 0  44.52456800508899 -0.0007139544611955443 0  44.52453439485935 7.499286091112794 0  49.52456864106428 -0.000691605088982447 0  49.52453476479825 7.499308440143212 0  54.52456936729727 -0.0006690553772260894 0  54.52453516576902 7.499330989571437 0  59.52457018003096 -0.0006462606899142989 0  59.52453558744128 7.499353783912301 0  64.52457107325046 -0.0006231709423125384 0  64.52453601579249 7.499376873094153 0  69.52457203814301 -0.0005997291284551713 0  69.52453643220294 7.499400313899224 0  74.52457306226437 -0.0005758694511406411 0  74.52453681220234 7.49942417177827 0  79.52457412829789 -0.0005515149147367863 0  79.52453712374717 7.499448523159496 0  84.52457521222281 -0.0005265741750662478 0  84.52453732485878 7.499473458419425 0  89.5245762805812 -0.000500937345077792 0  89.5245373603846 7.499499085743696 0  94.52457728632631 -0.0004744703140709699 0  94.52453715756246 7.499525536177801 0  99.52457816235892 -0.0004470069306175409 0  99.52453661997509 7.499552970240918 0  104.5245788111969 -0.0004183380996141444 0  104.5245356194147 7.499581586513971 0  109.5245790880083 -0.0003881964323624299 0  109.5245339852311 7.499611632516246 0  114.5245787720068 -0.0003562345866245512 0  114.5245314911586 7.499643417714448 0  119.5245775170477 -0.0003219950097769783 0  119.5245278409555 7.499677327103101 0  124.5245747644924 -0.0002848690722583839 0  124.5245226577212 7.499713830216083 0  129.5245695868321 -0.0002440464959034812 0  129.5245154902202 7.499753472021807 0  134.524560403189 -0.0001984674833613178 0  134.5245058687783 7.499796813616714 0  139.5245444561367 -0.0001468290898836704 0  139.5244934856471 7.499844253012295 0  144.5245168390333 -8.783234134678387e-05 0  144.5244786669208 7.499895593785722 0  149.5244686486339 -2.136915772165387e-05 0  149.5244635109387 7.499949203250324 0  159.5244717418524 1.062223681699608e-18 0  164.5244565743657 -3.960021080838358e-05 0  164.5244695344064 7.499951714729332 0  159.5244706163487 7.499979197703789 0  169.5244553443812 -6.361276186492572e-05 0  169.5244681139163 7.499932215216019 0  174.5244602019933 -7.693413810542287e-05 0  174.5244681128086 7.49992092062883 0  179.5244674906071 -8.248403801175153e-05 0  179.5244695335135 7.499916380025827 0  184.5244754682624 -8.227530481575042e-05 0  184.5244719818256 7.499917118358173 0  189.5244833150749 -7.774776433402215e-05 0  189.5244750538173 7.499921932178663 0  194.5244906647366 -6.994308058847826e-05 0  194.5244784323268 7.499929894908515 0  199.5244973748451 -5.962191070901074e-05 0  199.5244818937805 7.499940304873292 0  204.5245034123156 -4.734619394736672e-05 0  204.5244852906137 7.499952631229617 0  209.5245087957599 -3.353675202455713e-05 0  209.5244885307881 7.499966469880474 0  214.5245135664657 -1.85133603710422e-05 0  214.5244915606762 7.499981510211055 0  219.5245177738669 -2.522627191414175e-06 0  219.5244943523397 7.499997510727705 0  224.5245214684009 1.424248878387473e-05 0  224.5244968945846 7.500014281388296 0  229.5245246981509 3.162886771270661e-05 0  229.5244991868724 7.500031670776392 0  234.524527507434 4.951332490183997e-05 0  234.5245012352612 7.50004955672981 0  239.524529936385 6.779540424901593e-05 0  239.5245030497474 7.50006783942706 0  244.5245320210554 8.639205735696545e-05 0  244.5245046425577 7.500086436231296 0  249.52453379377 0.0001052336624615139 0  249.5245060270857 7.50010527780462 0  254.5245352836221 0.0001242610150157535 0  254.5245072172652 7.500124305155933 0  259.524536517041 0.0001434230426095733 0  259.5245082272355 7.500143467391664 0  264.5245375184189 0.0001626750821602059 0  264.524509071211 7.500162720015719 0  269.5245383107761 0.0001819776218258606 0  269.5245097634876 7.500182023683804 0  274.5245389164922 0.0002012954650691824 0  274.5245103185298 7.500201343366784 0  279.5245393580858 0.0002205973295955129 0  279.5245107511066 7.500220647924497 0  284.5245396590532 0.0002398559598605122 0  284.5245110764186 7.500239910141327 0  289.5245398447003 0.0002590489213336045 0  289.5245113101888 7.500259107332692 0  294.5245399428368 0.0002781603733847133 0  294.5245114686605 7.50027822269796 0  299.5245399839758 0.0002971842978161279 0  299.5245115685092 7.50029724766588 0  304.5245400002548 0.0003161298593246081 0  304.5245116268131 7.500316185542063 0  309.5245400213234 0.0003350294989917246 0  309.5245116616546 7.500335056871791 0  4.524499840739845 14.99911039166026 0  -0.4755001893007471 14.99908836468492 0  9.524499881992416 14.99913234474466 0  14.52449993937378 14.99915424866699 0  19.52450001466182 14.99917612781521 0  24.52450010802478 14.9991980081057 0  29.52450021839696 14.99921991726439 0  34.52450034340369 14.99924188481467 0  39.52450047912281 14.99926394216317 0  44.52450061977718 14.99928612287248 0  49.52450075737564 14.99930846312581 0  54.52450088128653 14.99933100237521 0  59.52450097771728 14.99935378417468 0  64.52450102906953 14.99937685721493 0  69.52450101313426 14.99940027659212 0  74.52450090209688 14.9994241053584 0  79.52450066131976 14.99944841641438 0  84.52450024789586 14.99947329480871 0  89.52449960899901 14.99949884050084 0  94.52449868015307 14.99952517159414 0  99.52449738371283 14.99955242792021 0  104.5244956281934 14.99958077456414 0  109.5244933096915 14.99961040430344 0  114.5244903177146 14.9996415366892 0  119.5244865494792 14.99967440908172 0  124.5244819393926 14.99970925043419 0  129.5244765138616 14.9997462205345 0  134.5244704844607 14.99978528378622 0  139.5244643899011 14.99982596551712 0  144.5244592743973 14.99986690914028 0  149.5244568054242 14.99990510348386 0  164.5244672054301 14.99992840072946 0  159.5244655221678 14.99993923468179 0  169.5244667553802 14.99991927331616 0  174.5244657020875 14.99991383668273 0  179.524464871878 14.99991253406619 0  184.5244645605316 14.9999150593976 0  189.5244647931704 14.99992086315107 0  194.524465483198 14.99992937649833 0  199.5244665127176 14.99994009316183 0  204.5244677684206 14.99995258958749 0  209.5244691548512 14.99996652109211 0  214.5244705970986 14.99998161031268 0  219.5244720390728 14.99999763459422 0  224.5244734403311 15.00001441471377 0  229.524474772779 15.00003180556161 0  234.5244760177762 15.00004968871392 0  239.5244771637776 15.00006796661036 0  244.5244782044985 15.00008655801954 0  249.5244791375288 15.00010539451352 0  254.5244799633039 15.00012441772714 0  259.5244806843527 15.00014357723312 0  264.5244813047521 15.00016282890988 0  269.5244818297353 15.00018213371932 0  274.524482265402 15.00020145684464 0  279.5244826185022 15.0002207671662 0  284.5244828962822 15.00024003707514 0  289.5244831063826 15.00025924263448 0  294.5244832568685 15.00027836408341 0  299.5244833565124 15.00029738661173 0  304.524483415643 15.00031630114841 0  309.5244834481003 15.00033510447907 0  4.524466700400933 22.49911058973687 0  -0.4755333275197501 22.49908857547193 0  9.524466730323649 22.49913251758364 0  14.52446676340427 22.49915439203952 0  19.52446679871435 22.49917624204105 0  24.52446683386834 22.49919809524445 0  29.52446686535502 22.49921997948898 0  34.52446688857221 22.4992419235647 0  39.52446689767915 22.49926395771096 0  44.52446688534983 22.49928611406086 0  49.52446684247381 22.49930842713045 0  54.5244667578216 22.49933093439451 0  59.52446661768293 22.49935367696901 0  64.52446640548423 22.49937670041118 0  69.52446610139957 22.49940005564247 0  74.52446568198867 22.49942379999225 0  79.52446511992592 22.49944799834119 0  84.52446438393773 22.49947272430545 0  89.5244634391513 22.49949806132953 0  94.52446224818675 22.49952410341992 0  99.5244607735283 22.49955095500982 0  104.5244589819928 22.4995787290242 0  109.5244568525043 22.49960754150452 0  114.5244543888296 22.49963749999825 0  119.5244516393097 22.49966868113356 0  124.524448725537 22.49970109026702 0  129.5244458805211 22.49973459305345 0  134.5244434923985 22.49976880668108 0  139.5244421391946 22.49980294206549 0  144.5244425795325 22.49983561090945 0  149.5244456323323 22.49986469133223 0  164.5244552538437 22.49990184375994 0  159.5244529882237 22.49990118868368 0  169.5244555742629 22.49990173414881 0  174.524454737509 22.4999026767489 0  179.5244534219472 22.49990561132799 0  184.5244520752655 22.49991085842008 0  189.5244509363586 22.49991837958357 0  194.5244501011188 22.49992796563805 0  199.5244495815828 22.49993934751562 0  204.5244493469904 22.49995225334352 0  209.5244493488962 22.49996643403333 0  214.5244495351678 22.49998167214619 0  219.5244498570337 22.49999778259826 0  224.5244502720982 22.50001460981422 0  229.5244507451572 22.50003202366626 0  234.5244512479159 22.50004991530698 0  239.5244517582239 22.50006819336843 0  244.524452259161 22.50008678068555 0  249.5244527381376 22.50010561155723 0  254.5244531860863 22.50012462949865 0  259.5244535967613 22.50014378542188 0  264.5244539661524 22.50016303618188 0  269.5244542919951 22.50018234343431 0  274.524454573374 22.50020167276077 0  279.5244548104061 22.50022099302135 0  284.5244550040209 22.50024027589053 0  289.5244551558639 22.50025949550845 0  294.52445
[...]
<PointData  Vectors="v"> 
<DataArray  type="Float64"  Name="v"  NumberOfComponents="3" format="ascii">-3.3618450237481707e+00 -6.6672216658086194e+00 0.0000000000000000e+00  -3.8292290487203324e+00 -6.0366045467568670e+00 0.0000000000000000e+00  -3.3175439482214553e+00 -5.3357882253387832e+00 0.0000000000000000e+00  -2.9536718878069168e+00 -6.1212237323602574e+00 0.0000000000000000e+00  -4.3720996772987517e+00 -6.2983581815913245e+00 0.0000000000000000e+00  -3.7844742210272817e+00 -5.4847850832047405e+00 0.0000000000000000e+00  -4.8046250299829376e+00 -6.8677348283403301e+00 0.0000000000000000e+00  -4.3262951975907002e+00 -6.2202023249781648e+00 0.0000000000000000e+00  -5.1269718777210196e+00 -6.7403714171048223e+00 0.0000000000000000e+00  -4.7571464132500241e+00 -6.2585181817532343e+00 0.0000000000000000e+00  -5.5573387208365919e+00 -7.0942777419336256e+00 0.0000000000000000e+00  -5.0772489094332682e+00 -6.4508000094213047e+00 0.0000000000000000e+00  -5.8519414465310904e+00 -6.9811939266109544e+00 0.0000000000000000e+00  -5.5049450511332711e+00 -6.5417688090710397e+00 0.0000000000000000e+00  -5.8246162370962686e+00 -6.4572490921626384e+00 0.0000000000000000e+00  -5.7963846557277199e+00 -6.5009168002577127e+00 0.0000000000000000e+00  -6.5998444231920068e+00 -7.0196930175998951e+00 0.0000000000000000e+00  -5.7655658261439573e+00 -5.8598269202264541e+00 0.0000000000000000e+00  -4.6653346432883511e+00 -3.5426251708648495e+00 0.0000000000000000e+00  -6.5370823228499857e+00 -6.4475370195571937e+00 0.0000000000000000e+00  -1.3083712311895713e+01 -1.5379329344221389e+01 0.0000000000000000e+00  -4.5986773536243692e+00 -2.7551805029382668e+00 0.0000000000000000e+00  -1.3613462674325847e+01 -1.5029292331250584e+01 0.0000000000000000e+00  -1.3012580160804704e+01 -1.4238451539920023e+01 0.0000000000000000e+00  -1.3868202400272478e+01 -1.4123270833847760e+01 0.0000000000000000e+00  -1.3537829220344099e+01 -1.3744503492829761e+01 0.0000000000000000e+00  -1.4191696614751432e+01 -1.3266405222684130e+01 0.0000000000000000e+00  -1.3788320013419794e+01 -1.2784615246517850e+01 0.0000000000000000e+00  -1.4644009645051570e+01 -1.2624863454940819e+01 0.0000000000000000e+00  -1.4107469314163090e+01 -1.1949709805118458e+01 0.0000000000000000e+00  -1.5240521859399818e+01 -1.2195402547262564e+01 0.0000000000000000e+00  -1.4555606349919495e+01 -1.1304129980386728e+01 0.0000000000000000e+00  -1.5922186938175438e+01 -1.1859117852352128e+01 0.0000000000000000e+00  -1.5147798589995924e+01 -1.0839694171393695e+01 0.0000000000000000e+00  -1.6625985890513736e+01 -1.1701422139633234e+01 0.0000000000000000e+00  -1.5825274768946192e+01 -1.0648547390383861e+01 0.0000000000000000e+00  -1.7289156685210997e+01 -1.1410221382567855e+01 0.0000000000000000e+00  -1.6525496861233712e+01 -1.0417891432936043e+01 0.0000000000000000e+00  -1.7857031467932227e+01 -1.1022869220712842e+01 0.0000000000000000e+00  -1.7185404259279082e+01 -1.0172433767624428e+01 0.0000000000000000e+00  -1.8290965064508566e+01 -1.0428911743078164e+01 0.0000000000000000e+00  -1.7751031132173644e+01 -9.7786440891884094e+00 0.0000000000000000e+00  -1.8576862206440659e+01 -9.6550190336556838e+00 0.0000000000000000e+00  -1.8183822861343423e+01 -9.2253900283997314e+00 0.0000000000000000e+00  -1.8717437096354022e+01 -8.3625539926111010e+00 0.0000000000000000e+00  -1.8470281946251148e+01 -8.1496592447032157e+00 0.0000000000000000e+00  -1.8731494854546355e+01 -7.2645292793234280e+00 0.0000000000000000e+00  -1.8612485810486731e+01 -7.2389755797863256e+00 0.0000000000000000e+00  -1.8658538667178330e+01 -5.2407152462219191e+00 0.0000000000000000e+00  -1.8631731743943021e+01 -5.3451058952912005e+00 0.0000000000000000e+00  -1.8531894787113725e+01 -3.9885482869003757e+00 0.0000000000000000e+00  -1.8564100483069321e+01 -4.1687972217802960e+00 0.0000000000000000e+00  -1.8399546786777595e+01 -1.4717178260001085e+00 0.0000000000000000e+00  -1.8448955418031488e+01 -1.6619028881548734e+00 0.0000000000000000e+00  -1.8282168473303521e+01 -5.5691426981378278e-01 0.0000000000000000e+00  -1.8326238501172220e+01 -7.1644470523827508e-01 0.0000000000000000e+00  -1.8210809406018615e+01 1.8304295685195902e+00 0.0000000000000000e+00  -1.8228522338725693e+01 1.7348284880966054e+00 0.0000000000000000e+00  -1.8172578718765941e+01 1.6872056748654343e+00 0.0000000000000000e+00  -1.8171281493275476e+01 1.6549650532385969e+00 0.0000000000000000e+00  -1.8163571107818207e+01 -5.4635182266145794e-05 0.0000000000000000e+00  -1.8164444445778638e+01 -9.6815324959158581e-04 0.0000000000000000e+00  -1.8163563200132593e+01 7.4401445676109502e-19 0.0000000000000000e+00  -1.1542153624343445e+01 -2.9490251615972709e-02 0.0000000000000000e+00  -1.8177119519515632e+01 -9.9578443284010092e+00 0.0000000000000000e+00  -1.8164414105559175e+01 8.2215672456325791e-04 0.0000000000000000e+00  -1.2946661841150469e+01 9.4444109359689354e-01 0.0000000000000000e+00  -1.1558340546201535e+01 3.0484626496108125e+00 0.0000000000000000e+00  -1.1085351102535949e+01 5.9969429123482501e+00 0.0000000000000000e+00  -1.2964158447179784e+01 3.2130162927202393e+00 0.0000000000000000e+00  -1.0978045525905140e+01 6.9694993636964346e+00 0.0000000000000000e+00  -1.1107343783084458e+01 6.8136358374153936e+00 0.0000000000000000e+00  -1.0054188471584208e+01 1.0022952763706328e+01 0.0000000000000000e+00  -1.1007279918200330e+01 8.6455474748987555e+00 0.0000000000000000e+00  -9.4667203660832193e+00 1.1175991366050493e+01 0.0000000000000000e+00  -1.0092183684697646e+01 1.0303586923081843e+01 0.0000000000000000e+00  -8.7582125593509765e+00 1.2357706226377662e+01 0.0000000000000000e+00  -9.5144594554329185e+00 1.1305435678782269e+01 0.0000000000000000e+00  -8.1691624834826584e+00 1.2548119137963843e+01 0.0000000000000000e+00  -8.8173076279314060e+00 1.1675221229689932e+01 0.0000000000000000e+00  -7.3903533794862311e+00 1.2500924290376654e+01 0.0000000000000000e+00  -8.2404074938739438e+00 1.1344596345338022e+01 0.0000000000000000e+00  -6.8732937477217719e+00 1.1733265039383284e+01 0.0000000000000000e+00  -7.4744601387829253e+00 1.0970045315091557e+01 0.0000000000000000e+00  -6.4803527387855251e+00 1.0814138508617189e+01 0.0000000000000000e+00  -6.9711133440743875e+00 1.0237585369350871e+01 0.0000000000000000e+00  -6.0318833664092484e+00 9.8718146468476107e+00 0.0000000000000000e+00  -6.5924412589196457e+00 9.2124736683207509e+00 0.0000000000000000e+00  -5.5927439093532678e+00 8.9272852614879188e+00 0.0000000000000000e+00  -6.1586589536115453e+00 8.2823613673312995e+00 0.0000000000000000e+00  -5.1669300171022456e+00 8.0816618294964861e+00 0.0000000000000000e+00  -5.7347182992058592e+00 7.4569374913283495e+00 0.0000000000000000e+00  -4.7190989504340575e+00 7.3080335465398214e+00 0.0000000000000000e+00  -5.3244205755232770e+00 6.6505694136940186e+00 0.0000000000000000e+00  -4.2982739686156650e+00 6.5640309759974373e+00 0.0000000000000000e+00  -4.8923013106115967e+00 5.9472477235080321e+00 0.0000000000000000e+00  -3.9153160492398582e+00 5.8942975741140025e+00 0.0000000000000000e+00  -4.4874154653462330e+00 5.3343683744185988e+00 0.0000000000000000e+00  -3.5423092347896192e+00 5.2640356927201930e+00 0.0000000000000000e+00  -4.1204810745979428e+00 4.7191212416469757e+00 0.0000000000000000e+00  -3.2025528132834280e+00 4.6496314252823669e+00 0.0000000000000000e+00  -3.7635355892570770e+00 4.1545813045009137e+00 0.0000000000000000e+00  -2.9081108696731350e+00 4.0941722006952856e+00 0.0000000000000000e+00  -3.4398166228052727e+00 3.6670787042147528e+00 0.0000000000000000e+00  -2.6271493665388812e+00 3.5255445587920904e+00 0.0000000000000000e+00  -3.1614267449238542e+00 3.1185452608183089e+00 0.0000000000000000e+00  -2.3784591068871754e+00 3.0364105218489370e+00 0.0000000000000000e+00  -2.8962940298280015e+00 2.6778534271951155e+00 0.0000000000000000e+00  -2.1573961134180952e+00 2.5030375441768422e+00 0.0000000000000000e+00  -2.6635247298942399e+00 2.1855809131541704e+00 0.0000000000000000e+00  -1.9508600500358120e+00 2.1542438171967055e+00 0.0000000000000000e+00  -2.4578806571569727e+00 1.8588258962841897e+00 0.0000000000000000e+00  -1.7501910001495902e+00 1.6052640449405413e+00 0.0000000000000000e+00  -2.2672109837537890e+00 1.3178534640149782e+00 0.0000000000000000e+00  -1.5508646645627930e+00 1.5730786414044311e+00 0.0000000000000000e+00  -2.0811827231185873e+00 1.2886501955050604e+00 0.0000000000000000e+00  -1.3347589047147574e+00 9.2037486952483305e-01 0.0000000000000000e+00  -1.8980592518329957e+00 6.0876576569832164e-01 0.0000000000000000e+00  -1.0167846188855112e+00 1.4618680782265814e+00 0.0000000000000000e+00  -1.6950734257768676e+00 1.0004444380534339e+00 0.0000000000000000e+00  -5.0528423163722569e-01 1.2340048396196941e+00 0.0000000000000000e+00  -1.3952603992327506e+00 4.7669917556070074e-01 0.0000000000000000e+00  6.9816573328547782e-01 1.8349105510313127e-01 0.0000000000000000e+00  -8.9104723338430847e-01 -1.6009869496463811e+00 0.0000000000000000e+00  -3.0474572026131908e+00 -4.7902259615344001e+00 0.0000000000000000e+00  -2.6401597544786291e+00 -5.5098329834286446e+00 0.0000000000000000e+00  -3.4106268178354293e+00 -4.7852995071339066e+00 0.0000000000000000e+00  -3.8756553228953683e+00 -5.4090764188165004e+00 0.0000000000000000e+00  -4.4143660631316051e+00 -5.6145766508666970e+00 0.0000000000000000e+00  -4.8408751842249940e+00 -5.9737969648279901e+00 0.0000000000000000e+00  -5.1553355178220874e+00 -5.9039686124858655e+00 0.0000000000000000e+00  -5.5762972078277215e+00 -6.0681061171663337e+00 0.0000000000000000e+00  -5.8600733936669744e+00 -5.9109848527980020e+00 0.0000000000000000e+00  -5.8208176999467041e+00 -5.2952469464559808e+00 0.0000000000000000e+00  -6.5839609378967658e+00 -5.6674083593425566e+00 0.0000000000000000e+00  -4.6370501153949233e+00 -1.6240351784903240e+00 0.0000000000000000e+00  -1.3039765810995601e+01 -1.2963494136302785e+01 0.0000000000000000e+00  -1.3554104736841472e+01 -1.2414148234313972e+01 0.0000000000000000e+00  -1.3795425007136956e+01 -1.1476812718093049e+01 0.0000000000000000e+00  -1.4104961254999383e+01 -1.0637365404863811e+01 0.0000000000000000e+00  -1.4543348731574167e+01 -9.9575778931540082e+00 0.0000000000000000e+00  -1.5124914721740245e+01 -9.6390584397343240e+00 0.0000000000000000e+00  -1.5790981269901064e+01 -9.3741686815105307e+00 0.0000000000000000e+00  -1.6479624362887709e+01 -9.1893224696942841e+00 0.0000000000000000e+00  -1.7127950190298463e+01 -8.9371753681910544e+00 0.0000000000000000e+00  -1.7682171249317072e+01 -8.5818107152381931e+00 0.0000000000000000e+00  -1.8105129619819767e+01 -7.7252885361693453e+00 0.0000000000000000e+00  -1.8383248460181775e+01 -7.0290753284008218e+00 0.0000000000000000e+00  -1.8519973258962381e+01 -5.3183378051817218e+00 0.0000000000000000e+00  -1.8537019479646574e+01 -4.2680752584609971e+00 0.0000000000000000e+00  -1.8472875517944555e+01 -1.8329146646724965e+00 0.0000000000000000e+00  -1.8364774685028255e+01 -8.8801699130305967e-01 0.0000000000000000e+00  -1.8260640017422201e+01 1.5936832969287289e+00 0.0000000000000000e+00  -1.8182407387245064e+01 1.5987455560785335e+00 0.0000000000000000e+00  -1.8166536181509997e+01 -1.8422571394850098e-03 0.0000000000000000e+00  -1.8181343501247444e+01 -9.8991769200640238e+00 0.0000000000000000e+00  -1.8166495045467006e+01 1.6137921737193527e-03 0.0000000000000000e+00  -1.8237768303287059e+01 -6.8783529955154004e+00 0.0000000000000000e+00  -1.1609630346129926e+01 5.3131923283547851e+00 0.0000000000000000e+00  -1.3006580486425602e+01 4.0277484203755227e+00 0.0000000000000000e+00  -1.1150211700931044e+01 8.4970893406199046e+00 0.0000000000000000e+00  -1.1053898055461952e+01 8.9356093726886936e+00 0.0000000000000000e+00  -1.0146384977030165e+01 1.0442814996639740e+01 0.0000000000000000e+00  -9.5767518618720153e+00 1.0635656432376972e+01 0.0000000000000000e+00  -8.8897619480994550e+00 1.0485612928972467e+01 0.0000000000000000e+00  -8.3237118899505536e+00 9.8277456980256783e+00 0.0000000000000000e+00  -7.5692806165937752e+00 9.4898282132296554e+00 0.0000000000000000e+00  -7.0781935900660038e+00 8.6521794256733795e+00 0.0000000000000000e+00  -6.7124558497376494e+00 7.6394681342501363e+00 0.0000000000000000e+00  -6.2920089386045968e+00 6.8293304257146739e+00 0.0000000000000000e+00  -5.8820321927611650e+00 6.0437259201495266e+00 0.0000000000000000e+00  -5.4861523579755644e+00 5.3077461116917668e+00 0.0000000000000000e+00  -5.0686815565810193e+00 4.7359264364939557e+00 0.0000000000000000e+00  -4.6786677975495232e+00 4.1777139812313422e+00 0.0000000000000000e+00  -4.3267104630772879e+00 3.6280547734866908e+00 0.0000000000000000e+00  -3.9846505914999937e+00 3.1904192067045347e+00 0.0000000000000000e+00  -3.6757387459575193e+00 2.7097342124149293e+00 0.0000000000000000e+00  -3.4119362006706866e+00 2.2888447065482684e+00 0.0000000000000000e+00  -3.1611542675157480e+00 1.8447898954262103e+00 0.0000000000000000e+00  -2.9423356689838509e+00 1.5588110855315152e+00 0.0000000000000000e+00  -2.7504306725247147e+00 1.0395662558731118e+00 0.0000000000000000e+00  -2.5728320969533502e+00 1.0179713688226713e+00 0.0000000000000000e+00  -2.3999523496356030e+00 3.4062561197615315e-01 0.0000000000000000e+00  -2.2286947850470247e+00 7.0501148142713699e-01 0.0000000000000000e+00  -2.0386084307750991e+00 3.1554711629017039e-02 0.0000000000000000e+00  -1.7495830378861466e+00 -2.3475791775654140e+00 0.0000000000000000e+00  -2.9516401736878408e+00 -4.1798333603802647e+00 0.0000000000000000e+00  -2.5802835201062804e+00 -4.9521291864409598e+00 0.0000000000000000e+00  -3.3578740710769228e+00 -4.2420264092206406e+00 0.0000000000000000e+00  -3.7184610234376394e+00 -4.7143111014923784e+00 0.0000000000000000e+00  -4.1790656232822947e+00 -4.8110232105759465e+00 0.0000000000000000e+00  -4.7108943546892421e+00 -5.3402600433748617e+00 0.0000000000000000e+00  -5.1280323082767794e+00 -5.4402361652596412e+00 0.0000000000000000e+00  -5.4307165670189583e+00 -5.4463477361216395e+00 0.0000000000000000e+00  -5.8375510513370763e+00 -5.4963057792579653e+00 0.0000000000000000e+00  -6.1054692464180187e+00 -5.3658666841666038e+00 0.0000000000000000e+00  -6.0497148502259366e+00 -4.5342872213314234e+00 0.0000000000000000e+00  -6.7969724172562795e+00 -4.5560063618141191e+00 0.0000000000000000e+00  -4.8324569954466012e+00 -3.7498315228802565e-01 0.0000000000000000e+00  -1.3212847524514924e+01 -1.1658444391464871e+01 0.0000000000000000e+00  -1.3706502857709729e+01 -1.1126938454161388e+01 0.0000000000000000e+00  -1.3930788026616655e+01 -1.0185614706380024e+01 0.0000000000000000e+00  -1.4222867420195941e+01 -9.3133823238772866e+00 0.0000000000000000e+00  -1.4642014858417511e+01 -8.7815691956417528e+00 0.0000000000000000e+00  -1.5201835720383093e+01 -8.3914063981768940e+00 0.0000000000000000e+00  -1.5843994287381303e+01 -8.1740957673302379e+00 0.0000000000000000e+00  -1.6506498042180823e+01 -7.9830653195752843e+00 0.0000000000000000e+00  -1.7127302823383236e+01 -7.7688001554993056e+00 0.0000000000000000e+00  -1.7654116468204109e+01 -7.1089828271484565e+00 0.0000000000000000e+00  -1.8050118322720881e+01 -6.6270658209089426e+00 0.0000000000000000e+00  -1.8304691545299395e+01 -5.1267938503783030e+00 0.0000000000000000e+00  -1.8421659212110793e+01 -4.2489209146850841e+00 0.0000000000000000e+00  -1.8427782158700630e+01 -1.9329354934381995e+00 0.0000000000000000e+00  -1.8360041383046291e+01 -1.0376861103525259e+00 0.0000000000000000e+00  -1.8266889925972013e+01 1.4467165121177168e+00 0.0000000000000000e+00  -1.8185167608861438e+01 1.5303133896568699e+00 0.0000000000000000e+00  -1.8169801134252943e+01 -2.6338457995433314e-03 0.0000000000000000e+00  -1.8175848422987439e+01 -9.8471159159127630e+00 0.0000000000000000e+00  -1.8169764353381375e+01 2.3072315945407542e-03 0.0000000000000000e+00  -1.8231394302154296e+01 -6.7844964413140474e+00 0.0000000000000000e+00  -1.8284436307712269e+01 -4.6426876389195160e+00 0.0000000000000000e+00  -1.1637530425332150e+01 6.1112515640337977e+00 0.0000000000000000e+00  -1.3021298420104394e+01 5.7139720715774436e+00 0.0000000000000000e+00  -1.1167172059198444e+01 8.7955297469894322e+00 0.0000000000000000e+00  -1.1079150960554625e+01 9.0913256598515737e+00 0.0000000000000000e+00  -1.0183994691516940e+01 9.7911923570066577e+00 0.0000000000000000e+00  -9.6280541895616274e+00 9.4668192419201560e+00 0.0000000000000000e+00  -8.9563789994232508e+00 8.9908877739588924e+00 0.0000000000000000e+00  -8.4059632284091457e+00 8.3711392742807167e+00 0.0000000000000000e+00  -7.6680493436497343e+00 7.9289189955129284e+00 0.0000000000000000e+00  -7.1941355945261769e+00 7.1049444633455563e+00 0.0000000000000000e+00  -6.8461869459656333e+00 6.2132711688757150e+00 0.0000000000000000e+00  -6.4443485206518387e+00 5.4439846273071044e+00 0.0000000000000000e+00  -6.0538436451134068e+00 4.7297242555485628e+00 0.0000000000000000e+00  -5.6780414497651632e+00 4.1258658141158007e+00 0.0000000000000000e+00  -5.2811103306344229e+00 3.6090310068773435e+00 0.0000000000000000e+00  -4.9118971150088733e+00 3.1165319794454605e+00 0.0000000000000000e+00  -4.5807128110319466e+00 2.6936718561504089e+00 0.0000000000000000e+00  -4.2592749377940509e+00 2.2624190742434607e+00 0.0000000000000000e+00  -3.9705948280973371e+00 1.9090030653157821e+00 0.0000000000000000e+00  -3.7266062377337175e+00 1.4838615542937057e+00 0.0000000000000000e+00  -3.4948426759560958e+00 1.2456568687328977e+00 0.0000000000000000e+00  -3.2946031418234134e+00 7.6569547141677075e-01 0.0000000000000000e+00  -3.1200240991089072e+00 7.6592271415345592e-01 0.0000000000000000e+00  -2.9596651324769341e+00 9.3351626611230809e-02 0.0000000000000000e+00  -2.8017884214713704e+00 4.6261849113194670e-01 0.0000000000000000e+00  -2.6475005938360709e+00 -2.4458238190943699e-01 0.0000000000000000e+00  -2.4679427281680724e+00 -2.7660432933245507e+00 0.0000000000000000e+00  -3.1267391586509579e+00 -3.6234702106564929e+00 0.0000000000000000e+00  -2.7810245784811820e+00 -4.4326499998659088e+00 0.0000000000000000e+00  -3.4969306113191001e+00 -3.6342153458592672e+00 0.0000000000000000e+00  -3.9006244523198275e+00 -4.1761274433161528e+00 0.0000000000000000e+00  -4.2570128331816068e+00 -4.1245095744525004e+00 0.0000000000000000e+00  -4.7107966586868724e+00 -4.5491379869720667e+00 0.0000000000000000e+00  -5.2326419936119892e+00 -4.8236957581571485e+00 0.0000000000000000e+00  -5.6361922869842411e+00 -5.0039493091893563e+00 0.0000000000000000e+00  -5.9217896089670887e+00 -4.8999576146327186e+00 0.0000000000000000e+00  -6.3086084572425305e+00 -4.9795256758215976e+00 0.0000000000000000e+00  -6.5548504079668124e+00 -4.6334024705378631e+00 0.0000000000000000e+00  -6.4774874128602722e+00 -3.4501972146109616e+00 0.0000000000000000e+00  -7.2040150151600670e+00 -3.3379807411541602e+00 0.0000000000000000e+00  -5.2154404276814841e+00 8.9103386530691953e-01 0.0000000000000000e+00  -1.3566306554976631e+01 -1.0406313306760675e+01 0.0000000000000000e+00  -1.4034796871148069e+01 -9.8637457120688961e+00 0.0000000000000000e+00  -1.4239135052729443e+01 -8.8905450839963951e+00 0.0000000000000000e+00  -1.4509830091845282e+01 -8.1700512208023106e+00 0.0000000000000000e+00  -1.4904273762149515e+01 -7.5726853942073520e+00 0.0000000000000000e+00  -1.5433924428635008e+01 -7.2350387123941768e+00 0.0000000000000000e+00  -1.6040801988928127e+01 -7.0171359731563925e+00 0.0000000000000000e+00  -1.6663245994727170e+01 -6.8680346225126758e+00 0.0000000000000000e+00  -1.7240160366635507e+01 -6.3510841109191700e+00 0.0000000000000000e+00  -1.7720573885864169e+01 -6.0649701747524514e+00 0.0000000000000000e+00  -1.8071048165186529e+01 -4.7766644097036748e+00 0.0000000000000000e+00  -1.8281866637587576e+01 -4.0982994821206589e+00 0.0000000000000000e+00  -1.8364092154434569e+01 -1.9457951681070293e+00 0.0000000000000000e+00  -1.8344001984320911e+01 -1.1422281738813651e+00 0.0000000000000000e+00  -1.8273555303884862e+01 1.3047203289291567e+00 0.0000000000000000e+00  -1.8192023080935900e+01 1.4548296900709428e+00 0.0000000000000000e+00  -1.8174