<?xml version="1.0"?>
<VTKFile type="UnstructuredGrid"  version="0.1"  >
<UnstructuredGrid>
<Piece  NumberOfPoints="1933" NumberOfCells="3640">
<Points>
<DataArray  type="Float64"  NumberOfComponents="3"  format="ascii">-0.4752533408515992 -0.002626819442357783 0  4.524746712015455 -0.002558851027755923 0  4.524644737605081 7.497441269939668 0  -0.4753553315580407 7.497373276193663 0  9.524746803236901 -0.002490970603348702 0  9.524644849696905 7.497509152387184 0  14.52474697973532 -0.002423164017756716 0  14.52464502063227 7.497576954413617 0  19.5247472792716 -0.002355388242037999 0  19.52464526257492 7.497644724581065 0  24.52474772871718 -0.002287585979313408 0  24.52464558393653 7.497712521913146 0  29.5247483454041 -0.00221969226656336 0  29.52464598885954 7.497780411749689 0  34.52474913894653 -0.002151637201155561 0  34.5246464768274 7.497848463901573 0  39.52475011273452 -0.002083346636027978 0  39.52464704236455 7.497916752279038 0  44.52475126490995 -0.002014741729655697 0  44.52464767468557 7.497985355453364 0  49.52475258882112 -0.001945737777974332 0  49.52464835716462 7.49805435785202 0  54.5247540729902 -0.001876242512846989 0  54.52464906652054 7.498123851450463 0  59.52475570060562 -0.001806153910101609 0  59.52464977161778 7.498193937932945 0  64.52475744851276 -0.001735357454421363 0  64.52465043176521 7.498264731374968 0  69.52475928561057 -0.001663722727973373 0  69.52465099436255 7.498336361569202 0  74.52476117048862 -0.001591099104375082 0  74.52465139168365 7.498408978187229 0  79.5247630480105 -0.001517310221808804 0  79.52465153649963 7.498482756053813 0  84.52476484437062 -0.00144214675929578 0  84.52465131613094 7.498557901914552 0  89.52476645983174 -0.001365356822901625 0  89.52465058435382 7.49863466320845 0  94.52476775783248 -0.001286632929413503 0  94.52464915038948 7.49871333950743 0  99.52476854822025 -0.001205594108588983 0  99.524646764002 7.498794297423352 0  104.5247685607285 -0.001121760982161373 0  104.5246430955791 7.498877989811481 0  109.5247674018132 -0.001034520794719422 0  109.5246377102628 7.498964979758789 0  114.524764482499 -0.0009430783695163021 0  114.5246300362882 7.499055968525269 0  119.5247588947137 -0.0008463883564197331 0  119.5246193310766 7.499151822902024 0  124.5247491947163 -0.0007430656814030607 0  124.524604657408 7.49925358829197 0  129.5247330169484 -0.0006312801716861086 0  129.5245849027812 7.499362452756177 0  134.524706375744 -0.0005086743609116235 0  134.524558921902 7.499479581825177 0  139.5246623880632 -0.0003724542160113005 0  139.5245259845866 7.499605655023046 0  144.524588907213 -0.0002201889972011275 0  144.5244869338062 7.499739803687548 0  149.5244640179897 -5.33597408597597e-05 0  149.5244469668065 7.499877706212279 0  159.5244717418519 9.687355319549951e-19 0  164.5244526439274 -7.694587727694669e-05 0  164.5244703116021 7.499904429294734 0  159.5244675443671 7.499957015105908 0  169.5244613280322 -0.0001165293888224065 0  169.5244726885184 7.499874455508244 0  174.5244812203496 -0.0001301904328034162 0  174.5244778575577 7.499865225051852 0  179.5245047146438 -0.0001251158460354569 0  179.5244856305495 7.499872515272998 0  184.5245283215581 -0.0001062835261261989 0  184.5244950991227 7.499892501241569 0  189.5245505125692 -7.722832179789219e-05 0  189.5245053936163 7.499922170832691 0  194.5245707008758 -4.048583163387845e-05 0  194.5245158607491 7.499959245422762 0  199.5245887466121 2.106572177296899e-06 0  199.5245260623924 7.500002019180772 0  204.5246047143302 4.920082436623283e-05 0  204.5245357286904 7.500049212945003 0  209.5246187542205 9.979385641220736e-05 0  209.5245447089556 7.500099860362408 0  214.5246310445754 0.0001531282430228226 0  214.524552932244 7.500153223888987 0  219.5246417646609 0.0002086236024742715 0  219.5245603788136 7.500208734094352 0  224.5246510826767 0.0002658288362233451 0  224.5245670605279 7.500265946027829 0  229.5246591511661 0.0003243884740135317 0  229.5245730078414 7.500324507745274 0  234.5246661060464 0.0003840186193207603 0  234.5245782613751 7.500384137424142 0  239.5246720673516 0.00044448949681616 0  239.5245828665958 7.500444606548497 0  244.5246771407451 0.0005056126037228678 0  244.5245868705719 7.500505727415602 0  249.524681419336 0.0005672311273194417 0  249.5245903200995 7.500567343756756 0  254.524684985599 0.0006292127293406427 0  254.5245932607447 7.500629323642449 0  259.5246879133033 0.0006914440947343784 0  259.5245957364801 7.50069155410542 0  264.5246902694537 0.0007538268507206933 0  264.5245977897216 7.500753937105388 0  269.5246921162357 0.000816274619262177 0  269.5245994616197 7.500816386603377 0  274.5246935130181 0.0008787110990931403 0  274.524600792492 7.50087882663374 0  279.5246945184163 0.0009410692057417248 0  279.5246018223125 7.500941190373837 0  284.5246951924045 0.001003291453113289 0  284.5246025911568 7.501003420329465 0  289.5246955983295 0.001065331965873835 0  289.5246031394947 7.501065469886151 0  294.5246958044887 0.00112716079805825 0  294.524603508261 7.501127306624442 0  299.5246958843718 0.001188771611109687 0  299.5246037386842 7.501188917945564 0  304.5246959136646 0.001250194107578416 0  304.5246038722588 7.501250319675941 0  309.5246959597953 0.001311512078974458 0  309.5246039521718 7.501311568551272 0  4.524542568311697 14.99744151917845 0  -0.4754574988621609 14.99737350580569 0  9.524542655523602 14.99750937875646 0  14.52454277074616 14.99757714713357 0  19.52454291519999 14.99764488446117 0  24.52454308647989 14.99771265300012 0  29.52454327919689 14.99778051805072 0  34.52454348468721 14.99784854820566 0  39.52454369039183 14.99791681578712 0  44.52454387909275 14.99798539766198 0  49.52454402802584 14.9980543764458 0  54.52454410782878 14.99812384208127 0  59.52454408125748 14.99819389380112 0  64.52454390160108 14.99826464251741 0  69.5245435107163 14.99833621371331 0  74.52454283661167 14.99840875094355 0  79.52454179052211 14.99848242007184 0  84.52454026346589 14.99855741437622 0  89.5245381223788 14.99863396061397 0  94.52453520615543 14.99871232599908 0  99.52453132236226 14.99879282570659 0  104.5245262462481 14.99887582976499 0  109.5245197251738 14.99896176663903 0  114.524511494216 14.99905111770558 0  119.5245013129446 14.99914439088582 0  124.5244890397543 14.9992420507382 0  129.5244747682569 14.99934436301778 0  134.5244590567886 14.99945107990649 0  139.5244432750218 14.99956084468347 0  144.5244300357301 14.99967013128946 0  149.5244234767439 14.99977142391939 0  164.5244537889664 14.99985277058555 0  159.5244483613306 14.99986502205891 0  169.5244545456275 14.99984653200761 0  174.5244541815746 14.99985039089287 0  179.5244544078488 14.99986478764196 0  184.5244557603768 14.99988862047574 0  189.5244582140319 14.99992037015191 0  194.5244615306162 14.99995856483307 0  199.5244654272772 15.00000193458055 0  204.5244696475555 15.00004943684006 0  209.5244739845547 15.00010023459014 0  214.5244782826393 15.00015366157335 0  219.5244824308031 15.00020918801517 0  224.5244863538528 15.00026639123741 0  229.5244900040065 15.00032493192654 0  234.5244933538402 15.00038453549508 0  239.5244963907178 15.00044497762265 0  244.5244991125692 15.00050607308692 0  249.5245015247728 15.00056766714028 0  254.5245036379 15.00062962885018 0  259.5245054661133 15.00069184597035 0  264.5245070260374 15.00075422103138 0  269.5245083359754 15.00081666844178 0  274.524509415359 15.0008791124727 0  279.5245102843479 15.00094148606819 0  284.5245109635694 15.00100373047541 0  289.5245114739791 15.00106579571426 0  294.5245118370303 15.00112764187268 0  299.5245120754574 15.00118924106422 0  304.5245122153991 15.00125057948883 0  309.5245122911581 15.00131165815745 0  4.524440349520846 22.49744195176921 0  -0.475559712165623 22.4973739946352 0  9.524440410200079 22.49750973783976 0  14.52444046911932 22.49757742982399 0  19.52444052162319 22.49764509520964 0  24.52444056013131 22.49771279820744 0  29.52444057460894 22.49778060304454 0  34.5244405524695 22.4978485757484 0  39.52444047813163 22.49791678534761 0  44.52444033239525 22.49798530495269 0  49.5244400917225 22.49805421292415 0  54.52443972745618 22.49812359421565 0  59.52443920498942 22.49819354193092 0  64.52443848290432 22.49826415911455 0  69.52443751212013 22.49833556078091 0  74.52443623514047 22.49840787616326 0  79.52443458557126 22.49848125111344 0  84.52443248820957 22.49855585048347 0  89.52442986021822 22.49863186013129 0  94.5244266142242 22.49870948785181 0  99.52442266466605 22.49878896192973 0  104.5244179394133 22.49887052497594 0  109.5244123996026 22.49895441897747 0  114.5244060716973 22.49904085470815 0  119.5243990966066 22.49912995440547 0  124.5243918003706 22.49922165071721 0  129.5243847872528 22.49931551812687 0  134.5243790449172 22.49941050914918 0  139.5243760255753 22.49950457831676 0  144.5243776173725 22.4995942345598 0  149.5243858446972 22.49967425649706 0  164.5244121967336 22.4997934275549 0  159.5244074148836 22.49977784396143 0  169.5244127621266 22.49980839073363 0  174.5244109728268 22.49982683966497 0  179.5244083528916 22.49985071377186 0  184.5244058506262 22.49988050861309 0  189.5244039343149 22.49991593642539 0  194.5244027599097 22.49995636760552 0  199.5244023091817 22.50000107750322 0  204.5244024813427 22.50004936716055 0  209.5244031469839 22.50010061321965 0  214.5244041768115 22.50015428156551 0  219.5244054551268 22.50020992408348 0  224.5244068847325 22.50026716866577 0  229.5244083873669 22.5003257074441 0  234.5244099020537 22.50038528549471 0  239.5244113826616 22.5004456908879 0  244.5244127953519 22.50050674629563 0  249.5244141162161 22.50056830208451 0  254.5244153292342 22.50063023071695 0  259.5244164245524 22.50069242226578 0  264.5244173970776 22.5007547808648 0  269.5244182453253 22.50081722194821 0  274.5244189705051 22.50087967015946 0  279.5244195758133 22.50094205782587 0  284.5244200659638 22.50100432388742 0  289.5244204470278 22.5010664131163 0  294.5244207267648 22.50112827533482 0  299.52442091
[...]
<PointData  Vectors="v"> 
<DataArray  type="Float64"  Name="v"  NumberOfComponents="3" format="ascii">-4.3400137270283619e+00 -3.1243760443876822e+00 0.0000000000000000e+00  -4.5388907130219156e+00 -2.5910060917168525e+00 0.0000000000000000e+00  -3.8412964869918866e+00 -2.2928515445884519e+00 0.0000000000000000e+00  -3.6825654144525566e+00 -2.8857111252910017e+00 0.0000000000000000e+00  -4.7231852380187052e+00 -2.4345351000807907e+00 0.0000000000000000e+00  -4.0398474753793341e+00 -2.1582787860067709e+00 0.0000000000000000e+00  -4.8015981912106778e+00 -2.3342761745358209e+00 0.0000000000000000e+00  -4.2236762279531206e+00 -2.2171113915703033e+00 0.0000000000000000e+00  -4.7793389638559152e+00 -1.8155934580803612e+00 0.0000000000000000e+00  -4.3013837162205331e+00 -1.8493674054697715e+00 0.0000000000000000e+00  -4.7942322651923570e+00 -1.5143155272619357e+00 0.0000000000000000e+00  -4.2782641457870829e+00 -1.4922924177383712e+00 0.0000000000000000e+00  -4.7316541358501087e+00 -9.7701072381591059e-01 0.0000000000000000e+00  -4.2925448007361791e+00 -1.0712511744748696e+00 0.0000000000000000e+00  -4.6084603435939693e+00 -3.9267777425544526e-01 0.0000000000000000e+00  -4.2293731421575691e+00 -5.7741504056881265e-01 0.0000000000000000e+00  -4.7787635331230183e+00 -2.0655501237101970e-01 0.0000000000000000e+00  -4.1058067847717261e+00 4.9226845243524428e-02 0.0000000000000000e+00  -4.7541597929460195e+00 2.5603784642916622e-01 0.0000000000000000e+00  -4.2763223058992690e+00 2.1964298282578426e-01 0.0000000000000000e+00  -7.2544762240956366e+00 -3.0131520643052530e+00 0.0000000000000000e+00  -4.2523761871949484e+00 7.3857565020700311e-01 0.0000000000000000e+00  -8.4314079085029245e+00 -4.2206510267180377e+00 0.0000000000000000e+00  -6.7529131848828454e+00 -2.4541645221001134e+00 0.0000000000000000e+00  -8.7664307541759090e+00 -4.0740426326837635e+00 0.0000000000000000e+00  -7.9310959082282277e+00 -3.5687236114303436e+00 0.0000000000000000e+00  -8.7587798494934095e+00 -3.3545056398336603e+00 0.0000000000000000e+00  -8.2690707303792745e+00 -3.3620358664803427e+00 0.0000000000000000e+00  -8.5504961610200798e+00 -2.3491481196346284e+00 0.0000000000000000e+00  -8.2655836003395073e+00 -2.6560362807687246e+00 0.0000000000000000e+00  -8.2654954014617115e+00 -1.2626856882077153e+00 0.0000000000000000e+00  -8.0635832712319271e+00 -1.6838868310342117e+00 0.0000000000000000e+00  -7.9018848353563573e+00 -1.0978008244512857e-01 0.0000000000000000e+00  -7.7861112898161684e+00 -6.4677312308336332e-01 0.0000000000000000e+00  -7.4482840898971014e+00 1.0324465259790494e+00 0.0000000000000000e+00  -7.4315679940299466e+00 3.6213706230236697e-01 0.0000000000000000e+00  -6.8936104475133284e+00 2.2427181503152327e+00 0.0000000000000000e+00  -6.9898857825944614e+00 1.4222621271851199e+00 0.0000000000000000e+00  -6.2261264747830785e+00 3.4940612810019065e+00 0.0000000000000000e+00  -6.4487844653633219e+00 2.5075054460273418e+00 0.0000000000000000e+00  -5.4468779926976021e+00 4.8032283776238902e+00 0.0000000000000000e+00  -5.7978503826204806e+00 3.6510161525178750e+00 0.0000000000000000e+00  -4.5884884397118375e+00 6.0908122006424863e+00 0.0000000000000000e+00  -5.0381893164882623e+00 4.8231175795313455e+00 0.0000000000000000e+00  -3.6911089995176116e+00 7.4531562365172288e+00 0.0000000000000000e+00  -4.2035684772906690e+00 6.1294612467328307e+00 0.0000000000000000e+00  -2.7987847723416190e+00 8.5110798120820448e+00 0.0000000000000000e+00  -3.3316595117544980e+00 7.2004010785746022e+00 0.0000000000000000e+00  -1.9811269427095612e+00 9.6382210784598481e+00 0.0000000000000000e+00  -2.4730071774415254e+00 8.4392793148957583e+00 0.0000000000000000e+00  -1.2700430209579883e+00 9.9943571638517330e+00 0.0000000000000000e+00  -1.6874526251707667e+00 8.9658382447591265e+00 0.0000000000000000e+00  -7.2445240896035712e-01 1.0386272578072962e+01 0.0000000000000000e+00  -1.0222974664402571e+00 9.6001088222068969e+00 0.0000000000000000e+00  -3.3370607824642373e-01 9.2067677128080483e+00 0.0000000000000000e+00  -5.1497673688749213e-01 8.6718605735903402e+00 0.0000000000000000e+00  -1.2329377461257278e-01 8.1834850329841196e+00 0.0000000000000000e+00  -1.8544964904514336e-01 7.9030224939499165e+00 0.0000000000000000e+00  -2.2040459075549919e-02 3.9917263377207171e+00 0.0000000000000000e+00  -1.8313119810574756e-02 3.9075505241469646e+00 0.0000000000000000e+00  -1.0692769475930482e-05 -7.3880883801679943e-05 0.0000000000000000e+00  -7.4071410713337569e-04 -8.3733265388028324e-04 0.0000000000000000e+00  -6.2895948544448454e-11 4.2910400416290703e-19 0.0000000000000000e+00  1.4488147622218850e+00 -7.1533658331939254e+00 0.0000000000000000e+00  -2.7292419938138170e-02 -9.3461063386743817e+00 0.0000000000000000e+00  -7.0761465747154711e-04 6.6112626024308928e-04 0.0000000000000000e+00  -1.9894560740978975e-01 -1.1843465001022654e+01 0.0000000000000000e+00  1.4505659100262496e+00 -9.4163275027840090e+00 0.0000000000000000e+00  -2.0611639131304621e-01 -1.1107781568117367e+01 0.0000000000000000e+00  -1.6171015693165300e-01 -1.1114639921584438e+01 0.0000000000000000e+00  -8.0958001505318977e-01 -1.1012405409609029e+01 0.0000000000000000e+00  -1.3787994619123889e-01 -1.0133760249804556e+01 0.0000000000000000e+00  -9.9443286110362428e-01 -8.8490578395795971e+00 0.0000000000000000e+00  -7.1550244428355469e-01 -8.5911851228713161e+00 0.0000000000000000e+00  -1.2553495904052101e+00 -7.1967052690162747e+00 0.0000000000000000e+00  -8.7751939541538027e-01 -6.8248158388403297e+00 0.0000000000000000e+00  -1.4035177035755633e+00 -5.3639864303560953e+00 0.0000000000000000e+00  -1.1169222868568878e+00 -5.1572184279601849e+00 0.0000000000000000e+00  -1.5658961328542642e+00 -4.0039758712641111e+00 0.0000000000000000e+00  -1.2469898180891266e+00 -3.7760995062839542e+00 0.0000000000000000e+00  -1.6334402773366787e+00 -2.9126319377519181e+00 0.0000000000000000e+00  -1.3929330275917247e+00 -2.8243615202050592e+00 0.0000000000000000e+00  -1.7522934873227063e+00 -2.3137609734986353e+00 0.0000000000000000e+00  -1.4453806338449779e+00 -2.1475156002532914e+00 0.0000000000000000e+00  -1.8997421353429684e+00 -1.9461402423055554e+00 0.0000000000000000e+00  -1.5509830088875072e+00 -1.7359992608857999e+00 0.0000000000000000e+00  -2.0259376852263822e+00 -1.7782092808960128e+00 0.0000000000000000e+00  -1.6864540221822597e+00 -1.5988622282962535e+00 0.0000000000000000e+00  -2.1221450049693198e+00 -1.7075800497403824e+00 0.0000000000000000e+00  -1.8015531993559706e+00 -1.5721521309595079e+00 0.0000000000000000e+00  -2.1909782797438444e+00 -1.6604523069859871e+00 0.0000000000000000e+00  -1.8879079945634543e+00 -1.5655546126697573e+00 0.0000000000000000e+00  -2.2118043886232264e+00 -1.6171119495661281e+00 0.0000000000000000e+00  -1.9477682028483625e+00 -1.5934176715767541e+00 0.0000000000000000e+00  -2.2090827988216790e+00 -1.5804975413262263e+00 0.0000000000000000e+00  -1.9602437440685212e+00 -1.5915143719217886e+00 0.0000000000000000e+00  -2.1926293678485540e+00 -1.5260801024094595e+00 0.0000000000000000e+00  -1.9499289475145103e+00 -1.5573242739652851e+00 0.0000000000000000e+00  -2.1547610855861010e+00 -1.4575775846165699e+00 0.0000000000000000e+00  -1.9264290638822068e+00 -1.5205096971544441e+00 0.0000000000000000e+00  -2.1078583721791335e+00 -1.3892601752517293e+00 0.0000000000000000e+00  -1.8818568270412235e+00 -1.4653819414160831e+00 0.0000000000000000e+00  -2.0624253832305821e+00 -1.2905947554716246e+00 0.0000000000000000e+00  -1.8286776536485565e+00 -1.3643499095955698e+00 0.0000000000000000e+00  -2.0030073398309778e+00 -1.2068405302248530e+00 0.0000000000000000e+00  -1.7772160981606444e+00 -1.3013281446359899e+00 0.0000000000000000e+00  -1.9415948949641471e+00 -1.0636034730799053e+00 0.0000000000000000e+00  -1.7119716628925221e+00 -1.1609774701873476e+00 0.0000000000000000e+00  -1.8711186694143007e+00 -9.7393874556404669e-01 0.0000000000000000e+00  -1.6448279015303104e+00 -1.0847644220592922e+00 0.0000000000000000e+00  -1.7896827804714759e+00 -7.2359878268781697e-01 0.0000000000000000e+00  -1.5688542761931268e+00 -8.5093775785583337e-01 0.0000000000000000e+00  -1.6832799088099457e+00 -6.7337322351074247e-01 0.0000000000000000e+00  -1.4817185090273057e+00 -8.3787545810285724e-01 0.0000000000000000e+00  -1.5518127350693678e+00 -1.8792734397612848e-01 0.0000000000000000e+00  -1.3700537370917609e+00 -3.9045592473338209e-01 0.0000000000000000e+00  -1.3784933202333616e+00 -2.9413577838301369e-01 0.0000000000000000e+00  -1.2326656192966430e+00 -5.5872634268748111e-01 0.0000000000000000e+00  -1.1018858544479084e+00 6.3855925515669165e-01 0.0000000000000000e+00  -1.0545268333669673e+00 2.1783368847219897e-01 0.0000000000000000e+00  -6.3494869417407118e-01 7.9424568533484152e-01 0.0000000000000000e+00  -7.7110385834283690e-01 9.0105584209582021e-02 0.0000000000000000e+00  4.6819866199787696e-01 2.8945538299715318e-01 0.0000000000000000e+00  -3.0144862662371041e-01 -1.3731564514178085e+00 0.0000000000000000e+00  -3.1267435796882608e+00 -2.0555385859258948e+00 0.0000000000000000e+00  -2.9416223845270801e+00 -2.6063588014521124e+00 0.0000000000000000e+00  -3.2839955599343571e+00 -1.8618345807340957e+00 0.0000000000000000e+00  -3.4799837502913533e+00 -1.9430849810032365e+00 0.0000000000000000e+00  -3.6605434784799846e+00 -1.7349264060002083e+00 0.0000000000000000e+00  -3.7343951093508179e+00 -1.5296387428745419e+00 0.0000000000000000e+00  -3.7067843381601824e+00 -1.0524255807153571e+00 0.0000000000000000e+00  -3.7164343483312696e+00 -6.7467888680490973e-01 0.0000000000000000e+00  -3.6488950310843142e+00 -1.3885575163651578e-01 0.0000000000000000e+00  -3.5211758416772487e+00 4.7370380002003576e-01 0.0000000000000000e+00  -3.6891439051348982e+00 7.0221892994428747e-01 0.0000000000000000e+00  -3.6631917318233498e+00 1.2929163838280573e+00 0.0000000000000000e+00  -6.1563492718838866e+00 -1.8061286928266593e+00 0.0000000000000000e+00  -7.3280293418453031e+00 -2.8557646235258307e+00 0.0000000000000000e+00  -7.6647805631935730e+00 -2.6617237353178593e+00 0.0000000000000000e+00  -7.6620125720730270e+00 -1.9842718016087173e+00 0.0000000000000000e+00  -7.4641335678030494e+00 -1.0594891825817072e+00 0.0000000000000000e+00  -7.1928865348827076e+00 -1.6562061928316826e-01 0.0000000000000000e+00  -6.8463271959214564e+00 7.6642249812674701e-01 0.0000000000000000e+00  -6.4159293446500563e+00 1.7043899100045252e+00 0.0000000000000000e+00  -5.8895410828331540e+00 2.6838317506054530e+00 0.0000000000000000e+00  -5.2562352046132323e+00 3.6977688384172342e+00 0.0000000000000000e+00  -4.5202920130115336e+00 4.8933183739231305e+00 0.0000000000000000e+00  -3.7144301112927289e+00 5.9132150862634436e+00 0.0000000000000000e+00  -2.8785596160523821e+00 7.1746143632981010e+00 0.0000000000000000e+00  -2.0629358530406288e+00 7.8210862432704360e+00 0.0000000000000000e+00  -1.3326911121755873e+00 8.6313911462864610e+00 0.0000000000000000e+00  -7.2674684594531447e-01 7.9653941620832072e+00 0.0000000000000000e+00  -3.0245944743641667e-01 7.4388945983600765e+00 0.0000000000000000e+00  -4.8362805143911676e-02 3.7450430696255430e+00 0.0000000000000000e+00  -2.4887444142322078e-03 -1.5921573144122533e-03 0.0000000000000000e+00  -5.5062507378660461e-02 -9.1887499290862600e+00 0.0000000000000000e+00  -2.4475775996899594e-03 1.2963794540939914e-03 0.0000000000000000e+00  -2.0800570599875542e-01 -1.1643890850332246e+01 0.0000000000000000e+00  1.3192206380781075e+00 -8.7370489082796432e+00 0.0000000000000000e+00  -2.3420291869530044e-01 -1.0196191239362324e+01 0.0000000000000000e+00  -1.6862115773483757e-01 -7.7485275394230388e+00 0.0000000000000000e+00  -7.0929024453408529e-01 -6.5972858564463701e+00 0.0000000000000000e+00  -8.4404446518500054e-01 -4.8161376193762004e+00 0.0000000000000000e+00  -1.0571385988448303e+00 -3.5933686179143196e+00 0.0000000000000000e+00  -1.1665162690031274e+00 -2.6166746254167039e+00 0.0000000000000000e+00  -1.2941815738247877e+00 -2.0793217811055738e+00 0.0000000000000000e+00  -1.3303620962715597e+00 -1.5864506340787314e+00 0.0000000000000000e+00  -1.4216939157549084e+00 -1.4030972985892676e+00 0.0000000000000000e+00  -1.5448106635440679e+00 -1.4068365626391650e+00 0.0000000000000000e+00  -1.6485531970437943e+00 -1.4420988621657955e+00 0.0000000000000000e+00  -1.7251323544914823e+00 -1.5087847698386951e+00 0.0000000000000000e+00  -1.7765677508371045e+00 -1.5776626571117762e+00 0.0000000000000000e+00  -1.7814768517983068e+00 -1.5769213275523200e+00 0.0000000000000000e+00  -1.7645678342395146e+00 -1.5592950513447328e+00 0.0000000000000000e+00  -1.7352924319556735e+00 -1.5356319840298318e+00 0.0000000000000000e+00  -1.6853837854770792e+00 -1.4471437056992160e+00 0.0000000000000000e+00  -1.6273322679686071e+00 -1.3812557491050830e+00 0.0000000000000000e+00  -1.5713481656554840e+00 -1.2616119978513380e+00 0.0000000000000000e+00  -1.5016693129416980e+00 -1.1880605068047567e+00 0.0000000000000000e+00  -1.4302379413603861e+00 -9.6753446095218232e-01 0.0000000000000000e+00  -1.3499505487433465e+00 -9.7109140518378301e-01 0.0000000000000000e+00  -1.2585362141887542e+00 -5.6081143917346388e-01 0.0000000000000000e+00  -1.1423615185704479e+00 -7.6707857845816840e-01 0.0000000000000000e+00  -1.0007599155976326e+00 -5.2721139718820205e-02 0.0000000000000000e+00  -8.1783777841016347e-01 -3.3673168267377818e-01 0.0000000000000000e+00  -5.3035370851972707e-01 -2.0813202893194700e+00 0.0000000000000000e+00  -2.2585518917664480e+00 -1.7795994508800848e+00 0.0000000000000000e+00  -2.0858607827436715e+00 -2.3447922775398058e+00 0.0000000000000000e+00  -2.4407142867121792e+00 -1.6292248329128793e+00 0.0000000000000000e+00  -2.5925024571457254e+00 -1.6532564045214908e+00 0.0000000000000000e+00  -2.7818751503906620e+00 -1.4696144726188614e+00 0.0000000000000000e+00  -2.9538273238029977e+00 -1.4254350779956095e+00 0.0000000000000000e+00  -3.0174917401619052e+00 -1.1010376442283074e+00 0.0000000000000000e+00  -2.9788903445129664e+00 -6.6812371481587918e-01 0.0000000000000000e+00  -2.9767619473267359e+00 -2.4788436338918457e-01 0.0000000000000000e+00  -2.8977587358104895e+00 2.7555093512472345e-01 0.0000000000000000e+00  -2.7607228208044261e+00 9.4945261823954141e-01 0.0000000000000000e+00  -2.9221580416287489e+00 1.2493860503993452e+00 0.0000000000000000e+00  -2.8855833155771151e+00 1.9207993507421657e+00 0.0000000000000000e+00  -5.3570102407441444e+00 -1.1127934668019646e+00 0.0000000000000000e+00  -6.5092542539469260e+00 -2.1621169647080998e+00 0.0000000000000000e+00  -6.8367295428435444e+00 -1.9904432429984849e+00 0.0000000000000000e+00  -6.8304291925778653e+00 -1.3551005981396576e+00 0.0000000000000000e+00  -6.6328713668074784e+00 -5.6853355622202273e-01 0.0000000000000000e+00  -6.3648008030113106e+00 2.5310618370881788e-01 0.0000000000000000e+00  -6.0252663072643253e+00 1.0677237979182652e+00 0.0000000000000000e+00  -5.6051576762579947e+00 1.9070158214896502e+00 0.0000000000000000e+00  -5.0934565670374790e+00 2.7657955577298701e+00 0.0000000000000000e+00  -4.4825098691227572e+00 3.8114196582434947e+00 0.0000000000000000e+00  -3.7757141657963511e+00 4.7370303896905188e+00 0.0000000000000000e+00  -3.0115929138815285e+00 5.9581713953960564e+00 0.0000000000000000e+00  -2.2281687169965982e+00 6.6528128783937817e+00 0.0000000000000000e+00  -1.4860816561154422e+00 7.5929778813579887e+00 0.0000000000000000e+00  -8.4096787073504886e-01 7.1504181745841802e+00 0.0000000000000000e+00  -3.5763776108346507e-01 6.8738552269867359e+00 0.0000000000000000e+00  -5.5372841200568505e-02 3.5270899355001020e+00 0.0000000000000000e+00  -5.2169518211137118e-03 -2.2756660537187625e-03 0.0000000000000000e+00  -6.4342801783011161e-02 -8.9433117864452818e+00 0.0000000000000000e+00  -5.1800605314976742e-03 1.8527855001319292e-03 0.0000000000000000e+00  -3.4697236867873121e-01 -1.1369627067046071e+01 0.0000000000000000e+00  -5.0412948366767607e-01 -1.1091636071268050e+01 0.0000000000000000e+00  1.1111361776710289e+00 -7.9405174743592033e+00 0.0000000000000000e+00  -3.4846574100058880e-01 -7.8954417678351430e+00 0.0000000000000000e+00  -2.1740577022503726e-01 -5.8312213308816068e+00 0.0000000000000000e+00  -7.0552996848353411e-01 -4.6444971069359777e+00 0.0000000000000000e+00  -7.9962827409716353e-01 -3.3025408882153600e+00 0.0000000000000000e+00  -9.7750025040178057e-01 -2.4755493462304381e+00 0.0000000000000000e+00  -1.0586172212503824e+00 -1.9079609222367080e+00 0.0000000000000000e+00  -1.1610691256490282e+00 -1.5493634202530000e+00 0.0000000000000000e+00  -1.1756794808507682e+00 -1.2817088894055677e+00 0.0000000000000000e+00  -1.2480271754921515e+00 -1.2356165757991773e+00 0.0000000000000000e+00  -1.3541427788710341e+00 -1.2985309204374562e+00 0.0000000000000000e+00  -1.4429612134253325e+00 -1.4044177949252259e+00 0.0000000000000000e+00  -1.5068713200740149e+00 -1.5094133718658160e+00 0.0000000000000000e+00  -1.5474140402426584e+00 -1.5771904723784926e+00 0.0000000000000000e+00  -1.5431266264380665e+00 -1.5913137819245251e+00 0.0000000000000000e+00  -1.5184619474068792e+00 -1.5852235392931915e+00 0.0000000000000000e+00  -1.4824666726410796e+00 -1.5270763033441235e+00 0.0000000000000000e+00  -1.4266289594831192e+00 -1.4729571940700303e+00 0.0000000000000000e+00  -1.3632575989357596e+00 -1.3499152030537334e+00 0.0000000000000000e+00  -1.3021936851054636e+00 -1.2967078494382518e+00 0.0000000000000000e+00  -1.2276115020695706e+00 -1.0789332687485733e+00 0.0000000000000000e+00  -1.1511635528890181e+00 -1.0955924906769332e+00 0.0000000000000000e+00  -1.0658907779828253e+00 -7.0250118184396459e-01 0.0000000000000000e+00  -9.6901077297043481e-01 -9.4535623098554133e-01 0.0000000000000000e+00  -8.4778914166574437e-01 -2.7035422356520777e-01 0.0000000000000000e+00  -7.0001255341992141e-01 -6.1445232531850513e-01 0.0000000000000000e+00  -5.1315847468174514e-01 -2.5182526859540402e+00 0.0000000000000000e+00  -1.6219896192588403e+00 -1.5229702612557294e+00 0.0000000000000000e+00  -1.4526436480511720e+00 -2.0873108565501113e+00 0.0000000000000000e+00  -1.7907678968307246e+00 -1.3605122235109335e+00 0.0000000000000000e+00  -1.9654941617151205e+00 -1.4320027658636778e+00 0.0000000000000000e+00  -2.1076467539535093e+00 -1.1936770317122467e+00 0.0000000000000000e+00  -2.2846702046275009e+00 -1.1773961942533882e+00 0.0000000000000000e+00  -2.4418866824461594e+00 -1.0173704597683950e+00 0.0000000000000000e+00  -2.4883430380982947e+00 -7.3897897555330327e-01 0.0000000000000000e+00  -2.4308630776550322e+00 -2.6460785696745021e-01 0.0000000000000000e+00  -2.4096050935764901e+00 1.4390560447804587e-01 0.0000000000000000e+00  -2.3131288158796823e+00 7.3365624788914241e-01 0.0000000000000000e+00  -2.1617935056632729e+00 1.4828093520191010e+00 0.0000000000000000e+00  -2.3103786127456036e+00 1.8523106321941312e+00 0.0000000000000000e+00  -2.2499153166592776e+00 2.5675689402095370e+00 0.0000000000000000e+00  -4.6806464968254025e+00 -4.6090904817398320e-01 0.0000000000000000e+00  -5.7983898808201593e+00 -1.5140761263327278e+00 0.0000000000000000e+00  -6.1059595330727472e+00 -1.3743606360684451e+00 0.0000000000000000e+00  -6.0863827077019215e+00 -8.7038965049819883e-01 0.0000000000000000e+00  -5.8809655718716778e+00 -1.5364670316661272e-01 0.0000000000000000e+00  -5.6065642355991212e+00 5.5649481019363944e-01 0.0000000000000000e+00  -5.2631195611612247e+00 1.2764017910162542e+00 0.0000000000000000e+00  -4.8423848214368812e+00 2.0011759455648344e+00 0.0000000000000000e+00  -4.3348678895102140e+00 2.9022024857504376e+00 0.0000000000000000e+00  -3.7344574494992440e+00 3.6934306237106904e+00 0.0000000000000000e+00  -3.0516690478681627e+00 4.8338588769976960e+00 0.0000000000000000e+00  -2.3230151333143430e+00 5.5210371641145475e+00 0.0000000000000000e+00  -1.6012736306915112e+00 6.5269012237708015e+00 0.0000000000000000e+00  -9.3732108964533867e-01 6.2747673668968149e+00 0.0000000000000000e+00  -4.1975773403762268e-01 6.2229576992412108e+00 0.0000000000000000e+00  -7.2963399533950868e-02 3.2606015252963769e+