<?xml version="1.0"?>
<VTKFile type="UnstructuredGrid"  version="0.1"  >
<UnstructuredGrid>
<Piece  NumberOfPoints="1933" NumberOfCells="3640">
<Points>
<DataArray  type="Float64"  NumberOfComponents="3"  format="ascii">0.4752770060970412 0.001899076791277668 0  5.475276999465986 0.001832479056518841 0  5.475376944519079 7.501832491963625 0  0.4753769335314254 7.501899057092243 0  10.47527697586295 0.001765851673344257 0  10.47537697534218 7.501765880550995 0  15.47527695105887 0.001699142077332026 0  15.47537704126072 7.501699178943214 0  20.47527695155484 0.001632318098479381 0  20.47537715950522 7.501632359115789 0  25.47527700783636 0.001565361736164364 0  25.47537734956945 7.501565405253051 0  30.47527715160938 0.001498264755282048 0  30.47537763294137 7.501498310321677 0  35.47527741502059 0.001431025636313653 0  35.47537803291473 7.501431073489349 0  40.47527783087572 0.001363647561271978 0  40.47537857462637 7.501363698360032 0  45.47527843336679 0.001296137182193105 0  45.47537928531798 7.501296191881758 0  50.4752792590761 0.001228503983588898 0  50.47538019478545 7.50122856379063 0  55.47528034815957 0.00116076011124596 0  55.47538133598137 7.501160826491581 0  60.47528174568622 0.00109292059218153 0  60.47538274574798 7.501092995316863 0  65.47528350315461 0.001025003915077251 0  65.47538446566932 7.501025089142022 0  70.4752856802351 0.0009570329804911564 0  70.47538654304073 7.500957131376548 0  75.47528834681582 0.0008890364703117606 0  75.47538903195937 7.500889151386507 0  80.47529158545659 0.0008210507322461214 0  80.47539199453654 7.500821186454426 0  85.47529549439695 0.0007531223358219092 0  85.47539550222795 7.500753284446215 0  90.47530019131486 0.0006853115438983431 0  90.47539963725174 7.50068550744817 0  95.475305818115 0.0006176970788661774 0  95.47540449402399 7.500617936779793 0  100.4753125471335 0.0005503827823768263 0  100.4754101804535 7.500550680014592 0  105.4753205893075 0.000483507139127805 0  105.47541681878 7.500483881009206 0  110.4753302050764 0.0004172572873368829 0  110.4754245453541 7.500417734549809 0  115.4753417190405 0.0003518903219020096 0  115.4754335082655 7.500352508242677 0  120.4753555396583 0.0002877669158612032 0  120.4754438608885 7.500288575981289 0  125.4753721852377 0.0002254065899824384 0  125.4754557481185 7.500226470163832 0  130.4753923164722 0.00016558259539869 0  130.4754692803168 7.500166964476888 0  135.4754167717556 0.0001094922769952967 0  135.4754844884688 7.500111206375882 0  140.4754465890505 5.907677001559309e-05 0  140.4755012561472 7.500060929436068 0  145.475482961751 1.764321029277617e-05 0  145.4755192421361 7.500018793513592 0  150.4755269673833 -8.917018473757537e-06 0  150.4755378883963 7.499988949731336 0  160.4755282581476 4.45504889923248e-19 0  165.4754514477052 -8.221660213727285e-05 0  165.4755133981715 7.499908473869461 0  160.4755395592309 7.499976398006955 0  170.4754003251961 -0.0001642175602799864 0  170.4754867918996 7.499831023173579 0  175.4753646674786 -0.0002458824043785686 0  175.4754633457983 7.499751332586056 0  180.4753389365767 -0.0003266219047405688 0  180.4754436855205 7.499671636165468 0  185.4753198790948 -0.0004061832551610145 0  185.4754275430302 7.499592680632538 0  190.4753054848058 -0.0004845412770926009 0  190.4754144138523 7.499514691849719 0  195.4752944594906 -0.000561769253879295 0  195.4754037811795 7.499437696645088 0  200.4752859373451 -0.0006379709187351745 0  200.4753951880264 7.499361646333995 0  205.4752793177579 -0.0007132515838875813 0  205.4753882527502 7.499286467184322 0  210.4752741699831 -0.0007877079527633111 0  210.4753826642447 7.49921208103722 0  215.4752701759249 -0.0008614257637172697 0  215.4753781711746 7.499138413255753 0  220.4752670947778 -0.0009344803251079481 0  220.4753745707665 7.499065395312957 0  225.4752647404784 -0.001006937884123313 0  225.4753716990085 7.498992965197853 0  230.4752629668515 -0.001078857053011438 0  230.4753694226545 7.498921067009518 0  235.4752616575026 -0.001150290050108181 0  235.4753676328943 7.49884965030941 0  240.47526071872 -0.001221283718997906 0  240.4753662404022 7.498778669452292 0  245.4752600743477 -0.001291880358614434 0  245.4753651714688 7.498708082966446 0  250.4752596619783 -0.001362118413477395 0  250.4753643649737 7.498637852992807 0  255.4752594300686 -0.00143203307155063 0  255.4753637700027 7.49856794476947 0  260.4752593357057 -0.001501656811251215 0  260.475363343962 7.49849832614029 0  265.4752593428606 -0.001571019933893967 0  265.4753630510841 7.498428967064172 0  270.4752594210109 -0.001640151114565234 0  270.4753628612453 7.49835983910133 0  275.475259544078 -0.001709078002486102 0  275.4753627490403 7.498290914853652 0  280.4752596896457 -0.001777827899028841 0  280.4753626930789 7.498222167339144 0  285.4752598384875 -0.001846428532308825 0  285.4753626754721 7.498153569289078 0  290.4752599744661 -0.001914908918823935 0  290.4753626814914 7.498085092377272 0  295.4752600849504 -0.001983300223531599 0  295.4753626993703 7.498016706435714 0  300.4752601619845 -0.00205163631900891 0  300.4753627202014 7.497948378795374 0  305.4752602045349 -0.002119953176110956 0  305.4753627378831 7.497880074018636 0  310.4752602222159 -0.00218828459470733 0  310.4753627491395 7.497811754353076 0  5.475476740434067 15.00183254405254 0  0.4754767226498762 15.0018990164028 0  10.47547678792129 15.00176597990772 0  15.47547688196948 15.00169930107652 0  20.47547703666565 15.00163249215496 0  25.47547726555625 15.00156554452776 0  30.47547758281102 15.00149845521041 0  35.47547800378526 15.00143122566998 0  40.47547854530823 15.00136386088211 0  45.47547922587331 15.00129636871467 0  50.47548006581265 15.00122875965102 0  55.47548108748539 15.00116104684221 0  60.47548231548 15.00109324648193 0  65.47548377681586 15.00102537851526 0  70.47548550111441 15.00095746771902 0  75.47548752069709 15.00088954522512 0  80.47548987054478 15.00082165060323 0  85.47549258802479 15.00075383467978 0  90.47549571224371 15.00068616335626 0  95.47549928281968 15.0006187228138 0  100.4755033377755 15.00055162666938 0  105.4755079101334 15.00048502590628 0  110.4755130226597 15.00041912275475 0  115.4755186801037 15.00035419014858 0  120.4755248583366 15.00029059883807 0  125.4755314903342 15.0002288543482 0  130.4755384506209 15.00016964463333 0  135.4755455438721 15.0001138933144 0  140.4755525118053 15.00006279362854 0  145.4755590862916 15.0000177370046 0  150.4755651253597 14.99997985541765 0  165.475560762424 14.99988438227337 0  160.4755671992799 14.99994557991534 0  170.4755515035934 14.9998147920273 0  175.475540846258 14.99974062009636 0  180.4755301238389 14.99966448750461 0  185.4755200980032 14.99958780711103 0  190.475511112679 14.9995112852328 0  195.4755032670645 14.99943525367985 0  200.4754965314055 14.99935985124173 0  205.4754908152618 14.99928511879572 0  210.4754860052757 14.99921104862983 0  215.4754819849404 14.99913760991985 0  220.4754786442066 14.99906476182996 0  225.4754758835511 14.99899246019201 0  230.4754736151443 14.99892066085108 0  235.4754717625785 14.99884932127811 0  240.4754702599453 14.99877840127872 0  245.4754690506806 14.99870786322684 0  250.4754680863875 14.99863767204367 0  255.4754673257352 14.99856779503367 0  260.4754667334764 14.99849820163242 0  265.4754662795905 14.99842886309017 0  270.4754659385527 14.99835975209947 0  275.4754656887101 14.99829084236679 0  280.47546551175 14.99822210812493 0  285.4754653922345 14.99815352358479 0  290.4754653171627 14.99808506232742 0  295.4754652755314 14.99801669663562 0  300.4754652578419 14.99794839672779 0  305.4754652555233 14.99788012969703 0  310.4754652602589 14.99781185739776 0  5.475576280113956 22.50183269701451 0  0.4755762599547204 22.50189904185068 0  10.47557632699435 22.50176620358781 0  15.4755764167265 22.5016995629197 0  20.47557656082077 22.50163277543636 0  25.47557676852868 22.50156584261411 0  30.47557704829613 22.50149876779365 0  35.47557740859396 22.50143155641847 0  40.4755778583451 22.50136421605639 0  45.47557840710052 22.5012967564175 0  50.47557906506082 22.50122918949016 0  55.47557984299027 22.50116152986441 0  60.47558075203885 22.50109379529161 0  65.47558180346213 22.50102600752821 0  70.47558300820708 22.50095819352135 0  75.4755843763155 22.50089038701846 0  80.47558591607377 22.50082263071294 0  85.47558763281783 22.50075497908301 0  90.47558952727837 22.50068750213576 0  95.47559159333071 22.50062029033791 0  100.4755938150069 22.50055346109323 0  105.4755961626555 22.50048716719639 0  110.4755985882412 22.50042160770919 0  115.4756010200315 22.5003570415528 0  120.475603357452 22.50029380353749 0  125.4756054678589 22.50023232101115 0  130.4756071885572 22.50017312568448 0  135.4756083394486 22.50011684731535 0  140.4756087531213 22.50006416006783 0  145.4756083256954 22.50001562415834 0  150.4756070715185 22.49997133170575 0  165.4756121946946 22.49985856357595 0  160.4756085836337 22.499916903587 0  170.4756129987482 22.4997937716456 0  175.475611510529 22.49972443534366 0  180.4756084719995 22.49965230288572 0  185.475604577755 22.49957867637537 0  190.4756003491894 22.49950441104043 0  195.4755961319815 22.49943002987453 0  200.4755921340609 22.49935583628575 0  205.4755884669497 22.49928199631051 0  210.4755851791149 22.49920859253736 0  215.4755822799164 22.49913565782862 0  220.4755797557745 22.49906319592843 0  225.4755775806594 22.49899119391625 0  230.4755757226847 22.49891962969184 0  235.4755741481308 22.49884847645744 0  240.4755728238094 22.49877770538699 0  245.4755717183837 22.49870728719428 0  250.4755708030369 22.49863719302584 0  255.4755700517491 22.49856739493185 0  260.4755694413365 22.49849786606762 0  265.4755689513573 22.49842858071598 0  270.4755685639385 22.49835951418612 0  275.4755682635577 22.49829064262231 0  280.475568036787 22.49822194274436 0  285.4755678719978 22.49815339153363 0  290.4755677590104 22.49808496586938 0  295.4755676886589 22.49801664210197 0  300.4755676522296 22.497948395
[...]
<PointData  Vectors="v"> 
<DataArray  type="Float64"  Name="v"  NumberOfComponents="3" format="ascii">4.3351114028851256e+00 3.1277333959240226e+00 0.0000000000000000e+00  4.5342750895437467e+00 2.5981829180799370e+00 0.0000000000000000e+00  3.8363985629654622e+00 2.2995974184619348e+00 0.0000000000000000e+00  3.6776075973160931e+00 2.8889766075699810e+00 0.0000000000000000e+00  4.7190728840456702e+00 2.4432881075540624e+00 0.0000000000000000e+00  4.0352398275805834e+00 2.1662808923308035e+00 0.0000000000000000e+00  4.7979936016863025e+00 2.3429895960745957e+00 0.0000000000000000e+00  4.2195737847206418e+00 2.2250669299097141e+00 0.0000000000000000e+00  4.7761892090797025e+00 1.8253690488320382e+00 0.0000000000000000e+00  4.2977866904389028e+00 1.8584580192152707e+00 0.0000000000000000e+00  4.7916133046370897e+00 1.5245143108045418e+00 0.0000000000000000e+00  4.2751234762682424e+00 1.5016955386218684e+00 0.0000000000000000e+00  4.7294420741493317e+00 9.8785451287678516e-01 0.0000000000000000e+00  4.2899339015654050e+00 1.0814812369677353e+00 0.0000000000000000e+00  4.6062878754536465e+00 4.0325667859890851e-01 0.0000000000000000e+00  4.2271696044715918e+00 5.8793002248575943e-01 0.0000000000000000e+00  4.7770414943136208e+00 2.1769114631299691e-01 0.0000000000000000e+00  4.1036425730023858e+00 -3.8762928037646520e-02 0.0000000000000000e+00  4.7526135817649706e+00 -2.4496529748956603e-01 0.0000000000000000e+00  4.2746087647059428e+00 -2.0883630301539438e-01 0.0000000000000000e+00  7.2526538683828541e+00 3.0234791390184923e+00 0.0000000000000000e+00  4.2508380938601658e+00 -7.2776309159536201e-01 0.0000000000000000e+00  8.4296210688625877e+00 4.2310207288458317e+00 0.0000000000000000e+00  6.7510989213075900e+00 2.4645124278698343e+00 0.0000000000000000e+00  8.7647791844284377e+00 4.0846119854633232e+00 0.0000000000000000e+00  7.9293167479610087e+00 3.5790955334628212e+00 0.0000000000000000e+00  8.7573000529993745e+00 3.3652261472711751e+00 0.0000000000000000e+00  8.2674264510452904e+00 3.3724931411070180e+00 0.0000000000000000e+00  8.5491993454603143e+00 2.3601171527278857e+00 0.0000000000000000e+00  8.2641113094218603e+00 2.6667193668972926e+00 0.0000000000000000e+00  8.2643689557239703e+00 1.2737478597506400e+00 0.0000000000000000e+00  8.0622941081448456e+00 1.6946797535090712e+00 0.0000000000000000e+00  7.9009106260530615e+00 1.2079192835859980e-01 0.0000000000000000e+00  7.7849927970471109e+00 6.5754102949381765e-01 0.0000000000000000e+00  7.4474428611488310e+00 -1.0214487384792239e+00 0.0000000000000000e+00  7.4306029772457762e+00 -3.5135542378964291e-01 0.0000000000000000e+00  6.8928810502352427e+00 -2.2318025676281574e+00 0.0000000000000000e+00  6.9890541424297181e+00 -1.4115336344322127e+00 0.0000000000000000e+00  6.2254904531207487e+00 -3.4833658077129002e+00 0.0000000000000000e+00  6.4480654610049957e+00 -2.4969717359684149e+00 0.0000000000000000e+00  5.4463211235451965e+00 -4.7924745596125220e+00 0.0000000000000000e+00  5.7972253163113825e+00 -3.6404057774732945e+00 0.0000000000000000e+00  4.5879984739455635e+00 -6.0801466879359731e+00 0.0000000000000000e+00  5.0376439162662283e+00 -4.8125789669334154e+00 0.0000000000000000e+00  3.6906755411833618e+00 -7.4422866405430970e+00 0.0000000000000000e+00  4.2030885935089701e+00 -6.1187061215902121e+00 0.0000000000000000e+00  2.7984054230463511e+00 -8.5001216344029995e+00 0.0000000000000000e+00  3.3312381960032598e+00 -7.1895500039277263e+00 0.0000000000000000e+00  1.9807945786173105e+00 -9.6263118160257655e+00 0.0000000000000000e+00  2.4726359580724284e+00 -8.4274689973281927e+00 0.0000000000000000e+00  1.2697626620261668e+00 -9.9823831218820107e+00 0.0000000000000000e+00  1.6871342443591739e+00 -8.9539557698182026e+00 0.0000000000000000e+00  7.2421642843989675e-01 -1.0372301142249356e+01 0.0000000000000000e+00  1.0220256110526402e+00 -9.5862174266409745e+00 0.0000000000000000e+00  3.3353117615948830e-01 -9.1923584297525878e+00 0.0000000000000000e+00  5.1476606433103089e-01 -8.6575221941781457e+00 0.0000000000000000e+00  1.2315992593464195e-01 -8.1673563329859835e+00 0.0000000000000000e+00  1.8529339895621816e-01 -7.8869370989346752e+00 0.0000000000000000e+00  2.1988882099789012e-02 -3.9697158761855542e+00 0.0000000000000000e+00  1.8236755907198289e-02 -3.8856013177752438e+00 0.0000000000000000e+00  -7.6040797432595651e-10 1.6546878423810143e-11 0.0000000000000000e+00  7.4422273940209500e-04 7.1247880545540518e-04 0.0000000000000000e+00  -5.4818880382538956e-13 -5.3875368158497895e-19 0.0000000000000000e+00  -1.4477581013701502e+00 7.1298751066180577e+00 0.0000000000000000e+00  2.7388939446728190e-02 9.3210146699052476e+00 0.0000000000000000e+00  7.4194926464221113e-04 -7.5353703354834041e-04 0.0000000000000000e+00  2.0014064970091258e-01 1.1843808423716002e+01 0.0000000000000000e+00  -1.4493929906407108e+00 9.4164288129903237e+00 0.0000000000000000e+00  2.0660675636638359e-01 1.1107779888383913e+01 0.0000000000000000e+00  1.6303475836382211e-01 1.1115695367456842e+01 0.0000000000000000e+00  8.1054615292703858e-01 1.1018544580851655e+01 0.0000000000000000e+00  1.3850125251846093e-01 1.0139180991921076e+01 0.0000000000000000e+00  9.9531358463162989e-01 8.8558094554484263e+00 0.0000000000000000e+00  7.1660202066396328e-01 8.5980572592434630e+00 0.0000000000000000e+00  1.2563643390695112e+00 7.2046929335498007e+00 0.0000000000000000e+00  8.7853586730389865e-01 6.8325936209588614e+00 0.0000000000000000e+00  1.4045800453271564e+00 5.3724143285204429e+00 0.0000000000000000e+00  1.1180744292099356e+00 5.1655632398496625e+00 0.0000000000000000e+00  1.5671189796613982e+00 4.0124362530471904e+00 0.0000000000000000e+00  1.2481927681131775e+00 3.7843090559496040e+00 0.0000000000000000e+00  1.6347812624947999e+00 2.9207619353651424e+00 0.0000000000000000e+00  1.3942998395495152e+00 2.8323052731222056e+00 0.0000000000000000e+00  1.7536808914482473e+00 2.3215420757392531e+00 0.0000000000000000e+00  1.4468691026025899e+00 2.1552220197750382e+00 0.0000000000000000e+00  1.9009456902802409e+00 1.9531356792663663e+00 0.0000000000000000e+00  1.5525203682087871e+00 1.7432676251188306e+00 0.0000000000000000e+00  2.0269928368151460e+00 1.7845471022601280e+00 0.0000000000000000e+00  1.6878104068942172e+00 1.6054217615055093e+00 0.0000000000000000e+00  2.1230743448226503e+00 1.7133504443097332e+00 0.0000000000000000e+00  1.8027635275481326e+00 1.5781113430887403e+00 0.0000000000000000e+00  2.1918194913523652e+00 1.6657986838340499e+00 0.0000000000000000e+00  1.8889943625108407e+00 1.5710335052123543e+00 0.0000000000000000e+00  2.2125598433023663e+00 1.6220386134006437e+00 0.0000000000000000e+00  1.9487683892709717e+00 1.5984731336785982e+00 0.0000000000000000e+00  2.2097768484949625e+00 1.5850982151169353e+00 0.0000000000000000e+00  1.9611598822414089e+00 1.5962073162854007e+00 0.0000000000000000e+00  2.1932733501217352e+00 1.5304337011123264e+00 0.0000000000000000e+00  1.9507851229018949e+00 1.5617529019217458e+00 0.0000000000000000e+00  2.1553484750605305e+00 1.4616571577788897e+00 0.0000000000000000e+00  1.9272367460605266e+00 1.5246738126315911e+00 0.0000000000000000e+00  2.1083906936323356e+00 1.3931014964956447e+00 0.0000000000000000e+00  1.8826094777673998e+00 1.4693054996646489e+00 0.0000000000000000e+00  2.0629012362807266e+00 1.2942321148849800e+00 0.0000000000000000e+00  1.8293764534120982e+00 1.3680712900120557e+00 0.0000000000000000e+00  2.0034186145729689e+00 1.2102234543790469e+00 0.0000000000000000e+00  1.7778602115888051e+00 1.3048073670264553e+00 0.0000000000000000e+00  1.9419296770954426e+00 1.0667579364086115e+00 0.0000000000000000e+00  1.7125522449672150e+00 1.1642453957001753e+00 0.0000000000000000e+00  1.8713851005877289e+00 9.7684038795887240e-01 0.0000000000000000e+00  1.6453340626129642e+00 1.0877679460279670e+00 0.0000000000000000e+00  1.7898516973317380e+00 7.2625675310124427e-01 0.0000000000000000e+00  1.5692924362879894e+00 8.5373933004146330e-01 0.0000000000000000e+00  1.6833738628655279e+00 6.7570961497595838e-01 0.0000000000000000e+00  1.4820626339021550e+00 8.4032393847557507e-01 0.0000000000000000e+00  1.5517881118683772e+00 1.9007517257144232e-01 0.0000000000000000e+00  1.3703211903777712e+00 3.9277576148700438e-01 0.0000000000000000e+00  1.3783949438396064e+00 2.9580150198637672e-01 0.0000000000000000e+00  1.2328213787492592e+00 5.6050383336091381e-01 0.0000000000000000e+00  1.1016750365323755e+00 -6.3686391138206455e-01 0.0000000000000000e+00  1.0546031485872007e+00 -2.1598207868438099e-01 0.0000000000000000e+00  6.3449998454067036e-01 -7.9344477029095539e-01 0.0000000000000000e+00  7.7107807843503395e-01 -8.8951831104315857e-02 0.0000000000000000e+00  -4.6784929131950548e-01 -2.8932255426189474e-01 0.0000000000000000e+00  3.0119859769214868e-01 1.3720898786418114e+00 0.0000000000000000e+00  3.1218799238792361e+00 2.0621930459265960e+00 0.0000000000000000e+00  2.9367102625493646e+00 2.6095509119771290e+00 0.0000000000000000e+00  3.2791954048116865e+00 1.8694061424530839e+00 0.0000000000000000e+00  3.4754759184061732e+00 1.9502900458421075e+00 0.0000000000000000e+00  3.6565386209518689e+00 1.7432595768326249e+00 0.0000000000000000e+00  3.7308972829007581e+00 1.5383572119408546e+00 0.0000000000000000e+00  3.7037420002662298e+00 1.0618604166828733e+00 0.0000000000000000e+00  3.7139223780727852e+00 6.8458065409827928e-01 0.0000000000000000e+00  3.6467901967878422e+00 1.4925610019706900e-01 0.0000000000000000e+00  3.5191106442094635e+00 -4.6356871307296410e-01 0.0000000000000000e+00  3.6875289358201604e+00 -6.9167150468442840e-01 0.0000000000000000e+00  3.6617517161996416e+00 -1.2820827699463746e+00 0.0000000000000000e+00  6.1546337994531797e+00 1.8164789157224543e+00 0.0000000000000000e+00  7.3263497710933851e+00 2.8660251410750992e+00 0.0000000000000000e+00  7.6632365806280331e+00 2.6721440868256310e+00 0.0000000000000000e+00  7.6606412864746156e+00 1.9947799112717071e+00 0.0000000000000000e+00  7.4629459389948911e+00 1.0699891568646134e+00 0.0000000000000000e+00  7.1918709289904292e+00 1.7615930743903141e-01 0.0000000000000000e+00  6.8454658991524582e+00 -7.5590849798447446e-01 0.0000000000000000e+00  6.4152025455531261e+00 -1.6940413802782464e+00 0.0000000000000000e+00  5.8889277684105634e+00 -2.6733814483575511e+00 0.0000000000000000e+00  5.2557170595548959e+00 -3.6873709220756203e+00 0.0000000000000000e+00  4.5198528854079223e+00 -4.8826865862869813e+00 0.0000000000000000e+00  3.7140590067274903e+00 -5.9024748332375570e+00 0.0000000000000000e+00  2.8782446004178155e+00 -7.1629053653417181e+00 0.0000000000000000e+00  2.0626768050250393e+00 -7.8092974626661062e+00 0.0000000000000000e+00  1.3324814524751858e+00 -8.6175848201259431e+00 0.0000000000000000e+00  7.2659703035232370e-01 -7.9511382866334710e+00 0.0000000000000000e+00  3.0236730827935654e-01 -7.4228835971226053e+00 0.0000000000000000e+00  4.8347923336596807e-02 -3.7231821413275208e+00 0.0000000000000000e+00  2.5524099154166724e-03 1.3595252808097996e-03 0.0000000000000000e+00  5.5280781122406204e-02 9.1635841901399324e+00 0.0000000000000000e+00  2.5481278524678162e-03 -1.5506897606190554e-03 0.0000000000000000e+00  2.0827096208890766e-01 1.1642396024752696e+01 0.0000000000000000e+00  -1.3178886345794822e+00 8.7378708630091761e+00 0.0000000000000000e+00  2.3569017123707114e-01 1.0202664882112522e+01 0.0000000000000000e+00  1.6940103930828401e-01 7.7546759756470722e+00 0.0000000000000000e+00  7.1054968813049102e-01 6.6051799849910982e+00 0.0000000000000000e+00  8.4522001228911914e-01 4.8242697253754514e+00 0.0000000000000000e+00  1.0584511512615440e+00 3.6014932399651394e+00 0.0000000000000000e+00  1.1678809931469269e+00 2.6243663963859327e+00 0.0000000000000000e+00  1.2957119650841256e+00 2.0868410207909220e+00 0.0000000000000000e+00  1.3320148444299866e+00 1.5936433110381554e+00 0.0000000000000000e+00  1.4233968443481295e+00 1.4099286687232784e+00 0.0000000000000000e+00  1.5463335959573443e+00 1.4130162830932380e+00 0.0000000000000000e+00  1.6499306691173716e+00 1.4477651934513425e+00 0.0000000000000000e+00  1.7263866697190144e+00 1.5139712675563504e+00 0.0000000000000000e+00  1.7777365560118326e+00 1.5824828467885128e+00 0.0000000000000000e+00  1.7825620598439549e+00 1.5814405533474682e+00 0.0000000000000000e+00  1.7655937389094480e+00 1.5635324452210821e+00 0.0000000000000000e+00  1.7362705582126177e+00 1.5396382686237917e+00 0.0000000000000000e+00  1.6863073078644586e+00 1.4509454185478550e+00 0.0000000000000000e+00  1.6282029803074132e+00 1.3848170109577427e+00 0.0000000000000000e+00  1.5721645847228320e+00 1.2649741937921626e+00 0.0000000000000000e+00  1.5024236305575083e+00 1.1911753770637508e+00 0.0000000000000000e+00  1.4309176627207698e+00 9.7043577313059948e-01 0.0000000000000000e+00  1.3505651799760705e+00 9.7368125120963622e-01 0.0000000000000000e+00  1.2590547280617628e+00 5.6324114447282470e-01 0.0000000000000000e+00  1.1428096941899168e+00 7.6902574358220244e-01 0.0000000000000000e+00  1.0010905181786498e+00 5.4682223804777226e-02 0.0000000000000000e+00  8.1809861784534643e-01 3.3803925139020546e-01 0.0000000000000000e+00  5.3052636481323201e-01 2.0806046097561581e+00 0.0000000000000000e+00  2.2537643948839041e+00 1.7861815190002919e+00 0.0000000000000000e+00  2.0810430545924805e+00 2.3479392247905757e+00 0.0000000000000000e+00  2.4359789556867639e+00 1.6367059151220484e+00 0.0000000000000000e+00  2.5878328172099949e+00 1.6600318232026883e+00 0.0000000000000000e+00  2.7774957096569848e+00 1.4771979585979607e+00 0.0000000000000000e+00  2.9499526740499320e+00 1.4333969151804864e+00 0.0000000000000000e+00  3.0141234402587855e+00 1.1097887297730260e+00 0.0000000000000000e+00  2.9759782336145175e+00 6.7723114475667234e-01 0.0000000000000000e+00  2.9743801336179545e+00 2.5767255779505127e-01 0.0000000000000000e+00  2.8957843986928280e+00 -2.6547805880493847e-01 0.0000000000000000e+00  2.7587874728471395e+00 -9.3957515627706845e-01 0.0000000000000000e+00  2.9206720316526167e+00 -1.2388163618153136e+00 0.0000000000000000e+00  2.8842722352504024e+00 -1.9099644653114833e+00 0.0000000000000000e+00  5.3554261157974992e+00 1.1230311124097481e+00 0.0000000000000000e+00  6.5077087781773360e+00 2.1723412929934138e+00 0.0000000000000000e+00  6.8353212024337990e+00 2.0006902113176248e+00 0.0000000000000000e+00  6.8291945077164664e+00 1.3653178665228067e+00 0.0000000000000000e+00  6.6318218997999452e+00 5.7880684261878312e-01 0.0000000000000000e+00  6.3639242933526425e+00 -2.4283228359908265e-01 0.0000000000000000e+00  6.0245452941492212e+00 -1.0575868535527182e+00 0.0000000000000000e+00  5.6045723294275458e+00 -1.8967472198813107e+00 0.0000000000000000e+00  5.0929862166267741e+00 -2.7555536724415837e+00 0.0000000000000000e+00  4.4821345670306192e+00 -3.8009237669386602e+00 0.0000000000000000e+00  3.7754207826812785e+00 -4.7264077140346492e+00 0.0000000000000000e+00  3.0113660390095531e+00 -5.9465657741126874e+00 0.0000000000000000e+00  2.2280034984759047e+00 -6.6411183978372552e+00 0.0000000000000000e+00  1.4859701955072138e+00 -7.5792565107777623e+00 0.0000000000000000e+00  8.4091651904273190e-01 -7.1362443202681378e+00 0.0000000000000000e+00  3.5764356763038024e-01 -6.8579241950867020e+00 0.0000000000000000e+00  5.5453085476212478e-02 -3.5053165132012705e+00 0.0000000000000000e+00  5.3722855946134167e-03 1.9436900935999777e-03 0.0000000000000000e+00  6.4655518930684275e-02 8.9180317861056384e+00 0.0000000000000000e+00  5.3678946551674418e-03 -2.2569741556303291e-03 0.0000000000000000e+00  3.4735699858337676e-01 1.1368080085027684e+01 0.0000000000000000e+00  5.0454523464904222e-01 1.1090852360230091e+01 0.0000000000000000e+00  -1.1096611296941308e+00 7.9467648097716905e+00 0.0000000000000000e+00  3.5009110482730793e-01 7.9026385732527755e+00 0.0000000000000000e+00  2.1832237359273121e-01 5.8383914921555844e+00 0.0000000000000000e+00  7.0692400813934475e-01 4.6527447763381495e+00 0.0000000000000000e+00  8.0093802886612342e-01 3.3104533233573448e+00 0.0000000000000000e+00  9.7894697761650495e-01 2.4831571764468752e+00 0.0000000000000000e+00  1.0601164966636325e+00 1.9152293931914917e+00 0.0000000000000000e+00  1.1627336039025729e+00 1.5563699635980863e+00 0.0000000000000000e+00  1.1774664639382901e+00 1.2884654673594820e+00 0.0000000000000000e+00  1.2498643695037381e+00 1.2420687207817009e+00 0.0000000000000000e+00  1.3557998708668730e+00 1.3044180606055766e+00 0.0000000000000000e+00  1.4444730992661834e+00 1.4097918090743276e+00 0.0000000000000000e+00  1.5082602810619679e+00 1.5143644589685394e+00 0.0000000000000000e+00  1.5487176086823642e+00 1.5818366293135475e+00 0.0000000000000000e+00  1.5443469811405235e+00 1.5956412924486265e+00 0.0000000000000000e+00  1.5196235006900538e+00 1.5893024548499104e+00 0.0000000000000000e+00  1.4835807337944258e+00 1.5309599414986190e+00 0.0000000000000000e+00  1.4276893626296185e+00 1.4765978436338045e+00 0.0000000000000000e+00  1.3642655545323745e+00 1.3533583365779316e+00 0.0000000000000000e+00  1.3031487950169147e+00 1.2999157709413349e+00 0.0000000000000000e+00  1.2285044145308393e+00 1.0819445544817476e+00 0.0000000000000000e+00  1.1519848871321337e+00 1.0982806280835951e+00 0.0000000000000000e+00  1.0666451236086525e+00 7.0507062153095890e-01 0.0000000000000000e+00  9.6967550697704674e-01 9.4741168787022678e-01 0.0000000000000000e+00  8.4837791016718733e-01 2.7248305257759026e-01 0.0000000000000000e+00  7.0049371864957966e-01 6.1586791525408535e-01 0.0000000000000000e+00  5.1358368146773592e-01 2.5176884053811501e+00 0.0000000000000000e+00  1.6173236503167259e+00 1.5295049841673578e+00 0.0000000000000000e+00  1.4479198389146914e+00 2.0903693109745087e+00 0.0000000000000000e+00  1.7861359526663891e+00 1.3679186364583951e+00 0.0000000000000000e+00  1.9609166727222758e+00 1.4386852904798761e+00 0.0000000000000000e+00  2.1031329525923064e+00 1.2008284612199374e+00 0.0000000000000000e+00  2.2804485257083829e+00 1.1846059033691176e+00 0.0000000000000000e+00  2.4381691703747999e+00 1.0253624531790984e+00 0.0000000000000000e+00  2.4851326708944246e+00 7.4740041285550041e-01 0.0000000000000000e+00  2.4281088275438409e+00 2.7359969260447325e-01 0.0000000000000000e+00  2.4073813074715438e+00 -1.3444660746242337e-01 0.0000000000000000e+00  2.3113115703063563e+00 -7.2384190496174461e-01 0.0000000000000000e+00  2.1600138156805540e+00 -1.4729102532153808e+00 0.0000000000000000e+00  2.3090469489678145e+00 -1.8417425388438211e+00 0.0000000000000000e+00  2.2487595714898148e+00 -2.5568537926655721e+00 0.0000000000000000e+00  4.6792222732779756e+00 4.7110418726730691e-01 0.0000000000000000e+00  5.7970080907072754e+00 1.5241236592843099e+00 0.0000000000000000e+00  6.1047168003967700e+00 1.3843150659146695e+00 0.0000000000000000e+00  6.0853155735714743e+00 8.8037953225535426e-01 0.0000000000000000e+00  5.8800843329002621e+00 1.6365448746554684e-01 0.0000000000000000e+00  5.6058570736174378e+00 -5.4659809834212936e-01 0.0000000000000000e+00  5.2625689976474694e+00 -1.2663447081931707e+00 0.0000000000000000e+00  4.8419712041507035e+00 -1.9911157324478357e+00 0.0000000000000000e+00  4.3345693814797501e+00 -2.8918614767996904e+00 0.0000000000000000e+00  3.7342569760682123e+00 -3.6829419836161352e+00 0.0000000000000000e+00  3.0515492562552740e+00 -4.8223679624134661e+00 0.0000000000000000e+00  2.3229670397689599e+00 -5.5094425734549848e+00 0.0000000000000000e+00  1.6012854180583103e+00 -6.5132693028203263e+00 0.0000000000000000e+00  9.3739561545018080e-01 -6.2606763413331672e+00 0.0000000000000000e+00  4.1988933840039894e-01 -6.2071063059021583e+00 0.0000000000000000e+00  7.3166645399002750e-02 -3.2389102913116679e+00 0.0000000000000000e+00  9.0929367732219164e-03 2.4626051787745877e-03 0.0000000000000000e+00  7.9498383748801096e-02 8.6359719940642883e+00 0.0000000000000000e+00  9.0884167212680455e-03 -2.8796382942247673e-03 0.0000000000000000e+00  3.9965968917284855e-01 1.0838823776545206e+01 0.0000000000000000e+00  7.6986656671468257e-01 1.0839112173227369e+01 0.0000000000000000