<?xml version="1.0"?>
<VTKFile type="UnstructuredGrid"  version="0.1"  >
<UnstructuredGrid>
<Piece  NumberOfPoints="1933" NumberOfCells="3640">
<Points>
<DataArray  type="Float64"  NumberOfComponents="3"  format="ascii">0.0003012422906075729 -0.002891755499645923 0  5.000301299437565 -0.002816588508785927 0  5.000188525137047 7.497183542230991 0  0.0001884504237953943 7.49710834795534 0  10.00030139819436 -0.00274151666830487 0  10.00018864624523 7.497258616193522 0  15.00030158930417 -0.002666524419377545 0  15.00018883091345 7.497333603473461 0  20.0003019135444 -0.002591565022145235 0  20.00018909223668 7.49740855678268 0  25.00030239988564 -0.002516576344022034 0  25.00018943923645 7.497483540113046 0  30.00030306696475 -0.002441487985102064 0  30.00018987630028 7.497558624266463 0  35.00030392505874 -0.002366224213376467 0  35.00019040275848 7.497633884871779 0  40.00030497769852 -0.002290704704782161 0  40.00019101255617 7.497709401993775 0  45.0003062227187 -0.002214844046233117 0  45.0001916938686 7.49778526075023 0  50.00030765274031 -0.002138550463104493 0  50.00019242851932 7.497861552613204 0  55.00030925512348 -0.002061723970241163 0  55.00019319108871 7.497938377246967 0  60.00031101140233 -0.001984253992507131 0  60.0001939476035 7.498015844853163 0  65.0003128961724 -0.001906016397403708 0  65.00019465367879 7.498094079080455 0  70.00031487532885 -0.001826869795395018 0  70.00019525194993 7.498173220630555 0  75.00031690347295 -0.001746650871395033 0  75.00019566856358 7.498253431768887 0  80.0003189201671 -0.001665168394355435 0  80.00019580840508 7.49833490203883 0  85.00032084451819 -0.001582195389998021 0  85.00019554861575 7.498417855590908 0  90.00032256722588 -0.00149745872703151 0  90.00019472977414 7.498502560678581 0  95.00032393866336 -0.001410625022492681 0  95.00019314390475 7.498589342033537 0  100.0003247505426 -0.001321281268697079 0  100.0001905182553 7.498678596979698 0  105.000324706932 -0.001228907870358213 0  105.000186493625 7.498770816169355 0  110.0003233771253 -0.001132840832492336 0  110.0001805962391 7.498866609443261 0  115.0003201169101 -0.001032218772627198 0  115.0001722033589 7.498966735862027 0  120.0003139337241 -0.0009259098150345227 0  120.0001605065174 7.499072132897043 0  125.0003032506558 -0.0008124151877357381 0  125.0001444858387 7.499183929760632 0  130.0002854859192 -0.000689756384225481 0  130.0001229315215 7.499303406876349 0  135.0002562928346 -0.0005553891054198208 0  135.0000945995171 7.499431813991549 0  140.0002081704085 -0.00040630881205705 0  140.0000586996705 7.499569862871247 0  145.0001278904788 -0.000239936931286362 0  145.0000161562411 7.499716568689426 0  149.9999916005726 -5.802718916439441e-05 0  149.9999726328565 7.499867182135253 0  159.9999999999986 1.029585132577887e-18 0  164.9999806891859 -8.169772734893785e-05 0  164.999998463687 7.499898302818143 0  159.9999951652024 7.499953962991617 0  169.9999909916651 -0.0001228744622683099 0  170.0000013923464 7.499867443256225 0  175.0000131449202 -0.0001359279849210133 0  175.0000073100443 7.499859154640065 0  180.0000390118862 -0.0001286710498638047 0  180.0000159937407 7.499868794296597 0  185.0000648743041 -0.0001065137722286682 0  185.0000264605672 7.499892191010586 0  190.0000891156277 -7.329428395677921e-05 0  190.0000377755412 7.499926069529831 0  195.0001111260971 -3.176312320725659e-05 0  195.0000492391675 7.499967956155666 0  200.0001307717795 1.608825572855397e-05 0  200.0000603844123 7.500016001089794 0  205.0001481348242 6.879982619533841e-05 0  205.0000709254133 7.50006881844962 0  210.000163386607 0.0001252859536637703 0  210.0000807042436 7.500125362067995 0  215.0001767265416 0.000184727397433846 0  215.000089648326 7.500184834049181 0  220.0001883534257 0.000246496803597733 0  220.0000977396818 7.500246618779566 0  225.0001984528849 0.0003101068656458306 0  225.0001049938648 7.500310235531951 0  230.0002071927271 0.0003751738150524833 0  230.0001114460021 7.500375304303677 0  235.0002147221198 0.0004413913389271027 0  235.0001171417845 7.500441520991619 0  240.0002211725556 0.0005085116646227394 0  240.0001221317953 7.500508639161508 0  245.0002266596058 0.0005763316401195871 0  245.0001264680685 7.500576456509392 0  250.0002312849721 0.0006446823572554499 0  250.000130202118 7.500644804702756 0  255.0002351386285 0.00071342134145569 0  255.0001333839437 7.500713541699465 0  260.0002383009565 0.0007824266538969289 0  260.0001360616735 7.500782545929369 0  265.000240844881 0.0008515924783652653 0  265.0001382816309 7.500851711929843 0  270.0002428380033 0.0009208259355594783 0  270.0001400886712 7.500920947183206 0  275.0002443447863 0.0009900450117548004 0  275.0001415266664 7.500990170034089 0  280.0002454288016 0.001059177631931914 0  280.0001426390476 7.501059308686082 0  285.0002461550229 0.001128162075138862 0  285.0001434692965 7.501128301404647 0  290.0002465920098 0.001196949151865094 0  290.0001440612709 7.501197098195857 0  295.0002468136135 0.001265506871632708 0  295.0001444592863 7.501265664390155 0  300.0002468992341 0.001333828735141835 0  300.0001447079387 7.501333986719681 0  305.0002469305728 0.001401947150654736 0  305.0001448520763 7.501402082608738 0  310.0002469803175 0.001469952879182093 0  310.0001449383468 7.501470013647408 0  5.00007554047615 14.99718381169772 0  7.546794983326333e-05 14.99710859658239 0  10.00007563456181 14.99725886069256 0  15.00007575876286 14.9973338114415 0  20.00007591433678 14.99740872914522 0  25.00007609861632 14.99748368126549 0  30.00007630569794 14.99755873854012 0  35.00007652612275 14.99763397526471 0  40.00007674620132 14.99770946977328 0  45.00007694718357 14.99778530532702 0  50.00007710429448 14.99786157142303 0  55.0000771855902 14.99793836550778 0  60.00007715056309 14.99801579510593 0  65.00007694841904 14.99809398041001 0  70.00007651594194 14.99817305741291 0  75.00007577487062 14.99825318169744 0  80.00007462872402 14.99833453302058 0  85.00007295906785 14.99841732083174 0  90.00007062132822 14.9985017908201 0  95.00006744051468 14.99858823243344 0  100.0000632076893 14.99867698693858 0  105.000057678957 14.99876845477075 0  110.0000505803818 14.99886309921681 0  115.0000416250996 14.99896144009894 0  120.0000305535116 14.99906402465895 0  125.000017214375 14.99917135092654 0  130.0000017134159 14.99928369789962 0  134.9999846631477 14.99940078240779 0  139.9999675597815 14.99952111132621 0  144.9999532521414 14.999640829955 0  149.9999462468019 14.99975174949505 0  164.9999792956377 14.99984270801277 0  159.9999734703231 14.9998546380686 0  169.9999801239694 14.99983746634483 0  174.9999797863071 14.99984327491628 0  179.9999801100323 14.99986055488168 0  184.9999816582803 14.99988807943241 0  189.9999843943678 14.99992418456625 0  194.999988055905 14.99996726627878 0  199.9999923350741 15.00001594412533 0  204.9999969542231 15.00006908668875 0  210.0000016901586 15.00012578670469 0  215.0000063755269 15.00018532271557 0  220.0000108913817 15.00024712154576 0  225.0000151575079 15.00031072624485 0  230.0000191232629 15.00037577025237 0  235.0000227599151 15.00044195713499 0  240.0000260546113 15.00050904488399 0  245.0000290058104 15.0005768337958 0  250.0000316199229 15.00064515712175 0  255.0000339088785 15.00071387385158 0  260.0000358884074 15.00078286315909 0  265.000037576828 15.00085202017089 0  270.0000389942105 15.00092125283041 0  275.0000401617889 15.00099047971921 0  280.0000411015386 15.00105962877178 0  285.0000418358979 15.00112863687737 0  290.0000423876263 15.00119745038916 0  295.0000427799924 15.00126602652602 0  300.0000430376252 15.00133433549039 0  305.0000431888153 15.00140236270094 0  310.0000432706598 15.00147010959307 0  4.999962503376216 22.4971842792513 0  -3.756319607411962e-05 22.4971091255933 0  9.999962568733135 22.4972592483494 0  14.99996263198731 22.4973341162176 0  19.99996268804748 22.49740895592209 0  24.99996272866546 22.49748383698409 0  29.99996274293823 22.49755882894383 0  34.99996271719849 22.49763400329251 0  39.99996263453253 22.49770943477437 0  44.99996247410393 22.49778520255892 0  49.99996221037495 22.49786139150746 0  54.99996181226114 22.49793809362833 0  59.99996124223463 22.49801540976275 0  64.9999604553951 22.49809345152186 0  69.99995939855394 22.49817234347935 0  74.99995800942979 22.49825222559851 0  79.99995621614291 22.49833325581615 0  84.99995393733738 22.49841561259766 0  89.99995108349241 22.49849949707031 0  94.99994756033691 22.49858513397006 0  99.99994327581133 22.49867276997805 0  104.9999381527782 22.49876266689663 0  109.9999321506857 22.49885508523067 0  114.9999253005347 22.49895025071677 0  119.9999177583996 22.49904829174053 0  124.9999098823702 22.49914912919134 0  129.9999023337762 22.49925229297895 0  134.9998961913821 22.49935663530969 0  139.9998930391684 22.4994599227377 0  144.9998949344226 22.4995583520038 0  149.9999040809341 22.49964624582324 0  164.9999326808197 22.49977878464788 0  159.9999277071533 22.49976051821466 0  169.9999331441628 22.49979648137786 0  174.9999311103077 22.49981803655551 0  179.9999282193892 22.49984552422524 0  184.9999254858901 22.49987945760093 0  189.999923406222 22.49991950804072 0  194.9999221413099 22.49996498254391 0  199.9999216659527 22.50001508945962 0  204.9999218674682 22.50006906785009 0  209.9999226035522 22.50012624052125 0  214.9999237329555 22.5001860281076 0  219.9999251297614 22.50024794510938 0  224.9999266884744 22.50031158877927 0  229.9999283243393 22.50037662619389 0  234.999929971454 22.50044278190485 0  239.9999315800631 22.50050982708988 0  244.9999331137509 22.50057757041931 0  249.9999345468595 22.50064585054913 0  254.9999358622612 22.50071453004249 0  259.9999370494865 22.50078349050404 0  264.9999381031968 22.50085262873272 0  269.9999390219364 22.50092185373136 0  274.9999398071415 22.50099108444284 0  279.9999404623765 22.50106024809989 0  284.9999409928276 22.5011292790667 0  289.9999414051323 22.50119811799588 0  294.9999417077384 22.50126671098483 0  299.
[...]
<PointData  Vectors="v"> 
<DataArray  type="Float64"  Name="v"  NumberOfComponents="3" format="ascii">-1.5831058822616177e+00 5.7323822349469378e+00 0.0000000000000000e+00  -1.1486244534351775e+00 5.5755334232454059e+00 0.0000000000000000e+00  -8.4785019346337109e-01 4.9239857039377313e+00 0.0000000000000000e+00  -1.1797912491942326e+00 5.2351077499605667e+00 0.0000000000000000e+00  -5.6841191223925558e-01 6.2523747938193441e+00 0.0000000000000000e+00  -4.1359723984503571e-01 5.3829132669074058e+00 0.0000000000000000e+00  4.5807549719927790e-03 7.3357758405601450e+00 0.0000000000000000e+00  1.6565674650943757e-01 6.4775403866080596e+00 0.0000000000000000e+00  5.6220061093230733e-01 7.9690953986436384e+00 0.0000000000000000e+00  7.3709684559367006e-01 7.1347268283236120e+00 0.0000000000000000e+00  1.2344728386768973e+00 9.0291563193543674e+00 0.0000000000000000e+00  1.2924681914668767e+00 8.0235512464269600e+00 0.0000000000000000e+00  1.8124532703942349e+00 9.7156508802454606e+00 0.0000000000000000e+00  1.9614178899314976e+00 8.8520730774491625e+00 0.0000000000000000e+00  1.9676118822966369e+00 9.8133057442105489e+00 0.0000000000000000e+00  2.5352385259977517e+00 9.5850095099325703e+00 0.0000000000000000e+00  2.9464089041892376e+00 1.1024537058321666e+01 0.0000000000000000e+00  2.6853505952260401e+00 9.5616297437759155e+00 0.0000000000000000e+00  -1.4317912956266030e-01 6.1476969987751557e+00 0.0000000000000000e+00  3.6577974025150581e+00 1.0788268830195490e+01 0.0000000000000000e+00  9.4307545335642722e+00 2.0008476912823355e+01 0.0000000000000000e+00  5.6085035368754632e-01 5.6542769619656683e+00 0.0000000000000000e+00  8.3840052173534687e+00 1.7488886180405459e+01 0.0000000000000000e+00  1.0127195681395390e+01 1.9066967109395325e+01 0.0000000000000000e+00  8.2543281517188749e+00 1.6260399455993415e+01 0.0000000000000000e+00  9.0711421543483866e+00 1.6464882542153628e+01 0.0000000000000000e+00  8.7902553715234308e+00 1.6038301832527154e+01 0.0000000000000000e+00  8.9298143449731455e+00 1.5246402903610603e+01 0.0000000000000000e+00  9.8591786946855233e+00 1.6626989344303500e+01 0.0000000000000000e+00  9.4519732388190540e+00 1.5037920016282200e+01 0.0000000000000000e+00  1.1285521925276571e+01 1.7690006271280993e+01 0.0000000000000000e+00  1.0503973503750631e+01 1.5566308917690344e+01 0.0000000000000000e+00  1.2976822496442413e+01 1.9011264203689940e+01 0.0000000000000000e+00  1.1911146955229791e+01 1.6492869275888101e+01 0.0000000000000000e+00  1.4849531108480498e+01 2.0604187061839749e+01 0.0000000000000000e+00  1.3580995056376423e+01 1.7815961009921860e+01 0.0000000000000000e+00  1.6820044047701391e+01 2.2091196712480851e+01 0.0000000000000000e+00  1.5428635602162597e+01 1.9157992292305284e+01 0.0000000000000000e+00  1.8818897695199471e+01 2.3489061020922485e+01 0.0000000000000000e+00  1.7371907707066981e+01 2.0516693389322636e+01 0.0000000000000000e+00  2.0781872498719178e+01 2.4646218518215825e+01 0.0000000000000000e+00  1.9340347495187807e+01 2.1729698865321350e+01 0.0000000000000000e+00  2.2633376999936786e+01 2.5477282438823469e+01 0.0000000000000000e+00  2.1269782157254301e+01 2.2730917794072294e+01 0.0000000000000000e+00  2.4312847186797903e+01 2.5590304564499949e+01 0.0000000000000000e+00  2.3083749003756466e+01 2.3104025536032974e+01 0.0000000000000000e+00  2.5779417043376391e+01 2.5525302742176784e+01 0.0000000000000000e+00  2.4724632426418239e+01 2.3363229280773403e+01 0.0000000000000000e+00  2.6984412773409435e+01 2.4074539423128460e+01 0.0000000000000000e+00  2.6145145065210059e+01 2.2303532933929660e+01 0.0000000000000000e+00  2.7930067978768811e+01 2.2624628270770831e+01 0.0000000000000000e+00  2.7306789045017418e+01 2.1252139744827300e+01 0.0000000000000000e+00  2.8598767927291206e+01 1.9186754740019875e+01 0.0000000000000000e+00  2.8196784691254738e+01 1.8222492922091998e+01 0.0000000000000000e+00  2.9041090672136818e+01 1.5798190285658942e+01 0.0000000000000000e+00  2.8819106587141725e+01 1.5190895097091158e+01 0.0000000000000000e+00  2.9266156382676471e+01 1.0280032268930322e+01 0.0000000000000000e+00  2.9194244901334898e+01 9.9809608845066276e+00 0.0000000000000000e+00  2.9368170321664749e+01 3.7307656871381356e+00 0.0000000000000000e+00  2.9372091454803769e+01 3.6467319965399736e+00 0.0000000000000000e+00  2.9389264412664716e+01 1.2410973124853978e-05 0.0000000000000000e+00  2.9389462127712875e+01 2.2004775002504309e-04 0.0000000000000000e+00  2.9389262614600327e+01 -1.2084906458317292e-19 0.0000000000000000e+00  2.1020186906534995e+01 -1.1529252116992099e+01 0.0000000000000000e+00  2.9366938187617638e+01 9.8663655362549074e-01 0.0000000000000000e+00  2.9389455238375970e+01 -1.8667991518750551e-04 0.0000000000000000e+00  2.0626676320873838e+01 -2.0689021194808763e+01 0.0000000000000000e+00  2.1049263088005290e+01 -2.0166200189820334e+01 0.0000000000000000e+00  1.7603321006143865e+01 -2.7674636960614652e+01 0.0000000000000000e+00  2.0715229237834357e+01 -2.3180983013067618e+01 0.0000000000000000e+00  1.6453388479971668e+01 -2.9092663738100068e+01 0.0000000000000000e+00  1.7749298077104861e+01 -2.7418927719726856e+01 0.0000000000000000e+00  1.4659432386004772e+01 -3.0533116966355067e+01 0.0000000000000000e+00  1.6652894301950347e+01 -2.7887061914077467e+01 0.0000000000000000e+00  1.3286744462652843e+01 -2.9725058720493379e+01 0.0000000000000000e+00  1.4910039056488712e+01 -2.7711769536590740e+01 0.0000000000000000e+00  1.1900602936868870e+01 -2.8671779566970216e+01 0.0000000000000000e+00  1.3587926335136519e+01 -2.6634573125970661e+01 0.0000000000000000e+00  1.0684770959224398e+01 -2.6779403956623057e+01 0.0000000000000000e+00  1.2249433066022116e+01 -2.4998330719020718e+01 0.0000000000000000e+00  9.3153517652596722e+00 -2.4937362295098648e+01 0.0000000000000000e+00  1.1079846042346302e+01 -2.2923581482245613e+01 0.0000000000000000e+00  8.2863935122725270e+00 -2.2726396817467336e+01 0.0000000000000000e+00  9.7556636969760842e+00 -2.1222481085005384e+01 0.0000000000000000e+00  7.4119462871364084e+00 -2.0644601212307673e+01 0.0000000000000000e+00  8.7703397650603474e+00 -1.9371623821123990e+01 0.0000000000000000e+00  6.4820767374337853e+00 -1.8848322789255398e+01 0.0000000000000000e+00  7.9383619549041784e+00 -1.7491264757667128e+01 0.0000000000000000e+00  5.6158279216228060e+00 -1.7205909254773026e+01 0.0000000000000000e+00  7.0502147292266839e+00 -1.5943242271935501e+01 0.0000000000000000e+00  4.8154439031966536e+00 -1.5761524740571431e+01 0.0000000000000000e+00  6.2245057524411900e+00 -1.4597131693043254e+01 0.0000000000000000e+00  4.0571139482291834e+00 -1.4439768221657472e+01 0.0000000000000000e+00  5.4637492547951378e+00 -1.3337607855938645e+01 0.0000000000000000e+00  3.3805858754305058e+00 -1.3176818876527360e+01 0.0000000000000000e+00  4.7443564837292129e+00 -1.2196650162118519e+01 0.0000000000000000e+00  2.7875477864073086e+00 -1.2005220144499328e+01 0.0000000000000000e+00  4.1059093215198406e+00 -1.1149770681284357e+01 0.0000000000000000e+00  2.2452613619398334e+00 -1.0874703679929194e+01 0.0000000000000000e+00  3.5502013960424859e+00 -1.0094819620014871e+01 0.0000000000000000e+00  1.7713933318132951e+00 -9.7701397476479404e+00 0.0000000000000000e+00  3.0447523791100441e+00 -9.0922789890029829e+00 0.0000000000000000e+00  1.3684678586234811e+00 -8.7118369128015054e+00 0.0000000000000000e+00  2.6069926839991657e+00 -8.1401018405900771e+00 0.0000000000000000e+00  1.0099818310828208e+00 -7.6563594434794089e+00 0.0000000000000000e+00  2.2397949510675592e+00 -7.1506825606897291e+00 0.0000000000000000e+00  7.0693827549044896e-01 -6.6332547312816592e+00 0.0000000000000000e+00  1.9163508425198765e+00 -6.2106263202948000e+00 0.0000000000000000e+00  4.6326322930789948e-01 -5.6252466311954867e+00 0.0000000000000000e+00  1.6483421040283921e+00 -5.2908884422823288e+00 0.0000000000000000e+00  2.6082486399522431e-01 -4.6559151659608817e+00 0.0000000000000000e+00  1.4385145342627532e+00 -4.3839278460958084e+00 0.0000000000000000e+00  1.0827983283833885e-01 -3.6864684569634494e+00 0.0000000000000000e+00  1.2709681975671543e+00 -3.4875780702823636e+00 0.0000000000000000e+00  -1.5360337588856180e-03 -2.8489898679636538e+00 0.0000000000000000e+00  1.1506369811731814e+00 -2.7164395689216820e+00 0.0000000000000000e+00  -7.0784399857186167e-02 -1.9648439256149086e+00 0.0000000000000000e+00  1.0766068014372967e+00 -1.8887470393344805e+00 0.0000000000000000e+00  -1.3770842687754159e-01 -1.3318695563968013e+00 0.0000000000000000e+00  1.0364049610958450e+00 -1.2660036858264181e+00 0.0000000000000000e+00  -2.0985407358031971e-01 -7.1142721158724787e-01 0.0000000000000000e+00  1.0098755573204543e+00 -6.2532905113460169e-01 0.0000000000000000e+00  -3.7201445750911238e-01 1.7148047915100420e-01 0.0000000000000000e+00  9.5388299285386058e-01 3.6846625310704401e-01 0.0000000000000000e+00  -1.2877504080427907e-01 4.4252352991049353e+00 0.0000000000000000e+00  -4.8827754261583195e-01 4.6978650673723159e+00 0.0000000000000000e+00  2.0440070803009097e-01 4.7307580939210023e+00 0.0000000000000000e+00  6.3970907233611718e-01 5.6084372560235822e+00 0.0000000000000000e+00  1.2192343539692301e+00 6.2779014277447045e+00 0.0000000000000000e+00  1.7898781275678217e+00 7.1912573267836502e+00 0.0000000000000000e+00  2.3433940695091038e+00 7.8504878166914285e+00 0.0000000000000000e+00  3.0089370113955418e+00 8.7272491586545744e+00 0.0000000000000000e+00  3.5774278239067652e+00 9.3400472983199450e+00 0.0000000000000000e+00  3.7206066729833713e+00 9.3348420567101620e+00 0.0000000000000000e+00  4.6836334235496686e+00 1.0306754384127608e+01 0.0000000000000000e+00  1.5761813817715615e+00 4.7210053072408638e+00 0.0000000000000000e+00  1.1136364640703157e+01 1.8052581841910239e+01 0.0000000000000000e+00  1.0073178074241971e+01 1.5465863818181717e+01 0.0000000000000000e+00  9.9189896540764959e+00 1.4263399025370928e+01 0.0000000000000000e+00  1.0424429852235287e+01 1.4001342601069858e+01 0.0000000000000000e+00  1.1453987492967814e+01 1.4397723140453236e+01 0.0000000000000000e+00  1.2833890911650441e+01 1.5328591520986034e+01 0.0000000000000000e+00  1.4472362346955142e+01 1.6407994219273377e+01 0.0000000000000000e+00  1.6283008305654278e+01 1.7626469587102310e+01 0.0000000000000000e+00  1.8183735726015453e+01 1.8803190642509474e+01 0.0000000000000000e+00  2.0105196963724680e+01 1.9868692181400625e+01 0.0000000000000000e+00  2.1980354866302822e+01 2.0417224507353012e+01 0.0000000000000000e+00  2.3734283949477774e+01 2.0940871548110319e+01 0.0000000000000000e+00  2.5308017196187070e+01 2.0213940672741000e+01 0.0000000000000000e+00  2.6655328214847263e+01 1.9560535444036514e+01 0.0000000000000000e+00  2.7733162732176080e+01 1.6931791062747216e+01 0.0000000000000000e+00  2.8538719960481345e+01 1.4325447452519123e+01 0.0000000000000000e+00  2.9056799757583889e+01 9.4583785768879842e+00 0.0000000000000000e+00  2.9341388663711847e+01 3.4747582343791676e+00 0.0000000000000000e+00  2.9389936830054793e+01 4.1939283275664000e-04 0.0000000000000000e+00  2.9328732202631727e+01 1.1463333283588499e+00 0.0000000000000000e+00  2.9389927435135096e+01 -3.6698220233005805e-04 0.0000000000000000e+00  2.9172612565682808e+01 -7.7090135821530090e+00 0.0000000000000000e+00  2.0919694143742472e+01 -2.2732107422033362e+01 0.0000000000000000e+00  2.0666501058266519e+01 -2.3012006821192013e+01 0.0000000000000000e+00  1.7768859492539093e+01 -2.6283534485588248e+01 0.0000000000000000e+00  1.6738290042536139e+01 -2.5130063523321880e+01 0.0000000000000000e+00  1.5051818473137979e+01 -2.4686964369828381e+01 0.0000000000000000e+00  1.3785354171514504e+01 -2.3020576385280670e+01 0.0000000000000000e+00  1.2496775303160812e+01 -2.1197690605503009e+01 0.0000000000000000e+00  1.1374318643691785e+01 -1.9263884467015345e+01 0.0000000000000000e+00  1.0095098086784526e+01 -1.7919744028490314e+01 0.0000000000000000e+00  9.1527039994726724e+00 -1.6267856746625338e+01 0.0000000000000000e+00  8.3616487313247667e+00 -1.4635501879275861e+01 0.0000000000000000e+00  7.5134608260038185e+00 -1.3381856596176737e+01 0.0000000000000000e+00  6.7261671649128081e+00 -1.2218756788393975e+01 0.0000000000000000e+00  6.0023751252127227e+00 -1.1139480883220159e+01 0.0000000000000000e+00  5.3189322962022194e+00 -1.0213163496546422e+01 0.0000000000000000e+00  4.7152211699737654e+00 -9.2815427789273794e+00 0.0000000000000000e+00  4.1930946294381659e+00 -8.3539895463016549e+00 0.0000000000000000e+00  3.7203697371656874e+00 -7.5027950252266029e+00 0.0000000000000000e+00  3.3144531331365035e+00 -6.6185180799753258e+00 0.0000000000000000e+00  2.9781793611605258e+00 -5.7440065379341441e+00 0.0000000000000000e+00  2.6851314550313843e+00 -4.9065901316001712e+00 0.0000000000000000e+00  2.4466373825690702e+00 -4.0871307755735486e+00 0.0000000000000000e+00  2.2660173459914161e+00 -3.2528199402715106e+00 0.0000000000000000e+00  2.1265540983269897e+00 -2.5540946751916414e+00 0.0000000000000000e+00  2.0347837524614905e+00 -1.7919767748794289e+00 0.0000000000000000e+00  1.9867907308711197e+00 -1.2257330859614699e+00 0.0000000000000000e+00  1.9751820025632805e+00 -5.9569483262726164e-01 0.0000000000000000e+00  1.9726422210626904e+00 4.3071674036808283e-01 0.0000000000000000e+00  1.1208710745305226e+00 3.8840964476164479e+00 0.0000000000000000e+00  7.9941579309311039e-01 4.2187353498857245e+00 0.0000000000000000e+00  1.4834179725805603e+00 4.2281133522821204e+00 0.0000000000000000e+00  1.8212408928019148e+00 4.9532273301477616e+00 0.0000000000000000e+00  2.2601091475035533e+00 5.4069629093531972e+00 0.0000000000000000e+00  2.8424160605271296e+00 6.3347152823328736e+00 0.0000000000000000e+00  3.4143861784503695e+00 7.0214506772823126e+00 0.0000000000000000e+00  3.9666275736169991e+00 7.7317792419607674e+00 0.0000000000000000e+00  4.6283717558399395e+00 8.4926017777421077e+00 0.0000000000000000e+00  5.1897501125246217e+00 9.1284681939398613e+00 0.0000000000000000e+00  5.3213137484511748e+00 8.8733097285446600e+00 0.0000000000000000e+00  6.2692177824242457e+00 9.3938325638916247e+00 0.0000000000000000e+00  3.1504697777008737e+00 3.7159489234694218e+00 0.0000000000000000e+00  1.2709684274531769e+01 1.7062772344746129e+01 0.0000000000000000e+00  1.1644472628066307e+01 1.4505410496184146e+01 0.0000000000000000e+00  1.1477725965303463e+01 1.3260267824340344e+01 0.0000000000000000e+00  1.1960634434023177e+01 1.2877011708173130e+01 0.0000000000000000e+00  1.2958535158427837e+01 1.3289168444187489e+01 0.0000000000000000e+00  1.4298115453992160e+01 1.3987249951680582e+01 0.0000000000000000e+00  1.5886533908560144e+01 1.4953616836548868e+01 0.0000000000000000e+00  1.7638236163052969e+01 1.6002459469101389e+01 0.0000000000000000e+00  1.9470666989823815e+01 1.7045216448281490e+01 0.0000000000000000e+00  2.1311612148798492e+01 1.7669443509972194e+01 0.0000000000000000e+00  2.3095980664297151e+01 1.8387276355738603e+01 0.0000000000000000e+00  2.4744297190767565e+01 1.7935751575249412e+01 0.0000000000000000e+00  2.6201182561406529e+01 1.7639230164713734e+01 0.0000000000000000e+00  2.7411869704717635e+01 1.5413435854940767e+01 0.0000000000000000e+00  2.8346111559726435e+01 1.3248963962203183e+01 0.0000000000000000e+00  2.8977499654455759e+01 8.7819267972946875e+00 0.0000000000000000e+00  2.9334384757196123e+01 3.2328322758292782e+00 0.0000000000000000e+00  2.9390679419398101e+01 6.0082188897947421e-04 0.0000000000000000e+00  2.9304669718410615e+01 1.4592215562988331e+00 0.0000000000000000e+00  2.9390670953101012e+01 -5.2567418678532577e-04 0.0000000000000000e+00  2.8937327664908960e+01 -7.4170564252383269e+00 0.0000000000000000e+00  2.8768870540529161e+01 -1.0433324840399276e+01 0.0000000000000000e+00  2.0628039864642219e+01 -2.2733432142638655e+01 0.0000000000000000e+00  2.0505323243279491e+01 -2.2017780206959046e+01 0.0000000000000000e+00  1.7717237454587519e+01 -2.3664027960085235e+01 0.0000000000000000e+00  1.6785105502831964e+01 -2.2222369988033758e+01 0.0000000000000000e+00  1.5184401022964321e+01 -2.1183660994227392e+01 0.0000000000000000e+00  1.3997078997004518e+01 -1.9320867716001906e+01 0.0000000000000000e+00  1.2779008707403753e+01 -1.7632573469691856e+01 0.0000000000000000e+00  1.1722653673839037e+01 -1.6049684319514487e+01 0.0000000000000000e+00  1.0505064727809129e+01 -1.4901179573502118e+01 0.0000000000000000e+00  9.6211806567883738e+00 -1.3493507210575842e+01 0.0000000000000000e+00  8.8864249037958523e+00 -1.2152723417390478e+01 0.0000000000000000e+00  8.0924987333316007e+00 -1.1079455738249177e+01 0.0000000000000000e+00  7.3572152020622781e+00 -1.0093772931058130e+01 0.0000000000000000e+00  6.6835403539467997e+00 -9.2264778164367769e+00 0.0000000000000000e+00  6.0482152052410552e+00 -8.4131838899550395e+00 0.0000000000000000e+00  5.4907125923865960e+00 -7.6065497174925474e+00 0.0000000000000000e+00  5.0130751876387460e+00 -6.8283537362496363e+00 0.0000000000000000e+00  4.5833123020180331e+00 -6.0431016105660955e+00 0.0000000000000000e+00  4.2187428765142370e+00 -5.2722644457571892e+00 0.0000000000000000e+00  3.9227494195633392e+00 -4.4983668911778638e+00 0.0000000000000000e+00  3.6684122634771317e+00 -3.7606564129188720e+00 0.0000000000000000e+00  3.4680942477620413e+00 -3.0111101941084977e+00 0.0000000000000000e+00  3.3235854660958926e+00 -2.3754978877783608e+00 0.0000000000000000e+00  3.2208489800153859e+00 -1.6803153069185182e+00 0.0000000000000000e+00  3.1615403024456792e+00 -1.1856344190583503e+00 0.0000000000000000e+00  3.1509775770376343e+00 -5.9823512120303668e-01 0.0000000000000000e+00  3.1627306590274529e+00 4.0085252476553695e-01 0.0000000000000000e+00  2.4341102742617529e+00 3.3991523215277386e+00 0.0000000000000000e+00  2.1487239377579210e+00 3.7948394355513577e+00 0.0000000000000000e+00  2.7599889945295941e+00 3.6794643148568302e+00 0.0000000000000000e+00  3.1304429944567711e+00 4.4404491792805967e+00 0.0000000000000000e+00  3.4770764172410171e+00 4.7426349128371061e+00 0.0000000000000000e+00  3.9248788869533477e+00 5.4559502149898602e+00 0.0000000000000000e+00  4.5148802969325290e+00 6.1591888346639747e+00 0.0000000000000000e+00  5.0927036157092562e+00 6.9012792951347697e+00 0.0000000000000000e+00  5.6478444715007985e+00 7.5005893081738479e+00 0.0000000000000000e+00  6.3081512497199919e+00 8.2902885669825537e+00 0.0000000000000000e+00  6.8627330114556937e+00 8.6845024684326990e+00 0.0000000000000000e+00  6.9824797329824548e+00 7.9822419516624628e+00 0.0000000000000000e+00  7.9176348471134403e+00 8.3986030727625405e+00 0.0000000000000000e+00  4.7986061231276356e+00 2.7139757457550342e+00 0.0000000000000000e+00  1.4375884874526431e+01 1.6091518841765460e+01 0.0000000000000000e+00  1.3325769488603974e+01 1.3510003342440511e+01 0.0000000000000000e+00  1.3158950680618926e+01 1.2161554424765921e+01 0.0000000000000000e+00  1.3628731029789305e+01 1.1811238863621702e+01 0.0000000000000000e+00  1.4599375311683188e+01 1.2004355536758204e+01 0.0000000000000000e+00  1.5900377413972418e+01 1.2606980407063400e+01 0.0000000000000000e+00  1.7438033235059972e+01 1.3419178596220831e+01 0.0000000000000000e+00  1.9125925960313008e+01 1.4350547889393795e+01 0.0000000000000000e+00  2.0880575377775205e+01 1.4971974528263914e+01 0.0000000000000000e+00  2.2629382050609919e+01 1.5789191704491353e+01 0.0000000000000000e+00  2.4301259979897960e+01 1.5550040172640848e+01 0.0000000000000000e+00  2.5821370519869738e+01 1.5564258188468093e+01 0.0000000000000000e+00  2.7122268180543468e+01 1.3709287875317491e+01 0.0000000000000000e+00  2.8164088249530913e+01 1.2001281809634813e+01 0.0000000000000000e+00  2.8887605028282046e+01 7.9585078049156444e+00 0.0000000000000000e+00  2.9316850044865685e+01 2.9237849589758320e+00 0.0000000000000000e+00  2.9391662347520622e+01 7.6339341546097380e-04 0.0000000000000000e+00  2.9281464201000311e+01 1.8827430448543319e+00 0.0000000000000000e+00  2.9391654549793877e+01 -6.6699952867831124e-04 0.0000000000000000e+00  2.8785565851941787e+01 -6.6937584082007104e+00 0.0000000000000000e+00  2.8260991327522330e+01 -1