<?xml version="1.0"?>
<VTKFile type="UnstructuredGrid"  version="0.1"  >
<UnstructuredGrid>
<Piece  NumberOfPoints="1933" NumberOfCells="3640">
<Points>
<DataArray  type="Float64"  NumberOfComponents="3"  format="ascii">-0.2935544408445341 -0.0028501527397103 0  4.706445593784996 -0.00276442539498999 0  4.706316957197906 7.497235637123832 0  -0.2936830757961708 7.497149915757862 0  9.706445663336108 -0.002678732691651057 0  9.706317003520027 7.497321320483658 0  14.70644578632096 -0.002593031029395385 0  14.70631706287349 7.497407014000109 0  19.70644596846408 -0.002507272442950607 0  19.70631713131362 7.497492766298588 0  24.70644620606986 -0.002421409486301593 0  24.70631720103194 7.49757862444088 0  29.70644648865023 -0.002335396403512127 0  29.70631726019622 7.497664633617832 0  34.70644680053068 -0.002249188818147227 0  34.70631729281745 7.497750837691412 0  39.70644712159407 -0.0021627428650114 0  39.70631727852369 7.497837280096623 0  44.70644742736703 -0.002076014142752499 0  44.70631719215514 7.497924004865088 0  49.70644768859981 -0.00198895662766 0  49.70631700312536 7.498011057673676 0  54.70644787042239 -0.001901521581421061 0  54.70631667450797 7.498098486896126 0  59.7064479310993 -0.001813656434774226 0  59.70631616180309 7.498186344674416 0  64.70644782035178 -0.001725303601556072 0  64.70631541132077 7.498274688048625 0  69.70644747715677 -0.001636399157366333 0  69.70631435809314 7.498363580198929 0  74.70644682687109 -0.001546871295082507 0  74.70631292318917 7.498453091866945 0  79.7064457774318 -0.001456638439478343 0  79.70631101025724 7.498543303038171 0  84.70644421425025 -0.001365606859584948 0  84.70630850105847 7.498634304981719 0  89.70644199319207 -0.001273667554407888 0  89.70630524967588 7.498726202751408 0  94.70643893067486 -0.00118069210004665 0  94.70630107500392 7.498819118235502 0  99.70643478928754 -0.001086527034570265 0  99.70629575106291 7.498913193756954 0  104.7064292562588 -0.0009909862415504679 0  104.7062889947198 7.499008595971543 0  109.7064219101946 -0.0008938407531524224 0  109.7062804507133 7.499105519163532 0  114.706412168102 -0.0007948056690700446 0  114.706269674897 7.499204185515286 0  119.7063991985943 -0.0006935251390696043 0  119.7062561192221 7.499304836496336 0  124.7063817761195 -0.0005895603363350484 0  124.706239128105 7.499407702033735 0  129.7063580311569 -0.0004823966706041638 0  129.7062179693658 7.499512918235248 0  134.706325015733 -0.0003715175749947829 0  134.7061919516125 7.499620331768353 0  139.7062779406384 -0.0002566783646121542 0  139.7061607384986 7.499729065453956 0  144.7062088294426 -0.000138765287119243 0  144.7061250859533 7.499836611901677 0  149.7061041263447 -2.243513668315025e-05 0  149.7060884537466 7.49993712293109 0  159.7061073738538 1.106584527922868e-18 0  164.7061480368788 1.077968878838008e-05 0  164.7061155745205 7.500005891579294 0  159.7060960366036 7.499988736922785 0  169.7061875961247 4.374594959212076e-05 0  169.7061349197264 7.500041698523456 0  174.7062231974514 9.158553332692032e-05 0  174.7061537234724 7.500090822539464 0  179.7062541791615 0.000149636964514864 0  179.70617149047 7.500149452416189 0  184.7062807334189 0.0002148461019753318 0  184.7061878792098 7.500214914376614 0  189.7063033402949 0.0002851643135550401 0  189.7062027261362 7.5002853345385 0  194.7063225348605 0.0003591865666814014 0  194.7062160008217 7.500359389423279 0  199.7063388180747 0.0004359283798128636 0  199.7062277566673 7.500436132882337 0  204.7063526287325 0.0005146858036649399 0  204.7062380932571 7.50051487897538 0  209.7063643402228 0.0005949459563406583 0  209.7062471312894 7.500595123202097 0  214.7063742664013 0.0006763287711711801 0  214.7062549971781 7.500676489307393 0  219.7063826699857 0.0007585482923210191 0  219.7062618142399 7.500758692985496 0  224.7063897708712 0.0008413864115228225 0  224.7062676980636 7.500841516767968 0  229.7063957534868 0.0009246746683009542 0  229.7062727544337 7.500924792375137 0  234.7064007730139 0.001008281381802762 0  234.7062770787545 7.501008388111332 0  239.7064049605517 0.001092102384020187 0  239.7062807563232 7.501092199723803 0  244.7064084274029 0.001176054241519751 0  244.7062838630577 7.501176143684247 0  249.7064112686463 0.001260069239766539 0  249.7062864664466 7.501260152201511 0  254.7064135661593 0.001344091652425716 0  254.7062886265913 7.50134416950416 0  259.7064153912121 0.001428074982881486 0  259.7062903972543 7.501428149087031 0  264.7064168067539 0.001511979980672943 0  264.7062918268796 7.501512051725808 0  269.7064178694557 0.001595773323525626 0  269.7062929595515 7.501595844146504 0  274.7064186315943 0.001679426931474157 0  274.7062938358619 7.501679498305812 0  279.7064191427805 0.001762917955325306 0  279.706294493666 7.501762991301899 0  284.7064194515262 0.001846229567777556 0  284.7062949686756 7.501846305999045 0  289.7064196065051 0.001929352789934348 0  289.7062952948569 7.50192943251492 0  294.7064196572065 0.002012289706112093 0  294.7062955045874 7.502012370777998 0  299.7064196532938 0.002095058509061651 0  299.7062956286107 7.502095134395796 0  304.7064196412841 0.002177700651327969 0  304.7062956960349 7.502177756063601 0  309.7064196557475 0.002260288986810111 0  309.7062957351685 7.502260294840345 0  4.706188299296578 14.99723575281542 0  -0.2938117279768402 14.99715008077995 0  9.706188319294705 14.99732139068787 0  14.70618832581011 14.99740704816211 0  19.70618831028659 14.99749277264625 0  24.70618826225727 14.99757860843315 0  29.70618816896262 14.99766459801142 0  34.70618801479453 14.99775078296858 0  39.70618778072149 14.9978372048469 0  44.70618744369242 14.99792390600849 0  49.70618697597919 14.99801093050561 0  54.7061863444125 14.99809832495096 0  59.70618550947292 14.99818613939315 0  64.70618442420579 14.99827442820946 0  69.70618303293428 14.99836325102948 0  74.70618126976194 14.99845267369658 0  79.70617905687403 14.99854276925498 0  84.70617630270546 14.99863361890716 0  89.70617290013047 14.99872531280056 0  94.7061687250195 14.99881795033105 0  99.70616363582992 14.99891163931971 0  104.7061574754852 14.99900649279123 0  109.7061500777731 14.99910262090713 0  114.7061412821023 14.99920011345962 0  119.7061309628883 14.99929900450961 0  124.7061190831514 14.99939920422563 0  129.7061057853699 14.99950037258211 0  134.706091533259 14.99960169514797 0  139.7060773072406 14.99970150772545 0  144.706064811888 14.99979672617389 0  149.706056525141 14.99988213593354 0  164.7060731203582 14.99999270031821 0  159.7060658356637 14.99995793766501 0  169.7060797710081 15.0000366840617 0  174.7060867350085 15.00008956204691 0  179.7060940908229 15.00014984697516 0  184.7061016361254 15.00021596994582 0  189.7061091252618 15.00028658795798 0  194.7061163534181 15.00036063302471 0  199.7061231763944 15.00043728115656 0  204.7061295058841 15.00051590383082 0  209.7061352975153 15.00059602260208 0  214.7061405385818 15.00067727220649 0  219.7061452378018 15.00075937222464 0  224.7061494175338 15.00084210584208 0  229.7061531081765 15.00092530406872 0  234.7061563443061 15.00100883402116 0  239.7061591620973 15.00109259019008 0  244.7061615976698 15.00117648789844 0  249.706163686085 15.00126045837973 0  254.7061654607823 15.00134444507101 0  259.7061669533117 15.00142840083929 0  264.7061681932517 15.00151228594969 0  269.7061692082455 15.00159606665298 0  274.706170024091 15.00167971432363 0  279.7061706648628 15.00176320512028 0  284.7061711530648 15.00184652017133 0  289.7061715098363 15.00192964629905 0  294.7061717553439 15.00201257727751 0  299.7061719095773 15.00209531555077 0  304.7061719940102 15.0021778742032 0  309.7061720349161 15.00226027880687 0  4.706059780504789 22.49723591485498 0  -0.2939402418507633 22.49715036183607 0  9.70605978469815 22.49732146038341 0  14.70605975970595 22.49740704499775 0  19.70605969514162 22.49749271016285 0  24.70605958029286 22.49757849471102 0  29.70605940345256 22.49766443629616 0  34.70605915131465 22.49775057229992 0  39.70605880842719 22.49783694052016 0  44.70605835670202 22.49792357978238 0  49.70605777497271 22.49801053051949 0  54.70605703858867 22.49809783532394 0  59.70605611904576 22.49818553946066 0  64.70605498367259 22.49827369131688 0  69.70605359541814 22.49836234274711 0  74.70605191283039 22.49845154924217 0  79.70604989037489 22.49854136979769 0  84.70604747933669 22.49863186626767 0  89.70604462969 22.49872310183751 0  94.70604129352031 22.49881513800065 0  99.70603743087922 22.49890802901279 0  104.7060330193301 22.49900181214105 0  109.7060280689079 22.49909649100193 0  114.7060226446365 22.49919200776793 0  119.7060168988338 22.49928819796457 0  124.7060111145017 22.49938471926966 0  129.7060057577596 22.49948094444979 0  134.7060015291568 22.49957581220912 0  139.7059993874898 22.49966764819643 0  144.7060004934058 22.49975402461691 0  149.706005992072 22.49983186954164 0  164.7060138022445 22.49997639974618 0  159.7060138798095 22.49992791450386 0  169.7060133412785 22.50002910190959 0  174.7060131638308 22.50008699927285 0  179.7060136062227 22.50014998448844 0  184.7060147266828 22.50021745024741 0  189.706016433407 22.50028864872023 0  194.7060185772697 22.50036286155098 0  199.7060210036405 22.50043946414071 0  204.7060235763878 22.50051793923577 0  209.7060261860351 22.50059786917943 0  214.7060287499429 22.50067892102758 0  219.7060312090484 22.50076083083232 0  224.706033523552 22.50084338955233 0  229.706035668684 22.50092643129038 0  234.7060376310195 22.50100982381829 0  239.7060394054657 22.50109346108647 0  244.7060409928914 22.50117725736114 0  249.7060423983077 22.50126114266231 0  254.7060436294972 22.50134505923163 0  259.7060446959881 22.50142895881831 0  264.7060456082989 22.5015128006215 0  269.7060463773835 22.50159654976969 0  274.706047014243 22.50168017624756 0  279.7060475296831 22.50176365419721 0  284.7060479342363 22.50184696152035 0  289.7060482383064 22.50193007968188 0  294.7060484526635 22.50201299354953 0  299.7060485894638 22.50
[...]
<PointData  Vectors="v"> 
<DataArray  type="Float64"  Name="v"  NumberOfComponents="3" format="ascii">-3.6597764652223543e+00 1.6120668179715270e+00 0.0000000000000000e+00  -3.5142518747467291e+00 1.8415966101338914e+00 0.0000000000000000e+00  -2.8971407578254871e+00 1.6233161776392955e+00 0.0000000000000000e+00  -3.0042294908260483e+00 1.4521752448353935e+00 0.0000000000000000e+00  -3.2698136077914395e+00 2.3554283858392346e+00 0.0000000000000000e+00  -2.7515522040081102e+00 1.9891908656982396e+00 0.0000000000000000e+00  -2.9643810287111956e+00 3.0872307452466869e+00 0.0000000000000000e+00  -2.5074162917710625e+00 2.6295817632681620e+00 0.0000000000000000e+00  -2.6061924458911996e+00 3.7985465301882777e+00 0.0000000000000000e+00  -2.2025098055689720e+00 3.2623000497581258e+00 0.0000000000000000e+00  -2.2001937729987646e+00 4.6396904586170757e+00 0.0000000000000000e+00  -1.8451776855386981e+00 4.0322335645855434e+00 0.0000000000000000e+00  -1.8044712384095398e+00 5.3956883223162420e+00 0.0000000000000000e+00  -1.4408551105474541e+00 4.8039711584950471e+00 0.0000000000000000e+00  -1.6323991028222342e+00 5.8174033479210552e+00 0.0000000000000000e+00  -1.0473363756769600e+00 5.5620695897071046e+00 0.0000000000000000e+00  -1.1328504293424810e+00 6.6808042116933644e+00 0.0000000000000000e+00  -8.7815355110236271e-01 5.9349592960124991e+00 0.0000000000000000e+00  -3.0274394990438207e+00 3.9523305736510932e+00 0.0000000000000000e+00  -3.8266070518552542e-01 6.7983250180800265e+00 0.0000000000000000e+00  1.3452111661904793e+00 1.0499609759955270e+01 0.0000000000000000e+00  -2.2822055483163903e+00 3.9456705463934618e+00 0.0000000000000000e+00  -2.9127049216599848e-02 8.1959259671511742e+00 0.0000000000000000e+00  2.0856177134415441e+00 1.0263028088450170e+01 0.0000000000000000e+00  -3.1636473079563443e-01 7.5270706095953335e+00 0.0000000000000000e+00  7.0475505462739696e-01 7.9658046359195360e+00 0.0000000000000000e+00  1.9558132687782972e-02 7.8343898660896532e+00 0.0000000000000000e+00  4.0849192830068121e-01 7.3403514548593725e+00 0.0000000000000000e+00  8.0889786107831374e-01 8.8194094384141515e+00 0.0000000000000000e+00  7.3333211208906035e-01 7.6476668624622040e+00 0.0000000000000000e+00  1.8665567230833711e+00 1.0147817071804273e+01 0.0000000000000000e+00  1.5083294052127019e+00 8.5749974404309484e+00 0.0000000000000000e+00  3.1365557050316841e+00 1.1676981245454979e+01 0.0000000000000000e+00  2.5494874773941802e+00 9.7886570281434881e+00 0.0000000000000000e+00  4.5742907114843332e+00 1.3367395368246049e+01 0.0000000000000000e+00  3.8006250296609405e+00 1.1229909953812946e+01 0.0000000000000000e+00  6.1349385491277948e+00 1.5034439776971949e+01 0.0000000000000000e+00  5.2155008649817187e+00 1.2714556414324573e+01 0.0000000000000000e+00  7.7828220027983033e+00 1.6671842212322147e+01 0.0000000000000000e+00  6.7509252929271293e+00 1.4225099453654678e+01 0.0000000000000000e+00  9.4776039752276784e+00 1.8196014589503733e+01 0.0000000000000000e+00  8.3697839296689196e+00 1.5681406994623293e+01 0.0000000000000000e+00  1.1152404473250614e+01 1.9505376793178456e+01 0.0000000000000000e+00  1.0031732042684705e+01 1.7024558570247780e+01 0.0000000000000000e+00  1.2744976622195107e+01 2.0416991438276508e+01 0.0000000000000000e+00  1.1668642220584131e+01 1.8062303885822242e+01 0.0000000000000000e+00  1.4202847284598956e+01 2.1030432997910196e+01 0.0000000000000000e+00  1.3221627754830969e+01 1.8884157294420415e+01 0.0000000000000000e+00  1.5452906457633047e+01 2.0829679406714430e+01 0.0000000000000000e+00  1.4630219461985611e+01 1.8994149232538298e+01 0.0000000000000000e+00  1.6476825897845394e+01 2.0153413189388875e+01 0.0000000000000000e+00  1.5833650155275770e+01 1.8669499430795945e+01 0.0000000000000000e+00  1.7227291836195132e+01 1.8269362169827847e+01 0.0000000000000000e+00  1.6794777192454973e+01 1.7187521606455405e+01 0.0000000000000000e+00  1.7742161556935439e+01 1.5445575521266486e+01 0.0000000000000000e+00  1.7492933901408925e+01 1.4739623329090543e+01 0.0000000000000000e+00  1.8011299300344525e+01 1.1400936034004179e+01 0.0000000000000000e+00  1.7928435592816061e+01 1.1042724966899575e+01 0.0000000000000000e+00  1.8136911591634970e+01 4.7589106294600505e+00 0.0000000000000000e+00  1.8141641657533160e+01 4.6549314657477447e+00 0.0000000000000000e+00  1.8163558466730461e+01 -3.2714449377563859e-05 0.0000000000000000e+00  1.8163235001491117e+01 -3.7069330894124803e-04 0.0000000000000000e+00  1.8163563200135869e+01 2.4264344209106208e-19 0.0000000000000000e+00  1.3886077737250757e+01 -1.1529373327159840e+01 0.0000000000000000e+00  1.8132911636533414e+01 -5.1483912298146768e+00 0.0000000000000000e+00  1.8163249643084932e+01 2.9279539583042529e-04 0.0000000000000000e+00  1.2624423119288235e+01 -2.0106298239327611e+01 0.0000000000000000e+00  1.3905125934059006e+01 -1.8282909247843989e+01 0.0000000000000000e+00  1.0751850040459402e+01 -2.3970216161703629e+01 0.0000000000000000e+00  1.2702126472109281e+01 -2.1197789452458586e+01 0.0000000000000000e+00  9.6678855918085667e+00 -2.4792070698156291e+01 0.0000000000000000e+00  1.0884191516943101e+01 -2.3214142181481698e+01 0.0000000000000000e+00  8.4448702017793575e+00 -2.4346108126571789e+01 0.0000000000000000e+00  9.8492659343613074e+00 -2.2551331740574234e+01 0.0000000000000000e+00  7.4351110221514576e+00 -2.2826415755565751e+01 0.0000000000000000e+00  8.6719455238777261e+00 -2.1352103578459744e+01 0.0000000000000000e+00  6.4867339054330175e+00 -2.1043239547853801e+01 0.0000000000000000e+00  7.7067382124616692e+00 -1.9656220409506023e+01 0.0000000000000000e+00  5.6347830792418518e+00 -1.9033167879116107e+01 0.0000000000000000e+00  6.7989983978780710e+00 -1.7791323601341308e+01 0.0000000000000000e+00  4.7465242538843002e+00 -1.7220010793391626e+01 0.0000000000000000e+00  5.9857883109572025e+00 -1.5920628819359736e+01 0.0000000000000000e+00  4.0370594005072418e+00 -1.5483137932277460e+01 0.0000000000000000e+00  5.1348196907045205e+00 -1.4450804980802346e+01 0.0000000000000000e+00  3.4055941168196253e+00 -1.3968681879942242e+01 0.0000000000000000e+00  4.4605123824965522e+00 -1.3052214328303956e+01 0.0000000000000000e+00  2.7529820736294455e+00 -1.2754170084075682e+01 0.0000000000000000e+00  3.8626983908726102e+00 -1.1804724713511835e+01 0.0000000000000000e+00  2.1582046820784861e+00 -1.1694948874092303e+01 0.0000000000000000e+00  3.2427306296138876e+00 -1.0830955166076039e+01 0.0000000000000000e+00  1.6210365125513566e+00 -1.0772738265949785e+01 0.0000000000000000e+00  2.6790974469520790e+00 -9.9945073547238241e+00 0.0000000000000000e+00  1.1395238002008432e+00 -9.9286430864246373e+00 0.0000000000000000e+00  2.1719664143565316e+00 -9.2328726647245176e+00 0.0000000000000000e+00  7.2310962871045092e-01 -9.1251055466930708e+00 0.0000000000000000e+00  1.7196793038993863e+00 -8.5261663447034746e+00 0.0000000000000000e+00  3.6678505392299793e-01 -8.3670859020649537e+00 0.0000000000000000e+00  1.3314931839358704e+00 -7.8577338820861486e+00 0.0000000000000000e+00  5.5066788468222293e-02 -7.6257209273002298e+00 0.0000000000000000e+00  1.0025950757433582e+00 -7.1826629053279731e+00 0.0000000000000000e+00  -2.0877715283972081e-01 -6.9005366984951957e+00 0.0000000000000000e+00  7.1778703538463240e-01 -6.5286930414046855e+00 0.0000000000000000e+00  -4.2967296453570930e-01 -6.1852230402313264e+00 0.0000000000000000e+00  4.8013821430746456e-01 -5.8775236854590736e+00 0.0000000000000000e+00  -6.1445158440816472e-01 -5.4808345851710039e+00 0.0000000000000000e+00  2.8504968348592008e-01 -5.2267880284657657e+00 0.0000000000000000e+00  -7.6371865811247697e-01 -4.7597166465320653e+00 0.0000000000000000e+00  1.2552890555299326e-01 -4.5588017342286529e+00 0.0000000000000000e+00  -8.7068528039694693e-01 -4.0810378104143972e+00 0.0000000000000000e+00  1.4572737590511288e-03 -3.9430005065779521e+00 0.0000000000000000e+00  -9.4537356360565350e-01 -3.3269636317602194e+00 0.0000000000000000e+00  -8.1193505839223121e-02 -3.2377097969572879e+00 0.0000000000000000e+00  -9.7379749702265750e-01 -2.6964625316854987e+00 0.0000000000000000e+00  -1.3079297560261144e-01 -2.6753487820246722e+00 0.0000000000000000e+00  -9.6029375078391543e-01 -1.8786193152279727e+00 0.0000000000000000e+00  -1.3605793307522374e-01 -1.9220553565433962e+00 0.0000000000000000e+00  -8.9586706570876062e-01 -1.3974479475941568e+00 0.0000000000000000e+00  -9.6773912901295514e-02 -1.5141025593432758e+00 0.0000000000000000e+00  -7.6613474763971856e-01 -4.2967650846291616e-01 0.0000000000000000e+00  -1.1422177987865543e-02 -6.4921173561926870e-01 0.0000000000000000e+00  -5.2191530562040966e-01 5.0653937731341511e-02 0.0000000000000000e+00  1.4749416959506340e-01 -3.3165730727125781e-01 0.0000000000000000e+00  5.9264225237917550e-02 2.8485993867865539e-01 0.0000000000000000e+00  4.0338685675193237e-01 -6.2037381482522391e-01 0.0000000000000000e+00  -2.0111410176116067e+00 1.4616763435149374e+00 0.0000000000000000e+00  -2.1189571763156558e+00 1.2927230803122522e+00 0.0000000000000000e+00  -1.9023713521432435e+00 1.7694774472846597e+00 0.0000000000000000e+00  -1.7545443793284188e+00 2.2621871111227843e+00 0.0000000000000000e+00  -1.5082229355767853e+00 2.8038387002049014e+00 0.0000000000000000e+00  -1.2014240292688450e+00 3.4950610564106057e+00 0.0000000000000000e+00  -8.4246415585407908e-01 4.1970221316532710e+00 0.0000000000000000e+00  -4.3738485779812469e-01 4.9720789682706013e+00 0.0000000000000000e+00  -4.4461370106172592e-02 5.6817070963733611e+00 0.0000000000000000e+00  1.2300311384697472e-01 6.0572755392830029e+00 0.0000000000000000e+00  6.1424743177795305e-01 6.7990459331054618e+00 0.0000000000000000e+00  -1.2905518830861098e+00 3.7113088303009252e+00 0.0000000000000000e+00  3.0780235646625296e+00 1.0036445354544423e+01 0.0000000000000000e+00  1.6967707984516465e+00 7.7889304288972037e+00 0.0000000000000000e+00  1.3933156530434370e+00 7.1655074626801945e+00 0.0000000000000000e+00  1.7073786053581816e+00 7.4221707026803703e+00 0.0000000000000000e+00  2.4659583356691015e+00 8.2387274197037996e+00 0.0000000000000000e+00  3.4864161391428947e+00 9.3664687031501774e+00 0.0000000000000000e+00  4.7132272160610285e+00 1.0609640486160314e+01 0.0000000000000000e+00  6.0982654200610487e+00 1.1942497058739091e+01 0.0000000000000000e+00  7.5983028359460656e+00 1.3274979579891475e+01 0.0000000000000000e+00  9.1772328239381764e+00 1.4560109425627186e+01 0.0000000000000000e+00  1.0790976518224859e+01 1.5637798445010400e+01 0.0000000000000000e+00  1.2373009705497603e+01 1.6591539138862377e+01 0.0000000000000000e+00  1.3862217510485396e+01 1.6921108262083283e+01 0.0000000000000000e+00  1.5198979222678895e+01 1.6916534080352783e+01 0.0000000000000000e+00  1.6316423109603736e+01 1.5791118680159050e+01 0.0000000000000000e+00  1.7188775020956566e+01 1.3768116036261326e+01 0.0000000000000000e+00  1.7771181815048465e+01 1.0432892341261553e+01 0.0000000000000000e+00  1.8104104969343840e+01 4.4482095238986732e+00 0.0000000000000000e+00  1.8162460745995872e+01 -7.0458741119147606e-04 0.0000000000000000e+00  1.8092156928291296e+01 -4.9524075096585189e+00 0.0000000000000000e+00  1.8162478950094034e+01 5.7391959752097919e-04 0.0000000000000000e+00  1.7901134493276398e+01 -1.1959780025120166e+01 0.0000000000000000e+00  1.3743852449700247e+01 -1.9450736680121103e+01 0.0000000000000000e+00  1.2627185981598235e+01 -2.0529674094541647e+01 0.0000000000000000e+00  1.0877248212504359e+01 -2.1039034543782925e+01 0.0000000000000000e+00  9.9058505997235518e+00 -1.9615847464758627e+01 0.0000000000000000e+00  8.7802254144588119e+00 -1.8241539349847940e+01 0.0000000000000000e+00  7.8656730176521803e+00 -1.6455901959386036e+01 0.0000000000000000e+00  7.0015713549708156e+00 -1.4725366084698935e+01 0.0000000000000000e+00  6.2287881255935460e+00 -1.3197936752627101e+01 0.0000000000000000e+00  5.4156616471108618e+00 -1.2062360875901110e+01 0.0000000000000000e+00  4.7767073645695435e+00 -1.0927778258238034e+01 0.0000000000000000e+00  4.2118209366103061e+00 -9.9206625180408121e+00 0.0000000000000000e+00  3.6235683167793753e+00 -9.1672034860239098e+00 0.0000000000000000e+00  3.0897191869092664e+00 -8.4891330894110713e+00 0.0000000000000000e+00  2.6106405086989946e+00 -7.8642858321118139e+00 0.0000000000000000e+00  2.1852479632073711e+00 -7.2910208749810259e+00 0.0000000000000000e+00  1.8226055989506529e+00 -6.7040365139832607e+00 0.0000000000000000e+00  1.5180316167808487e+00 -6.1158654292584851e+00 0.0000000000000000e+00  1.2567461881853044e+00 -5.5348680500445999e+00 0.0000000000000000e+00  1.0417892311378312e+00 -4.9473601819561335e+00 0.0000000000000000e+00  8.6860769575630759e-01 -4.3326935279165362e+00 0.0000000000000000e+00  7.3061401135783888e-01 -3.7694356614400011e+00 0.0000000000000000e+00  6.2743270243574811e-01 -3.1264539208973803e+00 0.0000000000000000e+00  5.6550084076130991e-01 -2.6127366873653211e+00 0.0000000000000000e+00  5.3589967175734465e-01 -1.9271461279875191e+00 0.0000000000000000e+00  5.5107769933834361e-01 -1.5832516955081004e+00 0.0000000000000000e+00  6.0905239986569559e-01 -7.9169491625332211e-01 0.0000000000000000e+00  7.1503836938953702e-01 -5.7736271546826790e-01 0.0000000000000000e+00  8.9130137037282731e-01 -1.0199109334685394e+00 0.0000000000000000e+00  -7.0227491787862006e-01 1.2977059256247632e+00 0.0000000000000000e+00  -7.9428558890315981e-01 1.1581529999549549e+00 0.0000000000000000e+00  -5.9074482735274891e-01 1.6025232146806214e+00 0.0000000000000000e+00  -4.7572391912489775e-01 2.0364962584991129e+00 0.0000000000000000e+00  -3.2161062650121547e-01 2.4299231014327423e+00 0.0000000000000000e+00  -6.8248660008023265e-02 3.0304470822001086e+00 0.0000000000000000e+00  2.4566486461977807e-01 3.6548991555755008e+00 0.0000000000000000e+00  6.1063001864691346e-01 4.3613253093421962e+00 0.0000000000000000e+00  1.0206404944875442e+00 5.0908198605046442e+00 0.0000000000000000e+00  1.4162534272222140e+00 5.8071985364136358e+00 0.0000000000000000e+00  1.5822963384031725e+00 6.0661261826760562e+00 0.0000000000000000e+00  2.0682303097778254e+00 6.5728268010324893e+00 0.0000000000000000e+00  1.6301401905234297e-01 3.4780358675620531e+00 0.0000000000000000e+00  4.5444213600773180e+00 9.8531336883968610e+00 0.0000000000000000e+00  3.1739292448055751e+00 7.6239038184578618e+00 0.0000000000000000e+00  2.8684457421918994e+00 6.9603826125998998e+00 0.0000000000000000e+00  3.1707664957093624e+00 7.1162016321829960e+00 0.0000000000000000e+00  3.9095835679044635e+00 7.8570362599711627e+00 0.0000000000000000e+00  4.9031569243036861e+00 8.7963008892840566e+00 0.0000000000000000e+00  6.0946923147022583e+00 9.8971090987324661e+00 0.0000000000000000e+00  7.4369422937941119e+00 1.1063940191999761e+01 0.0000000000000000e+00  8.8856932209337938e+00 1.2239120490566945e+01 0.0000000000000000e+00  1.0401041479394175e+01 1.3270932669501722e+01 0.0000000000000000e+00  1.1940661934093514e+01 1.4286414220514080e+01 0.0000000000000000e+00  1.3431622101800340e+01 1.4761312004250410e+01 0.0000000000000000e+00  1.4816203742522481e+01 1.5007072199235497e+01 0.0000000000000000e+00  1.6023073244650522e+01 1.4210949716128162e+01 0.0000000000000000e+00  1.6999162948483704e+01 1.2599127782560188e+01 0.0000000000000000e+00  1.7688086697113842e+01 9.6656065197604768e+00 0.0000000000000000e+00  1.8095461616496948e+01 4.1639917471879073e+00 0.0000000000000000e+00  1.8161252992567704e+01 -1.0064993178384913e-03 0.0000000000000000e+00  1.8071574267750297e+01 -4.6073243397135633e+00 0.0000000000000000e+00  1.8161269276721324e+01 8.1979689018508160e-04 0.0000000000000000e+00  1.7669858858431304e+01 -1.1609815837993636e+01 0.0000000000000000e+00  1.7468601928814820e+01 -1.3304040786642936e+01 0.0000000000000000e+00  1.3434998713605824e+01 -1.8963225797226325e+01 0.0000000000000000e+00  1.2456949434723043e+01 -1.8494029109643932e+01 0.0000000000000000e+00  1.0815190112009146e+01 -1.8235860329335090e+01 0.0000000000000000e+00  9.9371044644870690e+00 -1.6612202319382153e+01 0.0000000000000000e+00  8.8896154781829519e+00 -1.5140689648212925e+01 0.0000000000000000e+00  8.0457464925187185e+00 -1.3478036072256765e+01 0.0000000000000000e+00  7.2426897592745600e+00 -1.2083577799621548e+01 0.0000000000000000e+00  6.5263429711528946e+00 -1.0883436419170899e+01 0.0000000000000000e+00  5.7646391583538747e+00 -1.0007987150940131e+01 0.0000000000000000e+00  5.1735795639123578e+00 -9.1092023513983218e+00 0.0000000000000000e+00  4.6539956316405524e+00 -8.3189341881030909e+00 0.0000000000000000e+00  4.1085026676734051e+00 -7.7205820110355079e+00 0.0000000000000000e+00  3.6146277773736726e+00 -7.1758776023327462e+00 0.0000000000000000e+00  3.1732553083270352e+00 -6.6814296047556896e+00 0.0000000000000000e+00  2.7832852083640702e+00 -6.1871811255479630e+00 0.0000000000000000e+00  2.4539948353116974e+00 -5.6846079968288832e+00 0.0000000000000000e+00  2.1810697505970600e+00 -5.1674857753261181e+00 0.0000000000000000e+00  1.9500012253124608e+00 -4.6484609869719140e+00 0.0000000000000000e+00  1.7638860097389752e+00 -4.0957860581934504e+00 0.0000000000000000e+00  1.6187392531726272e+00 -3.5843715767518112e+00 0.0000000000000000e+00  1.5077000153311968e+00 -2.9936348861614168e+00 0.0000000000000000e+00  1.4312149400667955e+00 -2.5404126944323000e+00 0.0000000000000000e+00  1.3946799945113606e+00 -1.9044816183091096e+00 0.0000000000000000e+00  1.3911594047834435e+00 -1.6245635027373633e+00 0.0000000000000000e+00  1.4295138647674206e+00 -9.0160575922711417e-01 0.0000000000000000e+00  1.5144446942307812e+00 -7.5073386743411186e-01 0.0000000000000000e+00  1.6373094693464563e+00 -1.3086283855502974e+00 0.0000000000000000e+00  5.0270931570278610e-01 1.1564896497831580e+00 0.0000000000000000e+00  4.3095484468210071e-01 1.0552406812711987e+00 0.0000000000000000e+00  5.9987586129930082e-01 1.4294437121234995e+00 0.0000000000000000e+00  7.2089096009275389e-01 1.8562594090703459e+00 0.0000000000000000e+00  8.4730985835469763e-01 2.1900103804957372e+00 0.0000000000000000e+00  1.0145788041846859e+00 2.6410176650132215e+00 0.0000000000000000e+00  1.2818024085298896e+00 3.1740565186811036e+00 0.0000000000000000e+00  1.6099691666174780e+00 3.8045498716615374e+00 0.0000000000000000e+00  1.9883935511225173e+00 4.4678147449702488e+00 0.0000000000000000e+00  2.4093386752894950e+00 5.2080588489284327e+00 0.0000000000000000e+00  2.8115491561569312e+00 5.8160004499668325e+00 0.0000000000000000e+00  2.9791248939521138e+00 5.8448768801122499e+00 0.0000000000000000e+00  3.4651211508380708e+00 6.3302007092962977e+00 0.0000000000000000e+00  1.5744953209998596e+00 3.2584249480202474e+00 0.0000000000000000e+00  5.9922193331762506e+00 9.6556192377535144e+00 0.0000000000000000e+00  4.6523802849759655e+00 7.4091879023323752e+00 0.0000000000000000e+00  4.3591552472045212e+00 6.6621551807281847e+00 0.0000000000000000e+00  4.6615691346055126e+00 6.7570901690620717e+00 0.0000000000000000e+00  5.3883984311055872e+00 7.3194304245344561e+00 0.0000000000000000e+00  6.3620425024514153e+00 8.1308591663621375e+00 0.0000000000000000e+00  7.5246218695448670e+00 9.0776494343910024e+00 0.0000000000000000e+00  8.8278228533959595e+00 1.0101167283952948e+01 0.0000000000000000e+00  1.0225915132868680e+01 1.1041882262908016e+01 0.0000000000000000e+00  1.1677808704708541e+01 1.2035733552163137e+01 0.0000000000000000e+00  1.3133065399479705e+01 1.2592001862038222e+01 0.0000000000000000e+00  1.4522873138740762e+01 1.3025196071717367e+01 0.0000000000000000e+00  1.5772921836406402e+01 1.2498859124492641e+01 0.0000000000000000e+00  1.6827141161012868e+01 1.1286837216453069e+01 0.0000000000000000e+00  1.7594159877866250e+01 8.7544301559597777e+00 0.0000000000000000e+00  1.8073776753449796e+01 3.8082952840195512e+00 0.0000000000000000e+00  1.8159659572484856e+01 -1.2745123294738891e-03 0.0000000000000000e+00  1.8048157448357255e+01 -4.1712964003378143e+00 0.0000000000000000e+00  1.8159674378643935e+01 1.0367792464914855e-03 0.0000000000000000e+00  1.7543827289198308e+01 -1.0835728128727126e+01 0.