<?xml version="1.0"?>
<VTKFile type="UnstructuredGrid"  version="0.1"  >
<UnstructuredGrid>
<Piece  NumberOfPoints="1933" NumberOfCells="3640">
<Points>
<DataArray  type="Float64"  NumberOfComponents="3"  format="ascii">0.4752760070255143 0.001933957995409582 0  5.475275998298227 0.001867205695133254 0  5.475376174091704 7.501867212758373 0  0.4753761666194798 7.50193393487443 0  10.475275971699 0.001800428672914605 0  10.47537619877117 7.501800450955286 0  15.47527594037425 0.001733575965442672 0  15.47537625461394 7.501733606091147 0  20.47527592813528 0.001666614947123804 0  20.47537635761952 7.501666649280462 0  25.4752759630635 0.001599525977469186 0  25.47537652610989 7.501599562904048 0  30.47527607480238 0.001532298456336542 0  30.47537678049197 7.501532337497534 0  35.47527629373121 0.001464928013191254 0  35.47537714309216 7.501464969352601 0  40.47527665110928 0.001397414603151073 0  40.4753776382035 7.50139745883833 0  45.47527717972954 0.001329761304220578 0  45.47537829235031 7.501329809327228 0  50.47527791485899 0.001261973652765653 0  50.47537913474021 7.501262026607691 0  55.47527889537142 0.001194059402398592 0  55.47538019787505 7.501194118693104 0  60.4752801650493 0.001126028635614052 0  60.47538151830339 7.501126095971698 0  65.47528177407604 0.001057894195994927 0  65.47538313750876 7.501057971675043 0  70.47528378076919 0.0009896724435177787 0  70.47538510293859 7.500989762675742 0  75.47528625363657 0.0009213843701044551 0  75.47538746918696 7.500921490660139 0  80.47528927386765 0.0008530571519942738 0  80.47539029934426 7.500853183763858 0  85.47529293842065 0.000784726266722101 0  85.47539366652984 7.500784878814891 0  90.47529736392883 0.0007164383762591371 0  90.4753976556031 7.500716624412084 0  95.47530269174939 0.0006482552925412934 0  95.47540236502168 7.500648485196115 0  100.4753090946249 0.0005802595302397785 0  100.4754079087387 7.500580547879879 0  105.4753167856541 0.000512562276518692 0  105.4754144178887 7.500512929954758 0  110.4753260306077 0.0004453151900801091 0  110.4754220417312 7.500445792584733 0  115.4753371651225 0.0003787285260015563 0  115.4754309468029 7.500379360229319 0  120.4753506189951 0.0003131001741091371 0  120.4754413122814 7.500313951326723 0  125.4753669506205 0.000248864378052424 0  125.4754533179424 7.500250027482839 0  130.4753868952282 0.0001866775658543867 0  130.4754671184933 7.500188273963645 0  135.4754114296825 0.0001275773781316816 0  135.4754827945565 7.500129733230616 0  140.4754418503206 7.329266743160849e-05 0  140.4755002680188 7.500076027466432 0  145.4754798368629 2.687778883504671e-05 0  145.4755191768685 7.500029727373398 0  150.4755273982333 -5.940554666731609e-06 0  150.4755387580167 7.499994960927427 0  160.4755282581476 4.144635170624796e-19 0  165.4754555255689 -7.532507301294565e-05 0  165.4755140209019 7.499916563098983 0  160.4755391772967 7.499979140969745 0  170.4754061661768 -0.0001520698795678647 0  170.4754884333011 7.499843772702446 0  175.4753711182186 -0.0002296512663464422 0  175.4754657448235 7.499767887586124 0  180.475345418116 -0.0003071891866119544 0  180.4754465663417 7.499691249368587 0  185.4753261069629 -0.000384217563415511 0  185.4754306822931 7.499614749065067 0  190.4753113281278 -0.0004605521295067588 0  190.475417648494 7.499538740288672 0  195.4752998681168 -0.0005361480478146569 0  195.4754069991598 7.499463352260406 0  200.4752909035283 -0.0006110214069589589 0  200.4753983161066 7.499388615665493 0  205.4752838557419 -0.0006852121173430586 0  205.4753912457322 7.499314517707835 0  210.4752783050143 -0.0007587675782506589 0  210.4753854966312 7.499241027077153 0  215.4752739382897 -0.000831735881790254 0  215.4753808310672 7.499168105407943 0  220.4752705165569 -0.0009041631884042576 0  220.4753770555284 7.499095712536065 0  225.4752678537911 -0.000976092854008772 0  225.4753740122265 7.499023808883426 0  230.4752658029275 -0.001047565258089096 0  230.4753715720272 7.498952356507495 0  235.475264246216 -0.001118617894286145 0  235.4753696287664 7.498881319525615 0  240.4752630883837 -0.001189285550965905 0  240.4753680947454 7.49881066424064 0  245.4752622516498 -0.001259600521551065 0  245.4753668971723 7.498740359115835 0  250.4752616719933 -0.001329592830333444 0  250.4753659753433 7.498670374663713 0  255.4752612963001 -0.001399290477933984 0  255.4753652784037 7.498600683273989 0  260.4752610801344 -0.001468719718447836 0  260.4753647635556 7.498531258986345 0  265.4752609859769 -0.001537905384804282 0  265.4753643946245 7.498462077202983 0  270.4752609818173 -0.001606871282834479 0  270.4753641409137 7.498393114329135 0  275.4752610400469 -0.001675640678662498 0  275.4753639762959 7.498324347325092 0  280.4752611366185 -0.00174423690710077 0  280.475363878519 7.498255753151064 0  285.4752612505001 -0.001812684126643587 0  285.4753638286928 7.498187308089312 0  290.4752613634907 -0.001881008228258419 0  290.4753638109487 7.498118986942189 0  295.4752614605513 -0.001949237841658024 0  295.4753638122453 7.49805076214127 0  300.4752615309118 -0.002017405196849938 0  300.4753638222755 7.497982602877449 0  305.4752615703534 -0.002085546068567088 0  305.4753638334162 7.497914474479004 0  310.4752615852234 -0.002153696451021367 0  310.4753638406835 7.497846338315133 0  5.475476215145632 15.00186725198936 0  0.4754762010760953 15.00193388601554 0  10.47547625684336 15.0018005364378 0  15.47547634199343 15.00173371479697 0  20.4754764840463 15.00166676978946 0  25.47547669608401 15.00159969056103 0  30.47547699190822 15.00153247152943 0  35.47547738659093 15.00146511124118 0  40.47547789677687 15.00139761144634 0  45.47547854089807 15.00132997647001 0  50.47547933937885 15.00126221289217 0  55.47548031486129 15.00119432952609 0  60.47548149245442 15.00112633768832 0  65.47548289999614 15.00105825176896 0  70.47548456830282 15.00099009013431 0  75.4754865313695 15.00092187642517 0  80.47548882645971 15.0008536413558 0  85.47549149399724 15.00078542517624 0  90.47549457711925 15.00071728104468 0  95.47549812068002 15.00064927968061 0  100.4755021693855 15.00058151585492 0  105.475506764588 15.00051411755176 0  110.4755119390732 15.00044725904345 0  115.4755177089599 15.00038117968593 0  120.4755240616969 15.00031621093984 0  125.475530939371 15.00025281471125 0  130.4755382177669 15.00019163568354 0  135.4755456852026 15.00013356602518 0  140.4755530334699 15.00007980411738 0  145.4755598887332 15.0000318335352 0  150.4755659273548 14.99999106934557 0  165.4755600827906 14.99989584073483 0  160.4755665006958 14.99995388391203 0  170.4755511834041 14.99982949309134 0  175.4755409950797 14.99975829880819 0  180.4755307175068 14.99968475127806 0  185.4755210565303 14.99961025543315 0  190.4755123429586 14.99953555731526 0  195.4755046826218 14.999461041603 0  200.4754980597542 14.99938689870886 0  205.4754923992246 14.99931321483193 0  210.4754876016906 14.99924002024357 0  215.4754835624717 14.99916731529617 0  220.4754801810578 14.99909508454512 0  225.4754773654111 14.9990233044919 0  230.4754750334662 14.99895194787351 0  235.4754731131909 14.99888098605783 0  240.4754715419546 14.99881039038163 0  245.4754702656126 14.99874013288242 0  250.4754692375193 14.99867018667 0  255.4754684175753 14.99860052607132 0  260.4754677713568 14.9985311266211 0  265.4754672693462 14.99846196493553 0  270.4754668862661 14.99839301848696 0  275.4754666005065 14.99832426528515 0  280.4754663936321 14.99825568346544 0  285.475466249947 14.9981872507827 0  290.4754661560826 14.99811894401158 0  295.4754661005677 14.99805073825297 0  300.4754660733219 14.99798260611826 0  305.4754660650129 14.99791451662596 0  310.4754660662048 14.99784643314582 0  5.4755760127118 22.50186738020298 0  0.4755759961330244 22.50193388965991 0  10.47557605495323 22.501800735493 0  15.47557613835681 22.50173395359365 0  20.47557627415678 22.50166703209184 0  25.47557647154402 22.50159996972446 0  30.47557673903916 22.50153276701753 0  35.47557708529327 22.50146542643705 0  40.47557751951632 22.50139795235617 0  45.47557805167297 22.50133035102377 0  50.47557869253459 22.50126263064169 0  55.47557945363099 22.50119480161352 0  60.4755803471168 22.50112687700962 0  65.47558138554119 22.50105887329311 0  70.47558258148976 22.50099081136172 0  75.47558394704737 22.50092271798426 0  80.47558549300729 22.50085462774187 0  85.47558722772555 22.50078658563115 0  90.47558915548804 22.50071865054713 0  95.47559127422365 22.50065089994588 0  100.4755935723685 22.50058343608774 0  105.4755960246805 22.50051639437564 0  110.475598586866 22.50044995439482 0  115.4756011890741 22.50038435424032 0  120.475603728784 22.50031990836137 0  125.4756060645522 22.50025702794823 0  130.4756080137418 22.50019623973771 0  135.4756093598198 22.50013819179167 0  140.4756098773027 22.50008361924046 0  145.4756093813235 22.50003321367348 0  150.4756077929907 22.49998729945408 0  165.4756112060014 22.49987382324731 0  160.4756079864972 22.49993041732722 0  170.4756119379087 22.49981109400613 0  175.4756105867038 22.49974386353729 0  180.4756077911893 22.4996737154491 0  185.4756041725216 22.49960187366623 0  190.4756002083716 22.49952917011665 0  195.4755962224916 22.49945613405133 0  200.4755924146725 22.49938308866514 0  205.475588896142 22.49931022436879 0  210.4755857190487 22.49923764818905 0  215.4755828980929 22.49916541546199 0  220.4755804253983 22.4990935497289 0  225.4755782803364 22.49902205512509 0  230.4755764358224 22.49895092408803 0  235.4755748622428 22.49888014216618 0  240.4755735298315 22.49880969102897 0  245.4755724100487 22.4987395503503 0  250.4755714763288 22.49866969897722 0  255.4755707044367 22.49860011563457 0  260.4755700725829 22.49853077932081 0  265.4755695613972 22.49846166948981 0  270.4755691538126 22.49839276607844 0  275.4755688348985 22.49832404941811 0  280.4755685916463 22.49825550005522 0  285.4755684127066 22.49818709849947 0  290.4755682880624 22.49811882491145 0  295.4755682085977 22.49805065872938 0  300.4755681655128 22.
[...]
<PointData  Vectors="v"> 
<DataArray  type="Float64"  Name="v"  NumberOfComponents="3" format="ascii">4.3290445415551275e+00 3.1341388322147448e+00 0.0000000000000000e+00  4.5285549863742585e+00 2.6036456166409159e+00 0.0000000000000000e+00  3.8303550648083617e+00 2.3045400190653607e+00 0.0000000000000000e+00  3.6712890774435141e+00 2.8949694296820470e+00 0.0000000000000000e+00  4.7136074222087441e+00 2.4486984204297917e+00 0.0000000000000000e+00  4.0295430234119136e+00 2.1713093789067539e+00 0.0000000000000000e+00  4.7928853452979583e+00 2.3490926582576770e+00 0.0000000000000000e+00  4.2141314376750367e+00 2.2306344057855205e+00 0.0000000000000000e+00  4.7715526766894154e+00 1.8317048766942083e+00 0.0000000000000000e+00  4.2927012406973821e+00 1.8640865369518216e+00 0.0000000000000000e+00  4.7873019251880411e+00 1.5312142629731740e+00 0.0000000000000000e+00  4.2705093732535495e+00 1.5079081254365736e+00 0.0000000000000000e+00  4.7254966624523256e+00 9.9468011446630566e-01 0.0000000000000000e+00  4.2856444669695302e+00 1.0877582916506747e+00 0.0000000000000000e+00  4.6028525968377521e+00 4.1055699952164004e-01 0.0000000000000000e+00  4.2232455835021288e+00 5.9446561203333592e-01 0.0000000000000000e+00  4.7739071533599855e+00 2.2499003373609014e-01 0.0000000000000000e+00  4.1002280650701053e+00 -3.1914904029824442e-02 0.0000000000000000e+00  4.7500194169264756e+00 -2.3729081202993124e-01 0.0000000000000000e+00  4.2714945038060419e+00 -2.0197151842971792e-01 0.0000000000000000e+00  7.2497027682334503e+00 3.0301405787909226e+00 0.0000000000000000e+00  4.2482632633479360e+00 -7.2056542684579439e-01 0.0000000000000000e+00  8.4270750345248828e+00 4.2377840508786893e+00 0.0000000000000000e+00  6.7481663948020429e+00 2.4706689023038351e+00 0.0000000000000000e+00  8.7626120480011629e+00 4.0914055899571933e+00 0.0000000000000000e+00  7.9267884618132536e+00 3.5853214826311515e+00 0.0000000000000000e+00  8.7554818488072996e+00 3.3720115266178352e+00 0.0000000000000000e+00  8.2652761904594811e+00 3.3787558116131464e+00 0.0000000000000000e+00  8.5476976960439721e+00 2.3667868740795961e+00 0.0000000000000000e+00  8.2623090852723955e+00 2.6729149511272801e+00 0.0000000000000000e+00  8.2631489268531926e+00 1.2802573533242911e+00 0.0000000000000000e+00  8.0608074819891886e+00 1.7007674927917984e+00 0.0000000000000000e+00  7.8999370604165158e+00 1.2711760651596229e-01 0.0000000000000000e+00  7.7837868145190923e+00 6.6349770413460052e-01 0.0000000000000000e+00  7.4466814049451955e+00 -1.0154127119020173e+00 0.0000000000000000e+00  7.4296424834885775e+00 -3.4563686788607406e-01 0.0000000000000000e+00  6.8922984013186834e+00 -2.2260667975053812e+00 0.0000000000000000e+00  6.9883047225054185e+00 -1.4060654378265984e+00 0.0000000000000000e+00  6.2250555658653086e+00 -3.4779439153414646e+00 0.0000000000000000e+00  6.4474938183770147e+00 -2.4917708560819483e+00 0.0000000000000000e+00  5.4460059818153299e+00 -4.7874447000320020e+00 0.0000000000000000e+00  5.7968003955825136e+00 -3.6355549727458412e+00 0.0000000000000000e+00  4.5877778131366433e+00 -6.0755171340665424e+00 0.0000000000000000e+00  5.0373376703811292e+00 -4.8080906400897927e+00 0.0000000000000000e+00  3.6905273078578920e+00 -7.4380086372470426e+00 0.0000000000000000e+00  4.2028757013820721e+00 -6.1145363768840646e+00 0.0000000000000000e+00  2.7983112215176078e+00 -8.4963256619634411e+00 0.0000000000000000e+00  3.3310967135277094e+00 -7.1858346370406885e+00 0.0000000000000000e+00  1.9807386348726430e+00 -9.6228888181999572e+00 0.0000000000000000e+00  2.4725472581428725e+00 -8.4241031806712332e+00 0.0000000000000000e+00  1.2697327029464192e+00 -9.9794050052148346e+00 0.0000000000000000e+00  1.6870829000191656e+00 -8.9510159731469248e+00 0.0000000000000000e+00  7.2420221861367662e-01 -1.0369726898249581e+01 0.0000000000000000e+00  1.0219989067371442e+00 -9.5836663977817018e+00 0.0000000000000000e+00  3.3352607931531081e-01 -9.1902478327562314e+00 0.0000000000000000e+00  5.1475466350621868e-01 -8.6554234972086554e+00 0.0000000000000000e+00  1.2315765775529909e-01 -8.1656070364165529e+00 0.0000000000000000e+00  1.8528963870081100e-01 -7.8851906769381159e+00 0.0000000000000000e+00  2.1988360761564497e-02 -3.9682144648405777e+00 0.0000000000000000e+00  1.8236474138303271e-02 -3.8840988672047065e+00 0.0000000000000000e+00  -5.0663424951950820e-10 1.1023664586026149e-11 0.0000000000000000e+00  7.4422746541345992e-04 7.1248330831071049e-04 0.0000000000000000e+00  -4.1897710905694794e-13 -4.5582334656174614e-19 0.0000000000000000e+00  -1.4470152744831994e+00 7.1284119811105136e+00 0.0000000000000000e+00  2.7389157163013329e-02 9.3184274340552413e+00 0.0000000000000000e+00  7.4195367361753139e-04 -7.5354156133291639e-04 0.0000000000000000e+00  1.9993944391986712e-01 1.1839681673976679e+01 0.0000000000000000e+00  -1.4486389614166615e+00 9.4137060590720587e+00 0.0000000000000000e+00  2.0635307035531758e-01 1.1103345233445541e+01 0.0000000000000000e+00  1.6285365356244513e-01 1.1111333620883052e+01 0.0000000000000000e+00  8.0977007570650916e-01 1.1012610606114526e+01 0.0000000000000000e+00  1.3827513509589698e-01 1.0134023594180427e+01 0.0000000000000000e+00  9.9424835394886091e-01 8.8496217217427251e+00 0.0000000000000000e+00  7.1586163642662770e-01 8.5922979463350053e+00 0.0000000000000000e+00  1.2549429901117533e+00 7.1978959086635923e+00 0.0000000000000000e+00  8.7751346718303969e-01 6.8263248884393350e+00 0.0000000000000000e+00  1.4028666465008943e+00 5.3653172465784094e+00 0.0000000000000000e+00  1.1167032460866069e+00 5.1588984717418001e+00 0.0000000000000000e+00  1.5651152973533002e+00 4.0052364386171551e+00 0.0000000000000000e+00  1.2465366648346101e+00 3.7775385977157452e+00 0.0000000000000000e+00  1.6325377155218270e+00 2.9136137884514302e+00 0.0000000000000000e+00  1.3923605628690527e+00 2.8255108045716826e+00 0.0000000000000000e+00  1.7512115521290941e+00 2.3145194766077948e+00 0.0000000000000000e+00  1.4446970284301368e+00 2.1485318454223394e+00 0.0000000000000000e+00  1.8983034007307740e+00 1.9464365663365408e+00 0.0000000000000000e+00  1.5501295615353525e+00 1.7368216585234015e+00 0.0000000000000000e+00  2.0241955732911707e+00 1.7782646013134431e+00 0.0000000000000000e+00  1.6852536351074294e+00 1.5993654623645954e+00 0.0000000000000000e+00  2.1201506848387606e+00 1.7075651621940562e+00 0.0000000000000000e+00  1.8000587093531124e+00 1.5725094582081316e+00 0.0000000000000000e+00  2.1888021544129401e+00 1.6605524434425669e+00 0.0000000000000000e+00  1.8861700021271137e+00 1.5659216509363905e+00 0.0000000000000000e+00  2.2094743133881733e+00 1.6174076853616326e+00 0.0000000000000000e+00  1.9458571205945250e+00 1.5939384463621060e+00 0.0000000000000000e+00  2.2066496667091173e+00 1.5810899467529513e+00 0.0000000000000000e+00  1.9581871031930005e+00 1.5922555500236106e+00 0.0000000000000000e+00  2.1901391014413587e+00 1.5270229921849374e+00 0.0000000000000000e+00  1.9477772913314217e+00 1.5583468953469897e+00 0.0000000000000000e+00  2.1522303692959577e+00 1.4588638120188597e+00 0.0000000000000000e+00  1.9242283512008875e+00 1.5218504231048395e+00 0.0000000000000000e+00  2.1053178799588572e+00 1.3908633050593087e+00 0.0000000000000000e+00  1.8796236503880297e+00 1.4669936213205084e+00 0.0000000000000000e+00  2.0599024817833387e+00 1.2925040155393031e+00 0.0000000000000000e+00  1.8264422419255055e+00 1.3662264054754532e+00 0.0000000000000000e+00  2.0005200027955730e+00 1.2089375964364213e+00 0.0000000000000000e+00  1.7750063221108601e+00 1.3033656926535424e+00 0.0000000000000000e+00  1.9391522581005758e+00 1.0658942597698760e+00 0.0000000000000000e+00  1.7098046383128345e+00 1.1631943456138731e+00 0.0000000000000000e+00  1.8687619246464331e+00 9.7622216774626580e-01 0.0000000000000000e+00  1.6427137840044883e+00 1.0869129160432578e+00 0.0000000000000000e+00  1.7873983933747031e+00 7.2602472249770356e-01 0.0000000000000000e+00  1.5668323340756771e+00 8.5324696693693569e-01 0.0000000000000000e+00  1.6811225399979599e+00 6.7549095549182658e-01 0.0000000000000000e+00  1.4797784931618543e+00 8.3979707649418933e-01 0.0000000000000000e+00  1.5497722523347952e+00 1.9036453753715094e-01 0.0000000000000000e+00  1.3682446745558938e+00 3.9270634102837443e-01 0.0000000000000000e+00  1.3766457056113277e+00 2.9577644588102558e-01 0.0000000000000000e+00  1.2309865455514910e+00 5.6007398829317079e-01 0.0000000000000000e+00  1.1003124545527574e+00 -6.3585121363851960e-01 0.0000000000000000e+00  1.0530400393881985e+00 -2.1555532756890863e-01 0.0000000000000000e+00  6.3376401332409060e-01 -7.9235603639933005e-01 0.0000000000000000e+00  7.6990862262262516e-01 -8.8806854257263271e-02 0.0000000000000000e+00  -4.6721125851540046e-01 -2.8899577830932205e-01 0.0000000000000000e+00  3.0065850361445090e-01 1.3703475929228111e+00 0.0000000000000000e+00  3.1156147204700142e+00 2.0667232073869117e+00 0.0000000000000000e+00  2.9302202587035620e+00 2.6152063411522564e+00 0.0000000000000000e+00  3.2732050089457392e+00 1.8739148378732637e+00 0.0000000000000000e+00  3.4698317454355467e+00 1.9554762395670064e+00 0.0000000000000000e+00  3.6511481852626013e+00 1.7483532648417244e+00 0.0000000000000000e+00  3.7258628151167583e+00 1.5438634052078040e+00 0.0000000000000000e+00  3.6991777372881853e+00 1.0676512106887723e+00 0.0000000000000000e+00  3.7096814601680599e+00 6.9056897166817688e-01 0.0000000000000000e+00  3.6429131870797122e+00 1.5534076480131001e-01 0.0000000000000000e+00  3.5157415059870138e+00 -4.5715326653572508e-01 0.0000000000000000e+00  3.6844582654677942e+00 -6.8528189411075713e-01 0.0000000000000000e+00  3.6592185909241199e+00 -1.2753883880667738e+00 0.0000000000000000e+00  6.1517411124045047e+00 1.8220997661100857e+00 0.0000000000000000e+00  7.3238593809300578e+00 2.8717220017118308e+00 0.0000000000000000e+00  7.6611221545281314e+00 2.6778187823271953e+00 0.0000000000000000e+00  7.6588727920105102e+00 2.0003954624018148e+00 0.0000000000000000e+00  7.4614908509517930e+00 1.0755260938720939e+00 0.0000000000000000e+00  7.1906942370703328e+00 1.8151081127290500e-01 0.0000000000000000e+00  6.8445324422083642e+00 -7.5075569779617579e-01 0.0000000000000000e+00  6.4144778622878897e+00 -1.6891059601063165e+00 0.0000000000000000e+00  5.8883785230171855e+00 -2.6687496480891508e+00 0.0000000000000000e+00  5.2553122408375801e+00 -3.6830595104984729e+00 0.0000000000000000e+00  4.5195643747031617e+00 -4.8786559021335725e+00 0.0000000000000000e+00  3.7138615439582852e+00 -5.8988656366502887e+00 0.0000000000000000e+00  2.8781161710195073e+00 -7.1596179287042716e+00 0.0000000000000000e+00  2.0625989926136463e+00 -7.8064125619635325e+00 0.0000000000000000e+00  1.3324385596687669e+00 -8.6150699518679570e+00 0.0000000000000000e+00  7.2657696639077229e-01 -7.9490607121037735e+00 0.0000000000000000e+00  3.0236007756360561e-01 -7.4211475066962063e+00 0.0000000000000000e+00  4.8347007141910071e-02 -3.7216823347172805e+00 0.0000000000000000e+00  2.5524269185457299e-03 1.3595337878963090e-03 0.0000000000000000e+00  5.5280228545480078e-02 9.1609934128500807e+00 0.0000000000000000e+00  2.5481441308690673e-03 -1.5506992455553603e-03 0.0000000000000000e+00  2.0827516284293279e-01 1.1638539799125962e+01 0.0000000000000000e+00  -1.3171225954048289e+00 8.7349053243972516e+00 0.0000000000000000e+00  2.3552910110665989e-01 1.0197570881857743e+01 0.0000000000000000e+00  1.6920320548177295e-01 7.7496835972515532e+00 0.0000000000000000e+00  7.0984556506641827e-01 6.5993302533337133e+00 0.0000000000000000e+00  8.4424181320370384e-01 4.8181238205451162e+00 0.0000000000000000e+00  1.0571320986069301e+00 3.5951458049747389e+00 0.0000000000000000e+00  1.1662848864988677e+00 2.6179921959169801e+00 0.0000000000000000e+00  1.2938404893915232e+00 2.0804955293545895e+00 0.0000000000000000e+00  1.3299183113879098e+00 1.5875209085068693e+00 0.0000000000000000e+00  1.4210891928469735e+00 1.4041168222577143e+00 0.0000000000000000e+00  1.5438674414750864e+00 1.4076320510679485e+00 0.0000000000000000e+00  1.6473237663981048e+00 1.4428283513247164e+00 0.0000000000000000e+00  1.7236673271480472e+00 1.5095627660633677e+00 0.0000000000000000e+00  1.7749372012010465e+00 1.5786193017526666e+00 0.0000000000000000e+00  1.7797078797670922e+00 1.5780832153326045e+00 0.0000000000000000e+00  1.7627109733020028e+00 1.5607061166113807e+00 0.0000000000000000e+00  1.7333934813164520e+00 1.5372888889393526e+00 0.0000000000000000e+00  1.6834588384026228e+00 1.4490195708120641e+00 0.0000000000000000e+00  1.6254119673290284e+00 1.3832514492821928e+00 0.0000000000000000e+00  1.5694595336063348e+00 1.2637603880591266e+00 0.0000000000000000e+00  1.4998303370356725e+00 1.1901261850278055e+00 0.0000000000000000e+00  1.4284569815413772e+00 9.6969996748525844e-01 0.0000000000000000e+00  1.3482698458703422e+00 9.7288752658960709e-01 0.0000000000000000e+00  1.2569403166451734e+00 5.6285713190148234e-01 0.0000000000000000e+00  1.1409078811332878e+00 7.6823086353943637e-01 0.0000000000000000e+00  9.9943497447874741e-01 5.4697945627212169e-02 0.0000000000000000e+00  8.1671973626031757e-01 3.3759197001646185e-01 0.0000000000000000e+00  5.2954524848323670e-01 2.0779144074325826e+00 0.0000000000000000e+00  2.2473845017108482e+00 1.7903746826217157e+00 0.0000000000000000e+00  2.0744001521473461e+00 2.3531998316754508e+00 0.0000000000000000e+00  2.4298234828416452e+00 1.6408029119140037e+00 0.0000000000000000e+00  2.5819512846050712e+00 1.6646995368222182e+00 0.0000000000000000e+00  2.7719590654172590e+00 1.4819121971717635e+00 0.0000000000000000e+00  2.9446679805726483e+00 1.4383706313493729e+00 0.0000000000000000e+00  3.0091924699328123e+00 1.1148759893780582e+00 0.0000000000000000e+00  2.9715147877499257e+00 6.8273648502774698e-01 0.0000000000000000e+00  2.9702369738443140e+00 2.6321363034106154e-01 0.0000000000000000e+00  2.8920017601802992e+00 -2.5982191750872252e-01 0.0000000000000000e+00  2.7555089889213664e+00 -9.3363054624873598e-01 0.0000000000000000e+00  2.9176880644610415e+00 -1.2329255054499935e+00 0.0000000000000000e+00  2.8818217623242393e+00 -1.9038011013896132e+00 0.0000000000000000e+00  5.3526120333887599e+00 1.1281275557957355e+00 0.0000000000000000e+00  6.5052928371047711e+00 2.1774550915259514e+00 0.0000000000000000e+00  6.8332768938310027e+00 2.0057899639226870e+00 0.0000000000000000e+00  6.8274916280991365e+00 1.3703878137483489e+00 0.0000000000000000e+00  6.6304278310022466e+00 5.8374394664298490e-01 0.0000000000000000e+00  6.3628039535380276e+00 -2.3804110449872834e-01 0.0000000000000000e+00  6.0236634352097891e+00 -1.0529613761617043e+00 0.0000000000000000e+00  5.6038944705587941e+00 -1.8923753639669980e+00 0.0000000000000000e+00  5.0924790441300010e+00 -2.7514556965261048e+00 0.0000000000000000e+00  4.4817670072483198e+00 -3.7970644926917805e+00 0.0000000000000000e+00  3.7751648306132441e+00 -4.7229319563429675e+00 0.0000000000000000e+00  3.0111963802194617e+00 -5.9433789690680676e+00 0.0000000000000000e+00  2.2278983464989630e+00 -6.6383062325893549e+00 0.0000000000000000e+00  1.4859109553871996e+00 -7.5767911502291421e+00 0.0000000000000000e+00  8.4088801275664160e-01 -7.1341972996220751e+00 0.0000000000000000e+00  3.5763319967664819e-01 -6.8562046724934067e+00 0.0000000000000000e+00  5.5451828298117636e-02 -3.5038218175838352e+00 0.0000000000000000e+00  5.3723218573213270e-03 1.9437021783341028e-03 0.0000000000000000e+00  6.4653647793561572e-02 8.9154444452851198e+00 0.0000000000000000e+00  5.3679299885895813e-03 -2.2569879540001734e-03 0.0000000000000000e+00  3.4735117286709533e-01 1.1364212049950341e+01 0.0000000000000000e+00  5.0455153435424860e-01 1.1086737388969738e+01 0.0000000000000000e+00  -1.1088815950054456e+00 7.9430510705800907e+00 0.0000000000000000e+00  3.4995578239678810e-01 7.8976929895467638e+00 0.0000000000000000e+00  2.1816243243611258e-01 5.8332917461484239e+00 0.0000000000000000e+00  7.0627034154636592e-01 4.6470009797791532e+00 0.0000000000000000e+00  8.0002274731234568e-01 3.3046078456182024e+00 0.0000000000000000e+00  9.7770342828114787e-01 2.4771892554861381e+00 0.0000000000000000e+00  1.0586083683783827e+00 1.9092876239944798e+00 0.0000000000000000e+00  1.1609624789248172e+00 1.5505759807640715e+00 0.0000000000000000e+00  1.1754824165309499e+00 1.2829612444197180e+00 0.0000000000000000e+00  1.2476810571107471e+00 1.2369134052406885e+00 0.0000000000000000e+00  1.3534695580371285e+00 1.2996837706214077e+00 0.0000000000000000e+00  1.4420131432225824e+00 1.4055436965956016e+00 0.0000000000000000e+00  1.5056985516910617e+00 1.5106129809658599e+00 0.0000000000000000e+00  1.5460860751647367e+00 1.5785539202332066e+00 0.0000000000000000e+00  1.5416703538016028e+00 1.5928505591192876e+00 0.0000000000000000e+00  1.5169275488490879e+00 1.5869375939434212e+00 0.0000000000000000e+00  1.4808992616326186e+00 1.5289845411907597e+00 0.0000000000000000e+00  1.4250448490935921e+00 1.4749397768121719e+00 0.0000000000000000e+00  1.3616864102100623e+00 1.3520095078949379e+00 0.0000000000000000e+00  1.3006631624419238e+00 1.2986931917198559e+00 0.0000000000000000e+00  1.2261376753905209e+00 1.0810041982761731e+00 0.0000000000000000e+00  1.1497576576463913e+00 1.0972336607918614e+00 0.0000000000000000e+00  1.0645897022239541e+00 7.0440985128672085e-01 0.0000000000000000e+00  9.6780744899824078e-01 9.4629333247410874e-01 0.0000000000000000e+00  8.4672817720010241e-01 2.7212384629371894e-01 0.0000000000000000e+00  6.9909673619898061e-01 6.1500213736446585e-01 0.0000000000000000e+00  5.1246736006640825e-01 2.5143955652976739e+00 0.0000000000000000e+00  1.6108462709977056e+00 1.5333039054905981e+00 0.0000000000000000e+00  1.4412086007838785e+00 2.0952787073936698e+00 0.0000000000000000e+00  1.7799210772978635e+00 1.3716797076172718e+00 0.0000000000000000e+00  1.9549250131318405e+00 1.4429432614180366e+00 0.0000000000000000e+00  2.0974133845175116e+00 1.2050270055275607e+00 0.0000000000000000e+00  2.2750713109288885e+00 1.1892038329543979e+00 0.0000000000000000e+00  2.4330406581164605e+00 1.0299217259229130e+00 0.0000000000000000e+00  2.4803539537675157e+00 7.5220751637107042e-01 0.0000000000000000e+00  2.4237930709932924e+00 2.7866379865455088e-01 0.0000000000000000e+00  2.4033806998693872e+00 -1.2932744580351527e-01 0.0000000000000000e+00  2.3076658410108690e+00 -7.1864940688670564e-01 0.0000000000000000e+00  2.1568661800335116e+00 -1.4674567834193204e+00 0.0000000000000000e+00  2.3061874727086979e+00 -1.8363749881597800e+00 0.0000000000000000e+00  2.2464271745963789e+00 -2.5512071313004339e+00 0.0000000000000000e+00  4.6765199407081850e+00 4.7562546126556682e-01 0.0000000000000000e+00  5.7946973874553924e+00 1.5286706782331414e+00 0.0000000000000000e+00  6.1027709751152059e+00 1.3888776623451533e+00 0.0000000000000000e+00  6.0837042632294978e+00 8.8485831228901224e-01 0.0000000000000000e+00  5.8787747318727686e+00 1.6803999242427387e-01 0.0000000000000000e+00  5.6048140336454297e+00 -5.4232535172037555e-01 0.0000000000000000e+00  5.2617572266820476e+00 -1.2622738609713282e+00 0.0000000000000000e+00  4.8413561852220157e+00 -1.9872688250250019e+00 0.0000000000000000e+00  4.3341178151558752e+00 -2.8882067401901734e+00 0.0000000000000000e+00  3.7339379247131741e+00 -3.6796287122679181e+00 0.0000000000000000e+00  3.0513346670527430e+00 -4.8193059283347592e+00 0.0000000000000000e+00  2.3228318968082320e+00 -5.5067222167232828e+00 0.0000000000000000e+00  1.6012078407451087e+00 -6.5108683046090770e+00 0.0000000000000000e+00  9.3735751763341812e-01 -6.2586701748891738e+00 0.0000000000000000e+00  4.1987512132111482e-01 -6.2054100144603037e+00 0.0000000000000000e+00  7.3164770764905296e-02 -3.2374233025062891e+00 0.0000000000000000e+00  9.0929981990591248e-03 2.4626203846325858e-03 0.0000000000000000e+00  7.9494310995355033e-02 8.6333965658188507e+00 0.0000000000000000e+00  9.0884770737340997e-03 -2.8796558434989487e-03 0.0000000000000000e+00  3.9964142548896847e-01 1.0834963200521820e+01 0.0000000000000000e+00  7.6984501345520673e-01 1.0834974670919168e+01 0.0000000000000000