<?xml version="1.0"?>
<VTKFile type="UnstructuredGrid"  version="0.1"  >
<UnstructuredGrid>
<Piece  NumberOfPoints="1933" NumberOfCells="3640">
<Points>
<DataArray  type="Float64"  NumberOfComponents="3"  format="ascii">-0.2935367065956317 -0.003462444035724791 0  4.706463364646237 -0.003373950025800015 0  4.706330597408173 7.49662621464369 0  -0.2936694970225168 7.496537684248112 0  9.706463486580773 -0.003285576862849492 0  9.706330751156557 7.496714591602971 0  14.70646372364644 -0.003197308922986659 0  14.70633098673654 7.496802853927879 0  19.7064641286252 -0.003109090235358379 0  19.70633132173451 7.496891065341048 0  24.70646473987379 -0.00302084463181948 0  24.70633176883415 7.496979304488343 0  29.70646558297593 -0.002932484950001053 0  29.70633233510495 7.497067659120788 0  34.70646667316231 -0.002843916906755478 0  34.70633302146778 7.497156223443397 0  39.70646801735226 -0.002755040155229622 0  39.70633382229506 7.497245097511833 0  44.70646961552928 -0.002665747739472504 0  44.70633472495706 7.497334387937851 0  49.70647146142986 -0.002575924535418131 0  49.70633570913483 7.497424209490251 0  54.70647354258673 -0.002485444934747552 0  54.70633674575874 7.497514687401157 0  59.70647583973945 -0.002394169832776561 0  59.70633779543291 7.4976059603383 0  64.70647832557881 -0.002301942848469403 0  64.70633880618514 7.497698184115928 0  69.70648096270209 -0.002208585592454589 0  69.70633971033705 7.497791536313145 0  74.70648370055805 -0.002113891679634734 0  74.7063404202077 7.497886222068482 0  79.70648647098938 -0.0020176190323116 0  79.70634082224325 7.497982481437734 0  84.70648918173694 -0.001919479810442183 0  84.70634076901312 7.498080598849606 0  89.70649170683905 -0.00181912700205005 0  89.70634006828394 7.498180915379637 0  94.70649387215713 -0.001716136260115984 0  94.70633846811167 7.498283844779713 0  99.70649543299213 -0.001609980917940914 0  99.70633563660724 7.498389894407843 0  104.7064960385357 -0.001499997180499446 0  104.7063311348145 7.498499692271309 0  109.7064951738127 -0.001385335232704028 0  109.7063243813707 7.498614020980262 0  114.7064920623308 -0.001264890546448922 0  114.7063146090754 7.498733857688503 0  119.7064854987919 -0.001137208675158108 0  119.7063008180431 7.498860414180705 0  124.7064735554407 -0.001000358624541648 0  124.7062817419826 7.498995159003692 0  129.7064530574049 -0.000851781718911387 0  129.7062558723474 7.49913977521739 0  134.7064186320631 -0.0006881671592676264 0  134.7062216488521 7.499295946179554 0  139.7063609665895 -0.0005055564675529459 0  139.7061780646725 7.499464742825344 0  144.7062635710181 -0.0003004145230596272 0  144.7061262402735 7.499645215632918 0  149.7060965869933 -7.452062270770971e-05 0  149.7060732255956 7.499831916987185 0  159.7061073738521 9.043286030428823e-19 0  164.7060767318921 -0.0001097682661083706 0  164.7061046873709 7.499864389400812 0  159.706102710145 7.499940748101432 0  169.7060854778766 -0.0001687267202929537 0  169.7061062275948 7.499818697063655 0  174.7061104392499 -0.0001922867632888947 0  174.7061117927665 7.499801285410479 0  179.7061409056606 -0.0001902003492840666 0  179.7061211455681 7.499806458874415 0  184.7061719177496 -0.0001692546114372364 0  184.7061330262405 7.499829017582066 0  189.706201268991 -0.0001342826835918203 0  189.7061462163846 7.499864851518407 0  194.7062280826731 -8.875697567022587e-05 0  194.7061597930023 7.499910845041963 0  199.7062521183409 -3.519591713594891e-05 0  199.7061731307749 7.499964662853835 0  204.7062734304088 2.455190329039519e-05 0  204.7061858388421 7.500024552518158 0  209.7062922000646 8.911071036725495e-05 0  209.7061976933649 7.500089189607329 0  214.7063086532322 0.0001574415807957778 0  214.7062085829698 7.50015756306366 0  219.706323021434 0.0002287484386904845 0  219.7062184690572 7.500228892196092 0  224.706335524052 0.0003024125579492106 0  224.7062273584269 7.500302566936859 0  229.706346361222 0.0003779463919466793 0  229.7062352850195 7.500378104718773 0  234.7063557119538 0.0004549605704215875 0  234.70624229803 7.500455119108657 0  239.7063637347614 0.0005331399557789339 0  239.7062484543522 7.500533296757169 0  244.7063705694539 0.0006122260177079224 0  244.706253813922 7.500612380272014 0  249.706376339413 0.0006920036892502229 0  249.7062584369865 7.500692155359808 0  254.7063811540571 0.0007722914685420149 0  254.706262382657 7.500772441097765 0  259.706385111356 0.0008529339373475901 0  259.7062657083077 7.500853082557061 0  264.7063883003772 0.0009337961532884049 0  264.7062684695372 7.50093394525987 0  269.7063908038656 0.001014759587774216 0  269.7062707204996 7.501014911149459 0  274.7063927009047 0.001095719463297771 0  274.7062725144406 7.50109587591662 0  279.70639406968 0.001176583523965195 0  279.7062739043217 7.501176747678498 0  284.7063949903226 0.001257272484346944 0  284.7062749434011 7.501257447166574 0  289.7063955476427 0.001337722682249603 0  289.7062756856172 7.501337909761469 0  294.7063958333002 0.001417891853424734 0  294.7062761856758 7.501418089915382 0  299.7063959462173 0.001497769470473444 0  299.7062764988255 7.501497968709161 0  304.7063959886752 0.00157739358706429 0  304.7062766808192 7.501577565464467 0  309.7063960524172 0.001656875499820513 0  309.7062767898605 7.501656954650695 0  4.70619755695547 14.9966265552167 0  -0.2938025352331369 14.99653799216897 0  9.706197678165424 14.99671490443429 0  14.7061978402682 14.99680312287578 0  19.70619804583618 14.99689129075636 0  24.70619829251748 14.99697949156841 0  29.70619857398157 14.99706781327374 0  34.70619887956366 14.99715634858064 0  39.70619919344436 14.99724519548767 0  44.70619949362798 14.99733445836253 0  49.70619975075216 14.99742424957219 0  54.70619992667196 14.99751469164603 0  59.70619997273093 14.99760591998616 0  64.70619982761912 14.99769808618489 0  69.70619941471128 14.99779136205722 0  74.70619863878434 14.99788594454002 0  79.70619738203 14.9979820616433 0  84.70619549934226 14.99807997964735 0  89.70619281299969 14.99818001169247 0  94.70618910717535 14.99828252772906 0  99.70618412329613 14.99838796534748 0  104.7061775584355 14.99849683999966 0  109.7061690709621 14.9986097510249 0  114.70615830125 14.99872737569816 0  119.7061449210627 14.99885043545137 0  124.7061287339862 14.9989796034795 0  129.7061098605438 14.99911529652612 0  134.7060890509722 14.99925724983913 0  139.7060681598971 14.99940370805474 0  144.7060507425601 14.99954997276736 0  149.7060424571311 14.99968587305191 0  164.706084986302 14.9997922500287 0  159.7060780278172 14.99981264639361 0  169.7060853544083 14.99977954040096 0  174.7060841197101 14.99978036684122 0  179.7060836999376 14.99979547348272 0  184.7060848690104 14.99982342888732 0  189.7060876105534 14.99986219414405 0  194.7060916035759 14.99990977563162 0  199.7060964590637 14.99996444569367 0  204.7061018208476 15.0000247825084 0  209.7061073993563 15.00008964281263 0  214.7061129750088 15.00015811567869 0  219.7061183896587 15.00022947629293 0  224.7061235347462 15.00030314608932 0  229.7061283398607 15.00037866044764 0  234.7061327630678 15.00045564327367 0  239.7061367832345 15.00053378725516 0  244.706140394186 15.00061283859775 0  249.7061436003756 15.00069258523261 0  254.7061464137343 15.00077284770403 0  259.7061488514274 15.00085347214608 0  264.7061509342588 15.00093432492236 0  269.7061526855642 15.00101528864199 0  274.7061541304162 15.00109625937647 0  279.7061552950597 15.00117714499644 0  284.7061562065176 15.00125786461854 0  289.706156892387 15.00133834918723 0  294.7061573810378 15.00141854317236 0  299.7061577026441 15.00149840715811 0  304.706157892028 15.00157792055569 0  309.7061579950542 15.00165708244738 0  4.706064432709971 22.4966271501696 0  -0.2939356522082564 22.49653865470819 0  9.706064517977028 22.49671540481655 0  14.70606460359967 22.49680352273342 0  19.70606468401274 22.49689159508339 0  24.70606474955591 22.4969797086487 0  29.70606478720389 22.49706795034846 0  34.7060647804874 22.49715640967802 0  39.70606470891955 22.49724518034713 0  44.70606454716023 22.49733436175794 0  49.70606426404169 22.49742406061101 0  54.70606382149975 22.49751439276457 0  59.70606317343342 22.49760548540305 0  64.70606226451349 22.49769747954662 0  69.70606102899411 22.49779053291283 0  74.70605938964729 22.49788482311321 0  79.70605725704542 22.49798055109855 0  84.70605452960011 22.49807794463638 0  89.70605109504717 22.49817726134918 0  94.70604683451469 22.49827879038185 0  99.70604163097255 22.49838285094782 0  104.7060353848181 22.49848978459507 0  109.706028040623 22.49859993567043 0  114.7060196305353 22.49871361064703 0  119.7060103410169 22.49883100114226 0  124.7060006092261 22.49895204726807 0  129.7059912504988 22.49907620837287 0  134.7059836033356 22.49920210219849 0  139.7059796432294 22.49932698662853 0  144.7059819486102 22.49944613380453 0  149.7059932967973 22.49955240652589 0  164.7060310324637 22.49970944094541 0  159.7060242599655 22.49969146386493 0  169.7060318337468 22.49972609705683 0  174.706029259946 22.499747197668 0  179.7060254521978 22.49977551483135 0  184.7060217534143 22.49981180835675 0  189.7060188365357 22.49985573743576 0  194.7060169358734 22.49990647371379 0  199.7060160390475 22.49996304599274 0  204.7060160149805 22.50002451024666 0  209.7060166897125 22.50009002100154 0  214.7060178871319 22.50015885192076 0  219.7060194483676 22.50023039253705 0  224.7060212391076 22.50030413528433 0  229.7060231505782 22.50037965982287 0  234.7060250975155 22.5004566178435 0  239.7060270149656 22.50053471961183 0  244.7060288548685 22.50061372258308 0  249.706030582866 22.50069342201287 0  254.7060321755256 22.50077364333371 0  259.7060336179902 22.50085423603927 0  264.7060349020505 22.50093506883733 0  269.706036024565 22.50101602587316 0  274.7060369861925 22.50109700386047 0  279.7060377904186 22.50117790997992 0  284.7060384428913 22.50125866039245 0  289.7060389511846 22.50133917914601 0  294.7060393252086 22.5014193970784 0  299.7060395786257 22.
[...]
<PointData  Vectors="v"> 
<DataArray  type="Float64"  Name="v"  NumberOfComponents="3" format="ascii">-3.6607369631468876e+00 1.6118674640567416e+00 0.0000000000000000e+00  -3.5151108702456466e+00 1.8448748562868331e+00 0.0000000000000000e+00  -2.8981083525554676e+00 1.6264422433740591e+00 0.0000000000000000e+00  -3.0051563099815373e+00 1.4520372131723629e+00 0.0000000000000000e+00  -3.2703949855986014e+00 2.3600468107463106e+00 0.0000000000000000e+00  -2.7524183368277360e+00 1.9933926771540253e+00 0.0000000000000000e+00  -2.9647065633509038e+00 3.0916164942873792e+00 0.0000000000000000e+00  -2.5080048408287334e+00 2.6335833800619572e+00 0.0000000000000000e+00  -2.6062944560874954e+00 3.8036122327250252e+00 0.0000000000000000e+00  -2.2028424450376938e+00 3.2670300704676700e+00 0.0000000000000000e+00  -2.1999837921944132e+00 4.6450304089761207e+00 0.0000000000000000e+00  -1.8452867860492475e+00 4.0371050204274583e+00 0.0000000000000000e+00  -1.8040939716979336e+00 5.4013724068707543e+00 0.0000000000000000e+00  -1.4406521369326251e+00 4.8094038827891099e+00 0.0000000000000000e+00  -1.6320670320082398e+00 5.8228722544753584e+00 0.0000000000000000e+00  -1.0469660558080585e+00 5.5676062077664268e+00 0.0000000000000000e+00  -1.1323816756407972e+00 6.6864860456059896e+00 0.0000000000000000e+00  -8.7782833969388985e-01 5.9404355539789959e+00 0.0000000000000000e+00  -3.0267484460499494e+00 3.9582083977188391e+00 0.0000000000000000e+00  -3.8219874174258206e-01 6.8038725279573686e+00 0.0000000000000000e+00  1.3452295990889669e+00 1.0504423540621389e+01 0.0000000000000000e+00  -2.2815210179244301e+00 3.9514865484985027e+00 0.0000000000000000e+00  -2.9114471867400290e-02 8.2009119684475031e+00 0.0000000000000000e+00  2.0856295274702141e+00 1.0268025906405809e+01 0.0000000000000000e+00  -3.1635579760424282e-01 7.5322326334749006e+00 0.0000000000000000e+00  7.0476129516803143e-01 7.9709733902104887e+00 0.0000000000000000e+00  1.9564553640009464e-02 7.8396450696690296e+00 0.0000000000000000e+00  4.0849467350271473e-01 7.3456104523760040e+00 0.0000000000000000e+00  8.0890247763726830e-01 8.8248132458414101e+00 0.0000000000000000e+00  7.3333242375356456e-01 7.6530722916133964e+00 0.0000000000000000e+00  1.8665601422740064e+00 1.0153266654333823e+01 0.0000000000000000e+00  1.5083279352359236e+00 8.5804469046464131e+00 0.0000000000000000e+00  3.1365585879754536e+00 1.1682387266836924e+01 0.0000000000000000e+00  2.5494847851304767e+00 9.7940611330464655e+00 0.0000000000000000e+00  4.5742937269056689e+00 1.3372814693756458e+01 0.0000000000000000e+00  3.8006215914608514e+00 1.1235325378082676e+01 0.0000000000000000e+00  6.1349427043133486e+00 1.5039835340962030e+01 0.0000000000000000e+00  5.2154973747059534e+00 1.2719945825915893e+01 0.0000000000000000e+00  7.7828282925663652e+00 1.6677150282759996e+01 0.0000000000000000e+00  6.7509224706697868e+00 1.4230398936972740e+01 0.0000000000000000e+00  9.4776133617774097e+00 1.8201441492595432e+01 0.0000000000000000e+00  8.3697825726396360e+00 1.5686823014634641e+01 0.0000000000000000e+00  1.1152417595241657e+01 1.9510868652620168e+01 0.0000000000000000e+00  1.0031732831693889e+01 1.7030038090513301e+01 0.0000000000000000e+00  1.2744993805537639e+01 2.0422716115428909e+01 0.0000000000000000e+00  1.1668645798777733e+01 1.8068016362334486e+01 0.0000000000000000e+00  1.4202866969795176e+01 2.1036434644608843e+01 0.0000000000000000e+00  1.3221633510088397e+01 1.8890149572121409e+01 0.0000000000000000e+00  1.5452927665264829e+01 2.0836456213928081e+01 0.0000000000000000e+00  1.4630227508503250e+01 1.9000923589921168e+01 0.0000000000000000e+00  1.6476843312633505e+01 2.0160556201886791e+01 0.0000000000000000e+00  1.5833657689640230e+01 1.8676652482165078e+01 0.0000000000000000e+00  1.7227303275827097e+01 1.8278112903580745e+01 0.0000000000000000e+00  1.6794783595145464e+01 1.7196300445238847e+01 0.0000000000000000e+00  1.7742160932933977e+01 1.5454960207742243e+01 0.0000000000000000e+00  1.7492936474887465e+01 1.4749059962148552e+01 0.0000000000000000e+00  1.8011282235256679e+01 1.1412440768850619e+01 0.0000000000000000e+00  1.7928432308557287e+01 1.1054306199770433e+01 0.0000000000000000e+00  1.8136907029276706e+01 4.7738931743730131e+00 0.0000000000000000e+00  1.8141642102972760e+01 4.6699656338621107e+00 0.0000000000000000e+00  1.8163558468806830e+01 -3.2712583389399473e-05 0.0000000000000000e+00  1.8163235006051032e+01 -3.7068920449230059e-04 0.0000000000000000e+00  1.8163563200036265e+01 1.7613376340579142e-19 0.0000000000000000e+00  1.3886647448914582e+01 -1.1547495084423902e+01 0.0000000000000000e+00  1.8132907449893224e+01 -5.1675357569742628e+00 0.0000000000000000e+00  1.8163249644961503e+01 2.9279542638512072e-04 0.0000000000000000e+00  1.2625042298269362e+01 -2.0107070635925464e+01 0.0000000000000000e+00  1.3905654596816804e+01 -1.8283895546264926e+01 0.0000000000000000e+00  1.0752083127950716e+01 -2.3968553280934355e+01 0.0000000000000000e+00  1.2702759275041215e+01 -2.1195625904733387e+01 0.0000000000000000e+00  9.6683920615884364e+00 -2.4786011127706789e+01 0.0000000000000000e+00  1.0884458964714538e+01 -2.3208516611784162e+01 0.0000000000000000e+00  8.4454495380541914e+00 -2.4338917059055646e+01 0.0000000000000000e+00  9.8498216519370096e+00 -2.2544259153198190e+01 0.0000000000000000e+00  7.4358257760729662e+00 -2.2818262217668654e+01 0.0000000000000000e+00  8.6725822403452639e+00 -2.1344149736276783e+01 0.0000000000000000e+00  6.4875881617925577e+00 -2.1034534149731979e+01 0.0000000000000000e+00  7.7075132612326556e+00 -1.9647719284211185e+01 0.0000000000000000e+00  5.6358232230405676e+00 -1.9024439361804596e+01 0.0000000000000000e+00  6.7999147633787675e+00 -1.7782867817346879e+01 0.0000000000000000e+00  4.7477490024970894e+00 -1.7211505480723886e+01 0.0000000000000000e+00  5.9868908648520289e+00 -1.5912396760068487e+01 0.0000000000000000e+00  4.0383732550356930e+00 -1.5474960843886057e+01 0.0000000000000000e+00  5.1361062968294569e+00 -1.4442757982511720e+01 0.0000000000000000e+00  3.4068151393457451e+00 -1.3961174844388182e+01 0.0000000000000000e+00  4.4618873293146484e+00 -1.3044565564287808e+01 0.0000000000000000e+00  2.7541282187551963e+00 -1.2747281590064082e+01 0.0000000000000000e+00  3.8639798461413832e+00 -1.1797722878157249e+01 0.0000000000000000e+00  2.1592988594927514e+00 -1.1688606411697283e+01 0.0000000000000000e+00  3.2439366063446577e+00 -1.0824534105941515e+01 0.0000000000000000e+00  1.6220935942375148e+00 -1.0766843242631214e+01 0.0000000000000000e+00  2.6802508350931480e+00 -9.9885562558029815e+00 0.0000000000000000e+00  1.1405504433175102e+00 -9.9232034931093587e+00 0.0000000000000000e+00  2.1730821354666143e+00 -9.2273870176398027e+00 0.0000000000000000e+00  7.2411675327058900e-01 -9.1200625736661554e+00 0.0000000000000000e+00  1.7207639966198842e+00 -8.5210936221703069e+00 0.0000000000000000e+00  3.6776955394213778e-01 -8.3623724380405271e+00 0.0000000000000000e+00  1.3325577306988821e+00 -7.8529859603464596e+00 0.0000000000000000e+00  5.6022880353372238e-02 -7.6213661625369093e+00 0.0000000000000000e+00  1.0036363945695288e+00 -7.1782649542571271e+00 0.0000000000000000e+00  -2.0785634800162611e-01 -6.8965126666046244e+00 0.0000000000000000e+00  7.1879931101700600e-01 -6.5246154565269237e+00 0.0000000000000000e+00  -4.2880029390976154e-01 -6.1814926637285508e+00 0.0000000000000000e+00  4.8111456377632228e-01 -5.8737204422547151e+00 0.0000000000000000e+00  -6.1363751179908155e-01 -5.4774348679646927e+00 0.0000000000000000e+00  2.8597725030577531e-01 -5.2232997306622613e+00 0.0000000000000000e+00  -7.6297821602598503e-01 -4.7566221180614274e+00 0.0000000000000000e+00  1.2639723907175762e-01 -4.5555960299047076e+00 0.0000000000000000e+00  -8.7002759805582175e-01 -4.0782495270161991e+00 0.0000000000000000e+00  2.2512822571429262e-03 -3.9400873776816328e+00 0.0000000000000000e+00  -9.4481908441864304e-01 -3.3244781865899524e+00 0.0000000000000000e+00  -8.0482859972660400e-02 -3.2350687488582985e+00 0.0000000000000000e+00  -9.7334704471061351e-01 -2.6943145363393262e+00 0.0000000000000000e+00  -1.3018629530603934e-01 -2.6730440725498275e+00 0.0000000000000000e+00  -9.5997806531344820e-01 -1.8767324846488118e+00 0.0000000000000000e+00  -1.3555581387969809e-01 -1.9199654852406776e+00 0.0000000000000000e+00  -8.9567128574483590e-01 -1.3959686563694140e+00 0.0000000000000000e+00  -9.6407478021036663e-02 -1.5124428939508960e+00 0.0000000000000000e+00  -7.6610796597875996e-01 -4.2837438947132822e-01 0.0000000000000000e+00  -1.1175974249722323e-02 -6.4765502437124234e-01 0.0000000000000000e+00  -5.2211198390556524e-01 5.1259795879068391e-02 0.0000000000000000e+00  1.4757022141671183e-01 -3.3071579547005286e-01 0.0000000000000000e+00  5.9436658237955353e-02 2.8484225187761275e-01 0.0000000000000000e+00  4.0323867317392192e-01 -6.2094430034102543e-01 0.0000000000000000e+00  -2.0120762597118351e+00 1.4648638508434479e+00 0.0000000000000000e+00  -2.1198396537212538e+00 1.2926644871380122e+00 0.0000000000000000e+00  -1.9033474248329625e+00 1.7735271711553917e+00 0.0000000000000000e+00  -1.7554190440725990e+00 2.2657721644699462e+00 0.0000000000000000e+00  -1.5088199598912877e+00 2.8081846079685926e+00 0.0000000000000000e+00  -1.2017651450356002e+00 3.4995968097165280e+00 0.0000000000000000e+00  -8.4258165793730566e-01 4.2019863057664413e+00 0.0000000000000000e+00  -4.3719023568324294e-01 4.9773641384646030e+00 0.0000000000000000e+00  -4.4099312366939515e-02 5.6872510400147887e+00 0.0000000000000000e+00  1.2332013908961391e-01 6.0626173178926495e+00 0.0000000000000000e+00  6.1470135775479351e-01 6.8045324076607399e+00 0.0000000000000000e+00  -1.2898748728375777e+00 3.7173070786747222e+00 0.0000000000000000e+00  3.0780273708008496e+00 1.0041626711288878e+01 0.0000000000000000e+00  1.6967694162267948e+00 7.7941964507869947e+00 0.0000000000000000e+00  1.3933110287610098e+00 7.1709166968040048e+00 0.0000000000000000e+00  1.7073717115551175e+00 7.4276215799491458e+00 0.0000000000000000e+00  2.4659497500877290e+00 8.2441311020570343e+00 0.0000000000000000e+00  3.4864062507805254e+00 9.3718818830496442e+00 0.0000000000000000e+00  4.7132165270771713e+00 1.0615025739180441e+01 0.0000000000000000e+00  6.0982543704815084e+00 1.1947790277450501e+01 0.0000000000000000e+00  7.5982920082879923e+00 1.3280387212731227e+01 0.0000000000000000e+00  9.1772227828006088e+00 1.4565578701923915e+01 0.0000000000000000e+00  1.0790968010428154e+01 1.5643499854613884e+01 0.0000000000000000e+00  1.2373002653134488e+01 1.6597521240889307e+01 0.0000000000000000e+00  1.3862212728310963e+01 1.6927875707761341e+01 0.0000000000000000e+00  1.5198975525779051e+01 1.6923687097247935e+01 0.0000000000000000e+00  1.6316421022051653e+01 1.5799906664919233e+01 0.0000000000000000e+00  1.7188773364713075e+01 1.3777572552642598e+01 0.0000000000000000e+00  1.7771179834845118e+01 1.0444501746354815e+01 0.0000000000000000e+00  1.8104105300157336e+01 4.4632584968964055e+00 0.0000000000000000e+00  1.8162460767162479e+01 -7.0458036436036491e-04 0.0000000000000000e+00  1.8092152936172340e+01 -4.9715696803991385e+00 0.0000000000000000e+00  1.8162478966119071e+01 5.7392053870186893e-04 0.0000000000000000e+00  1.7901120340378721e+01 -1.1961726797797557e+01 0.0000000000000000e+00  1.3744403872925611e+01 -1.9448765605919114e+01 0.0000000000000000e+00  1.2627852193172528e+01 -2.0523534375272270e+01 0.0000000000000000e+00  1.0877559257405663e+01 -2.1032397680890512e+01 0.0000000000000000e+00  9.9064545984467216e+00 -1.9608015187051883e+01 0.0000000000000000e+00  8.7809121898598281e+00 -1.8233241045311328e+01 0.0000000000000000e+00  7.8664989302153474e+00 -1.6447652794995122e+01 0.0000000000000000e+00  7.0025383379318704e+00 -1.4717408098749209e+01 0.0000000000000000e+00  6.2299401781511312e+00 -1.3190163128291053e+01 0.0000000000000000e+00  5.4169967086249491e+00 -1.2054841909182816e+01 0.0000000000000000e+00  4.7781297942673460e+00 -1.0920634057090707e+01 0.0000000000000000e+00  4.2131489268056050e+00 -9.9141271880671713e+00 0.0000000000000000e+00  3.6248199412227735e+00 -9.1611727804682843e+00 0.0000000000000000e+00  3.0909174371583181e+00 -8.4835903180532384e+00 0.0000000000000000e+00  2.6118003228892550e+00 -7.8591659755905425e+00 0.0000000000000000e+00  2.1863759679770562e+00 -7.2862421403234752e+00 0.0000000000000000e+00  1.8237127361494916e+00 -6.6996030546676941e+00 0.0000000000000000e+00  1.5191147930601547e+00 -6.1117436132344833e+00 0.0000000000000000e+00  1.2577996026036995e+00 -5.5310102348872325e+00 0.0000000000000000e+00  1.0428060171067666e+00 -4.9437980189136725e+00 0.0000000000000000e+00  8.6957502904618311e-01 -4.3293982574866927e+00 0.0000000000000000e+00  7.3152139612974454e-01 -3.7664104022471521e+00 0.0000000000000000e+00  6.2826516270051136e-01 -3.1236870862947135e+00 0.0000000000000000e+00  5.6624919403301532e-01 -2.6102754691806527e+00 0.0000000000000000e+00  5.3654355653667885e-01 -1.9248986434916671e+00 0.0000000000000000e+00  5.5161616626516741e-01 -1.5813881561255267e+00 0.0000000000000000e+00  6.0945490294051874e-01 -7.8995697200568926e-01 0.0000000000000000e+00  7.1531965332187453e-01 -5.7616580132316075e-01 0.0000000000000000e+00  8.9141154428097114e-01 -1.0201452230100605e+00 0.0000000000000000e+00  -7.0316290393525516e-01 1.3009731088863576e+00 0.0000000000000000e+00  -7.9509610115217699e-01 1.1582111918098699e+00 0.0000000000000000e+00  -5.9168565935866302e-01 1.6066345827352089e+00 0.0000000000000000e+00  -4.7670565946667681e-01 2.0399293792060522e+00 0.0000000000000000e+00  -3.2249090871599861e-01 2.4338525631317434e+00 0.0000000000000000e+00  -6.8851308936068639e-02 3.0345987963434418e+00 0.0000000000000000e+00  2.4531820395876430e-01 3.6595276645358430e+00 0.0000000000000000e+00  6.1050703570899456e-01 4.3661419324754931e+00 0.0000000000000000e+00  1.0208297465188862e+00 5.0961123485024169e+00 0.0000000000000000e+00  1.4166102049740015e+00 5.8126080332185408e+00 0.0000000000000000e+00  1.5826083005609444e+00 6.0714069055057296e+00 0.0000000000000000e+00  2.0686794714911527e+00 6.5784961646121696e+00 0.0000000000000000e+00  1.6368677092823500e-01 3.4842165676267931e+00 0.0000000000000000e+00  4.5444203112119190e+00 9.8584128527122008e+00 0.0000000000000000e+00  3.1739235955327967e+00 7.6293203984149667e+00 0.0000000000000000e+00  2.8684372751703320e+00 6.9658375479548562e+00 0.0000000000000000e+00  3.1707561013220409e+00 7.1216070311125215e+00 0.0000000000000000e+00  3.9095716281404900e+00 7.8624494673231027e+00 0.0000000000000000e+00  4.9031438760708674e+00 8.8016846157025181e+00 0.0000000000000000e+00  6.0946784595949319e+00 9.9023992735222031e+00 0.0000000000000000e+00  7.4369279818197587e+00 1.1069343225154041e+01 0.0000000000000000e+00  8.8856788871067192e+00 1.2244583765822556e+01 0.0000000000000000e+00  1.0401027806454863e+01 1.3276627101516347e+01 0.0000000000000000e+00  1.1940649119507338e+01 1.4292389559832277e+01 0.0000000000000000e+00  1.3431611182360514e+01 1.4768074066546010e+01 0.0000000000000000e+00  1.4816194564605766e+01 1.5014223497105084e+01 0.0000000000000000e+00  1.6023066714467301e+01 1.4219740454020528e+01 0.0000000000000000e+00  1.6999158866857741e+01 1.2608592223720109e+01 0.0000000000000000e+00  1.7688084625430069e+01 9.6772270830277591e+00 0.0000000000000000e+00  1.8095461702318712e+01 4.1790460828702072e+00 0.0000000000000000e+00  1.8161253040024015e+01 -1.0064900133588653e-03 0.0000000000000000e+00  1.8071574893391286e+01 -4.6264877724815303e+00 0.0000000000000000e+00  1.8161269317434162e+01 8.1979772029871654e-04 0.0000000000000000e+00  1.7669852720210812e+01 -1.1611764078624354e+01 0.0000000000000000e+00  1.7468593237647145e+01 -1.3302999310894387e+01 0.0000000000000000e+00  1.3435565013737230e+01 -1.8957271567333123e+01 0.0000000000000000e+00  1.2457635308874281e+01 -1.8486874565424554e+01 0.0000000000000000e+00  1.0815524175044811e+01 -1.8228465962634385e+01 0.0000000000000000e+00  9.9377321346408909e+00 -1.6604027372756988e+01 0.0000000000000000e+00  8.8903262680871755e+00 -1.5132645141331459e+01 0.0000000000000000e+00  8.0465957528733689e+00 -1.3470285782062406e+01 0.0000000000000000e+00  7.2436787633336506e+00 -1.2076078494616777e+01 0.0000000000000000e+00  6.5275156506738368e+00 -1.0876190292160588e+01 0.0000000000000000e+00  5.7659936404361938e+00 -1.0000971949898879e+01 0.0000000000000000e+00  5.1750201761424526e+00 -9.1025236273054659e+00 0.0000000000000000e+00  4.6553405865332520e+00 -8.3127879604293806e+00 0.0000000000000000e+00  4.1097701784575920e+00 -7.7149583066801375e+00 0.0000000000000000e+00  3.6158408711944752e+00 -7.1706992697008518e+00 0.0000000000000000e+00  3.1744289287192502e+00 -6.6766023731679942e+00 0.0000000000000000e+00  2.7844260567733357e+00 -6.1827155002939183e+00 0.0000000000000000e+00  2.4551138540654840e+00 -5.6804493433184646e+00 0.0000000000000000e+00  2.1821638710259230e+00 -5.1635824208431975e+00 0.0000000000000000e+00  1.9510646714414617e+00 -4.6448429748623203e+00 0.0000000000000000e+00  1.7649119580015553e+00 -4.0924156752918712e+00 0.0000000000000000e+00  1.6197148363966010e+00 -3.5812555509338337e+00 0.0000000000000000e+00  1.5086148695718391e+00 -2.9907547432759904e+00 0.0000000000000000e+00  1.4320539357515329e+00 -2.5378245903155876e+00 0.0000000000000000e+00  1.3954342196456302e+00 -1.9020765230498482e+00 0.0000000000000000e+00  1.3918081184298536e+00 -1.6225414008341015e+00 0.0000000000000000e+00  1.4300567543988392e+00 -8.9966289373391228e-01 0.0000000000000000e+00  1.5148504315272113e+00 -7.4935500162109536e-01 0.0000000000000000e+00  1.6375929879905087e+00 -1.3086063036541584e+00 0.0000000000000000e+00  5.0189653907456511e-01 1.1598735497877553e+00 0.0000000000000000e+00  4.3018603593155286e-01 1.0553653599299710e+00 0.0000000000000000e+00  5.9898551178062320e-01 1.4336346748843705e+00 0.0000000000000000e+00  7.1994767940199189e-01 1.8597540766179004e+00 0.0000000000000000e+00  8.4632571333137729e-01 2.1937877903912009e+00 0.0000000000000000e+00  1.0136961040869503e+00 2.6447527826376738e+00 0.0000000000000000e+00  1.2811974224031699e+00 3.1783008174899874e+00 0.0000000000000000e+00  1.6096202288361330e+00 3.8090306263020701e+00 0.0000000000000000e+00  1.9882683986572343e+00 4.4726384552487177e+00 0.0000000000000000e+00  2.4095258482952082e+00 5.2132166548958905e+00 0.0000000000000000e+00  2.8119040435704026e+00 5.8213486832134187e+00 0.0000000000000000e+00  2.9794352871764902e+00 5.8503402506091993e+00 0.0000000000000000e+00  3.4655688845338348e+00 6.3360524126840172e+00 0.0000000000000000e+00  1.5751672029470758e+00 3.2647029103692073e+00 0.0000000000000000e+00  5.9922168569341183e+00 9.6610486187153501e+00 0.0000000000000000e+00  4.6523738743899008e+00 7.4146499027148707e+00 0.0000000000000000e+00  4.3591465128505416e+00 6.6675644713279620e+00 0.0000000000000000e+00  4.6615587658863671e+00 6.7625051332831889e+00 0.0000000000000000e+00  5.3883868340426027e+00 7.3248145022893141e+00 0.0000000000000000e+00  6.3620299423152842e+00 8.1361485209974234e+00 0.0000000000000000e+00  7.5246085936966773e+00 9.0830506406933296e+00 0.0000000000000000e+00  8.8278091262698304e+00 1.0106627844303746e+01 0.0000000000000000e+00  1.0225901495578023e+01 1.1047573316843581e+01 0.0000000000000000e+00  1.1677795455441645e+01 1.2041705511887214e+01 0.0000000000000000e+00  1.3133053500585239e+01 1.2598761146550190e+01 0.0000000000000000e+00  1.4522862919316889e+01 1.3032346467024958e+01 0.0000000000000000e+00  1.5772914301367736e+01 1.2507651131381710e+01 0.0000000000000000e+00  1.6827136505707028e+01 1.1296305269460207e+01 0.0000000000000000e+00  1.7594157945284717e+01 8.7660557917176831e+00 0.0000000000000000e+00  1.8073776762501893e+01 3.8233518813007734e+00 0.0000000000000000e+00  1.8159659652306082e+01 -1.2745015432563693e-03 0.0000000000000000e+00  1.8048157727667466e+01 -4.1904644793482344e+00 0.0000000000000000e+00  1.8159674450710408e+01 1.0367798727982222e-03 0.0000000000000000e+00  1.7543826217493784e+01 -1.0837676151061920e+01 0.