<?xml version="1.0"?>
<VTKFile type="UnstructuredGrid"  version="0.1"  >
<UnstructuredGrid>
<Piece  NumberOfPoints="1933" NumberOfCells="3640">
<Points>
<DataArray  type="Float64"  NumberOfComponents="3"  format="ascii">-0.2935574795531673 -0.002745198411002124 0  4.706442548799792 -0.00265994501368921 0  4.706314619816975 7.497340099993245 0  -0.2936854026448615 7.497254859837293 0  9.706442609370823 -0.002574711479546323 0  9.706314647722845 7.497425321931263 0  14.70644271279894 -0.002489449412063681 0  14.70631467686562 7.49751057541905 0  19.70644285674157 -0.002404112218186111 0  19.70631469960945 7.497595906494062 0  24.70644303029401 -0.002318657375587613 0  24.70631470463291 7.497681356803755 0  29.7064432167843 -0.00223304622651814 0  29.70631467686328 7.497766964243003 0  34.70644339523975 -0.002147242949952096 0  34.70631459741267 7.497852764043564 0  39.70644354090823 -0.002061213363258662 0  39.70631444338141 7.497938789934037 0  44.70644362512364 -0.001974923788741983 0  44.70631418746153 7.498025075218012 0  49.7064436146955 -0.001888340048488554 0  49.70631379730636 7.498111653727997 0  54.7064434709132 -0.001801426581931079 0  54.70631323464244 7.49819856066197 0  59.70644314818822 -0.001714145654491847 0  59.7063124540948 7.498285833328874 0  64.70644259230387 -0.00162645661631771 0  64.70631140167882 7.498373511836018 0  69.70644173818769 -0.00153831516563113 0  69.70631001289102 7.498461639752254 0  74.70644050706615 -0.001449672565887518 0  74.70630821030019 7.498550264779641 0  79.70643880277787 -0.001360474756650528 0  79.70630590050325 7.498639439462933 0  84.70643650690576 -0.001270661282888619 0  84.7063029702654 7.498729221958025 0  89.70643347219962 -0.001180163945604032 0  89.70629928160905 7.498819676857681 0  94.70642951345769 -0.001088905050706516 0  94.70629466557187 7.498910876016165 0  99.70642439451731 -0.0009967951143757734 0  99.70628891432943 7.49900289917869 0  104.7064178091269 -0.0009037299081066448 0  104.7062817714604 7.49909583391179 0  109.7064093519335 -0.0008095868951902589 0  109.7062729204622 7.499189773643352 0  114.7063984731138 -0.0007142216831086806 0  114.7062619725679 7.499284811131355 0  119.7063844053771 -0.0006174667526071208 0  119.7062484571841 7.499381021504612 0  124.706366043545 -0.0005191390773027215 0  124.7062318234167 7.499478422353912 0  129.706341741864 -0.0004190744823544278 0  129.7062114721738 7.499576884592959 0  134.7063089680022 -0.0003172354142578455 0  134.7061868610127 7.49967594002407 0  139.7062637082097 -0.0002140138430952975 0  139.7061577685249 7.499774377497651 0  144.7061994455037 -0.0001110539688049463 0  144.7061248881553 7.499869422539533 0  149.7061054188583 -1.350582477923395e-05 0  149.7060910642427 7.499955158231692 0  159.7061073738538 6.954695280338058e-19 0  164.7061602609513 3.144596568520585e-05 0  164.7061174408724 7.500030150133719 0  159.7060948924562 7.499996964069783 0  169.7062051026321 8.017135227793176e-05 0  169.7061398384357 7.500079928861743 0  174.7062425280475 0.0001402513309849973 0  174.7061609117249 7.500140459416937 0  179.706273598168 0.000207897154074754 0  179.7061801212265 7.500208253635908 0  184.7062993882888 0.0002806946577219879 0  184.7061972828433 7.500281070800485 0  189.7063208390449 0.0003570725707521668 0  189.7062124138488 7.500357420375495 0  194.7063387275282 0.0004359802771240806 0  194.7062256368278 7.500436286116913 0  199.7063536817977 0.0005166962623389963 0  199.7062371215332 7.500516960020257 0  204.7063662065425 0.0005987128032778402 0  204.706247051626 7.500598938975475 0  209.7063767081001 0.0006816649436852909 0  209.7062556068682 7.500681859042567 0  214.7063855154006 0.0007652855641794826 0  214.7062629544382 7.500765452790453 0  219.7063928965094 0.000849376158178484 0  219.7062692454101 7.500849521008274 0  224.7063990714102 0.0009337872946851215 0  224.7062746140223 7.500933913530442 0  229.7064042218397 0.001018405213548468 0  229.706279178376 7.501018515955074 0  234.7064084988946 0.001103142409045507 0  234.7062830417973 7.501103240255669 0  239.7064120289747 0.00118793087917387 0  239.706286294453 7.501188018024467 0  244.706414918496 0.001272717206899329 0  244.706289015001 7.501272795538243 0  249.706417257686 0.001357458937902853 0  249.7062912721716 7.501357530120345 0  254.7064191237004 0.001442121907181044 0  254.7062931262358 7.50144218745368 0  259.7064205832332 0.001526678290220917 0  259.7062946303372 7.501526739619846 0  264.7064216947556 0.001611105240729335 0  264.7062958316939 7.501611163723544 0  269.70642251047 0.001695384043082396 0  269.7062967726641 7.501695441024832 0  274.7064230780571 0.001779499765336827 0  274.7062974916705 7.501779556554443 0  279.7064234422302 0.001863441456484472 0  279.7062980239783 7.50186349923575 0  284.7064236460804 0.001947202996254533 0  284.7062984022921 7.5019472625843 0  289.7064237320868 0.002030784779993581 0  289.7062986571544 7.502030846101214 0  294.7064237425096 0.002114196494651419 0  294.7062988171151 7.502114257510911 0  299.7064237185683 0.002197461256538072 0  299.7062989087168 7.502197515997 0  304.7064236972212 0.00228062110108716 0  304.7062989565005 7.502280656547568 0  309.7064237032364 0.002363742292390836 0  309.7062989836497 7.502363735580072 0  4.70618671270346 14.99734017713322 0  -0.2938133034413487 14.99725500036238 0  9.706186715350595 14.99742535054152 0  14.70618669519329 14.99751056933119 0  19.70618664176751 14.99759587528634 0  24.70618654321518 14.99768130598001 0  29.7061863856746 14.9977668961054 0  34.70618615269013 14.99785267848652 0  39.70618582467955 14.99793868498738 0  44.70618537841077 14.99802494734053 0  49.70618478643571 14.99811149788712 0  54.70618401643789 14.99819837022552 0  59.70618303046417 14.99828559977224 0  64.70618178402054 14.99837322423906 0  69.70618022502133 14.99846128402369 0  74.7061782925971 14.99854982249623 0  79.70617591578917 14.99863888613518 0  84.70617301221041 14.99872852441521 0  89.70616948683708 14.99881878925619 0  94.70616523125848 14.99890973367291 0  99.70616012399414 14.99900140895421 0  104.7061540329696 14.99909385913676 0  109.7061468220438 14.99918711052238 0  114.7061383647447 14.99928115219114 0  119.7061285702271 14.99937590036778 0  124.7061174288421 14.99947113441466 0  129.706105086831 14.99956638457197 0  134.7060919587921 14.99966074217386 0  139.7060788752877 14.99975255864365 0  144.7060672236429 14.99983902655768 0  149.7060589366316 14.99991578099312 0  164.7060710859834 15.00002706468157 0  159.7060637454316 14.99998284609632 0  169.7060788136339 15.00008076754956 0  174.7060871831449 15.00014256897154 0  179.7060958719495 15.0002105990809 0  184.7061045103582 15.00028326539847 0  189.7061128134075 15.00035934421784 0  194.7061205961963 15.00043792623149 0  199.7061277564921 15.00051834236468 0  204.7061342519071 15.00060010008946 0  209.7061400801031 15.00068283492968 0  214.7061452638384 15.00076627516416 0  219.7061498404369 15.00085021655557 0  224.7061538547001 15.00093450430399 0  229.7061573543087 15.00101902009877 0  234.7061603869553 15.00110367274969 0  239.7061629986388 15.00118839134205 0  244.7061652327297 15.00127312019025 0  249.7061671295367 15.00135781509371 0  254.7061687261865 15.00144244055666 0  259.7061700566949 15.00152696774306 0  264.7061711521453 15.00161137301527 0  269.7061720409194 15.00169563696252 0  274.7061727489389 15.0017797438682 0  279.7061732999071 15.0018636815974 0  284.7061737155531 15.00194744190903 0  289.7061740159093 15.00203102120433 0  294.706174219736 15.00211442170952 0  299.7061743452775 15.00219765304467 0  304.7061744117188 15.00228073406679 0  309.7061744419753 15.0023636948892 0  4.706058982912467 22.49734026495813 0  -0.2939410287177425 22.49725521602105 0  9.706058973207073 22.49742534640376 0  14.70605892925173 22.49751049707584 0  19.70605883983331 22.49759574991953 0  24.70605869405907 22.4976811355472 0  29.70605848044785 22.49776668316722 0  34.70605818623582 22.49785242122751 0  39.70605779683411 22.49793837794097 0  44.70605729539768 22.49802458174855 0  49.70605666247459 22.49811106172287 0  54.7060558757136 22.49819784789654 0  59.70605490962708 22.49828497149106 0  64.70605373542782 22.49837246501367 0  69.7060523209838 22.49846036217076 0  74.70605063097589 22.49854869751811 0  79.70604862739398 22.49863750571599 0  84.70604627058725 22.49872682017589 0  89.70604352119872 22.49881667075088 0  94.70604034347825 22.4989070799081 0  99.70603671069098 22.4989980564816 0  104.7060326136284 22.49908958557546 0  109.7060280735478 22.49918161239471 0  114.7060231611084 22.4992740166594 0  119.706018022775 22.49936657284964 0  124.7060129151228 22.49945889022433 0  129.7060082444069 22.49955032670509 0  134.7060046018157 22.49963987601458 0  139.7060027718588 22.49972604684102 0  144.7060036721417 22.49980680567683 0  149.7060081680411 22.49987977748313 0  164.7060108480862 22.50002216588912 0  159.7060120999961 22.49996845062214 0  169.7060101706928 22.50008104753685 0  174.7060104040252 22.50014525314904 0  179.7060115750054 22.50021418173637 0  184.7060135216263 22.50028699160769 0  189.7060160209801 22.5003628651476 0  194.7060188582061 22.5004411028513 0  199.7060218542858 22.50052113953377 0  204.7060248722196 22.50060253110079 0  209.7060278135846 22.50068493323493 0  214.7060306117647 22.50076808043033 0  219.7060332248064 22.50085176814216 0  224.7060356291124 22.50093583850449 0  229.7060378143136 22.50102016923869 0  234.7060397793005 22.50110466515877 0  239.7060415292419 22.50118925170389 0  244.706043073395 22.50127387002192 0  249.7060444235194 22.5013584732352 0  254.7060455927495 22.50144302360964 0  259.7060465947937 22.50152749042385 0  264.7060474433807 22.50161184838957 0  269.7060481518814 22.50169607651808 0  274.7060487330698 22.50178015735464 0  279.7060491990064 22.50186407652034 0  284.7060495610606 22.50194782250094 0  289.7060498301229 22.50203138660417 0  294.7060500171091 22.50211476295994 0  299.7060501339183 22.50219794835
[...]
<PointData  Vectors="v"> 
<DataArray  type="Float64"  Name="v"  NumberOfComponents="3" format="ascii">-3.6601960998054253e+00 1.6127002254620779e+00 0.0000000000000000e+00  -3.5146537320979729e+00 1.8415275842411392e+00 0.0000000000000000e+00  -2.8975568423532017e+00 1.6232204786911533e+00 0.0000000000000000e+00  -3.0046790020624150e+00 1.4527584802694253e+00 0.0000000000000000e+00  -3.2702452139115361e+00 2.3551317344353260e+00 0.0000000000000000e+00  -2.7519505131421216e+00 1.9889388800879186e+00 0.0000000000000000e+00  -2.9648315601290576e+00 3.0870571759236420e+00 0.0000000000000000e+00  -2.5078443620839015e+00 2.6294366617770657e+00 0.0000000000000000e+00  -2.6066395414244417e+00 3.7982470634699470e+00 0.0000000000000000e+00  -2.2029568382862088e+00 3.2619955225474291e+00 0.0000000000000000e+00  -2.2006761202027638e+00 4.6393839448064949e+00 0.0000000000000000e+00  -1.8456213212173422e+00 4.0319800477253906e+00 0.0000000000000000e+00  -1.8049582486126317e+00 5.3953090913913933e+00 0.0000000000000000e+00  -1.4413340556121117e+00 4.8035990349009374e+00 0.0000000000000000e+00  -1.6328311252660925e+00 5.8171191992949112e+00 0.0000000000000000e+00  -1.0478200463964524e+00 5.5617030171758106e+00 0.0000000000000000e+00  -1.1332758230959306e+00 6.6804849114888771e+00 0.0000000000000000e+00  -8.7858230697391360e-01 5.9346301980523020e+00 0.0000000000000000e+00  -3.0278920680200669e+00 3.9519630586479835e+00 0.0000000000000000e+00  -3.8308291014644108e-01 6.7979977842711454e+00 0.0000000000000000e+00  1.3449015804195437e+00 1.0499429359236991e+01 0.0000000000000000e+00  -2.2826550458371790e+00 3.9452768799185578e+00 0.0000000000000000e+00  -2.9392646001514974e-02 8.1957366437740227e+00 0.0000000000000000e+00  2.0853111402640812e+00 1.0262772325483819e+01 0.0000000000000000e+00  -3.1658945834665220e-01 7.5268650795765586e+00 0.0000000000000000e+00  7.0449234026370278e-01 7.9655376518798491e+00 0.0000000000000000e+00  1.9370819081895252e-02 7.8341803266800971e+00 0.0000000000000000e+00  4.0826997144957794e-01 7.3400858608019144e+00 0.0000000000000000e+00  8.0874420588618556e-01 8.8191705812279633e+00 0.0000000000000000e+00  7.3314746704043321e-01 7.6473777778317729e+00 0.0000000000000000e+00  1.8664327229682565e+00 1.0147562457611683e+01 0.0000000000000000e+00  1.5081783206219139e+00 8.5746987464611522e+00 0.0000000000000000e+00  3.1364573451764617e+00 1.1676723289926684e+01 0.0000000000000000e+00  2.5493659562669673e+00 9.7883611566540409e+00 0.0000000000000000e+00  4.5742141087586896e+00 1.3367110273344466e+01 0.0000000000000000e+00  3.8005290887176364e+00 1.1229592938115625e+01 0.0000000000000000e+00  6.1348799402045184e+00 1.5034130810561697e+01 0.0000000000000000e+00  5.2154266121541619e+00 1.2714221297527937e+01 0.0000000000000000e+00  7.7827779228248497e+00 1.6671523531269163e+01 0.0000000000000000e+00  6.7508690148630333e+00 1.4224759984469729e+01 0.0000000000000000e+00  9.4775713263910539e+00 1.8195632962104590e+01 0.0000000000000000e+00  8.3697421955553111e+00 1.5681009371857693e+01 0.0000000000000000e+00  1.1152380543968080e+01 1.9504950534623795e+01 0.0000000000000000e+00  1.0031701800909477e+01 1.7024120468593335e+01 0.0000000000000000e+00  1.2744959120165761e+01 2.0416485222294611e+01 0.0000000000000000e+00  1.1668620757569007e+01 1.8061789157208182e+01 0.0000000000000000e+00  1.4202834627721934e+01 2.1029844847969343e+01 0.0000000000000000e+00  1.3221612944786338e+01 1.8883562925051095e+01 0.0000000000000000e+00  1.5452897265113961e+01 2.0828901867172487e+01 0.0000000000000000e+00  1.4630209426522972e+01 1.8993366600556783e+01 0.0000000000000000e+00  1.6476819873906013e+01 2.0152564219841953e+01 0.0000000000000000e+00  1.5833643838262638e+01 1.8668645051498338e+01 0.0000000000000000e+00  1.7227288403337621e+01 1.8268167798031939e+01 0.0000000000000000e+00  1.6794773478335792e+01 1.7186320135732203e+01 0.0000000000000000e+00  1.7742161094931809e+01 1.5444242596336348e+01 0.0000000000000000e+00  1.7492932323216447e+01 1.4738280239268885e+01 0.0000000000000000e+00  1.8011302057728155e+01 1.1399293201545914e+01 0.0000000000000000e+00  1.7928435801974864e+01 1.1041068474822213e+01 0.0000000000000000e+00  1.8136912341399125e+01 4.7563716506723699e+00 0.0000000000000000e+00  1.8141641551915583e+01 4.6523835369374771e+00 0.0000000000000000e+00  1.8163558466360794e+01 -3.2714739921382572e-05 0.0000000000000000e+00  1.8163235000979057e+01 -3.7069368031127672e-04 0.0000000000000000e+00  1.8163563200135020e+01 2.1367294250469253e-19 0.0000000000000000e+00  1.3886128581695731e+01 -1.1525396701757421e+01 0.0000000000000000e+00  1.8132912302424472e+01 -5.1444621218251809e+00 0.0000000000000000e+00  1.8163249643020894e+01 2.9279512728131552e-04 0.0000000000000000e+00  1.2624408982837625e+01 -2.0106299308175778e+01 0.0000000000000000e+00  1.3905183871319451e+01 -1.8282788920212820e+01 0.0000000000000000e+00  1.0751950299216100e+01 -2.3970112442880772e+01 0.0000000000000000e+00  1.2702110088689381e+01 -2.1197843919412499e+01 0.0000000000000000e+00  9.6678869045614384e+00 -2.4793075500137999e+01 0.0000000000000000e+00  1.0884286048805322e+01 -2.3214994514831528e+01 0.0000000000000000e+00  8.4448746531756527e+00 -2.4347179771008342e+01 0.0000000000000000e+00  9.8492590266806719e+00 -2.2552406578873740e+01 0.0000000000000000e+00  7.4350738761976025e+00 -2.2827744297388637e+01 0.0000000000000000e+00  8.6719404319485349e+00 -2.1353370373184426e+01 0.0000000000000000e+00  6.4866661892249917e+00 -2.1044691250068805e+01 0.0000000000000000e+00  7.7066910932272208e+00 -1.9657627172256301e+01 0.0000000000000000e+00  5.6346729950044612e+00 -1.9034648142634392e+01 0.0000000000000000e+00  6.7989204669562531e+00 -1.7792741422985277e+01 0.0000000000000000e+00  4.7463728496422695e+00 -1.7221470527786334e+01 0.0000000000000000e+00  5.9856680327598664e+00 -1.5922027263353309e+01 0.0000000000000000e+00  4.0368790282685749e+00 -1.5484571343900638e+01 0.0000000000000000e+00  5.1346582591065610e+00 -1.4452195617349348e+01 0.0000000000000000e+00  3.4054270930014932e+00 -1.3970002112959440e+01 0.0000000000000000e+00  4.4603221857015605e+00 -1.3053555074270166e+01 0.0000000000000000e+00  2.7528171944833928e+00 -1.2755393831417509e+01 0.0000000000000000e+00  3.8625217281180642e+00 -1.1805951917741448e+01 0.0000000000000000e+00  2.1580400923453884e+00 -1.1696080462869919e+01 0.0000000000000000e+00  3.2425562859977677e+00 -1.0832087364177493e+01 0.0000000000000000e+00  1.6208716953018085e+00 -1.0773797088990907e+01 0.0000000000000000e+00  2.6789235701857983e+00 -9.9955659739564702e+00 0.0000000000000000e+00  1.1393570928739629e+00 -9.9296170274642641e+00 0.0000000000000000e+00  2.1717924786976286e+00 -9.2338439011263898e+00 0.0000000000000000e+00  7.2293918667771606e-01 -9.1260052414129458e+00 0.0000000000000000e+00  1.7195036487220066e+00 -8.5270605805916730e+00 0.0000000000000000e+00  3.6661445326646991e-01 -8.3679251028993065e+00 0.0000000000000000e+00  1.3313139702672832e+00 -7.8585729954586503e+00 0.0000000000000000e+00  5.4896309120541727e-02 -7.6264873895907650e+00 0.0000000000000000e+00  1.0024158746287950e+00 -7.1834297083720680e+00 0.0000000000000000e+00  -2.0894549231497106e-01 -6.9012371889201516e+00 0.0000000000000000e+00  7.1760813099672804e-01 -6.5293969079829361e+00 0.0000000000000000e+00  -4.2983438842502864e-01 -6.1858674299017729e+00 0.0000000000000000e+00  4.7996162470911252e-01 -5.8781786212519762e+00 0.0000000000000000e+00  -6.1460484385667347e-01 -5.4814119673063253e+00 0.0000000000000000e+00  2.8488018515457525e-01 -5.2273778319514186e+00 0.0000000000000000e+00  -7.6385971539629371e-01 -4.7602360411914004e+00 0.0000000000000000e+00  1.2536774348555951e-01 -4.5593396144801996e+00 0.0000000000000000e+00  -8.7081148194216129e-01 -4.0815003764079618e+00 0.0000000000000000e+00  1.3084954831869325e-03 -3.9434855325950484e+00 0.0000000000000000e+00  -9.4548022064445680e-01 -3.3273720804188134e+00 0.0000000000000000e+00  -8.1327264749324737e-02 -3.2381477552137317e+00 0.0000000000000000e+00  -9.7388549757754805e-01 -2.6968090783988283e+00 0.0000000000000000e+00  -1.3090699778155107e-01 -2.6757234818136904e+00 0.0000000000000000e+00  -9.6035444697468642e-01 -1.8789296316322714e+00 0.0000000000000000e+00  -1.3615315033166950e-01 -1.9224068384138895e+00 0.0000000000000000e+00  -8.9590498216925774e-01 -1.3976808704375641e+00 0.0000000000000000e+00  -9.6841606147173104e-02 -1.5143697889701628e+00 0.0000000000000000e+00  -7.6614451374929826e-01 -4.2990232405441536e-01 0.0000000000000000e+00  -1.1466984653985129e-02 -6.4948002414769290e-01 0.0000000000000000e+00  -5.2186831773360454e-01 5.0558457752196161e-02 0.0000000000000000e+00  1.4747778122380747e-01 -3.3183803684146146e-01 0.0000000000000000e+00  5.9220467739574970e-02 2.8484646861339213e-01 0.0000000000000000e+00  4.0342738297255593e-01 -6.2025139524446327e-01 0.0000000000000000e+00  -2.0115839204251182e+00 1.4615304677063514e+00 0.0000000000000000e+00  -2.1194252546297787e+00 1.2932684879132907e+00 0.0000000000000000e+00  -1.9027808406372473e+00 1.7691987998883016e+00 0.0000000000000000e+00  -1.7549361263848817e+00 2.2620867153159265e+00 0.0000000000000000e+00  -1.5086445150330694e+00 2.8035627053451448e+00 0.0000000000000000e+00  -1.2018646552803549e+00 3.4948025652800210e+00 0.0000000000000000e+00  -8.4290149810016324e-01 4.1967031140634177e+00 0.0000000000000000e+00  -4.3785763669110794e-01 4.9717196337147183e+00 0.0000000000000000e+00  -4.4939024445828944e-02 5.6812957053277024e+00 0.0000000000000000e+00  1.2258021213737413e-01 6.0569386753133854e+00 0.0000000000000000e+00  6.1383089263057777e-01 6.7986925670191942e+00 0.0000000000000000e+00  -1.2909959785748044e+00 3.7108402657522928e+00 0.0000000000000000e+00  3.0777222955563075e+00 1.0036111965674637e+01 0.0000000000000000e+00  1.6965131297703873e+00 7.7886035117400443e+00 0.0000000000000000e+00  1.3930984944435219e+00 7.1651625033435780e+00 0.0000000000000000e+00  1.7071985209510236e+00 7.4218220109624449e+00 0.0000000000000000e+00  2.4658115787254657e+00 8.2383877206761156e+00 0.0000000000000000e+00  3.4862987362612103e+00 9.3661140222160206e+00 0.0000000000000000e+00  4.7131351796022649e+00 1.0609273697352728e+01 0.0000000000000000e+00  6.0981948977009424e+00 1.1942131665308565e+01 0.0000000000000000e+00  7.5982501360526831e+00 1.3274561331213512e+01 0.0000000000000000e+00  9.1771945603912251e+00 1.4559655425170186e+01 0.0000000000000000e+00  1.0790949625678856e+01 1.5637271860194831e+01 0.0000000000000000e+00  1.2372991596460182e+01 1.6590936104088392e+01 0.0000000000000000e+00  1.3862205818062131e+01 1.6920319189281059e+01 0.0000000000000000e+00  1.5198972295502269e+01 1.6915674397591093e+01 0.0000000000000000e+00  1.6316419315130808e+01 1.5789912135818680e+01 0.0000000000000000e+00  1.7188773360166092e+01 1.3766767466965124e+01 0.0000000000000000e+00  1.7771181461668316e+01 1.0431229927671570e+01 0.0000000000000000e+00  1.8104104822157289e+01 4.4456587467242041e+00 0.0000000000000000e+00  1.8162460743329831e+01 -7.0458798288298356e-04 0.0000000000000000e+00  1.8092157441071567e+01 -4.9484749967055555e+00 0.0000000000000000e+00  1.8162478948293941e+01 5.7391891590197826e-04 0.0000000000000000e+00  1.7901136326252281e+01 -1.1959717899479172e+01 0.0000000000000000e+00  1.3743905929186099e+01 -1.9450673491778485e+01 0.0000000000000000e+00  1.2627163381498212e+01 -2.0530687016378373e+01 0.0000000000000000e+00  1.0877334828291033e+01 -2.1039956687208143e+01 0.0000000000000000e+00  9.9058350361626655e+00 -1.9617117006741921e+01 0.0000000000000000e+00  8.7802114242552101e+00 -1.8242883915833119e+01 0.0000000000000000e+00  7.8656169328194068e+00 -1.6457274520786918e+01 0.0000000000000000e+00  7.0014845704594864e+00 -1.4726701946733009e+01 0.0000000000000000e+00  6.2286592612093070e+00 -1.3199266167509887e+01 0.0000000000000000e+00  5.4154918841684623e+00 -1.2063658983905919e+01 0.0000000000000000e+00  4.7765090794507499e+00 -1.0929026176147335e+01 0.0000000000000000e+00  4.2116364256495213e+00 -9.9217984213199593e+00 0.0000000000000000e+00  3.6233863538688027e+00 -9.1682629741379831e+00 0.0000000000000000e+00  3.0895379003966346e+00 -8.4901043900731814e+00 0.0000000000000000e+00  2.6104593695948530e+00 -7.8651776336404078e+00 0.0000000000000000e+00  2.1850653105903826e+00 -7.2918547941141503e+00 0.0000000000000000e+00  1.8224195809229511e+00 -6.7048034917053423e+00 0.0000000000000000e+00  1.5178458046192702e+00 -6.1165698944409401e+00 0.0000000000000000e+00  1.2565608606959566e+00 -5.5355266126018465e+00 0.0000000000000000e+00  1.0416064007002204e+00 -4.9479607774313896e+00 0.0000000000000000e+00  8.6843213106711925e-01 -4.3332440702653985e+00 0.0000000000000000e+00  7.3044696260191988e-01 -3.7699394061142701e+00 0.0000000000000000e+00  6.2727819457777867e-01 -3.1269145683264470e+00 0.0000000000000000e+00  5.6536153267280864e-01 -2.6131411180178334e+00 0.0000000000000000e+00  5.3578023667806085e-01 -1.9275259811407781e+00 0.0000000000000000e+00  5.5097726581353901e-01 -1.5835602960018844e+00 0.0000000000000000e+00  6.0897958388492823e-01 -7.9199772096740595e-01 0.0000000000000000e+00  7.1498865872269490e-01 -5.7758611975497520e-01 0.0000000000000000e+00  8.9128028338590115e-01 -1.0198738978650077e+00 0.0000000000000000e+00  -7.0273147676045622e-01 1.2975222167316089e+00 0.0000000000000000e+00  -7.9477989742898980e-01 1.1586416588836856e+00 0.0000000000000000e+00  -5.9117623334719938e-01 1.6021944203897409e+00 0.0000000000000000e+00  -4.7612197485793517e-01 2.0363692895198544e+00 0.0000000000000000e+00  -3.2199106384750742e-01 2.4296919543596283e+00 0.0000000000000000e+00  -6.8659087477150313e-02 3.0302173189081025e+00 0.0000000000000000e+00  2.4523518085958718e-01 3.6545754101038739e+00 0.0000000000000000e+00  6.1020337197361563e-01 4.3610193710325005e+00 0.0000000000000000e+00  1.0201781240748702e+00 5.0904160365963742e+00 0.0000000000000000e+00  1.4157858662129676e+00 5.8067797386903024e+00 0.0000000000000000e+00  1.5818831611955990e+00 6.0657635843939079e+00 0.0000000000000000e+00  2.0678230867300686e+00 6.5723988464974656e+00 0.0000000000000000e+00  1.6257877733938234e-01 3.4774903029957533e+00 0.0000000000000000e+00  4.5441286537979435e+00 9.8527407337355850e+00 0.0000000000000000e+00  3.1736796258155504e+00 7.6234979667953660e+00 0.0000000000000000e+00  2.8682361284693343e+00 6.9599785085772430e+00 0.0000000000000000e+00  3.1705934470606931e+00 7.1158124004734011e+00 0.0000000000000000e+00  3.9094433610722548e+00 7.8566382038796210e+00 0.0000000000000000e+00  4.9030455711370031e+00 8.7958968484854907e+00 0.0000000000000000e+00  6.0946058547819071e+00 9.8967123782105197e+00 0.0000000000000000e+00  7.4368768906380609e+00 1.1063496271248596e+01 0.0000000000000000e+00  8.8856452120690275e+00 1.2238645992867720e+01 0.0000000000000000e+00  1.0401007457482248e+01 1.3270390151202209e+01 0.0000000000000000e+00  1.1940638937706058e+01 1.4285799121491721e+01 0.0000000000000000e+00  1.3431607356030957e+01 1.4760513955645139e+01 0.0000000000000000e+00  1.4816195059164615e+01 1.5006205704538706e+01 0.0000000000000000e+00  1.6023068610736132e+01 1.4209737874067011e+01 0.0000000000000000e+00  1.6999160885161604e+01 1.2597774877071259e+01 0.0000000000000000e+00  1.7688086050074439e+01 9.6639405499367292e+00 0.0000000000000000e+00  1.8095461477395602e+01 4.1614395361336260e+00 0.0000000000000000e+00  1.8161252986487234e+01 -1.0064999970103884e-03 0.0000000000000000e+00  1.8071573877487229e+01 -4.6033906853886188e+00 0.0000000000000000e+00  1.8161269271782750e+01 8.1979599869842377e-04 0.0000000000000000e+00  1.7669858502455558e+01 -1.1609752508104560e+01 0.0000000000000000e+00  1.7468601288640510e+01 -1.3304041130362267e+01 0.0000000000000000e+00  1.3435048092984072e+01 -1.8964122362639280e+01 0.0000000000000000e+00  1.2456921970676920e+01 -1.8495112546265897e+01 0.0000000000000000e+00  1.0815271354403603e+01 -1.8236976925548529e+01 0.0000000000000000e+00  9.9370834942029553e+00 -1.6613549447277954e+01 0.0000000000000000e+00  8.8895961082447617e+00 -1.5141999840215872e+01 0.0000000000000000e+00  8.0456852415805429e+00 -1.3479326634715516e+01 0.0000000000000000e+00  7.2425981413886769e+00 -1.2084844742249057e+01 0.0000000000000000e+00  6.5262096238212139e+00 -1.0884673554696587e+01 0.0000000000000000e+00  5.7644652345734348e+00 -1.0009192726959608e+01 0.0000000000000000e+00  5.1733774482282193e+00 -9.1103593033544534e+00 0.0000000000000000e+00  4.6538076166505915e+00 -8.3199977551432678e+00 0.0000000000000000e+00  4.1083175021104967e+00 -7.7215545636469942e+00 0.0000000000000000e+00  3.6144435815391907e+00 -7.1767698514941740e+00 0.0000000000000000e+00  3.1730715485054461e+00 -6.6822614707431258e+00 0.0000000000000000e+00  2.7831002061955097e+00 -6.1879432827544276e+00 0.0000000000000000e+00  2.4538067343550343e+00 -5.6853130000578078e+00 0.0000000000000000e+00  2.1808821122442512e+00 -5.1681452905819532e+00 0.0000000000000000e+00  1.9498143184649681e+00 -4.6490655512049317e+00 0.0000000000000000e+00  1.7637018340227473e+00 -4.0963477236062564e+00 0.0000000000000000e+00  1.6185625794882523e+00 -3.5848883001209852e+00 0.0000000000000000e+00  1.5075320655970703e+00 -2.9941145608764255e+00 0.0000000000000000e+00  1.4310597620957823e+00 -2.5408401021375928e+00 0.0000000000000000e+00  1.3945401952981542e+00 -1.9048914905028786e+00 0.0000000000000000e+00  1.3910397215546928e+00 -1.6249007256831289e+00 0.0000000000000000e+00  1.4294133092492953e+00 -9.0195021229776595e-01 0.0000000000000000e+00  1.5143720242931162e+00 -7.5099198505052689e-01 0.0000000000000000e+00  1.6372601158440159e+00 -1.3086342939325701e+00 0.0000000000000000e+00  5.0223126037864285e-01 1.1562492571773912e+00 0.0000000000000000e+00  4.3044928529728371e-01 1.0556879569584476e+00 0.0000000000000000e+00  5.9943552488031282e-01 1.4290771930070589e+00 0.0000000000000000e+00  7.2047568487722768e-01 1.8560824807276475e+00 0.0000000000000000e+00  8.4692776809065951e-01 2.1897529244931433e+00 0.0000000000000000e+00  1.0142141122251671e+00 2.6408330962282807e+00 0.0000000000000000e+00  1.2814074312476065e+00 3.1737619228697938e+00 0.0000000000000000e+00  1.6095545812875540e+00 3.8042397017084921e+00 0.0000000000000000e+00  1.9879815901690845e+00 4.4674648806840587e+00 0.0000000000000000e+00  2.4088905299392409e+00 5.2076482389080088e+00 0.0000000000000000e+00  2.8110952960463371e+00 5.8155565911048681e+00 0.0000000000000000e+00  2.9787248279009617e+00 5.8444404196275546e+00 0.0000000000000000e+00  3.4647264434008895e+00 6.3296964889445357e+00 0.0000000000000000e+00  1.5740719029720780e+00 3.2578206560325027e+00 0.0000000000000000e+00  5.9919379288772889e+00 9.6551481902244607e+00 0.0000000000000000e+00  4.6521412040848853e+00 7.4087237710518288e+00 0.0000000000000000e+00  4.3589554083122968e+00 6.6617114140520979e+00 0.0000000000000000e+00  4.6614051117906712e+00 6.7566434441918917e+00 0.0000000000000000e+00  5.3882664784890322e+00 7.3189838297364602e+00 0.0000000000000000e+00  6.3619386549665062e+00 8.1304259614266705e+00 0.0000000000000000e+00  7.5245421742374701e+00 9.0771748655558309e+00 0.0000000000000000e+00  8.8277634883267488e+00 1.0100667667728326e+01 0.0000000000000000e+00  1.0225872424459148e+01 1.1041319667405567e+01 0.0000000000000000e+00  1.1677779326000318e+01 1.2035102766939158e+01 0.0000000000000000e+00  1.3133046262354330e+01 1.2591191894519760e+01 0.0000000000000000e+00  1.4522861615031145e+01 1.3024320672267866e+01 0.0000000000000000e+00  1.5772915540832534e+01 1.2497640742782083e+01 0.0000000000000000e+00  1.6827138243755908e+01 1.1285479692515610e+01 0.0000000000000000e+00  1.7594158823232117e+01 8.7527610334805583e+00 0.0000000000000000e+00  1.8073776566059720e+01 3.8057419274922175e+00 0.0000000000000000e+00  1.8159659562310562e+01 -1.2745130099753174e-03 0.0000000000000000e+00  1.8048156986766500e+01 -4.1673604850135391e+00 0.0000000000000000e+00  1.8159674369785844e+01 1.0367781840584268e-03 0.0000000000000000e+00  1.7543825266064569e+01 -1.0835662418708289e+01 0.