<?xml version="1.0"?>
<VTKFile type="UnstructuredGrid"  version="0.1"  >
<UnstructuredGrid>
<Piece  NumberOfPoints="1933" NumberOfCells="3640">
<Points>
<DataArray  type="Float64"  NumberOfComponents="3"  format="ascii">0.4752755171090564 0.001951315011230357 0  5.475275507334162 0.00188448817835233 0  5.475375794371151 7.501884492320118 0  0.4753757886564827 7.501951290180418 0  10.47527547923807 0.001817639086916018 0  10.47537581597875 7.501817658071698 0  15.47527544465487 0.001750717575662105 0  15.47537586678306 7.501750744331083 0  20.47527542605054 0.001683690792370936 0  20.47537596216776 7.501683721783379 0  25.47527545030385 0.001616538277521592 0  25.47537611986842 7.501616571908495 0  30.47527554602628 0.001549248249157228 0  30.47537635975094 7.501549284027217 0  35.47527574271265 0.001481814911801658 0  35.47537670365739 7.50148185299377 0  40.47527607084817 0.00141423660760288 0  40.47537717545818 7.501414277560259 0  45.47527656252528 0.001346514627974354 0  45.47537780131813 7.501346559311836 0  50.47527725235229 0.001278652535604218 0  50.47537861014978 7.501278702063439 0  55.47527817856073 0.001210655888400128 0  55.47537963422852 7.501210711633046 0  60.47527938428839 0.001142532296974451 0  60.4753809099548 7.501142595937243 0  65.47528091905944 0.001074291782736952 0  65.47538247876037 7.501074365385973 0  70.47528284051315 0.001005947435744994 0  70.47538438816707 7.501006033583747 0  75.47528521646471 0.0009375164032952307 0  75.47538669301522 7.50093761837737 0  80.47528812741567 0.0008690212762206512 0  80.47538945688243 7.500869143329302 0  85.47529166968012 0.0008004919863317816 0  85.47539275371686 7.500800639748785 0  90.47529595936462 0.0007319683953372999 0  90.47539666969499 7.500732149491014 0  95.47530113754728 0.0006635038599818971 0  95.47540130529106 7.500663728857151 0  100.4753073771672 0.0005951702312580998 0  100.4754067774751 7.500595454129348 0  105.4753148923952 0.0005270650470272795 0  105.4754132218231 7.500527429615429 0  110.4753239516565 0.0004593222251498659 0  110.4754207940414 7.500459799666542 0  115.4753348960913 0.0003921285988188203 0  115.4754296698815 7.500392767165748 0  120.4753481661451 0.0003257506627639503 0  120.4754400414126 7.500326622818275 0  125.4753643402286 0.0002605800158658432 0  125.4754521058389 7.500261792824557 0  130.4753841907992 0.0001972146632234409 0  130.4754660400294 7.500198918223832 0  135.4754087638981 0.0001366123716375239 0  135.4754819494166 7.500138988951098 0  140.4754394849619 8.039580905893124e-05 0  140.4754997750439 7.50008357143894 0  145.4754782767409 3.149285026153856e-05 0  145.4755191445218 7.500035191713178 0  150.4755276136565 -4.452334778585631e-06 0  150.4755391922985 7.499997965989175 0  160.4755282581476 6.294097100701856e-19 0  165.4754575668595 -7.187696462856159e-05 0  165.4755143325405 7.499920610250734 0  160.4755389858112 7.499980512952813 0  170.4754090907034 -0.000145991121498605 0  170.4754892550901 7.499850152487674 0  175.4753743488614 -0.0002215280581674646 0  175.4754669461616 7.499776172789875 0  180.4753486650928 -0.0002974623847753998 0  180.4754480092145 7.499701066456131 0  185.475329227824 -0.0003732214279448565 0  185.475432254925 7.499625796600916 0  190.4753142572791 -0.0004485413981233822 0  190.4754192692656 7.499550780687145 0  195.4753025803656 -0.0005233184105795535 0  195.4754086119755 7.499476199117953 0  200.475293394911 -0.000597524738917534 0  200.4753998842833 7.499402122255172 0  205.4752861333101 -0.0006711675969295725 0  205.4753927466177 7.49932856776577 0  210.4752803813356 -0.0007442697343834717 0  210.4753869174324 7.4992555277608 0  215.4752758284627 -0.0008168604217597925 0  215.4753821657981 7.499182982008728 0  220.4752722365857 -0.0008889712463722217 0  220.4753783028394 7.499110904525836 0  225.4752694197064 -0.0009606341189010958 0  225.4753751738855 7.499039266949965 0  230.47526723032 -0.001031880302570341 0  230.475372651862 7.498968040317593 0  235.4752655500032 -0.001102739928609726 0  235.4753706319312 7.498897196024024 0  240.4752642827059 -0.001173241757593189 0  240.4753690272111 7.498826706346306 0  245.4752633498374 -0.001243413079930068 0  245.4753677653706 7.49875654471543 0  250.4752626865726 -0.001313279709495603 0  250.4753667859168 7.498686685829983 0  255.4752622390141 -0.001382866052911419 0  255.475366038026 7.498617105655811 0  260.4752619619659 -0.001452195251770956 0  260.4753654788 7.498547781330837 0  265.4752618171651 -0.001521289404461215 0  265.4753650718621 7.498478690979255 0  270.4752617718586 -0.00159016988182706 0  270.4753647862298 7.49840981342916 0  275.4752617976739 -0.001658857758067593 0  275.4753645954162 7.498341127820421 0  280.4752618697489 -0.001727374384305488 0  280.4753644767388 7.49827261308474 0  285.47526196615 -0.00179574213375636 0  285.4753644108079 7.498204247280339 0  290.4752620676452 -0.001863985334059476 0  290.4753643811849 7.49813600677437 0  295.4752621579921 -0.001932131346598543 0  295.475364374192 7.498067865298871 0  300.4752622250141 -0.002000211579186991 0  300.4753643788225 7.49799979297554 0  305.4752622629005 -0.002068261707330711 0  305.4753643866928 7.49793175551667 0  310.4752622763647 -0.002136318821007456 0  310.4753643919659 7.497863713853641 0  5.475475953870413 15.0018845251225 0  0.4754759416582404 15.00195123723947 0  10.47547599267271 15.00181773661604 0  15.47547607337201 15.00175084632125 0  20.47547620910013 15.00168383602484 0  25.47547641270654 15.00161669375376 0  30.47547669780841 15.00154941262749 0  35.47547707933563 15.00148198973273 0  40.47547757384011 15.00141442520716 0  45.47547819972259 15.00134672160488 0  50.47547897745277 15.00127888355453 0  55.47547992981332 15.00121091770082 0  60.47548108217264 15.00114283292204 0  65.47548246277674 15.00107464083112 0  70.47548410303831 15.00100635658935 0  75.47548603778765 15.0009380000922 0  80.47548830542803 15.00086959762636 0  85.47549094790963 15.00080118415368 0  90.47549401038286 15.0007328064605 0  95.47549754031772 15.00066452753494 0  100.4755015857595 15.0005964327238 0  105.4755061922228 15.00052863850988 0  110.475511397501 15.00046130518348 0  115.4755172233958 15.00039465530666 0  120.4755236631442 15.00032900068724 0  125.4755306633905 15.00026478140901 0  130.4755381005552 15.00020262049928 0  135.4755457547891 15.00014339436774 0  140.4755532929414 15.00008830391723 0  145.475560288353 15.00003887872175 0  150.4755663265892 14.99999667529864 0  165.4755597413778 14.9999015729984 0  160.4755661496569 14.99995803690194 0  170.4755510219451 14.99983684901816 0  175.4755410684095 14.99976714613526 0  180.4755310135582 14.99969489384121 0  185.4755215353018 14.99962149305095 0  190.4755129578758 14.99954770963593 0  195.4755053904205 14.99947395468939 0  200.4754988241632 14.99940044442328 0  205.4754931916279 14.99932728769021 0  210.4754884004817 14.99925453374862 0  215.4754843519598 14.99918219853645 0  220.4754809503242 14.99911027930297 0  225.4754781072822 14.99903876288351 0  230.4754757436529 14.99896763046049 0  235.4754737895941 14.9988968603501 0  240.4754721841156 14.99882642965464 0  245.4754708742842 14.99875631524354 0  250.4754698143314 14.99868649432111 0  255.4754689647746 14.99861694472579 0  260.4754682916031 14.99854764504215 0  265.4754677655516 14.99847857456968 0  270.4754673614673 14.99840971317093 0  275.4754670577623 14.99834104100763 0  280.4754668359403 14.99827253816678 0  285.4754666801777 14.99820418417563 0  290.475466576922 14.99813595740609 0  295.4754665144685 14.99806783436868 0  300.4754664824465 14.99799978887192 0  305.4754664711431 14.99793179089787 0  310.4754664705636 14.99786380457504 0  5.475575876262013 22.50188464096094 0  0.4755758614736066 22.50195122998487 0  10.47557591618311 22.50181792335539 0  15.47557599642042 22.50175107358969 0  20.47557612806979 22.50168408783161 0  25.47557632029147 22.50161696344873 0  30.47557658164317 22.50154969956012 0  35.47557692086576 22.5014822971434 0  40.47557734731238 22.5014147589747 0  45.47557787115417 22.50134708957259 0  50.47557850344742 22.50127929524591 0  55.47557925610425 22.50121138430529 0  60.47558014178105 22.50114336748079 0  65.47558117367322 22.50107525858907 0  70.47558236518505 22.50100707550325 0  75.47558372942228 22.50093884150285 0  80.47558527843104 22.50087058711277 0  85.4755870220767 22.50080235258843 0  90.47558896642235 22.50073419126818 0  95.47559111142343 22.50066617410164 0  100.4755934477181 22.50059839577558 0  105.4755959522696 22.5005309829942 0  110.475598582657 22.50046410560011 0  115.4756012699727 22.50039799126873 0  120.4756039107279 22.5003329442591 0  125.4756063590863 22.50026936766847 0  130.4756084224507 22.50020778572636 0  135.4756098660845 22.50014885561835 0  140.4756104354856 22.5000933429208 0  145.4756099053113 22.50004200486584 0  150.475608150065 22.49999528189957 0  165.4756107078414 22.49988145661161 0  160.4756076842816 22.49993717560577 0  170.4756114035869 22.49981976104579 0  175.4756101208714 22.49975358599656 0  180.4756074469014 22.49968443272203 0  185.4756039660946 22.49961348601714 0  190.4756001342455 22.49954156612983 0  195.4755962641314 22.49946920541878 0  200.4755925514664 22.49939673695796 0  205.475589107326 22.49932436333575 0  210.4755859856968 22.49925220379166 0  215.4755832039476 22.49918032489449 0  220.4755807570534 22.4991087600814 0  225.4755786270863 22.49903752201388 0  230.4755767893625 22.49896661039719 0  235.4755752163223 22.49889601695232 0  240.4755738799111 22.49882572859607 0  245.4755727529884 22.4987557294823 0  250.4755718101148 22.49868600230834 0  255.4755710279481 22.49861652913651 0  260.4755703853968 22.498547291887 0  265.4755698636268 22.49847827259938 0  270.4755694459749 22.49840945352468 0  275.4755691178068 22.49834081708809 0  280.4755688663233 22.4982723457496 0  285.4755686803159 22.4982040217834 0  290.4755685498487 22.49813582699109 0  295.4755684658307 22.49806774235521 0  300.4755684194203 22.497999747
[...]
<PointData  Vectors="v"> 
<DataArray  type="Float64"  Name="v"  NumberOfComponents="3" format="ascii">4.3212279880744395e+00 3.1422047670255657e+00 0.0000000000000000e+00  4.5212102095975135e+00 2.6108327119167734e+00 0.0000000000000000e+00  3.8225804439052760e+00 2.3110195257782271e+00 0.0000000000000000e+00  3.6631245874799148e+00 2.9024504307995511e+00 0.0000000000000000e+00  4.7066412387851830e+00 2.4559521266580377e+00 0.0000000000000000e+00  4.0222400468149697e+00 2.1779954064579323e+00 0.0000000000000000e+00  4.7864105103987260e+00 2.3571873608452023e+00 0.0000000000000000e+00  4.2072067331117742e+00 2.2379924432887055e+00 0.0000000000000000e+00  4.7656888707209086e+00 1.8401282298833155e+00 0.0000000000000000e+00  4.2862673806412150e+00 1.8715938160473422e+00 0.0000000000000000e+00  4.7818876267654371e+00 1.5400792289028091e+00 0.0000000000000000e+00  4.2646859020565566e+00 1.5160994247366513e+00 0.0000000000000000e+00  4.7205523789701109e+00 1.0036784324674890e+00 0.0000000000000000e+00  4.2802697106818997e+00 1.0960522727827253e+00 0.0000000000000000e+00  4.5985052172604650e+00 4.2000155810778139e-01 0.0000000000000000e+00  4.2183399315510215e+00 6.0301560161691747e-01 0.0000000000000000e+00  4.7699099577522217e+00 2.3432784363467038e-01 0.0000000000000000e+00  4.0959182925978252e+00 -2.3101489836867176e-02 0.0000000000000000e+00  4.7467093234935751e+00 -2.2754827536906408e-01 0.0000000000000000e+00  4.2675337856166111e+00 -1.9325868395117360e-01 0.0000000000000000e+00  7.2458011974015051e+00 3.0383212795023042e+00 0.0000000000000000e+00  4.2449884258756398e+00 -7.1149639245653407e-01 0.0000000000000000e+00  8.4236126393680628e+00 4.2459396779077574e+00 0.0000000000000000e+00  6.7442987936935017e+00 2.4781669041358296e+00 0.0000000000000000e+00  8.7595816570777032e+00 4.0994964766171194e+00 0.0000000000000000e+00  7.9233586601583417e+00 3.5927655296072785e+00 0.0000000000000000e+00  8.7528697959642052e+00 3.3800276264421263e+00 0.0000000000000000e+00  8.2622769336281650e+00 3.3861456194282398e+00 0.0000000000000000e+00  8.5454840758453177e+00 2.3746515235777097e+00 0.0000000000000000e+00  8.2597266350486400e+00 2.6801832132586139e+00 0.0000000000000000e+00  8.2613066947948379e+00 1.2879469013354503e+00 0.0000000000000000e+00  8.0586218496607724e+00 1.7079012522575878e+00 0.0000000000000000e+00  7.8984339738921348e+00 1.3462439230784404e-01 0.0000000000000000e+00  7.7819709002430217e+00 6.7049710943635954e-01 0.0000000000000000e+00  7.4454813273744271e+00 -1.0081837646043901e+00 0.0000000000000000e+00  7.4281640028591198e+00 -3.3886106673211441e-01 0.0000000000000000e+00  6.8913626856564054e+00 -2.2191184379916251e+00 0.0000000000000000e+00  6.9871274680772650e+00 -1.3995122597906793e+00 0.0000000000000000e+00  6.2243450788852490e+00 -3.4712980184677242e+00 0.0000000000000000e+00  6.4465791287451077e+00 -2.4854614135145825e+00 0.0000000000000000e+00  5.4454826711550144e+00 -4.7811722347421162e+00 0.0000000000000000e+00  5.7961090914931894e+00 -3.6295619194599738e+00 0.0000000000000000e+00  4.5874056811592672e+00 -6.0696477260956989e+00 0.0000000000000000e+00  5.0368316861020119e+00 -4.8024466460944302e+00 0.0000000000000000e+00  3.6902735391365771e+00 -7.4324860379416746e+00 0.0000000000000000e+00  4.2025189707759409e+00 -6.1091900484890918e+00 0.0000000000000000e+00  2.7981471233675750e+00 -8.4913216373992828e+00 0.0000000000000000e+00  3.3308565132240302e+00 -7.1809637582857748e+00 0.0000000000000000e+00  1.9806391985287315e+00 -9.6182510917694035e+00 0.0000000000000000e+00  2.4723946898438642e+00 -8.4195612920667617e+00 0.0000000000000000e+00  1.2696778875236832e+00 -9.9752990657049097e+00 0.0000000000000000e+00  1.6869932688134774e+00 -8.9469754310467486e+00 0.0000000000000000e+00  7.2417530227770921e-01 -1.0366009703200895e+01 0.0000000000000000e+00  1.0219517343471147e+00 -9.5799898819319527e+00 0.0000000000000000e+00  3.3351550165156252e-01 -9.1870997229707321e+00 0.0000000000000000e+00  5.1473397793346221e-01 -8.6522977024319694e+00 0.0000000000000000e+00  1.2315395574365931e-01 -8.1628672879728335e+00 0.0000000000000000e+00  1.8528298554700248e-01 -7.8824597143113344e+00 0.0000000000000000e+00  2.1987695545263471e-02 -3.9655749932679996e+00 0.0000000000000000e+00  1.8235944307604265e-02 -3.8814606791081081e+00 0.0000000000000000e+00  -3.7959061238159806e-10 8.2620873695890930e-12 0.0000000000000000e+00  7.4423348909329393e-04 7.1248885517374448e-04 0.0000000000000000e+00  -1.9937186850306953e-13 -5.4501620823737093e-19 0.0000000000000000e+00  -1.4457429937825124e+00 7.1241637964723017e+00 0.0000000000000000e+00  2.7388697253749858e-02 9.3122629051512735e+00 0.0000000000000000e+00  7.4195948569182036e-04 -7.5354728037404768e-04 0.0000000000000000e+00  1.9957921048894683e-01 1.1832261015940848e+01 0.0000000000000000e+00  -1.4473577431043572e+00 9.4087236286422389e+00 0.0000000000000000e+00  2.0581898147463468e-01 1.1095177261691838e+01 0.0000000000000000e+00  1.6251109470412953e-01 1.1103420012345754e+01 0.0000000000000000e+00  8.0836992007344766e-01 1.1002272738880878e+01 0.0000000000000000e+00  1.3776684734753575e-01 1.0124977340888018e+01 0.0000000000000000e+00  9.9234132958559496e-01 8.8386594831207663e+00 0.0000000000000000e+00  7.1449569486182296e-01 8.5820895606532392e+00 0.0000000000000000e+00  1.2524653126887877e+00 7.1860447773822242e+00 0.0000000000000000e+00  8.7564854742924658e-01 6.8153229080815905e+00 0.0000000000000000e+00  1.3999334437853310e+00 5.3531109440443325e+00 0.0000000000000000e+00  1.1142757143341759e+00 5.1473688205972428e+00 0.0000000000000000e+00  1.5617360728815026e+00 3.9929308639374086e+00 0.0000000000000000e+00  1.2436614692290309e+00 3.7658952143800337e+00 0.0000000000000000e+00  1.6288185880934085e+00 2.9015655104252325e+00 0.0000000000000000e+00  1.3890471608609110e+00 2.8139656036498200e+00 0.0000000000000000e+00  1.7471752004679122e+00 2.3028828026139574e+00 0.0000000000000000e+00  1.4410514826236622e+00 2.1373641950788764e+00 0.0000000000000000e+00  1.8940146109906457e+00 1.9355001649270485e+00 0.0000000000000000e+00  1.5461744731595823e+00 1.7262571391951449e+00 0.0000000000000000e+00  2.0197013435549542e+00 1.7682093014783844e+00 0.0000000000000000e+00  1.6810536850312245e+00 1.5896116132446307e+00 0.0000000000000000e+00  2.1154958668073980e+00 1.6985212136172945e+00 0.0000000000000000e+00  1.7956608082612673e+00 1.5636997771209324e+00 0.0000000000000000e+00  2.1840291852301128e+00 1.6525876645019659e+00 0.0000000000000000e+00  1.8816188830928584e+00 1.5581275630633926e+00 0.0000000000000000e+00  2.2046291369213398e+00 1.6106067592210112e+00 0.0000000000000000e+00  1.9411951048844427e+00 1.5872393978400898e+00 0.0000000000000000e+00  2.2017699355354190e+00 1.5754418475693952e+00 0.0000000000000000e+00  1.9534600227799204e+00 1.5866529422502256e+00 0.0000000000000000e+00  2.1852671359493949e+00 1.5224658582574342e+00 0.0000000000000000e+00  1.9430226815400755e+00 1.5537718624523122e+00 0.0000000000000000e+00  2.1474049847212768e+00 1.4553686891587991e+00 0.0000000000000000e+00  1.9194884110726520e+00 1.5182792643547618e+00 0.0000000000000000e+00  2.1005800640982830e+00 1.3882997713803340e+00 0.0000000000000000e+00  1.8749370959172893e+00 1.4642926675213257e+00 0.0000000000000000e+00  2.0552878650015338e+00 1.2907674465132473e+00 0.0000000000000000e+00  1.8218499345437280e+00 1.3642990331602685e+00 0.0000000000000000e+00  1.9960717568268407e+00 1.2078662672148155e+00 0.0000000000000000e+00  1.7705438149991015e+00 1.3020389118065860e+00 0.0000000000000000e+00  1.9349003839439300e+00 1.0654285451618222e+00 0.0000000000000000e+00  1.7055149622556760e+00 1.1624282040336222e+00 0.0000000000000000e+00  1.8647526502965304e+00 9.7606167409494282e-01 0.0000000000000000e+00  1.6386269255020560e+00 1.0863828057043454e+00 0.0000000000000000e+00  1.7836571187368633e+00 7.2635075883498479e-01 0.0000000000000000e+00  1.5629942984230998e+00 8.5316520590192602e-01 0.0000000000000000e+00  1.6776983681451638e+00 6.7571772413796716e-01 0.0000000000000000e+00  1.4762148443703564e+00 8.3954270899993388e-01 0.0000000000000000e+00  1.5467104873806041e+00 1.9124974376979598e-01 0.0000000000000000e+00  1.3650040350316166e+00 3.9304207089935206e-01 0.0000000000000000e+00  1.3739951592047059e+00 2.9604329278559349e-01 0.0000000000000000e+00  1.2281148354565168e+00 5.5971892422580283e-01 0.0000000000000000e+00  1.0982526514469468e+00 -6.3410346860403843e-01 0.0000000000000000e+00  1.0505848767156067e+00 -2.1469996275415784e-01 0.0000000000000000e+00  6.3264174002832996e-01 -7.9061034275784481e-01 0.0000000000000000e+00  7.6805154632121342e-01 -8.8471483756342228e-02 0.0000000000000000e+00  -4.6619180180253672e-01 -2.8850399933478260e-01 0.0000000000000000e+00  2.9974186362031074e-01 1.3676183409913580e+00 0.0000000000000000e+00  3.1075402856859253e+00 2.0726180893487554e+00 0.0000000000000000e+00  2.9218065399670476e+00 2.6221780795560341e+00 0.0000000000000000e+00  3.2655200393147985e+00 1.8798938301372008e+00 0.0000000000000000e+00  3.4626175670574573e+00 1.9622675494063244e+00 0.0000000000000000e+00  3.6443110275006756e+00 1.7551251616128682e+00 0.0000000000000000e+00  3.7195149049839622e+00 1.5511401901950379e+00 0.0000000000000000e+00  3.6934382992689123e+00 1.0752733602845155e+00 0.0000000000000000e+00  3.7043885451078813e+00 6.9841669231077630e-01 0.0000000000000000e+00  3.6380869391301740e+00 1.6326186129943379e-01 0.0000000000000000e+00  3.5115085016075613e+00 -4.4896238325098997e-01 0.0000000000000000e+00  3.6805714985985647e+00 -6.7723996201333714e-01 0.0000000000000000e+00  3.6560147523850790e+00 -1.2669993724955237e+00 0.0000000000000000e+00  6.1479415261715697e+00 1.8288889752927417e+00 0.0000000000000000e+00  7.3204945013810896e+00 2.8784678980137195e+00 0.0000000000000000e+00  7.6581845691903458e+00 2.6844637654586947e+00 0.0000000000000000e+00  7.6563486459161556e+00 2.0069360127979565e+00 0.0000000000000000e+00  7.4593600109136409e+00 1.0819729925523827e+00 0.0000000000000000e+00  7.1889294917647844e+00 1.8778256526849521e-01 0.0000000000000000e+00  6.8431014193723128e+00 -7.4465219357988310e-01 0.0000000000000000e+00  6.4133442570043346e+00 -1.6831881694020190e+00 0.0000000000000000e+00  5.8875035960458568e+00 -2.6630895196247226e+00 0.0000000000000000e+00  5.2546567929359904e+00 -3.6776912818781615e+00 0.0000000000000000e+00  4.5190902511481346e+00 -4.8735313382998893e+00 0.0000000000000000e+00  3.7135327158348050e+00 -5.8941673757022661e+00 0.0000000000000000e+00  2.8778998326826262e+00 -7.1552054748031422e+00 0.0000000000000000e+00  2.0624664027728197e+00 -7.8024640999046797e+00 0.0000000000000000e+00  1.3323648120957001e+00 -8.6114552427517292e+00 0.0000000000000000e+00  7.2654208312544744e-01 -7.9459717835503954e+00 0.0000000000000000e+00  3.0234746970248622e-01 -7.4184359102679425e+00 0.0000000000000000e+00  4.8345356104544414e-02 -3.7190496951261856e+00 0.0000000000000000e+00  2.5524474968826516e-03 1.3595441919752825e-03 0.0000000000000000e+00  5.5276749371463006e-02 9.1548336253081075e+00 0.0000000000000000e+00  2.5481642790022210e-03 -1.5507109387156693e-03 0.0000000000000000e+00  2.0826770634763089e-01 1.1631631794446479e+01 0.0000000000000000e+00  -1.3158402113786190e+00 8.7294209851121991e+00 0.0000000000000000e+00  2.3519696273106899e-01 1.0188768055010778e+01 0.0000000000000000e+00  1.6871471244949690e-01 7.7407561230111561e+00 0.0000000000000000e+00  7.0850896135767583e-01 6.5890716000109135e+00 0.0000000000000000e+00  8.4241563854210844e-01 4.8074325381163199e+00 0.0000000000000000e+00  1.0547528875777343e+00 3.5841684923479198e+00 0.0000000000000000e+00  1.1634674338281761e+00 2.6070988499091170e+00 0.0000000000000000e+00  1.2905941342982044e+00 2.0698206717795511e+00 0.0000000000000000e+00  1.3263489605522205e+00 1.5774153775592092e+00 0.0000000000000000e+00  1.4172192096558351e+00 1.3947250958179433e+00 0.0000000000000000e+00  1.5397612138567476e+00 1.3991142572421766e+00 0.0000000000000000e+00  1.6430279251481907e+00 1.4352592545564224e+00 0.0000000000000000e+00  1.7192262741442690e+00 1.5030254285680580e+00 0.0000000000000000e+00  1.7703929218153971e+00 1.5731098380834818e+00 0.0000000000000000e+00  1.7751058861585827e+00 1.5735452244543344e+00 0.0000000000000000e+00  1.7580884749362966e+00 1.5571088854028625e+00 0.0000000000000000e+00  1.7287923676473371e+00 1.5345039596971961e+00 0.0000000000000000e+00  1.6789175395860372e+00 1.4469470827237338e+00 0.0000000000000000e+00  1.6209710819074463e+00 1.3817263929180907e+00 0.0000000000000000e+00  1.5651543613180616e+00 1.2627315117130404e+00 0.0000000000000000e+00  1.4957037139196572e+00 1.1892885445644978e+00 0.0000000000000000e+00  1.4245386734861372e+00 9.6924166204964579e-01 0.0000000000000000e+00  1.3446057395447235e+00 9.7221854248238004e-01 0.0000000000000000e+00  1.2535557478971371e+00 5.6270505338563470e-01 0.0000000000000000e+00  1.1378515093904029e+00 7.6731979536088146e-01 0.0000000000000000e+00  9.9675229783608355e-01 5.4924873613422576e-02 0.0000000000000000e+00  8.1445878363861490e-01 3.3702835455624186e-01 0.0000000000000000e+00  5.2788671210871374e-01 2.0737704814834919e+00 0.0000000000000000e+00  2.2391514988515557e+00 1.7957610087844214e+00 0.0000000000000000e+00  2.0657933464182587e+00 2.3596103273610902e+00 0.0000000000000000e+00  2.4219290503177424e+00 1.6461986270810340e+00 0.0000000000000000e+00  2.5744447143928846e+00 1.6707861520245819e+00 0.0000000000000000e+00  2.7649209052456385e+00 1.4881205937034103e+00 0.0000000000000000e+00  2.9380036859081820e+00 1.4449160839770532e+00 0.0000000000000000e+00  3.0030135630871633e+00 1.1215884148524318e+00 0.0000000000000000e+00  2.9659398722211829e+00 6.8991778837505502e-01 0.0000000000000000e+00  2.9651035781382236e+00 2.7043841182947781e-01 0.0000000000000000e+00  2.8873295963576440e+00 -2.5251693416209164e-01 0.0000000000000000e+00  2.7514242590183509e+00 -9.2610377852074188e-01 0.0000000000000000e+00  2.9139434887256614e+00 -1.2255565551519705e+00 0.0000000000000000e+00  2.8787539039196171e+00 -1.8961137559708365e+00 0.0000000000000000e+00  5.3489422108808435e+00 1.1342259013420437e+00 0.0000000000000000e+00  6.5020513582856427e+00 2.1834637871278892e+00 0.0000000000000000e+00  6.8304560820404827e+00 2.0117151543026650e+00 0.0000000000000000e+00  6.8250773692167677e+00 1.3762496933774220e+00 0.0000000000000000e+00  6.6283997683650311e+00 5.8947166581785393e-01 0.0000000000000000e+00  6.3611346579226407e+00 -2.3243294847961479e-01 0.0000000000000000e+00  6.0223203302366057e+00 -1.0474843702289152e+00 0.0000000000000000e+00  5.6028410956089125e+00 -1.8870978361204254e+00 0.0000000000000000e+00  5.0916765546435672e+00 -2.7464111835114977e+00 0.0000000000000000e+00  4.4811760606380426e+00 -3.7922064824719297e+00 0.0000000000000000e+00  3.7747473045592859e+00 -4.7184460540121238e+00 0.0000000000000000e+00  3.0109161202233130e+00 -5.9391299016599515e+00 0.0000000000000000e+00  2.2277227538132087e+00 -6.6344776953199398e+00 0.0000000000000000e+00  1.4858110767158914e+00 -7.5732595665096962e+00 0.0000000000000000e+00  8.4083948931172903e-01 -7.1311605119780062e+00 0.0000000000000000e+00  3.5761544872460638e-01 -6.8535220367504461e+00 0.0000000000000000e+00  5.5449603405173645e-02 -3.5011984314191262e+00 0.0000000000000000e+00  5.3723647799226986e-03 1.9437168040297274e-03 0.0000000000000000e+00  6.4646097760498164e-02 8.9093059374013279e+00 0.0000000000000000e+00  5.3679723801354218e-03 -2.2570047170857388e-03 0.0000000000000000e+00  3.4731826131219451e-01 1.1357310583459288e+01 0.0000000000000000e+00  5.0451789181295115e-01 1.1079309971221955e+01 0.0000000000000000e+00  -1.1076127495070938e+00 7.9366582360371059e+00 0.0000000000000000e+00  3.4962509967123950e-01 7.8889893160506812e+00 0.0000000000000000e+00  2.1769071179567817e-01 5.8242933304141715e+00 0.0000000000000000e+00  7.0496647489209407e-01 4.6370325123709177e+00 0.0000000000000000e+00  7.9824530950093531e-01 3.2944481798372487e+00 0.0000000000000000e+00  9.7538914540564814e-01 2.4669414956062066e+00 0.0000000000000000e+00  1.0558717898294965e+00 1.8992444706521074e+00 0.0000000000000000e+00  1.1578126749373900e+00 1.5409436205077953e+00 0.0000000000000000e+00  1.1720248068832706e+00 1.2740094606939885e+00 0.0000000000000000e+00  1.2439374193698600e+00 1.2287394371735958e+00 0.0000000000000000e+00  1.3495035988864497e+00 1.2923890395379107e+00 0.0000000000000000e+00  1.4378707569703899e+00 1.3992146406645758e+00 0.0000000000000000e+00  1.5014233609640342e+00 1.5052493580233006e+00 0.0000000000000000e+00  1.5417192924402909e+00 1.5740940347184735e+00 0.0000000000000000e+00  1.5372567244278292e+00 1.5892761148024834e+00 0.0000000000000000e+00  1.5125035560341056e+00 1.5841131060834222e+00 0.0000000000000000e+00  1.4765061108779389e+00 1.5268152745015946e+00 0.0000000000000000e+00  1.4207203597429852e+00 1.4732574612863725e+00 0.0000000000000000e+00  1.3574706065341846e+00 1.3507707318907880e+00 0.0000000000000000e+00  1.2965908942389894e+00 1.2975817768711937e+00 0.0000000000000000e+00  1.2222513004119937e+00 1.0802276039737144e+00 0.0000000000000000e+00  1.1460866865642731e+00 1.0961779931094580e+00 0.0000000000000000e+00  1.0611795629793268e+00 7.0383290288416644e-01 0.0000000000000000e+00  9.6468350061286290e-01 9.4488523510738132e-01 0.0000000000000000e+00  8.4393833488179204e-01 2.7178446415442981e-01 0.0000000000000000e+00  6.9668735442906193e-01 6.1380228870473119e-01 0.0000000000000000e+00  5.1048390709417202e-01 2.5093417993947305e+00 0.0000000000000000e+00  1.6025038931158824e+00 1.5381300354864069e+00 0.0000000000000000e+00  1.4325256532717010e+00 2.1011776243109592e+00 0.0000000000000000e+00  1.7719515505150181e+00 1.3765688487532817e+00 0.0000000000000000e+00  1.9472918235114995e+00 1.4484502058600823e+00 0.0000000000000000e+00  2.0901646799652438e+00 1.2105357484694694e+00 0.0000000000000000e+00  2.2682864279428938e+00 1.1951922544380216e+00 0.0000000000000000e+00  2.4266239320635115e+00 1.0359105516182949e+00 0.0000000000000000e+00  2.4744159052121675e+00 7.5848794321812596e-01 0.0000000000000000e+00  2.4184514442599956e+00 2.8523193227436017e-01 0.0000000000000000e+00  2.3984723199794979e+00 -1.2270827344869649e-01 0.0000000000000000e+00  2.3032098630022610e+00 -7.1199742077530359e-01 0.0000000000000000e+00  2.1529883893612776e+00 -1.4605914701482896e+00 0.0000000000000000e+00  2.3026403435019298e+00 -1.8296960913424394e+00 0.0000000000000000e+00  2.2435472755494814e+00 -2.5441990997628499e+00 0.0000000000000000e+00  4.6730287135550226e+00 4.8099836098961901e-01 0.0000000000000000e+00  5.7916249636861652e+00 1.5339717591392590e+00 0.0000000000000000e+00  6.1001093447370600e+00 1.3941368032552539e+00 0.0000000000000000e+00  6.0814389942199183e+00 8.9001406024897167e-01 0.0000000000000000e+00  5.8768851125565504e+00 1.7311750994870378e-01 0.0000000000000000e+00  5.6032723530738950e+00 -5.3732989684488530e-01 0.0000000000000000e+00  5.2605306289131546e+00 -1.2574230570438825e+00 0.0000000000000000e+00  4.8404079876737107e+00 -1.9825926260846245e+00 0.0000000000000000e+00  4.3334089885409748e+00 -2.8836580136683079e+00 0.0000000000000000e+00  3.7334290922945281e+00 -3.6753947463817260e+00 0.0000000000000000e+00  3.0509875430692857e+00 -4.8152548125340369e+00 0.0000000000000000e+00  2.3226105672303285e+00 -5.5030423369215500e+00 0.0000000000000000e+00  1.6010794880106216e+00 -6.5074426786379647e+00 0.0000000000000000e+00  9.3729385215015559e-01 -6.2557016990514347e+00 0.0000000000000000e+00  4.1985113834675541e-01 -6.2027669954416220e+00 0.0000000000000000e+00  7.3161539262812769e-02 -3.2348132381957582e+00 0.0000000000000000e+00  9.0930699843286660e-03 2.4626385795262617e-03 0.0000000000000000e+00  7.9481922407514782e-02 8.6272994650836274e+00 0.0000000000000000e+00  9.0885482596950347e-03 -2.8796768612066093e-03 0.0000000000000000e+00  3.9957946847951309e-01 1.0828113977575779e+01 0.0000000000000000e+00  7.6974551228291499e-01 1.0827548416627492e+01 0.0000000000000000