<?xml version="1.0"?>
<VTKFile type="UnstructuredGrid"  version="0.1"  >
<UnstructuredGrid>
<Piece  NumberOfPoints="1933" NumberOfCells="3640">
<Points>
<DataArray  type="Float64"  NumberOfComponents="3"  format="ascii">0.4754714708047003 -0.0001786614576763758 0  5.475471515979493 -0.0001965396274947145 0  5.475498374542317 7.499803597665253 0  0.4754982909958334 7.499821409500584 0  10.47547157628868 -0.0002145407214453128 0  10.47549852497381 7.499785619066007 0  15.47547171722208 -0.0002327187200504342 0  15.4754987772514 7.499767446990725 0  20.47547200926617 -0.0002510736173407726 0  20.47549916528576 7.499749092113889 0  25.47547251760564 -0.0002695735034739699 0  25.47549972233387 7.499730590819713 0  30.47547329990888 -0.0002881665665408334 0  30.47550048017296 7.499711996828962 0  35.47547440711556 -0.000306787605589269 0  35.47550146849848 7.499693376139486 0  40.47547588518871 -0.0003253612439676956 0  40.47550271469606 7.499674804445829 0  45.47547777702137 -0.0003438030226426609 0  45.4755042438513 7.499656366332765 0  50.47548012419637 -0.00036201902538227 0  50.47550607882286 7.499638155781055 0  55.47548296850941 -0.0003799043737000912 0  55.47550824023482 7.499620277729732 0  60.47548635323604 -0.0003973407236971661 0  60.47551074625909 7.49960285059842 0  65.47549032414435 -0.0004141927451047633 0  65.47551361205664 7.499586009802539 0  70.47549493022503 -0.0004303034308716141 0  70.47551684872582 7.49956991241175 0  75.47550022407493 -0.0004454879474459819 0  75.47552046155013 7.499554743225753 0  80.47550626177903 -0.0004595255661580642 0  80.47552444724812 7.499540722689892 0  85.47551310200814 -0.0004721489844846111 0  85.47552878980684 7.499528117263846 0  90.47552080379975 -0.0004830300102798881 0  90.47553345428042 7.499517253113309 0  95.4755294220751 -0.000491760079766422 0  95.47553837768028 7.499508534337481 0  100.4755389991524 -0.0004978233166707289 0  100.4755434557638 7.499502467388503 0  105.4755495490897 -0.0005005586756932029 0  105.475548524161 7.499499693862505 0  110.4755610289542 -0.0004991059540975819 0  110.4755533320854 7.499501034317877 0  115.4755732859835 -0.0004923278702128186 0  115.4755575073005 7.499507545819267 0  120.4755859597167 -0.0004786968524060391 0  120.4755605132793 7.499520594484799 0  125.4755982991867 -0.0004561310665240121 0  125.475561606533 7.499541938971645 0  130.4756088184938 -0.0004217621545753866 0  130.4755598204942 7.499573806096302 0  135.4756146424197 -0.0003716281318442112 0  135.4755540471678 7.499618904838687 0  140.4756102514039 -0.0003003536474068994 0  140.4755433931417 7.499680254933789 0  145.4755850364491 -0.0002012040355501626 0  145.4755282359779 7.499760620999774 0  150.4755183507538 -6.844412360402519e-05 0  150.4755130424785 7.499861589444426 0  160.4755282581469 8.632708817359895e-19 0  165.4754109271014 -0.00018217494074953 0  165.4755085364974 7.499787591320353 0  160.4755397668419 7.499929087987393 0  170.4753542110313 -0.0003271232722650094 0  170.4754766910721 7.499657757904194 0  175.4753285361526 -0.0004455868476483435 0  175.4754517560929 7.499546225272052 0  180.4753191689167 -0.0005439650141302303 0  180.4754342921103 7.499451412602184 0  185.475318426847 -0.0006269615026919065 0  185.4754230326617 7.499370358853405 0  190.4753221982016 -0.0006981283147020074 0  190.4754164549815 7.49930028724781 0  195.4753282405505 -0.0007601312713584969 0  195.4754132402326 7.49923891858653 0  200.4753353117204 -0.0008149649688164269 0  200.4754123637156 7.499184461921415 0  205.4753427149238 -0.0008641278004479341 0  205.4754130671794 7.499135529250588 0  210.4753500563192 -0.0009087559215054988 0  210.4754148029275 7.499091045478957 0  215.4753571135608 -0.0009497215775750309 0  215.4754171800982 7.4990501727812 0  220.4753637632033 -0.0009877037795020748 0  220.4754199214088 7.499012251950946 0  225.4753699398122 -0.001023238766827646 0  225.4754228307789 7.498976758407092 0  230.4753756124565 -0.00105675613395175 0  230.475425769944 7.498943269594632 0  235.4753807709214 -0.001088604910788011 0  235.4754286418568 7.498911440854346 0  240.4753854174862 -0.001119072616236624 0  240.4754313789976 7.498880987466229 0  245.475389561976 -0.001148399370005619 0  245.4754339351738 7.498851671168035 0  250.4753932187956 -0.001176788494322303 0  250.4754362797791 7.49882328992553 0  255.4753964052225 -0.001204414586790875 0  255.475438393797 7.498795670087368 0  260.4753991405314 -0.001231429735121888 0  260.4754402670411 7.498768660316636 0  265.4754014457312 -0.00125796832542671 0  265.4754418962902 7.498742126881922 0  270.4754033437753 -0.001284150732264068 0  270.4754432840803 7.498715950037084 0  275.4754048602036 -0.001310086042368584 0  275.4754444379613 7.49869002134046 0  280.4754060242054 -0.001335873828604405 0  280.4754453700912 7.498664241880062 0  285.4754068701085 -0.001361604825896483 0  285.4754460970382 7.498638521498894 0  290.4754074392478 -0.001387360123077451 0  290.4754466396473 7.498612779271391 0  295.4754077820651 -0.001413208104434399 0  295.4754470228752 7.498586945683916 0  300.4754079598634 -0.001439197738189458 0  300.4754472755169 7.498560967225634 0  305.4754080448005 -0.001465345751730745 0  305.4754474301301 7.49853481437843 0  310.4754081145112 -0.001491613689816999 0  310.4754475244764 7.498508494303609 0  5.475524853445767 14.99980390896963 0  0.4755247630926152 14.99982158265215 0  10.47552500123773 14.99978596916953 0  15.47552523577536 14.99976779416239 0  20.47552557631704 14.99974942201636 0  25.47552603796495 14.99973090148237 0  30.4755266337852 14.99971229143841 0  35.4755273752523 14.99969365965802 0  40.47552827201996 14.99967508206585 0  45.47552933142489 14.99965664278582 0  50.47553055784658 14.99963843501168 0  55.47553195191871 14.99962056267674 0  60.47553350952829 14.99960314292927 0  65.47553522051032 14.99958630947564 0  70.47553706692212 14.99957021692151 0  75.47553902076891 14.99955504631698 0  80.47554104103524 14.99954101219297 0  85.47554306988748 14.99952837146074 0  90.47554502795327 14.99951743462123 0  95.4755468087339 14.99950857975894 0  100.4755482725159 14.99950226969413 0  105.4755492408561 14.99949907225609 0  110.4755494940395 14.99949968255069 0  115.47554877642 14.99950494358959 0  120.475546818914 14.99951585630776 0  125.4755433950761 14.99953355917429 0  130.4755384376816 14.99955923653289 0  135.4755322550389 14.99959387511979 0  140.4755258911868 14.99963771435745 0  145.47552163848 14.99968908824154 0  150.4755235229384 14.99974195951728 0  165.475552850369 14.99970422974528 0  160.4755556515732 14.9997950368426 0  170.4755415790703 14.99960867496244 0  175.4755274032754 14.99951749844699 0  180.475513760867 14.9994344576568 0  185.4755021586864 14.99936021705889 0  190.4754930056371 14.99929413011353 0  195.4754861852422 14.99923512714703 0  200.4754813726777 14.99918210006495 0  205.4754781931319 14.99913404804895 0  210.475476293107 14.99909011760062 0  215.4754753671548 14.99904959936152 0  220.4754751632937 14.99901190978436 0  225.4754754791939 14.99897656966702 0  230.4754761551099 14.99894318423375 0  235.4754770663621 14.99891142621803 0  240.475478116506 14.99888102206501 0  245.4754792315782 14.99885174088756 0  250.4754803554408 14.99882338569436 0  255.4754814460947 14.99879578643549 0  260.4754824728116 14.99876879449124 0  265.4754834139038 14.99874227831441 0  270.4754842550073 14.99871612002015 0  275.4754849877342 14.99869021279004 0  280.4754856086026 14.99866445902283 0  285.4754861181814 14.99863876921835 0  290.4754865204026 14.99861306161142 0  295.4754868221686 14.99858726253789 0  300.475487033487 14.99856130732537 0  305.4754871688127 14.99853514091437 0  310.4754872508191 14.99850871584941 0  5.475550955405517 22.4998045265913 0  0.4755508673346645 22.49982209071832 0  10.47555107666749 22.4997866070294 0  15.47555125099322 22.49976840795307 0  20.47555148857451 22.49974999481935 0  25.47555179389989 22.49973143119689 0  30.47555216807126 22.49971278303033 0  35.4755526097705 22.49969412070757 0  40.4755531153709 22.49967552028855 0  45.47555367854975 22.49965706462032 0  50.47555428960666 22.49963884469577 0  55.47555493457898 22.49962096143466 0  60.47555559418866 22.49960352799029 0  65.47555624262058 22.49958667266657 0  70.47555684613415 22.49957054253011 0  75.47555736153149 22.49955530780988 0  80.47555773456057 22.49954116716718 0  85.47555789843544 22.49952835387806 0  90.47555777283596 22.49951714285443 0  95.47555726405162 22.49950785818026 0  100.4755562674134 22.49950088033567 0  105.475554673899 22.4994966513356 0  110.4755523838697 22.49949567428912 0  115.4755493323178 22.49949850088325 0  120.4755455315628 22.49950569525947 0  125.4755411383387 22.49951775474342 0  130.4755365506903 22.49953495615037 0  135.4755325317509 22.49955708170535 0  140.4755303335561 22.49958296742365 0  145.4755317393887 22.49960983451357 0  150.4755388383698 22.49963250823831 0  165.4755764296679 22.49961070457987 0  160.4755667667173 22.4996692403842 0  170.4755780974256 22.49954303148025 0  175.475574375273 22.49947293039227 0  180.4755677971165 22.49940464936644 0  185.4755602285847 22.49934036929231 0  190.4755528174254 22.49928089717352 0  195.4755461666985 22.49922626765594 0  200.4755405256123 22.49917613876093 0  205.4755359360065 22.49913001948039 0  210.4755323299186 22.49908738913103 0  215.4755295894059 22.49904775410582 0  220.4755275808969 22.49901067077881 0  225.4755261735653 22.49897575118046 0  230.475525248193 22.49894266055821 0  235.4755247006282 22.4989111116067 0  240.4755244423316 22.49888085776641 0  245.4755243994741 22.49885168671109 0  250.4755245113991 22.49882341448964 0  255.475524728911 22.49879588046207 0  260.4755250125873 22.4987689430227 0  265.4755253312408 22.49874247604379 0  270.4755256605428 22.49871636595782 0  275.4755259818191 22.49869050939828 0  280.4755262810219 22.4986648113206 0  285.4755265478756 22.49863918350666 0  290.4755267752649 22.49861354329832 0  295.4755269589891 22.49
[...]
<PointData  Vectors="v"> 
<DataArray  type="Float64"  Name="v"  NumberOfComponents="3" format="ascii">3.3592728972165902e+00 6.6673354299231855e+00 0.0000000000000000e+00  3.8268433827637249e+00 6.0428214911514235e+00 0.0000000000000000e+00  3.3150177585254941e+00 5.3417311720526541e+00 0.0000000000000000e+00  2.9512135158461903e+00 6.1214494619290498e+00 0.0000000000000000e+00  4.3702335378200159e+00 6.3068585463535953e+00 0.0000000000000000e+00  3.7821241917246522e+00 5.4924929846687753e+00 0.0000000000000000e+00  4.8032424412571171e+00 6.8757403035292679e+00 0.0000000000000000e+00  4.3244585229819172e+00 6.2274645666589574e+00 0.0000000000000000e+00  5.1259786995496999e+00 6.7497438477207750e+00 0.0000000000000000e+00  4.7558005551284230e+00 6.2673039257196521e+00 0.0000000000000000e+00  5.5569115167109260e+00 7.1040409441845780e+00 0.0000000000000000e+00  5.0762884791807581e+00 6.4597005519298545e+00 0.0000000000000000e+00  5.8518830653089946e+00 6.9917596326413829e+00 0.0000000000000000e+00  5.5045543966411419e+00 6.5517786227007306e+00 0.0000000000000000e+00  5.8244260201392031e+00 6.4672795732684003e+00 0.0000000000000000e+00  5.7963622298197297e+00 6.5111548619364426e+00 0.0000000000000000e+00  6.6000152277663435e+00 7.0303350259390527e+00 0.0000000000000000e+00  5.7654135947465504e+00 5.8699046048497987e+00 0.0000000000000000e+00  4.6659760420843099e+00 3.5536098673517058e+00 0.0000000000000000e+00  6.5372911713555402e+00 6.4579106019014940e+00 0.0000000000000000e+00  1.3082798813367832e+01 1.5388209586103779e+01 0.0000000000000000e+00  4.5993605015496781e+00 2.7660387117428820e+00 0.0000000000000000e+00  1.3612517982986359e+01 1.5038454058057438e+01 0.0000000000000000e+00  1.3011712568021771e+01 1.4247658591596059e+01 0.0000000000000000e+00  1.3867326874009105e+01 1.4132843174599980e+01 0.0000000000000000e+00  1.3536933008883416e+01 1.3753985824894285e+01 0.0000000000000000e+00  1.4190901688789138e+01 1.3276235436227857e+01 0.0000000000000000e+00  1.3787494301920754e+01 1.2794336393504894e+01 0.0000000000000000e+00  1.4643290465170143e+01 1.2635065078010433e+01 0.0000000000000000e+00  1.4106724543228056e+01 1.1959803433633335e+01 0.0000000000000000e+00  1.5239861224036050e+01 1.2205752575240929e+01 0.0000000000000000e+00  1.4554937906355699e+01 1.1314391149475346e+01 0.0000000000000000e+00  1.5921572890960862e+01 1.1869425471468004e+01 0.0000000000000000e+00  1.5147189748348564e+01 1.0849927630551306e+01 0.0000000000000000e+00  1.6625407729987021e+01 1.1711779655086266e+01 0.0000000000000000e+00  1.5824711005600491e+01 1.0658842337868197e+01 0.0000000000000000e+00  1.7288609509332140e+01 1.1420551708841650e+01 0.0000000000000000e+00  1.6524970501957345e+01 1.0428169730187113e+01 0.0000000000000000e+00  1.7856511892937178e+01 1.1033008179861273e+01 0.0000000000000000e+00  1.7184908729734740e+01 1.0182529212414643e+01 0.0000000000000000e+00  1.8290473888846762e+01 1.0439277147049587e+01 0.0000000000000000e+00  1.7750563927706651e+01 9.7889714476138394e+00 0.0000000000000000e+00  1.8576399204665474e+01 9.6654443859587875e+00 0.0000000000000000e+00  1.8183384026577382e+01 9.2357842350350694e+00 0.0000000000000000e+00  1.8717008530403167e+01 8.3734235401436816e+00 0.0000000000000000e+00  1.8469876919902703e+01 8.1605037854354450e+00 0.0000000000000000e+00  1.8731096594476902e+01 7.2757962783522974e+00 0.0000000000000000e+00  1.8612110053045104e+01 7.2502218744390863e+00 0.0000000000000000e+00  1.8658187296041127e+01 5.2535297059138157e+00 0.0000000000000000e+00  1.8631400988416363e+01 5.3579014763608868e+00 0.0000000000000000e+00  1.8531577145080242e+01 4.0018256640603562e+00 0.0000000000000000e+00  1.8563803319507848e+01 4.1820575255385535e+00 0.0000000000000000e+00  1.8399295980718872e+01 1.4881572398035201e+00 0.0000000000000000e+00  1.8448716380181004e+01 1.6783115067476180e+00 0.0000000000000000e+00  1.8281959267795738e+01 5.7442812131751264e-01 0.0000000000000000e+00  1.8326039171228402e+01 7.3392119955746071e-01 0.0000000000000000e+00  1.8210696758125277e+01 -1.8096805689632771e+00 0.0000000000000000e+00  1.8228394296118129e+01 -1.7141646694085653e+00 0.0000000000000000e+00  1.8172539465689830e+01 -1.6585601304636950e+00 0.0000000000000000e+00  1.8171209999237544e+01 -1.6264334933732869e+00 0.0000000000000000e+00  1.8163563193471585e+01 1.4676658427840053e-10 0.0000000000000000e+00  1.8164429334590121e+01 8.6010289090931340e-04 0.0000000000000000e+00  1.8163563200218757e+01 -4.5793283469802997e-19 0.0000000000000000e+00  1.1543336659299390e+01 -4.2425717819172138e-03 0.0000000000000000e+00  1.8177155002248487e+01 9.9222561754366829e+00 0.0000000000000000e+00  1.8164421968719836e+01 -8.7384739244442849e-04 0.0000000000000000e+00  1.2948238303582839e+01 -9.4339903303808048e-01 0.0000000000000000e+00  1.1559565714489802e+01 -3.0479971329158677e+00 0.0000000000000000e+00  1.1086028913230535e+01 -5.9951399521914466e+00 0.0000000000000000e+00  1.2965770988234819e+01 -3.2098647732141754e+00 0.0000000000000000e+00  1.0979482693234337e+01 -6.9584650543748996e+00 0.0000000000000000e+00  1.1108064971027808e+01 -6.8037363140655440e+00 0.0000000000000000e+00  1.0055628449749184e+01 -1.0010790382890390e+01 0.0000000000000000e+00  1.1008765377032711e+01 -8.6333660289467762e+00 0.0000000000000000e+00  9.4684514674680873e+00 -1.1161888688271208e+01 0.0000000000000000e+00  1.0093668630219515e+01 -1.0289909314874711e+01 0.0000000000000000e+00  8.7601333666185361e+00 -1.2342799872899089e+01 0.0000000000000000e+00  9.5162374492228370e+00 -1.1290798302294718e+01 0.0000000000000000e+00  8.1714028609082376e+00 -1.2533170230585412e+01 0.0000000000000000e+00  8.8192716927457742e+00 -1.1660747212142091e+01 0.0000000000000000e+00  7.3928761917784707e+00 -1.2486451494890137e+01 0.0000000000000000e+00  8.2426888469299247e+00 -1.1330543954921739e+01 0.0000000000000000e+00  6.8759517515415842e+00 -1.1719349322282548e+01 0.0000000000000000e+00  7.4770232820645752e+00 -1.0956341088933298e+01 0.0000000000000000e+00  6.4827845312402514e+00 -1.0801463867685776e+01 0.0000000000000000e+00  6.9738140359594620e+00 -1.0224583385328970e+01 0.0000000000000000e+00  6.0341527562376793e+00 -9.8602181767413413e+00 0.0000000000000000e+00  6.5949163282907151e+00 -9.2006454863404485e+00 0.0000000000000000e+00  5.5948808369120115e+00 -8.9166560901516405e+00 0.0000000000000000e+00  6.1609734711144135e+00 -8.2715454173148775e+00 0.0000000000000000e+00  5.1689719131954517e+00 -8.0717981914752723e+00 0.0000000000000000e+00  5.7369033541270262e+00 -7.4469414942955501e+00 0.0000000000000000e+00  4.7210527699480256e+00 -7.2989658009596585e+00 0.0000000000000000e+00  5.3265126163391248e+00 -6.6413780536675366e+00 0.0000000000000000e+00  4.3001645799656529e+00 -6.5556390114011220e+00 0.0000000000000000e+00  4.8943076302235298e+00 -5.9387689699706288e+00 0.0000000000000000e+00  3.9171406293734474e+00 -5.8864570654450503e+00 0.0000000000000000e+00  4.4893616193874273e+00 -5.3264356739527079e+00 0.0000000000000000e+00  3.5440576288718426e+00 -5.2568079927992963e+00 0.0000000000000000e+00  4.1223632695550396e+00 -4.7117852697191092e+00 0.0000000000000000e+00  3.2042157978608374e+00 -4.6429567713306996e+00 0.0000000000000000e+00  3.7653437826589369e+00 -4.1477843830711230e+00 0.0000000000000000e+00  2.9096700106411806e+00 -4.0879817842906370e+00 0.0000000000000000e+00  3.4415423113292141e+00 -3.6607375744012915e+00 0.0000000000000000e+00  2.6285883524788578e+00 -3.5199080221637895e+00 0.0000000000000000e+00  3.1630499949591218e+00 -3.1127337060000739e+00 0.0000000000000000e+00  2.3797534649184597e+00 -3.0312774036100860e+00 0.0000000000000000e+00  2.8977999963251890e+00 -2.6725072716743323e+00 0.0000000000000000e+00  2.1585389061926925e+00 -2.4984002569064874e+00 0.0000000000000000e+00  2.6648873193034865e+00 -2.1807210936371266e+00 0.0000000000000000e+00  1.9518122290409134e+00 -2.1501074967972702e+00 0.0000000000000000e+00  2.4590954821260400e+00 -1.8544050372159613e+00 0.0000000000000000e+00  1.7509654777935442e+00 -1.6016688202826377e+00 0.0000000000000000e+00  2.2682341013396470e+00 -1.3139965813973218e+00 0.0000000000000000e+00  1.5514014381693830e+00 -1.5698984566710781e+00 0.0000000000000000e+00  2.0820357485790528e+00 -1.2851086921107393e+00 0.0000000000000000e+00  1.3350945915043650e+00 -9.1788041422751188e-01 0.0000000000000000e+00  1.8986679046073183e+00 -6.0597582248474802e-01 0.0000000000000000e+00  1.0168618050219533e+00 -1.4595800660539411e+00 0.0000000000000000e+00  1.6954949298808890e+00 -9.9775161262391932e-01 0.0000000000000000e+00  5.0488389478381013e-01 -1.2330139172698136e+00 0.0000000000000000e+00  1.3954118016832382e+00 -4.7498603702962561e-01 0.0000000000000000e+00  -6.9779142926308291e-01 -1.8343351283023163e-01 0.0000000000000000e+00  8.9069896969810392e-01 1.5998809430137373e+00 0.0000000000000000e+00  3.0450507108095306e+00 4.7962826819903670e+00 0.0000000000000000e+00  2.6378179525917211e+00 5.5101659867613018e+00 0.0000000000000000e+00  3.4081421767417930e+00 4.7927350775759274e+00 0.0000000000000000e+00  3.8733407021191737e+00 5.4155477426648231e+00 0.0000000000000000e+00  4.4125721434561997e+00 5.6226206488087103e+00 0.0000000000000000e+00  4.8395681370913675e+00 5.9821120750715764e+00 0.0000000000000000e+00  5.1544178681495207e+00 5.9131169813363496e+00 0.0000000000000000e+00  5.5759488834680342e+00 6.0777894083226061e+00 0.0000000000000000e+00  5.8600954378809709e+00 5.9212710293534050e+00 0.0000000000000000e+00  5.8207103115811876e+00 5.3050570325693673e+00 0.0000000000000000e+00  6.5842180643184953e+00 5.6776567718726634e+00 0.0000000000000000e+00  4.6377872446339099e+00 1.6352192666684182e+00 0.0000000000000000e+00  1.3038953996890603e+01 1.2973021917085347e+01 0.0000000000000000e+00  1.3553266280639882e+01 1.2423779920115310e+01 0.0000000000000000e+00  1.3794657486697762e+01 1.1486797387943351e+01 0.0000000000000000e+00  1.4104275616913371e+01 1.0647518875972162e+01 0.0000000000000000e+00  1.4542740668728145e+01 9.9677225748721572e+00 0.0000000000000000e+00  1.5124365007664215e+01 9.6492787497772152e+00 0.0000000000000000e+00  1.5790478713063813e+01 9.3843840944031953e+00 0.0000000000000000e+00  1.6479159554895389e+01 9.1993653098349490e+00 0.0000000000000000e+00  1.7127517389462518e+01 8.9474578214446456e+00 0.0000000000000000e+00  1.7681767626136832e+01 8.5921654089993424e+00 0.0000000000000000e+00  1.8104760375077657e+01 7.7360991517075330e+00 0.0000000000000000e+00  1.8382909040858895e+01 7.0402926991722570e+00 0.0000000000000000e+00  1.8519677272347227e+01 5.3311049011019298e+00 0.0000000000000000e+00  1.8536758208566955e+01 4.2813091751509518e+00 0.0000000000000000e+00  1.8472668557163995e+01 1.8492871717020434e+00 0.0000000000000000e+00  1.8364606857170575e+01 9.0545127272518910e-01 0.0000000000000000e+00  1.8260533577804662e+01 -1.5730886158044664e+00 0.0000000000000000e+00  1.8182348668609244e+01 -1.5703014083179849e+00 0.0000000000000000e+00  1.8166525105041107e+01 1.6409948408821139e-03 0.0000000000000000e+00  1.8181398483248870e+01 9.8635122330465492e+00 0.0000000000000000e+00  1.8166511448833912e+01 -1.7683693100476021e-03 0.0000000000000000e+00  1.8237879547242709e+01 6.8770362325200400e+00 0.0000000000000000e+00  1.1610959226984493e+01 -5.3106148828237787e+00 0.0000000000000000e+00  1.3008285063200635e+01 -4.0164850069763913e+00 0.0000000000000000e+00  1.1151034674661414e+01 -8.4860368736133704e+00 0.0000000000000000e+00  1.1055476719031367e+01 -8.9219093064065920e+00 0.0000000000000000e+00  1.0147963814217485e+01 -1.0428601694802074e+01 0.0000000000000000e+00  9.5786183334586656e+00 -1.0621451580455325e+01 0.0000000000000000e+00  8.8918110921225022e+00 -1.0472036103972007e+01 0.0000000000000000e+00  8.3260761546387272e+00 -9.8144625910276364e+00 0.0000000000000000e+00  7.5719280915617260e+00 -9.4770385103718642e+00 0.0000000000000000e+00  7.0809782874091809e+00 -8.6400246229809987e+00 0.0000000000000000e+00  6.7150156953502842e+00 -7.6284212120678410e+00 0.0000000000000000e+00  6.2944102338171133e+00 -6.8191484563200753e+00 0.0000000000000000e+00  5.8843051452490185e+00 -6.0344030088482388e+00 0.0000000000000000e+00  5.4883337563211541e+00 -5.2991446191591240e+00 0.0000000000000000e+00  5.0707794327556579e+00 -4.7279079134196440e+00 0.0000000000000000e+00  4.6807068250848900e+00 -4.1702868098733896e+00 0.0000000000000000e+00  4.3286869838991926e+00 -3.6211506364564832e+00 0.0000000000000000e+00  3.9865553251462411e+00 -3.1839569488408070e+00 0.0000000000000000e+00  3.6775617684102619e+00 -2.7037731071175708e+00 0.0000000000000000e+00  3.4136590609959399e+00 -2.2833247744394867e+00 0.0000000000000000e+00  3.1627605605448679e+00 -1.8397183306635483e+00 0.0000000000000000e+00  2.9438018863616890e+00 -1.5541690671671002e+00 0.0000000000000000e+00  2.7517475911954343e+00 -1.0354262340186282e+00 0.0000000000000000e+00  2.5739645022350635e+00 -1.0141697465735673e+00 0.0000000000000000e+00  2.4009076310563882e+00 -3.3747585553438852e-01 0.0000000000000000e+00  2.2294193505987674e+00 -7.0202486323398539e-01 0.0000000000000000e+00  2.0391338123079064e+00 -2.9438487805205880e-02 0.0000000000000000e+00  1.7498164676850432e+00 2.3471942348539976e+00 0.0000000000000000e+00  2.9493268460541975e+00 4.1860000985957395e+00 0.0000000000000000e+00  2.5780894917664581e+00 4.9526558385110357e+00 0.0000000000000000e+00  3.3554857692066853e+00 4.2495784200482314e+00 0.0000000000000000e+00  3.7159884537778245e+00 4.7205125912013361e+00 0.0000000000000000e+00  4.1767704025878372e+00 4.8182785391570446e+00 0.0000000000000000e+00  4.7091159689655102e+00 5.3478354607717860e+00 0.0000000000000000e+00  5.1267448574240309e+00 5.4488009793350685e+00 0.0000000000000000e+00  5.4298181618183197e+00 5.4551711480945189e+00 0.0000000000000000e+00  5.8372243176217156e+00 5.5060385689358453e+00 0.0000000000000000e+00  6.1055134375724318e+00 5.3758865570516106e+00 0.0000000000000000e+00  6.0496333233485764e+00 4.5439735362917917e+00 0.0000000000000000e+00  6.7972605761633362e+00 4.5665816545695126e+00 0.0000000000000000e+00  4.8332283792691921e+00 3.8648828500272742e-01 0.0000000000000000e+00  1.3212071599061394e+01 1.1668120816772529e+01 0.0000000000000000e+00  1.3705701926307498e+01 1.1136834054598431e+01 0.0000000000000000e+00  1.3930059021370537e+01 1.0195659500188228e+01 0.0000000000000000e+00  1.4222221535599145e+01 9.3234192704281309e+00 0.0000000000000000e+00  1.4641445432567748e+01 8.7917004477567406e+00 0.0000000000000000e+00  1.5201326902391203e+01 8.4015465151222752e+00 0.0000000000000000e+00  1.5843533336585391e+01 8.1840744812553190e+00 0.0000000000000000e+00  1.6506076686256712e+01 7.9932935161189924e+00 0.0000000000000000e+00  1.7126915085587626e+01 7.7791075928074571e+00 0.0000000000000000e+00  1.7653764472144392e+01 7.1197498089570992e+00 0.0000000000000000e+00  1.8049798329893932e+01 6.6382445867197619e+00 0.0000000000000000e+00  1.8304415418455164e+01 5.1395230476787468e+00 0.0000000000000000e+00  1.8421419044928022e+01 4.2621176047645051e+00 0.0000000000000000e+00  1.8427596057163171e+01 1.9492648312110021e+00 0.0000000000000000e+00  1.8359895660608959e+01 1.0550731625810703e+00 0.0000000000000000e+00  1.8266802643745901e+01 -1.4261847618288375e+00 0.0000000000000000e+00  1.8185123870127814e+01 -1.5019436355959632e+00 0.0000000000000000e+00  1.8169796934692211e+01 2.3476698643825531e-03 0.0000000000000000e+00  1.8175874173343491e+01 9.8113182567708090e+00 0.0000000000000000e+00  1.8169784375065714e+01 -2.5586090715797464e-03 0.0000000000000000e+00  1.8231518757128850e+01 6.7831276234574158e+00 0.0000000000000000e+00  1.8284606735179654e+01 4.6435452051705006e+00 0.0000000000000000e+00  1.1638925953962358e+01 -6.1005660181535575e+00 0.0000000000000000e+00  1.3023070503433395e+01 -5.7015396429619640e+00 0.0000000000000000e+00  1.1168054391795367e+01 -8.7829564884996110e+00 0.0000000000000000e+00  1.1080786487343110e+01 -9.0770861535019840e+00 0.0000000000000000e+00  1.0185623683700776e+01 -9.7774108453548436e+00 0.0000000000000000e+00  9.6299660071886528e+00 -9.4535115007831578e+00 0.0000000000000000e+00  8.9584704514589042e+00 -8.9780807441662969e+00 0.0000000000000000e+00  8.4083702159008844e+00 -8.3587709788604734e+00 0.0000000000000000e+00  7.6707387345314100e+00 -7.9169770392084722e+00 0.0000000000000000e+00  7.1969624950384219e+00 -7.0935715488483115e+00 0.0000000000000000e+00  6.8487904746190980e+00 -6.2028587833123332e+00 0.0000000000000000e+00  6.4467942107241978e+00 -5.4344762701095517e+00 0.0000000000000000e+00  6.0561620811028600e+00 -4.7209917287402661e+00 0.0000000000000000e+00  5.6802701733081866e+00 -4.1177250607424387e+00 0.0000000000000000e+00  5.2832565579778139e+00 -3.6015185361072537e+00 0.0000000000000000e+00  4.9139857034490966e+00 -3.1095371839266068e+00 0.0000000000000000e+00  4.5827408933287614e+00 -2.6871029523949210e+00 0.0000000000000000e+00  4.2612318791889825e+00 -2.2563374224585164e+00 0.0000000000000000e+00  3.9724722192742172e+00 -1.9033342097251311e+00 0.0000000000000000e+00  3.7283841240073849e+00 -1.4786168427257464e+00 0.0000000000000000e+00  3.4965072572477651e+00 -1.2408038188797608e+00 0.0000000000000000e+00  3.2961261566190876e+00 -7.6133496214519791e-01 0.0000000000000000e+00  3.1214050331171999e+00 -7.6183881024441580e-01 0.0000000000000000e+00  2.9608546651909897e+00 -8.9942426868348149e-02 0.0000000000000000e+00  2.8028145692184125e+00 -4.5927315180824624e-01 0.0000000000000000e+00  2.6482842373626410e+00 2.4699185102974394e-01 0.0000000000000000e+00  2.4685054747662405e+00 2.7660603206033927e+00 0.0000000000000000e+00  3.1245787574222681e+00 3.6298334744753915e+00 0.0000000000000000e+00  2.7789217845544085e+00 4.4332819847771345e+00 0.0000000000000000e+00  3.4946406807044519e+00 3.6418802021651455e+00 0.0000000000000000e+00  3.8982534256185497e+00 4.1824480918532521e+00 0.0000000000000000e+00  4.2545647870535541e+00 4.1314977016971994e+00 0.0000000000000000e+00  4.7085219629295372e+00 4.5559272010423619e+00 0.0000000000000000e+00  5.2308879820198175e+00 4.8315231059215105e+00 0.0000000000000000e+00  5.6349287161353665e+00 5.0121912722503383e+00 0.0000000000000000e+00  5.9209172640594971e+00 4.9088324498293190e+00 0.0000000000000000e+00  6.3083081297396504e+00 4.9889939211919625e+00 0.0000000000000000e+00  6.5549245448504632e+00 4.6433006895373552e+00 0.0000000000000000e+00  6.4774409120059211e+00 3.4602131320501011e+00 0.0000000000000000e+00  7.2043399154815315e+00 3.3488777528529989e+00 0.0000000000000000e+00  5.2162504978097441e+00 -8.7937791657327236e-01 0.0000000000000000e+00  1.3565570961911195e+01 1.0416253543705579e+01 0.0000000000000000e+00  1.4034038115865609e+01 9.8737029615038967e+00 0.0000000000000000e+00  1.4238448845998530e+01 8.9004751443998558e+00 0.0000000000000000e+00  1.4509225097256875e+01 8.1800764864351461e+00 0.0000000000000000e+00  1.4903746316646563e+01 7.5827374798191434e+00 0.0000000000000000e+00  1.5433457643595588e+01 7.2449430806940693e+00 0.0000000000000000e+00  1.6040384327368969e+01 7.0273004332573796e+00 0.0000000000000000e+00  1.6662868985483222e+01 6.8782872981091918e+00 0.0000000000000000e+00  1.7239823107178449e+01 6.3618021984078785e+00 0.0000000000000000e+00  1.7720270272799258e+01 6.0761030819934421e+00 0.0000000000000000e+00  1.8070789574204635e+01 4.7893489594630809e+00 0.0000000000000000e+00  1.8281645472223094e+01 4.1114528503776651e+00 0.0000000000000000e+00  1.8363925005209399e+01 1.9620763633479361e+00 0.0000000000000000e+00  1.8343876442081704e+01 1.1595646461472058e+00 0.0000000000000000e+00  1.8273488169190816e+01 -1.2842472706957690e+00 0.0000000000000000e+00  1.8191996719105717e+01 -1.4265257540397245e+00 0.0000000000000000e+00  1.8174118214796103e+01 2.9769450539256456e-03 0.0000000000000000e+00  1.8176363926838714e+01 9.7910037833641397e+00 0.0000000000000000e+00  1.8174106233572736e+01 -3.2573533442726522e-03 0.0000000000000000e+00  1.8190003656595941e+01 6.7008587626159049e+00 0.0000000000000000e+00  1.8236016432551448e+01 4.568213