<?xml version="1.0"?>
<VTKFile type="UnstructuredGrid"  version="0.1"  >
<UnstructuredGrid>
<Piece  NumberOfPoints="1933" NumberOfCells="3640">
<Points>
<DataArray  type="Float64"  NumberOfComponents="3"  format="ascii">0.2935842265570935 0.001874091059400035 0  5.293584253301215 0.001790349807827831 0  5.293709945964364 7.501790464404571 0  0.2937098728538217 7.501874123277751 0  10.29358427327326 0.001706488118966824 0  10.29371008849608 7.501706635796917 0  15.29358435059795 0.001622411674966809 0  15.2937103418525 7.501622572048293 0  20.29358456428513 0.001538086718601702 0  20.29371074875888 7.501538251507363 0  25.29358499370768 0.001453517468547003 0  25.29371135387544 7.501453683937012 0  30.29358571412865 0.001368732789738272 0  30.29371220293201 7.501368900850676 0  35.29358679648787 0.001283778283225808 0  35.29371334210913 7.501283949151529 0  40.29358830893469 0.00119871186761169 0  40.29371481792737 7.501198887436072 0  45.29359031900714 0.001113601728420051 0  45.29371667754441 7.501113784298403 0  50.2935928959969 0.001028525965044669 0  50.29371896929477 7.50102871815823 0  55.29359611333479 0.000943573558504795 0  55.29372174333062 7.500943778325064 0  60.2936000509602 0.0008588464892262235 0  60.29372505224636 7.500859067170887 0  65.29360479769905 0.0007744629928184365 0  65.29372895157756 7.500774703419602 0  70.29361045368329 0.0006905620819554659 0  70.29373350006131 7.50069082668877 0  75.29361713284706 0.0006073096082865684 0  75.29373875950566 7.500607603553973 0  80.29362496549916 0.0005249063150186053 0  80.29374479404827 7.500525235569012 0  85.29363410091608 0.0004435985698878723 0  85.29375166848583 7.500443969887647 0  90.29364470977357 0.0003636928147780351 0  90.29375944517888 7.500364113426325 0  95.29365698600877 0.000285575291701893 0  95.29376817880016 7.500286051919893 0  100.2936711472326 0.0002097394160106056 0  100.2937779078602 7.500210275801229 0  105.2936874319193 0.0001368244445915379 0  105.2937886414931 7.500137415630081 0  110.2937060897828 6.767111431189895e-05 0  110.2938003395321 7.500068290818032 0  115.2937273582033 3.403148053450977e-06 0  115.2938128836736 7.500003976541961 0  120.2937514104288 -5.445140585549344e-05 0  120.2938260383056 7.499945894543705 0  125.2937782470557 -0.0001037773114748002 0  125.2938394034045 7.499895932642004 0  130.2938074736634 -0.0001415953228767825 0  130.2938523737085 7.499856591922475 0  135.2938378494355 -0.000163648569122986 0  135.293864150158 7.499831142871185 0  140.2938663710307 -0.0001638237110056842 0  140.2938739306225 7.499823733660119 0  145.2938863896976 -0.0001335566220068024 0  145.2938816143095 7.499839361387302 0  150.2938835803093 -6.249162903154168e-05 0  150.2938899268149 7.499883919884677 0  160.2938926261472 7.942157437278187e-19 0  165.2937245797585 -0.0002229173958681063 0  165.2938634277691 7.499744872090907 0  160.29391411396 7.499923670892277 0  170.2936288687094 -0.0004180275436974518 0  170.2938119783368 7.499565638918292 0  175.2935726557717 -0.0005928475639803025 0  175.2937690204482 7.499398064356402 0  180.2935390559807 -0.0007515163177029588 0  180.2937356051869 7.499243172149603 0  185.293518874359 -0.0008973216690769179 0  185.2937104981327 7.499099468261456 0  190.2935069111378 -0.001032932205703797 0  190.2936920278185 7.498965072122266 0  195.2935001279665 -0.001160449185646011 0  195.2936786638642 7.498838278125618 0  200.2934966901576 -0.001281495565173876 0  200.2936691601986 7.49871767479148 0  205.293495451772 -0.001397318268754443 0  205.2936625503974 7.498602131806289 0  210.2934956724798 -0.001508879397759032 0  210.2936581004379 7.498490752728504 0  215.2934968583377 -0.001616928652273356 0  215.2936552568392 7.498382825551404 0  220.2934986700027 -0.001722057748055248 0  220.2936536022468 7.498277780655062 0  225.2935008683459 -0.001824740311010744 0  225.2936528207245 7.498175157671586 0  230.2935032812591 -0.00192536090382831 0  230.2936526717394 7.498074580199934 0  235.2935057827678 -0.002024236199424723 0  235.2936529710296 7.497975736732086 0  240.2935082794878 -0.002121630562995022 0  240.2936535766245 7.497878366268801 0  245.2935107016031 -0.002217767666842276 0  245.2936543786415 7.497782247402514 0  250.2935129967152 -0.002312839281069721 0  250.2936552918155 7.497687189943709 0  255.2935151255918 -0.002407012038345131 0  255.2936562500205 7.497593028414618 0  260.293517059218 -0.00250043272815554 0  260.2936572022414 7.497499616923632 0  265.2935187768076 -0.002593232503781984 0  265.2936581096287 7.4974068250768 0  270.2935202645501 -0.002685530257574904 0  270.2936589433679 7.497314534693798 0  275.2935215150016 -0.002777435315004471 0  275.2936596831702 7.497222637188468 0  280.2935225270794 -0.002869049493150388 0  280.2936603162419 7.497131031564362 0  285.2935233066877 -0.002960468436601101 0  285.2936608366098 7.497039623080108 0  290.2935238680095 -0.003051781937423094 0  290.2936612446732 7.496948322777775 0  295.2935242355056 -0.00314307258217317 0  295.293661546881 7.496857048263996 0  300.2935244464272 -0.003234411379841776 0  300.2936617554297 7.496765726408827 0  305.2935245531432 -0.003325847655884112 0  305.2936618881608 7.496674298968773 0  310.2935246230106 -0.003417387682488992 0  310.2936619696588 7.49658273243555 0  5.293835206296345 15.00179074658467 0  0.2938351211225851 15.00187420788955 0  10.29383536430515 15.00170699571419 0  15.29383563407608 15.00162295382155 0  20.29383604434263 15.00153863239883 0  25.29383662027685 15.00145405774027 0  30.29383738625675 15.00136926934803 0  35.29383836678272 15.00128431782723 0  40.2938395866154 15.00119926338628 0  45.29384107061517 15.00111417526113 0  50.29384284345788 15.00102913210063 0  55.2938449292537 15.00094422328775 0  60.29384735102162 15.00085955119863 0  65.29385012993488 15.00077523446195 0  70.29385328421874 15.00069141235952 0  75.29385682755894 15.00060825060255 0  80.29386076684163 15.00052594882672 0  85.2938650990214 15.00044475027873 0  90.2938698068937 15.00036495431675 0  95.29387485358977 15.00028693250235 0  100.293880175741 15.00021114918223 0  105.2938856756659 15.0001381874299 0  110.2938912137722 15.00006878078964 0  115.2938966041449 15.00000384988233 0  120.2939016196235 14.99994453943888 0  125.2939060186404 14.99989224336725 0  130.2939096158227 14.99984858828329 0  135.293912432168 14.99981530984342 0  140.2939149739047 14.99979387950331 0  145.2939186786379 14.99978456070604 0  150.2939264383395 14.99978405017641 0  165.2939470784473 14.99965655541296 0  160.2939555023742 14.99978921481843 0  170.2939291808403 14.99951156204447 0  175.293907600893 14.99936516724576 0  180.293886331116 14.99922290891593 0  185.2938673019028 14.99908673795544 0  190.2938511806381 14.99895688808523 0  195.2938379841219 14.99883288821982 0  200.2938274380045 14.99871404013317 0  205.2938191671952 14.9985996267089 0  210.2938127889081 14.99848899306189 0  215.2938079533579 14.99838157030337 0  220.2938043577927 14.99827687504482 0  225.2938017478061 14.99817449990218 0  230.2937999131829 14.99807410174812 0  235.2937986819183 14.99797539047028 0  240.2937979140895 14.99787811918 0  245.2937974963056 14.99778207603439 0  250.2937973369688 14.99768707753104 0  255.2937973623503 14.99759296304328 0  260.2937975134103 14.99749959036583 0  265.2937977432319 14.99740683207381 0  270.2937980149719 14.99731457254492 0  275.2937983002064 14.99722270554136 0  280.2937985775765 14.99713113229479 0  285.2937988316711 14.99703976007978 0  290.2937990520617 14.99694850128722 0  295.2937992325562 14.99685727298194 0  300.2937993707902 14.99676599675162 0  305.2937994686301 14.99667459805504 0  310.293799534273 14.99658300254227 0  5.29395992435021 22.50179135710906 0  0.2939598383776739 22.50187460540479 0  10.2939600622981 22.50170769507751 0  15.29396028345511 22.50162367597643 0  20.29396060718971 22.50153934778092 0  25.29396104637231 22.50145475811413 0  30.29396161057907 22.50136995823129 0  35.29396230765999 22.50128500480112 0  40.29396314425954 22.50119996085152 0  45.29396412571006 22.50111489663287 0  50.29396525554539 22.50102989078802 0  55.2939665347512 22.50094503203458 0  60.29396796079071 22.50086042148922 0  65.29396952639433 22.50077617574902 0  70.29397121807983 22.50069243085821 0  75.29397301436715 22.50060934731842 0  80.29397488367123 22.5005271163284 0  85.2939767819089 22.50044596745546 0  90.29397864996835 22.5003661779152 0  95.29398041139245 22.50028808352387 0  100.2939819709792 22.50021209109565 0  105.2939832155913 22.50013869142502 0  110.2939840193869 22.50006847072158 0  115.2939842570331 22.50000211595042 0  120.2939838302185 22.4999404051321 0  125.2939827146142 22.49988416597232 0  130.2939810350296 22.49983417342095 0  135.2939791725708 22.49979093706869 0  140.2939778912957 22.49975430322202 0  145.2939784270397 22.49972277776157 0  150.2939823796029 22.49969254384959 0  165.2940191220667 22.4995586529828 0  160.2940076059043 22.49966363511482 0  170.2940215471879 22.49943993147343 0  175.294017431677 22.49931459627006 0  180.2940094943995 22.4991877046245 0  185.2939998833292 22.49906226449397 0  190.2939900163187 22.49893977421958 0  195.293980713637 22.49882080172236 0  200.293972383351 22.49870540218977 0  205.2939651757284 22.49859337594838 0  210.2939590919957 22.49848441479622 0  215.2939540546289 22.49837817990372 0  220.293949950222 22.49827434045688 0  225.2939466543293 22.49817259078935 0  230.2939440450454 22.49807265622141 0  235.2939420098158 22.49797429327325 0  240.2939404483151 22.49787728730448 0  245.2939392731421 22.49778144916701 0  250.2939384093589 22.49768661166356 0  255.2939377934888 22.49759262617903 0  260.2939373722875 22.49749935963504 0  265.2939371014894 22.49740669180978 0  270.2939369445936 22.49731451301649 0  275.2939368717342 22.49722272211368 0  280.2939368586438 22.49713122480876 0  285.2939368857113 22.49703993219624 0  290.2939369371571 22.49694875941919 0  295.2939370004001 22.49685762421238 0  300.2939370657128 22.4
[...]
<PointData  Vectors="v"> 
<DataArray  type="Float64"  Name="v"  NumberOfComponents="3" format="ascii">3.6572380306516683e+00 -1.6116086462885257e+00 0.0000000000000000e+00  3.5118965375490228e+00 -1.8354293165009592e+00 0.0000000000000000e+00  2.8945447510302951e+00 -1.6174162994948778e+00 0.0000000000000000e+00  3.0016990335007354e+00 -1.4516082874455176e+00 0.0000000000000000e+00  3.2679708035237964e+00 -2.3471066945543488e+00 0.0000000000000000e+00  2.7491356576648407e+00 -1.9816444236820059e+00 0.0000000000000000e+00  2.9630025681367842e+00 -3.0793672771280054e+00 0.0000000000000000e+00  2.5055088557698886e+00 -2.6224313741513003e+00 0.0000000000000000e+00  2.6051623050848174e+00 -3.7894003880712068e+00 0.0000000000000000e+00  2.2010691537813063e+00 -3.2536934725328117e+00 0.0000000000000000e+00  2.1996916826791253e+00 -4.6301776297703858e+00 0.0000000000000000e+00  1.8440835643277049e+00 -4.0235362503007739e+00 0.0000000000000000e+00  1.8042925968896051e+00 -5.3854287980090980e+00 0.0000000000000000e+00  1.4402905460852795e+00 -4.7942166603115224e+00 0.0000000000000000e+00  1.6320381012582394e+00 -5.8077256097086840e+00 0.0000000000000000e+00  1.0470948025110864e+00 -5.5521191939695891e+00 0.0000000000000000e+00  1.1328327980134931e+00 -6.6705313441808123e+00 0.0000000000000000e+00  8.7773047710607555e-01 -5.9252284594310227e+00 0.0000000000000000e+00  3.0277984463047183e+00 -3.9419198106502731e+00 0.0000000000000000e+00  3.8258046215510277e-01 -6.7883005947506501e+00 0.0000000000000000e+00  -1.3458194710734417e+00 -1.0490418103014052e+01 0.0000000000000000e+00  2.2825048943299966e+00 -3.9353838275136752e+00 0.0000000000000000e+00  2.8613998156344998e-02 -8.1864585054630226e+00 0.0000000000000000e+00  -2.0862807854324021e+00 -1.0253555124388221e+01 0.0000000000000000e+00  3.1587792555234556e-01 -7.5173518782627360e+00 0.0000000000000000e+00  -7.0532359615046303e-01 -7.9560709495679944e+00 0.0000000000000000e+00  -2.0028778398751564e-02 -7.8245455993411550e+00 0.0000000000000000e+00  -4.0903613725075305e-01 -7.3305327861384990e+00 0.0000000000000000e+00  -8.0935667697972469e-01 -8.8092865444520179e+00 0.0000000000000000e+00  -7.3386113704660416e-01 -7.6376025706720219e+00 0.0000000000000000e+00  -1.8670016858193417e+00 -1.0137580251382749e+01 0.0000000000000000e+00  -1.5088462187885245e+00 -8.5648436064915305e+00 0.0000000000000000e+00  -3.1369879919434833e+00 -1.1666786343199988e+01 0.0000000000000000e+00  -2.5499887116523432e+00 -9.7785576816468591e+00 0.0000000000000000e+00  -4.5747141412298360e+00 -1.3357127834920639e+01 0.0000000000000000e+00  -3.8011126413827871e+00 -1.1219743792100612e+01 0.0000000000000000e+00  -6.1353546603787104e+00 -1.5024167714102983e+01 0.0000000000000000e+00  -5.2159756716402859e+00 -1.2704386653883564e+01 0.0000000000000000e+00  -7.7832334032235257e+00 -1.6661728358777737e+01 0.0000000000000000e+00  -6.7513901275609269e+00 -1.4215086025721897e+01 0.0000000000000000e+00  -9.4780115468270214e+00 -1.8185658721083634e+01 0.0000000000000000e+00  -8.3702407097926521e+00 -1.5671147959969948e+01 0.0000000000000000e+00  -1.1152806056543442e+01 -1.9494957375021148e+01 0.0000000000000000e+00  -1.0032181541061421e+01 -1.7014231353657234e+01 0.0000000000000000e+00  -1.2745365159585155e+01 -2.0406159274398743e+01 0.0000000000000000e+00  -1.1669079894628350e+01 -1.8051558499735616e+01 0.0000000000000000e+00  -1.4203218369605111e+01 -2.1019252440355789e+01 0.0000000000000000e+00  -1.3222050690399803e+01 -1.8873056553403433e+01 0.0000000000000000e+00  -1.5453243844596120e+01 -2.0817085298635327e+01 0.0000000000000000e+00  -1.4630613497186483e+01 -1.8981627605092026e+01 0.0000000000000000e+00  -1.6477123323462166e+01 -2.0140467668740172e+01 0.0000000000000000e+00  -1.5834007433048743e+01 -1.8656616898812334e+01 0.0000000000000000e+00  -1.7227531261430496e+01 -1.8253546255950781e+01 0.0000000000000000e+00  -1.6795077777367833e+01 -1.7171759171608368e+01 0.0000000000000000e+00  -1.7742335362064676e+01 -1.5428811826628708e+01 0.0000000000000000e+00  -1.7493165642864490e+01 -1.4722905370822012e+01 0.0000000000000000e+00  -1.8011404641689346e+01 -1.1381415270441915e+01 0.0000000000000000e+00  -1.7928588093336440e+01 -1.1023242981410647e+01 0.0000000000000000e+00  -1.8136939831495521e+01 -4.7315244842907909e+00 0.0000000000000000e+00  -1.8141699213953217e+01 -4.6275934198102640e+00 0.0000000000000000e+00  -1.8163563202449062e+01 5.2132885817540058e-11 0.0000000000000000e+00  -1.8163229810969558e+01 3.1822641210468871e-04 0.0000000000000000e+00  -1.8163563200062523e+01 -1.1111440277917469e-19 0.0000000000000000e+00  -1.3884893364273850e+01 1.1497166194946322e+01 0.0000000000000000e+00  -1.8132845797986064e+01 5.1147052474052597e+00 0.0000000000000000e+00  -1.8163230961102723e+01 -3.3660907500830000e-04 0.0000000000000000e+00  -1.2622631705009507e+01 2.0107513215902284e+01 0.0000000000000000e+00  -1.3903756356617137e+01 1.8283559740402698e+01 0.0000000000000000e+00  -1.0750869434104105e+01 2.3971659181565574e+01 0.0000000000000000e+00  -1.2700284293595928e+01 2.1200650699784212e+01 0.0000000000000000e+00  -9.6661182844231472e+00 2.4802382391495406e+01 0.0000000000000000e+00  -1.0883204092250425e+01 2.3223339332190452e+01 0.0000000000000000e+00  -8.4431250553153188e+00 2.4357354067809538e+01 0.0000000000000000e+00  -9.8475343085743994e+00 2.2562626378755269e+01 0.0000000000000000e+00  -7.4331149610111664e+00 2.2839518297474676e+01 0.0000000000000000e+00  -8.6702579727105888e+00 2.1364794066957849e+01 0.0000000000000000e+00  -6.4846043817783698e+00 2.1057084363202669e+01 0.0000000000000000e+00  -7.7048049857457270e+00 1.9669818493660156e+01 0.0000000000000000e+00  -5.6323954270452266e+00 1.9047052645664188e+01 0.0000000000000000e+00  -6.7969344233558315e+00 1.7804764206229986e+01 0.0000000000000000e+00  -4.7439173556618064e+00 1.7233451978520343e+01 0.0000000000000000e+00  -5.9834623898022432e+00 1.5933696132421856e+01 0.0000000000000000e+00  -4.0343478983046701e+00 1.5496090826639671e+01 0.0000000000000000e+00  -5.1322647554721170e+00 1.4463556233414037e+01 0.0000000000000000e+00  -3.4031061921042789e+00 1.3980491359700693e+01 0.0000000000000000e+00  -4.4578432714442915e+00 1.3064323551478951e+01 0.0000000000000000e+00  -2.7506510409982399e+00 1.2764985161339661e+01 0.0000000000000000e+00  -3.8602453772966663e+00 1.1815754440501530e+01 0.0000000000000000e+00  -2.1560036549122197e+00 1.1704865010550852e+01 0.0000000000000000e+00  -3.2404278145346526e+00 1.0841051824055805e+01 0.0000000000000000e+00  -1.6189304723425280e+00 1.0781938278437568e+01 0.0000000000000000e+00  -2.6769184514232367e+00 1.0003840597321712e+01 0.0000000000000000e+00  -1.1375078486961006e+00 9.9370946517622603e+00 0.0000000000000000e+00  -2.1698779627319040e+00 9.2414527780205837e+00 0.0000000000000000e+00  -7.2115952779029047e-01 9.1329264104553491e+00 0.0000000000000000e+00  -1.7176771222057408e+00 8.5340801400662567e+00 0.0000000000000000e+00  -3.6490264942736944e-01 8.3743935510127621e+00 0.0000000000000000e+00  -1.3295530700106097e+00 7.8651382613372069e+00 0.0000000000000000e+00  -5.3261525810164613e-02 7.6324573765388237e+00 0.0000000000000000e+00  -1.0007202970074149e+00 7.1895104697224896e+00 0.0000000000000000e+00  2.1049769451510844e-01 6.9067636988269427e+00 0.0000000000000000e+00  -7.1598688695429868e-01 6.5350426077014001e+00 0.0000000000000000e+00  4.3129197116794082e-01 6.1910055049233854e+00 0.0000000000000000e+00  -4.7842062250218076e-01 5.8834538708456341e+00 0.0000000000000000e+00  6.1595431311958349e-01 5.4861077559486322e+00 0.0000000000000000e+00  -2.8343170054178818e-01 5.2322311873151035e+00 0.0000000000000000e+00  7.6508092588530874e-01 4.7645288926043872e+00 0.0000000000000000e+00  -1.2402602758568512e-01 4.5638192650040299e+00 0.0000000000000000e+00  8.7190258867611148e-01 4.0853984219033652e+00 0.0000000000000000e+00  -9.1793382474453632e-05 3.9475744043676571e+00 0.0000000000000000e+00  9.4640342476920603e-01 3.3308592754292587e+00 0.0000000000000000e+00  8.2413514347524641e-02 3.2418791633871726e+00 0.0000000000000000e+00  9.7465690211587064e-01 2.6998632909386249e+00 0.0000000000000000e+00  1.3183095434269784e-01 2.6790022185240616e+00 0.0000000000000000e+00  9.6091036888431081e-01 1.8816217290929873e+00 0.0000000000000000e+00  1.3692235982371212e-01 1.9254108277212403e+00 0.0000000000000000e+00  8.9628774757660246e-01 1.3998117368887291e+00 0.0000000000000000e+00  9.7406864033131590e-02 1.5167621000271883e+00 0.0000000000000000e+00  7.6626973436536527e-01 4.3181061305535384e-01 0.0000000000000000e+00  1.1849060999571196e-02 6.5175531554356037e-01 0.0000000000000000e+00  5.2155431975044808e-01 -4.9766259646195840e-02 0.0000000000000000e+00  -1.4733516957002385e-01 3.3328735980802732e-01 0.0000000000000000e+00  -5.8925657000699981e-02 -2.8480587439771810e-01 0.0000000000000000e+00  -4.0370300072035586e-01 6.1937800871177251e-01 0.0000000000000000e+00  2.0086248672488267e+00 -1.4556616814019510e+00 0.0000000000000000e+00  2.1164951038930995e+00 -1.2920585009100849e+00 0.0000000000000000e+00  1.8997860588021265e+00 -1.7621923073537322e+00 0.0000000000000000e+00  1.7521352007410975e+00 -2.2558056824774404e+00 0.0000000000000000e+00  1.5063253832216192e+00 -2.7959387258646400e+00 0.0000000000000000e+00  1.1999915776567063e+00 -3.4868966012768965e+00 0.0000000000000000e+00  8.4137977312982837e-01 -4.1880762236800670e+00 0.0000000000000000e+00  4.3682960834854595e-01 -4.9626264290234348e+00 0.0000000000000000e+00  4.4229950756657921e-02 -5.6716963414299428e+00 0.0000000000000000e+00  -1.2341660725107953e-01 -6.0477855327765910e+00 0.0000000000000000e+00  -6.1431545224174777e-01 -6.7891397313856112e+00 0.0000000000000000e+00  1.2908691402497685e+00 -3.7007294810704252e+00 0.0000000000000000e+00  -3.0786697415716189e+00 -1.0026699986673936e+01 0.0000000000000000e+00  -1.6973245465791031e+00 -7.7790893032348132e+00 0.0000000000000000e+00  -1.3938458995809682e+00 -7.1554600738071432e+00 0.0000000000000000e+00  -1.7078933771852212e+00 -7.4120657359255171e+00 0.0000000000000000e+00  -2.4664592163275882e+00 -8.2287004628773417e+00 0.0000000000000000e+00  -3.4869005678416611e+00 -9.3563866815105090e+00 0.0000000000000000e+00  -4.7136944420304543e+00 -1.0599560107299228e+01 0.0000000000000000e+00  -6.0987174332324372e+00 -1.1932573332426132e+01 0.0000000000000000e+00  -7.5987417901948877e+00 -1.3264807956952197e+01 0.0000000000000000e+00  -9.1776607116595503e+00 -1.4549865893826160e+01 0.0000000000000000e+00  -1.0791391715362629e+01 -1.5627132648081750e+01 0.0000000000000000e+00  -1.2373411557721363e+01 -1.6580513259015774e+01 0.0000000000000000e+00  -1.3862594137701109e+01 -1.6908657596212091e+01 0.0000000000000000e+00  -1.5199324247406985e+01 -1.6903718085436715e+01 0.0000000000000000e+00  -1.6316715919317001e+01 -1.5775419777117119e+01 0.0000000000000000e+00  -1.7189001589818403e+01 -1.3751458402877018e+01 0.0000000000000000e+00  -1.7771326137708364e+01 -1.0413467618849166e+01 0.0000000000000000e+00  -1.8104142380816466e+01 -4.4209240258434006e+00 0.0000000000000000e+00  -1.8162421588681802e+01 6.0656339698491007e-04 0.0000000000000000e+00  -1.8092015560068901e+01 4.9187530188820308e+00 0.0000000000000000e+00  -1.8162423659178057e+01 -6.9195745773986195e-04 0.0000000000000000e+00  -1.7900919683462831e+01 1.1958947130255691e+01 0.0000000000000000e+00  -1.3742418207726354e+01 1.9453011337793608e+01 0.0000000000000000e+00  -1.2625315054112065e+01 2.0540271946848421e+01 0.0000000000000000e+00  -1.0876264342280688e+01 2.1049214289251537e+01 0.0000000000000000e+00  -9.9041405756436980e+00 1.9628589223454824e+01 0.0000000000000000e+00  -8.7785631436510130e+00 1.8254728903003773e+01 0.0000000000000000e+00  -7.8637670899595005e+00 1.6469098808846255e+01 0.0000000000000000e+00  -6.9995308328546999e+00 1.4737990938918429e+01 0.0000000000000000e+00  -6.2264761162264755e+00 1.3210313753036711e+01 0.0000000000000000e+00  -5.4131113510083795e+00 1.2074267256842763e+01 0.0000000000000000e+00  -4.7740355892574717e+00 1.0939105727833207e+01 0.0000000000000000e+00  -4.2093585954904107e+00 9.9309710234999073e+00 0.0000000000000000e+00  -3.6212500381891473e+00 9.1767140491629391e+00 0.0000000000000000e+00  -3.0875202876470689e+00 8.4978429479654238e+00 0.0000000000000000e+00  -2.6085282734179076e+00 7.8723244651445592e+00 0.0000000000000000e+00  -2.1832181787956944e+00 7.2985143211593524e+00 0.0000000000000000e+00  -1.8206354728604948e+00 6.7109768079781151e+00 0.0000000000000000e+00  -1.5161242382198674e+00 6.1223219635537047e+00 0.0000000000000000e+00  -1.2549112130766789e+00 5.5409165402878227e+00 0.0000000000000000e+00  -1.0400348274428159e+00 4.9529466741643446e+00 0.0000000000000000e+00  -8.6695165101400995e-01 4.3378765438935174e+00 0.0000000000000000e+00  -7.2906994960219518e-01 3.7742102183170276e+00 0.0000000000000000e+00  -6.2602649096241048e-01 3.1308318552067997e+00 0.0000000000000000e+00  -5.6423463384070272e-01 2.6166589927647568e+00 0.0000000000000000e+00  -5.3481854492730752e-01 1.9307493558606434e+00 0.0000000000000000e+00  -5.5015880725555000e-01 1.5862592320317175e+00 0.0000000000000000e+00  -6.0837508433489162e-01 7.9452914444325240e-01 0.0000000000000000e+00  -7.1454935124109720e-01 5.7939692905944562e-01 0.0000000000000000e+00  -8.9105957737750829e-01 1.0196524409317838e+00 0.0000000000000000e+00  6.9987144401752732e-01 -1.2915826393431220e+00 0.0000000000000000e+00  7.9198883264568065e-01 -1.1572993388264956e+00 0.0000000000000000e+00  5.8828375081910000e-01 -1.5951122204019916e+00 0.0000000000000000e+00  4.7319051269574114e-01 -2.0303648543431270e+00 0.0000000000000000e+00  3.1925603777345957e-01 -2.4227805435502812e+00 0.0000000000000000e+00  6.6404196160503234e-02 -3.0229773607784018e+00 0.0000000000000000e+00  -2.4704253491627406e-01 -3.6464738745021559e+00 0.0000000000000000e+00  -6.1165990289535976e-01 -4.3526687179830041e+00 0.0000000000000000e+00  -1.0211403775769983e+00 -5.0812939417630520e+00 0.0000000000000000e+00  -1.4164301117076614e+00 -5.7974153958806482e+00 0.0000000000000000e+00  -1.5826526062464645e+00 -6.0567409477208445e+00 0.0000000000000000e+00  -2.0682354196420749e+00 -6.5626166837722382e+00 0.0000000000000000e+00  -1.6263425640907722e-01 -3.4671662569375314e+00 0.0000000000000000e+00  -4.5450065839706433e+00 -9.8432686988103448e+00 0.0000000000000000e+00  -3.1744234294296643e+00 -7.6138203195705731e+00 0.0000000000000000e+00  -2.8689160628993338e+00 -6.9502792772709583e+00 0.0000000000000000e+00  -3.1712197711844841e+00 -7.1062069004113333e+00 0.0000000000000000e+00  -3.9100223242162491e+00 -7.8470088556109250e+00 0.0000000000000000e+00  -4.9035761592130536e+00 -8.7862860874964195e+00 0.0000000000000000e+00  -6.0950925985644897e+00 -9.8872555261964070e+00 0.0000000000000000e+00  -7.4373251983028279e+00 -1.1053838669749167e+01 0.0000000000000000e+00  -8.8860611527600408e+00 -1.2228944677922987e+01 0.0000000000000000e+00  -1.0401394210633757e+01 -1.3260331336606756e+01 0.0000000000000000e+00  -1.1941001989461801e+01 -1.4275449476658963e+01 0.0000000000000000e+00  -1.3431940004466719e+01 -1.4748920035107616e+01 0.0000000000000000e+00  -1.4816495711614303e+01 -1.4994313250702792e+01 0.0000000000000000e+00  -1.6023319740458909e+01 -1.4195307379367280e+01 0.0000000000000000e+00  -1.6999349812672197e+01 -1.2582526927046922e+01 0.0000000000000000e+00  -1.7688193651034513e+01 -9.6462366828874000e+00 0.0000000000000000e+00  -1.8095456341713650e+01 -4.1367552265717853e+00 0.0000000000000000e+00  -1.8161163122450557e+01 8.6604584639687920e-04 0.0000000000000000e+00  -1.8071377287775910e+01 4.5736453540722843e+00 0.0000000000000000e+00  -1.8161165228802204e+01 -1.0058128232717125e-03 0.0000000000000000e+00  -1.7669549176253426e+01 1.1609040786992036e+01 0.0000000000000000e+00  -1.7468305004979833e+01 1.3304829364883338e+01 0.0000000000000000e+00  -1.3433509572389088e+01 1.8973229318992576e+01 0.0000000000000000e+00  -1.2455055477048406e+01 1.8505605193586096e+01 0.0000000000000000e+00  -1.0814199242854169e+01 1.8247488232326347e+01 0.0000000000000000e+00  -9.9353922582558596e+00 1.6625445716228388e+01 0.0000000000000000e+00  -8.8879536617941746e+00 1.5153481770895448e+01 0.0000000000000000e+00  -8.0438383220632090e+00 1.3490421125865792e+01 0.0000000000000000e+00  -7.2406387492330584e+00 1.2095515928705874e+01 0.0000000000000000e+00  -6.5240123795284983e+00 1.0894971508346904e+01 0.0000000000000000e+00  -5.7620638325196190e+00 1.0019114670905131e+01 0.0000000000000000e+00  -5.1708768574640462e+00 9.1198113666108647e+00 0.0000000000000000e+00  -4.6514968517457529e+00 8.3286591468244442e+00 0.0000000000000000e+00  -4.1061439942381455e+00 7.7294717544642966e+00 0.0000000000000000e+00  -3.6123850048838260e+00 7.1840486203890555e+00 0.0000000000000000e+00  -3.1710957110940430e+00 6.6890506118425908e+00 0.0000000000000000e+00  -2.7812058975994294e+00 6.1942133414538265e+00 0.0000000000000000e+00  -2.4519728044989790e+00 5.6911602457889732e+00 0.0000000000000000e+00  -2.1791083959317290e+00 5.1736443330060347e+00 0.0000000000000000e+00  -1.9481104023785611e+00 4.6541690063251941e+00 0.0000000000000000e+00  -1.7620745765351118e+00 4.1011157552181805e+00 0.0000000000000000e+00  -1.6170231100858441e+00 3.5893150803460117e+00 0.0000000000000000e+00  -1.5060962927269284e+00 2.9982170739863099e+00 0.0000000000000000e+00  -1.4297436180381047e+00 2.5445472970230285e+00 0.0000000000000000e+00  -1.3933516380077782e+00 1.9083575868505873e+00 0.0000000000000000e+00  -1.3900048570188863e+00 1.6278228427179087e+00 0.0000000000000000e+00  -1.4285314562206404e+00 9.0479215934736068e-01 0.0000000000000000e+00  -1.5136862970458249e+00 7.5306319931937316e-01 0.0000000000000000e+00  -1.6367184084264608e+00 1.3087783957185815e+00 0.0000000000000000e+00  -5.0493477299632838e-01 -1.1501803895226399e+00 0.0000000000000000e+00  -4.3313286560510450e-01 -1.0542879854474672e+00 0.0000000000000000e+00  -6.0221144293017448e-01 -1.4219272461016275e+00 0.0000000000000000e+00  -7.2328710433859311e-01 -1.8500053371317235e+00 0.0000000000000000e+00  -8.4977538920330020e-01 -2.1831209344949776e+00 0.0000000000000000e+00  -1.0168666480338389e+00 -2.6343081886437218e+00 0.0000000000000000e+00  -1.2835780308070179e+00 -3.1663284948859682e+00 0.0000000000000000e+00  -1.6112778920512330e+00 -3.7964160154054283e+00 0.0000000000000000e+00  -1.9893532381394510e+00 -4.4590863843368869e+00 0.0000000000000000e+00  -2.4097686700527849e+00 -5.1987616990186343e+00 0.0000000000000000e+00  -2.8116533068182750e+00 -5.8063232250139176e+00 0.0000000000000000e+00  -2.9794028163983355e+00 -5.8351888603010655e+00 0.0000000000000000e+00  -3.4650470987546682e+00 -6.3197034555131832e+00 0.0000000000000000e+00  -1.5740372104292748e+00 -3.2474323543079850e+00 0.0000000000000000e+00  -5.9927257540527474e+00 -9.6455140952989797e+00 0.0000000000000000e+00  -4.6527953970454137e+00 -7.3990490487267619e+00 0.0000000000000000e+00  -4.3595440922127855e+00 -6.6521605509041262e+00 0.0000000000000000e+00  -4.6619395013420837e+00 -6.7470914630527927e+00 0.0000000000000000e+00  -5.3887504156684196e+00 -7.3094651388659022e+00 0.0000000000000000e+00  -6.3623728138051439e+00 -8.1210647569905987e+00 0.0000000000000000e+00  -7.5249307592776935e+00 -9.0676105001845571e+00 0.0000000000000000e+00  -8.8281123695161927e+00 -1.0091053192687481e+01 0.0000000000000000e+00  -1.0226185773393823e+01 -1.1031339831158164e+01 0.0000000000000000e+00  -1.1678064666351965e+01 -1.2024824181275152e+01 0.0000000000000000e+00  -1.3133300290268902e+01 -1.2579662434912390e+01 0.0000000000000000e+00  -1.4523086321304353e+01 -1.3012488031821086e+01 0.0000000000000000e+00  -1.5773095319015004e+01 -1.2483266895950306e+01 0.0000000000000000e+00  -1.6827262768100795e+01 -1.1270286886218617e+01 0.0000000000000000e+00  -1.7594206480166161e+01 -8.7351096483467483e+00 0.0000000000000000e+00  -1.8073710717778795e+01 -3.7811023537217499e+00 0.0000000000000000e+00  -1.8159505332360293e+01 1.0955854108759698e-03 0.0000000000