<?xml version="1.0"?>
<VTKFile type="UnstructuredGrid"  version="0.1"  >
<UnstructuredGrid>
<Piece  NumberOfPoints="1933" NumberOfCells="3640">
<Points>
<DataArray  type="Float64"  NumberOfComponents="3"  format="ascii">0.4752896618027767 0.001461742390474046 0  5.475289681383808 0.001397120260647633 0  5.475386676850177 7.501397206223069 0  0.4753866219176926 7.50146176548661 0  10.4752896952559 0.001332406906153134 0  10.47538678446561 7.501332518223728 0  15.47528975199419 0.00126752977787114 0  15.47538697631728 7.501267650890204 0  20.47528991171281 0.001202462422783737 0  20.47538728501565 7.501202586981061 0  25.47529023493556 0.001137207355099261 0  25.47538774469257 7.501137333240223 0  30.4752907791354 0.001071785915034032 0  30.4753883903385 7.501071913034154 0  35.47529159853548 0.001006232230237925 0  35.4753892573269 7.501006361489697 0  40.47529274525494 0.000940589826453101 0  40.47539038132789 7.500940722654112 0  45.4752942709565 0.0008749100373941351 0  45.47539179853457 7.500875048175622 0  50.47529622864313 0.0008092517048949733 0  50.47539354607859 7.500809397141918 0  55.47529867447449 0.0007436818818983176 0  55.47539566252632 7.500743836857106 0  60.47530166957517 0.0006782774065256681 0  60.47539818836772 7.500678444458057 0  65.47530528185301 0.0006131273353846205 0  65.47540116641598 7.500613309373899 0  70.47530958785231 0.0005483363299651923 0  70.47540464203317 7.500548536728471 0  75.4753146746725 0.0004840291996049009 0  75.47540866306919 7.500484251886687 0  80.47532064195204 0.0004203569370555814 0  80.47541327935187 7.500420606468283 0  85.47532760388384 0.0003575047617123562 0  85.47541854148979 7.500357786311926 0  90.47533569113035 0.000295702944924889 0  90.47542449862307 7.500296022092818 0  95.47534505234658 0.0002352415835019366 0  95.47543119457552 7.50023560360683 0  100.475355854669 0.0001764910947976395 0  100.4754386616148 7.500176899169562 0  105.4753682818732 0.0001199311634599452 0  105.4754469106888 7.500120382177612 0  110.4753825275645 6.619239107144066e-05 0  110.4754559166617 7.50006666765333 0  115.4753987781433 1.611732223191922e-05 0  115.475465596889 7.500016562471744 0  120.4754171750093 -2.914865619888174e-05 0  120.4754757820281 7.499971133611639 0  125.4754377349299 -6.802018448381328e-05 0  125.4754861807841 7.499931798201715 0  130.4754601862563 -9.826393704017643e-05 0  130.4754963489998 7.499900434895186 0  135.4754836355702 -0.0001166866545524866 0  135.4755056970402 7.499879503069608 0  140.4755058897697 -0.0001186944141167195 0  140.4755136295385 7.499872127817415 0  145.4755220611386 -9.782181721666582e-05 0  145.4755200655286 7.499882081800542 0  150.4755215818724 -4.612202416365313e-05 0  150.4755270110485 7.499913802449838 0  160.4755282581477 7.508132809709113e-19 0  165.4754005132582 -0.0001683238764574519 0  165.4755056211508 7.499807398315914 0  160.4755443262753 7.499942118933487 0  170.4753273797916 -0.0003159864174436859 0  170.4754662957529 7.499671732687594 0  175.475284121053 -0.0004486518443092541 0  175.4754333922603 7.499544515733695 0  180.4752580212685 -0.0005693670959243616 0  180.4754077207448 7.499426635467051 0  185.4752421472877 -0.0006805458398342831 0  185.4753883572937 7.499317034167677 0  190.4752325698364 -0.0007841518547819124 0  190.4753740439487 7.499214340401966 0  195.4752269862531 -0.0008817351383420376 0  195.4753636263211 7.499117300847593 0  200.4752240011388 -0.0009744951101966311 0  200.4753561625985 7.499024874551868 0  205.4752227393152 -0.001063354687259546 0  205.4753509207996 7.498936225991883 0  210.4752226327445 -0.001149026927717435 0  210.4753473437038 7.498850691343637 0  215.4752233005177 -0.001232068182526384 0  215.4753450101156 7.498767742539789 0  220.4752244795437 -0.00131291813129047 0  220.4753436015971 7.498686956493901 0  225.4752259833885 -0.001391929176084095 0  225.4753428764236 7.498607990768878 0  230.4752276770925 -0.001469387846908752 0  230.4753426500255 7.498530564974861 0  235.4752294612786 -0.001545530424977437 0  235.4753427805818 7.498454446720001 0  240.4752312618145 -0.001620554445480392 0  240.4753431584742 7.498379441006228 0  245.4752330229028 -0.001694627275663039 0  245.4753436985746 7.498305382174919 0  250.47523470235 -0.001767892610979808 0  250.4753443345869 7.498232127723994 0  255.475236268283 -0.001840475478358589 0  255.4753450148879 7.498159553498982 0  260.4752376968572 -0.001912486156772427 0  260.4753456994608 7.498087549899302 0  265.4752389706989 -0.001984023298403126 0  265.4753463576462 7.498016018846524 0  270.4752400779059 -0.002055176439594547 0  270.4753469665114 7.497944871342487 0  275.4752410115466 -0.002126028013249529 0  275.4753475096874 7.497874025513998 0  280.4752417696124 -0.002196654896819405 0  280.475347976573 7.49780340510732 0  285.4752423554617 -0.002267129431413056 0  285.4753483618106 7.497732938473425 0  290.4752427787664 -0.002337519693301932 0  290.475348664936 7.497662558188306 0  295.4752430570161 -0.002407888525571606 0  295.4753488901302 7.497592201600765 0  300.475243217438 -0.002478290316167823 0  300.4753490459882 7.497521812808022 0  305.4752432988288 -0.002548763465185835 0  305.4753491454402 7.497451346819171 0  310.4752433516427 -0.002619314315411157 0  310.4753492065628 7.497380776888057 0  5.475483343250374 15.00139741903821 0  0.4754832790348558 15.00146182696337 0  10.47548346309154 15.00133279098279 0  15.47548366833066 15.00126794082565 0  20.47548398100465 15.00120287659614 0  25.47548442045736 15.00113761767848 0  30.47548500545183 15.001072193569 0  35.47548575487562 15.00100664224971 0  40.47548668785366 15.00094100902241 0  45.4754878236348 15.000875346045 0  50.47548918138546 15.0008097125975 0  55.47549077991275 15.00074417605775 0  60.47549263728054 15.00067881358691 0  65.47549477025703 15.0006137145703 0  70.47549719350303 15.00054898391823 0  75.47549991839591 15.00048474640213 0  80.47550295135339 15.00042115228305 0  85.475506291504 15.00035838458756 0  90.47550992753456 15.00029666849973 0  95.47551383357258 15.000236283456 0  100.4755179640558 15.00017757862483 0  105.475522247839 15.00012099243922 0  110.475526582402 15.00006707654308 0  115.4755308303408 15.00001652350018 0  120.4755348227903 14.99997019503732 0  125.4755383788568 14.99992914169253 0  130.4755413573853 14.99989459196075 0  135.4755437676905 14.99986786208199 0  140.4755459758622 14.99985008017581 0  145.4755490355558 14.99984148465818 0  150.4755550761981 14.99983966734317 0  165.4755692375046 14.99974119948745 0  160.4755759076086 14.99984179668627 0  170.4755554904212 14.99963111338399 0  175.4755389759304 14.99951976111411 0  180.4755226985613 14.99941135769765 0  185.4755081173968 14.99930741419709 0  190.4754957401686 14.99920813983374 0  195.4754855830932 14.9991132052287 0  200.4754774415364 14.99902210367856 0  205.4754710337136 14.99893430940798 0  210.4754660711099 14.99884933982961 0  215.4754622894375 14.99876677435719 0  220.4754594594475 14.99868625473033 0  225.4754573880955 14.99860747838802 0  230.475455915538 14.99853019001259 0  235.4754549107107 14.99845417335482 0  240.4754542667671 14.9983792440773 0  245.4754538969284 14.99830524375763 0  250.4754537309315 14.99823203495983 0  255.4754537120803 14.99815949720929 0  260.4754537948492 14.99808752370502 0  265.4754539429488 14.99801601862589 0  270.4754541277742 14.99794489492134 0  275.4754543271553 14.99787407251083 0  280.475454524325 14.99780347685066 0  285.4754547070733 14.99773303785811 0  290.4754548670103 14.99766268920192 0  295.4754549989912 14.9975923679478 0  300.4754551007904 14.99752201441429 0  305.4754551733707 14.99745157164201 0  310.4754552224084 14.99738098256363 0  5.475579594201188 22.5013978813267 0  0.4755795292899501 22.50146212500048 0  10.47557969905101 22.50133332240008 0  15.47557986785014 22.50126849064678 0  20.47558011555402 22.50120342199176 0  25.47558045216685 22.50113815216141 0  30.47558088519408 22.50107271968609 0  35.47558142084838 22.50100716723362 0  40.47558206445762 22.50094154230932 0  45.47558282039439 22.5008758978927 0  50.475583691717 22.50081029330685 0  55.47558467961046 22.50074479547509 0  60.47558578265769 22.50067948066351 0  65.4755869959324 22.5006144367958 0  70.4755883098881 22.50054976643672 0  75.4755897090154 22.50048559056378 0  80.4755911702525 22.50042205326819 0  85.4755926611729 22.50035932753908 0  90.47559413805683 22.50029762226831 0  95.47559554410198 22.5002371905317 0  100.4755968082892 22.50017833898889 0  105.4755978458565 22.50012143777771 0  110.4755985620173 22.50006692933686 0  115.4755988615639 22.50001533279883 0  120.475598668315 22.49996723731958 0  125.4755979597368 22.49992327197812 0  130.4755968225613 22.49988403032169 0  135.4755955323374 22.4998499128456 0  140.4755946478077 22.49982083103374 0  145.4755950777066 22.499795702234 0  150.4755980021029 22.49977171486433 0  165.4756245008113 22.499667873776 0  160.4756159970222 22.49974800539886 0  170.4756262060566 22.49957733434727 0  175.475623005557 22.49948171418497 0  180.4756169305255 22.49938481831269 0  185.4756095932701 22.49928892539837 0  190.4756020614807 22.49919518141577 0  195.4755949547427 22.49910403078722 0  200.4755885826 22.49901552934336 0  205.4755830601825 22.49892953827623 0  210.4755783898902 22.49884583458529 0  215.4755745143096 22.49876417013502 0  220.4755713485605 22.49868430115425 0  225.4755687990975 22.49860600149026 0  230.4755667740246 22.49852906729875 0  235.4755651883028 22.49845331743959 0  240.4755639659818 22.49837859188454 0  245.475563040771 22.49830474934105 0  250.4755623557297 22.49823166469677 0  255.4755618625385 22.49815922656816 0  260.475561520593 22.49808733507205 0  265.4755612960726 22.49801589985581 0  270.4755611610333 22.49794483838442 0  275.4755610925645 22.49787407446669 0  280.4755610720076 22.49780353699364 0  285.4755610842444 22.49773315884676 0  290.4755611170704 22.49766287589379 0  295.4755611607064 22.49759262589281 0  300.475561207513 22.4975223469
[...]
<PointData  Vectors="v"> 
<DataArray  type="Float64"  Name="v"  NumberOfComponents="3" format="ascii">4.3371337380151491e+00 3.1247193326941480e+00 0.0000000000000000e+00  4.5362082225348770e+00 2.5980932206442269e+00 0.0000000000000000e+00  3.8384238445373096e+00 2.2996415568907400e+00 0.0000000000000000e+00  3.6797851971167437e+00 2.8861911552929551e+00 0.0000000000000000e+00  4.7211032853198951e+00 2.4441485944996386e+00 0.0000000000000000e+00  4.0371757823817420e+00 2.1669952618830499e+00 0.0000000000000000e+00  4.8000675692262007e+00 2.3433309147246448e+00 0.0000000000000000e+00  4.2216070080667487e+00 2.2253426597804307e+00 0.0000000000000000e+00  4.7782200538464608e+00 1.8261706516981822e+00 0.0000000000000000e+00  4.2998637146093408e+00 1.8593243194966802e+00 0.0000000000000000e+00  4.7937520282620385e+00 1.5253346988042800e+00 0.0000000000000000e+00  4.2771574740205436e+00 1.5023539590963868e+00 0.0000000000000000e+00  4.7315641136035795e+00 9.8892764938085609e-01 0.0000000000000000e+00  4.2920760222668441e+00 1.0825793868477820e+00 0.0000000000000000e+00  4.6081550819249548e+00 4.0393461917337747e-01 0.0000000000000000e+00  4.2292952489948190e+00 5.8899021400682983e-01 0.0000000000000000e+00  4.7788691806697310e+00 2.1851750578505003e-01 0.0000000000000000e+00  4.1055136533076588e+00 -3.7877589248958413e-02 0.0000000000000000e+00  4.7544606545233616e+00 -2.4403833504152617e-01 0.0000000000000000e+00  4.2764405929111193e+00 -2.0793852602406332e-01 0.0000000000000000e+00  7.2540254785600107e+00 3.0238425234999005e+00 0.0000000000000000e+00  4.2526896311612150e+00 -7.2668951377184343e-01 0.0000000000000000e+00  8.4307943127620870e+00 4.2314318320261233e+00 0.0000000000000000e+00  6.7524751929689470e+00 2.4652195772871535e+00 0.0000000000000000e+00  8.7657673669314171e+00 4.0851030714360075e+00 0.0000000000000000e+00  7.9304949301402718e+00 3.5798638118102688e+00 0.0000000000000000e+00  8.7581192511606574e+00 3.3657523218375949e+00 0.0000000000000000e+00  8.2684199088400945e+00 3.3732729533250851e+00 0.0000000000000000e+00  8.5498671107681705e+00 2.3607804571134157e+00 0.0000000000000000e+00  8.2649361196294411e+00 2.6676103714912394e+00 0.0000000000000000e+00  8.2649038393272232e+00 1.2744957469705271e+00 0.0000000000000000e+00  8.0629678591336145e+00 1.6956277610131762e+00 0.0000000000000000e+00  7.9013308523127650e+00 1.2157354716151678e-01 0.0000000000000000e+00  7.7855340497046672e+00 6.5849571565007758e-01 0.0000000000000000e+00  7.4477656625419328e+00 -1.0205363378156336e+00 0.0000000000000000e+00  7.4310298864404656e+00 -3.5029556326310518e-01 0.0000000000000000e+00  6.8931225858610805e+00 -2.2307772403062649e+00 0.0000000000000000e+00  6.9893840613025082e+00 -1.4103845921222853e+00 0.0000000000000000e+00  6.2256651925629551e+00 -3.4822787131205208e+00 0.0000000000000000e+00  6.4483145483881383e+00 -2.4957820627242273e+00 0.0000000000000000e+00  5.4464416998381369e+00 -4.7911205685367406e+00 0.0000000000000000e+00  5.7974081596770759e+00 -3.6389673370125681e+00 0.0000000000000000e+00  4.5880759208996569e+00 -6.0785835788314309e+00 0.0000000000000000e+00  5.0377732382420986e+00 -4.8109471651196367e+00 0.0000000000000000e+00  3.6907197011227102e+00 -7.4403877678070920e+00 0.0000000000000000e+00  4.2031759508175028e+00 -6.1167519317995298e+00 0.0000000000000000e+00  2.7984240400507239e+00 -8.4978344483129948e+00 0.0000000000000000e+00  3.3312927901567786e+00 -7.1872192680693958e+00 0.0000000000000000e+00  1.9807964284569735e+00 -9.6232419591177081e+00 0.0000000000000000e+00  2.4726672148291922e+00 -8.4243670130691886e+00 0.0000000000000000e+00  1.2697530118617697e+00 -9.9789111007771574e+00 0.0000000000000000e+00  1.6871480924876185e+00 -8.9504634576295352e+00 0.0000000000000000e+00  7.2420572620762591e-01 -1.0367383712940809e+01 0.0000000000000000e+00  1.0220310770787211e+00 -9.5812945220332981e+00 0.0000000000000000e+00  3.3351968912955143e-01 -9.1867820525881694e+00 0.0000000000000000e+00  5.1476490026464072e-01 -8.6519547828986365e+00 0.0000000000000000e+00  1.2316448202858835e-01 -8.1602765268624431e+00 0.0000000000000000e+00  1.8529521238302660e-01 -7.8798906791394678e+00 0.0000000000000000e+00  2.1991737414080326e-02 -3.9594248972859836e+00 0.0000000000000000e+00  1.8236609533098348e-02 -3.8753401224912114e+00 0.0000000000000000e+00  -3.8861012254898576e-09 8.5585509054677192e-11 0.0000000000000000e+00  7.4421042395390804e-04 7.1246741822388862e-04 0.0000000000000000e+00  4.4092165383054290e-11 -5.3630203497442554e-19 0.0000000000000000e+00  -1.4476760059166214e+00 7.1151418043588652e+00 0.0000000000000000e+00  2.7394721150238922e-02 9.3062126131893130e+00 0.0000000000000000e+00  7.4194079413685292e-04 -7.5352795215604860e-04 0.0000000000000000e+00  2.0059295203224070e-01 1.1844247223432827e+01 0.0000000000000000e+00  -1.4493516075048443e+00 9.4163760067576856e+00 0.0000000000000000e+00  2.0671588358355950e-01 1.1108756915695173e+01 0.0000000000000000e+00  1.6342450788733467e-01 1.1117180847162672e+01 0.0000000000000000e+00  8.1106591972493658e-01 1.1023725997018111e+01 0.0000000000000000e+00  1.3854541862968850e-01 1.0143751966279618e+01 0.0000000000000000e+00  9.9589237097339955e-01 8.8615164406497229e+00 0.0000000000000000e+00  7.1704617533243520e-01 8.6036616594016984e+00 0.0000000000000000e+00  1.2571301405546944e+00 7.2113761067437387e+00 0.0000000000000000e+00  8.7903996282342822e-01 6.8389884770407869e+00 0.0000000000000000e+00  1.4054969019118180e+00 5.3795905131776278e+00 0.0000000000000000e+00  1.1187642889242535e+00 5.1725048616399505e+00 0.0000000000000000e+00  1.5682259295904126e+00 4.0196766484784181e+00 0.0000000000000000e+00  1.2490343701676936e+00 3.7912599999424303e+00 0.0000000000000000e+00  1.6360716240989257e+00 2.9278695156163361e+00 0.0000000000000000e+00  1.3953318632115386e+00 2.8391348797407328e+00 0.0000000000000000e+00  1.7550934558475360e+00 2.3284624568364922e+00 0.0000000000000000e+00  1.4480848321559858e+00 2.1619586039032876e+00 0.0000000000000000e+00  1.9023160891785378e+00 1.9595306359585711e+00 0.0000000000000000e+00  1.5538579099223182e+00 1.7497262436530987e+00 0.0000000000000000e+00  2.0283528199126803e+00 1.7904635396331536e+00 0.0000000000000000e+00  1.6891054157462937e+00 1.6113546887883350e+00 0.0000000000000000e+00  2.1244308052424574e+00 1.7188113395212210e+00 0.0000000000000000e+00  1.8040475939829665e+00 1.5835784816983021e+00 0.0000000000000000e+00  2.1931721282946404e+00 1.6708766312868195e+00 0.0000000000000000e+00  1.8902742773177841e+00 1.5761180786079481e+00 0.0000000000000000e+00  2.2139116010341140e+00 1.6266905800332776e+00 0.0000000000000000e+00  1.9500438771443738e+00 1.6031271861727248e+00 0.0000000000000000e+00  2.2111310546303633e+00 1.5893667940144325e+00 0.0000000000000000e+00  1.9624338762038942e+00 1.6004729371857431e+00 0.0000000000000000e+00  2.1946144637413010e+00 1.5343768790178909e+00 0.0000000000000000e+00  1.9520609258944428e+00 1.5657163727506962e+00 0.0000000000000000e+00  2.1566712627814328e+00 1.4652307540079139e+00 0.0000000000000000e+00  1.9284988383569854e+00 1.5282755006284563e+00 0.0000000000000000e+00  2.1096837844914860e+00 1.3963396323495383e+00 0.0000000000000000e+00  1.8838526347063498e+00 1.4725887689382751e+00 0.0000000000000000e+00  2.0641446269791812e+00 1.2971758449488944e+00 0.0000000000000000e+00  1.8305892843000067e+00 1.3710901323696192e+00 0.0000000000000000e+00  2.0046028831984710e+00 1.2128432941999086e+00 0.0000000000000000e+00  1.7790227533508776e+00 1.3075164477439021e+00 0.0000000000000000e+00  1.9430377774303422e+00 1.0690856737317984e+00 0.0000000000000000e+00  1.7136550424248973e+00 1.1666879064580367e+00 0.0000000000000000e+00  1.8724026277815697e+00 9.7890630590510253e-01 0.0000000000000000e+00  1.6463601250540878e+00 1.0899702682885777e+00 0.0000000000000000e+00  1.7907594016855752e+00 7.2804261023548567e-01 0.0000000000000000e+00  1.5702272836746840e+00 8.5569037408605253e-01 0.0000000000000000e+00  1.6841683727517553e+00 6.7724743080467564e-01 0.0000000000000000e+00  1.4828871624933027e+00 8.4203209326300787e-01 0.0000000000000000e+00  1.5524325513730179e+00 1.9136571165559327e-01 0.0000000000000000e+00  1.3710318046106733e+00 3.9429171393009166e-01 0.0000000000000000e+00  1.3788985513704044e+00 2.9683498837597405e-01 0.0000000000000000e+00  1.2333815823261414e+00 5.6174916884906123e-01 0.0000000000000000e+00  1.1019846537769442e+00 -6.3607974088262365e-01 0.0000000000000000e+00  1.0550216400508006e+00 -2.1490691514758556e-01 0.0000000000000000e+00  6.3448666829974210e-01 -7.9320503997290948e-01 0.0000000000000000e+00  7.7130233694915573e-01 -8.8227479524317226e-02 0.0000000000000000e+00  -4.6779350761393818e-01 -2.8936818141920195e-01 0.0000000000000000e+00  3.0110035067062102e-01 1.3719414030855515e+00 0.0000000000000000e+00  3.1240418547220608e+00 2.0624657100496173e+00 0.0000000000000000e+00  2.9389968292226114e+00 2.6069525491885779e+00 0.0000000000000000e+00  3.2812049495235809e+00 1.8702541986056258e+00 0.0000000000000000e+00  3.4773962532458338e+00 1.9504194050067436e+00 0.0000000000000000e+00  3.6585566454195919e+00 1.7440599753340424e+00 0.0000000000000000e+00  3.7329594316735024e+00 1.5390799553331327e+00 0.0000000000000000e+00  3.7057616499078354e+00 1.0627961603948852e+00 0.0000000000000000e+00  3.7160506791941894e+00 6.8566536690131763e-01 0.0000000000000000e+00  3.6489026637257953e+00 1.5052317526965450e-01 0.0000000000000000e+00  3.5209692260409624e+00 -4.6261260131206944e-01 0.0000000000000000e+00  3.6893490266154627e+00 -6.9062774465848176e-01 0.0000000000000000e+00  3.6635923414627820e+00 -1.2806668229148657e+00 0.0000000000000000e+00  6.1559997427637514e+00 1.8175421986563383e+00 0.0000000000000000e+00  7.3275183328540727e+00 2.8670813464116138e+00 0.0000000000000000e+00  7.6642212205103819e+00 2.6732880527179614e+00 0.0000000000000000e+00  7.6614581385278226e+00 1.9959549650073058e+00 0.0000000000000000e+00  7.4636126468277402e+00 1.0711433047704457e+00 0.0000000000000000e+00  7.1924059885196643e+00 1.7739157526084431e-01 0.0000000000000000e+00  6.8458875612940968e+00 -7.5461271796176166e-01 0.0000000000000000e+00  6.4155281562009456e+00 -1.6927287775900051e+00 0.0000000000000000e+00  5.8891735760921398e+00 -2.6718412770810236e+00 0.0000000000000000e+00  5.2558976792548817e+00 -3.6856557593453219e+00 0.0000000000000000e+00  4.5199814839003745e+00 -4.8806651147344056e+00 0.0000000000000000e+00  3.7141465538184466e+00 -5.9000906430910902e+00 0.0000000000000000e+00  2.8783015934304284e+00 -7.1597625677318550e+00 0.0000000000000000e+00  2.0627104851770008e+00 -7.8057760302637469e+00 0.0000000000000000e+00  1.3325003250720540e+00 -8.6126457113909645e+00 0.0000000000000000e+00  7.2660480317800169e-01 -7.9455651749568652e+00 0.0000000000000000e+00  3.0237096867522661e-01 -7.4158449725968056e+00 0.0000000000000000e+00  4.8348082354999170e-02 -3.7129281465891042e+00 0.0000000000000000e+00  2.5523581071483633e-03 1.3595047149935545e-03 0.0000000000000000e+00  5.5286254425823585e-02 9.1488030599003061e+00 0.0000000000000000e+00  2.5480848556726741e-03 -1.5506690792009832e-03 0.0000000000000000e+00  2.0826847399917245e-01 1.1642269960250619e+01 0.0000000000000000e+00  -1.3178635960241865e+00 8.7388579703935978e+00 0.0000000000000000e+00  2.3605997122408176e-01 1.0207748453415949e+01 0.0000000000000000e+00  1.6941889086001904e-01 7.7596758858228254e+00 0.0000000000000000e+00  7.1096750405735942e-01 6.6114774629736246e+00 0.0000000000000000e+00  8.4569673532643808e-01 4.8309268480438190e+00 0.0000000000000000e+00  1.0591139597577972e+00 3.6082121988793401e+00 0.0000000000000000e+00  1.1686957271326808e+00 2.6309081739256861e+00 0.0000000000000000e+00  1.2967172048289681e+00 2.0933007573115940e+00 0.0000000000000000e+00  1.3332033695055285e+00 1.5999190069251985e+00 0.0000000000000000e+00  1.4247067760076297e+00 1.4159259958841806e+00 0.0000000000000000e+00  1.5476004000571641e+00 1.4185005961374562e+00 0.0000000000000000e+00  1.6511858369978296e+00 1.4528567049486405e+00 0.0000000000000000e+00  1.7276370248575486e+00 1.5186326514942214e+00 0.0000000000000000e+00  1.7789818052254129e+00 1.5867512470634182e+00 0.0000000000000000e+00  1.7838051331555655e+00 1.5854017595622543e+00 0.0000000000000000e+00  1.7668379774914653e+00 1.5671551181295362e+00 0.0000000000000000e+00  1.7375004610891618e+00 1.5429503017107229e+00 0.0000000000000000e+00  1.6875176465969459e+00 1.4540100536257667e+00 0.0000000000000000e+00  1.6293824300793345e+00 1.3876018566904265e+00 0.0000000000000000e+00  1.5732931489113853e+00 1.2675065740747458e+00 0.0000000000000000e+00  1.5034919440778265e+00 1.1934930948950480e+00 0.0000000000000000e+00  1.4319086455633354e+00 9.7252381849892378e-01 0.0000000000000000e+00  1.3514645560930409e+00 9.7555519791021739e-01 0.0000000000000000e+00  1.2598431099736398e+00 5.6492799508988067e-01 0.0000000000000000e+00  1.1434839830892611e+00 7.7049708695505392e-01 0.0000000000000000e+00  1.0016135364210910e+00 5.5969774633418394e-02 0.0000000000000000e+00  8.1847992879197817e-01 3.3905519623282648e-01 0.0000000000000000e+00  5.3071378070122499e-01 2.0809411887644362e+00 0.0000000000000000e+00  2.2560064065281642e+00 1.7866410521952980e+00 0.0000000000000000e+00  2.0834553760526831e+00 2.3455964831195852e+00 0.0000000000000000e+00  2.4380963357995351e+00 1.6377821378629782e+00 0.0000000000000000e+00  2.5897980941838314e+00 1.6602942694696241e+00 0.0000000000000000e+00  2.7793724595266487e+00 1.4778511843369575e+00 0.0000000000000000e+00  2.9519277899795364e+00 1.4340527456251837e+00 0.0000000000000000e+00  3.0161436679280174e+00 1.1107876007289723e+00 0.0000000000000000e+00  2.9779570464360514e+00 6.7815207454521098e-01 0.0000000000000000e+00  2.9764688761265434e+00 2.5896262208077153e-01 0.0000000000000000e+00  2.8978587018845405e+00 -2.6414190353126726e-01 0.0000000000000000e+00  2.7606094769701066e+00 -9.3847493690682626e-01 0.0000000000000000e+00  2.9224572258796919e+00 -1.2374321611718890e+00 0.0000000000000000e+00  2.8860797210034375e+00 -1.9081948370502830e+00 0.0000000000000000e+00  5.3567603556968502e+00 1.1243800458721489e+00 0.0000000000000000e+00  6.5088472369364130e+00 2.1737593918462768e+00 0.0000000000000000e+00  6.8362775308682195e+00 2.0021159144185852e+00 0.0000000000000000e+00  6.8299849513137421e+00 1.3666966804886316e+00 0.0000000000000000e+00  6.6324640791648983e+00 5.8023606926327198e-01 0.0000000000000000e+00  6.3644368074372686e+00 -2.4136672541216897e-01 0.0000000000000000e+00  6.0249463816611257e+00 -1.0561302898152185e+00 0.0000000000000000e+00  5.6048793825942722e+00 -1.8950871331710537e+00 0.0000000000000000e+00  5.0932154790079469e+00 -2.7537401287556174e+00 0.0000000000000000e+00  4.4823009737016806e+00 -3.7988228008550773e+00 0.0000000000000000e+00  3.7755370077747150e+00 -4.7239606978319308e+00 0.0000000000000000e+00  3.0114439683781065e+00 -5.9433750251926032e+00 0.0000000000000000e+00  2.2280521322006779e+00 -6.6375618727419976e+00 0.0000000000000000e+00  1.4859984211021839e+00 -7.5742951061124746e+00 0.0000000000000000e+00  8.4092992017531520e-01 -7.1306588857708828e+00 0.0000000000000000e+00  3.5764872044441320e-01 -6.8508833395686066e+00 0.0000000000000000e+00  5.5453423386781019e-02 -3.4950633698045896e+00 0.0000000000000000e+00  5.3721710474335920e-03 1.9436617643786818e-03 0.0000000000000000e+00  6.4655088741373823e-02 8.9032482732849711e+00 0.0000000000000000e+00  5.3677914703933885e-03 -2.2569442319293901e-03 0.0000000000000000e+00  3.4736222529967709e-01 1.1367970015252597e+01 0.0000000000000000e+00  5.0453938574660195e-01 1.1091773832142525e+01 0.0000000000000000e+00  -1.1096393488340639e+00 7.9513477355125026e+00 0.0000000000000000e+00  3.5045153446496730e-01 7.9081582057824491e+00 0.0000000000000000e+00  2.1833027491277393e-01 5.8440885964488105e+00 0.0000000000000000e+00  7.0732986445617174e-01 4.6593092945685761e+00 0.0000000000000000e+00  8.0140216115765639e-01 3.3168912474047163e+00 0.0000000000000000e+00  9.7959640083551247e-01 2.4894698024673061e+00 0.0000000000000000e+00  1.0609170914967254e+00 1.9214035257429325e+00 0.0000000000000000e+00  1.1637234980654334e+00 1.5623708910186529e+00 0.0000000000000000e+00  1.1786385437917555e+00 1.2942816871224831e+00 0.0000000000000000e+00  1.2511565997013112e+00 1.2476191276229309e+00 0.0000000000000000e+00  1.3570476285029289e+00 1.3095283978975565e+00 0.0000000000000000e+00  1.4457079301231763e+00 1.4144617300523399e+00 0.0000000000000000e+00  1.5094890234113469e+00 1.5186417451351468e+00 0.0000000000000000e+00  1.5499399939114560e+00 1.5858021259515516e+00 0.0000000000000000e+00  1.5455660223962882e+00 1.5992631503499704e+00 0.0000000000000000e+00  1.5208426012509590e+00 1.5926368592053144e+00 0.0000000000000000e+00  1.4847844281212466e+00 1.5340546662361954e+00 0.0000000000000000e+00  1.4288725358791654e+00 1.4794297388661373e+00 0.0000000000000000e+00  1.3654168891017608e+00 1.3559676815376160e+00 0.0000000000000000e+00  1.3042484272413737e+00 1.3023244921149912e+00 0.0000000000000000e+00  1.2295429250063874e+00 1.0841490850012239e+00 0.0000000000000000e+00  1.1529454461721469e+00 1.1002926003067306e+00 0.0000000000000000e+00  1.0675131892529457e+00 7.0692427313149453e-01 0.0000000000000000e+00  9.7043224314283361e-01 9.4905485239871512e-01 0.0000000000000000e+00  8.4901953887410653e-01 2.7399760244661869e-01 0.0000000000000000e+00  7.0098394774070449e-01 6.1709703386303338e-01 0.0000000000000000e+00  5.1393259568033511e-01 2.5183177159760328e+00 0.0000000000000000e+00  1.6196649483084933e+00 1.5302199620545818e+00 0.0000000000000000e+00  1.4503906887118982e+00 2.0882211975518392e+00 0.0000000000000000e+00  1.7883069996450260e+00 1.3691813509510655e+00 0.0000000000000000e+00  1.9629635102949874e+00 1.4391751589978323e+00 0.0000000000000000e+00  2.1050285806433706e+00 1.2016136915699782e+00 0.0000000000000000e+00  2.2822566061337715e+00 1.1851131124869692e+00 0.0000000000000000e+00  2.4400770123983708e+00 1.0262926332788045e+00 0.0000000000000000e+00  2.4870872170726499e+00 7.4838237308883770e-01 0.0000000000000000e+00  2.4300238516907844e+00 2.7472358370272093e-01 0.0000000000000000e+00  2.4094083615253616e+00 -1.3309011674087542e-01 0.0000000000000000e+00  2.3133265573776174e+00 -7.2236455921865605e-01 0.0000000000000000e+00  2.1617790910501600e+00 -1.4714727307802891e+00 0.0000000000000000e+00  2.3107781214114906e+00 -1.8400078493258103e+00 0.0000000000000000e+00  2.2505157986537805e+00 -2.5548018216476662e+00 0.0000000000000000e+00  4.6805076604385958e+00 4.7281163339679788e-01 0.0000000000000000e+00  5.7981003777459392e+00 1.5258199448702505e+00 0.0000000000000000e+00  6.1056298687202935e+00 1.3859408103233153e+00 0.0000000000000000e+00  6.0860657112378842e+00 8.8202956394524434e-01 0.0000000000000000e+00  5.8806893167456185e+00 1.6531305936522134e-01 0.0000000000000000e+00  5.6063354813141126e+00 -5.4497584406621902e-01 0.0000000000000000e+00  5.2629390952955495e+00 -1.2645448976883968e+00 0.0000000000000000e+00  4.8422503710790261e+00 -1.9891867048193546e+00 0.0000000000000000e+00  4.3347740458925541e+00 -2.8896670109840161e+00 0.0000000000000000e+00  3.7344016745602255e+00 -3.6804207512198683e+00 0.0000000000000000e+00  3.0516472644014736e+00 -4.8191204807571868e+00 0.0000000000000000e+00  2.3230292547271412e+00 -5.5058443159379689e+00 0.0000000000000000e+00  1.6013218129087301e+00 -6.5082798341736794e+00 0.0000000000000000e+00  9.3741356461872161e-01 -6.2550738009573985e+00 0.0000000000000000e+00  4.1989597560085923e-01 -6.2000579534481597e+00 0.0000000000000000e+00  7.3167200286852738e-02 -3.2286552255535783e+00 0.0000000000000000e+00  9.0927427380838848e-03 2.4625706863253662e-03 0.0000000000000000e+00  7.9499002092903684e-02 8.6211877710029370e+00 0.0000000000000000e+00  9.0882358425698785e-03 -2.8796008730775746e-03 0.0000000000000000e+00  3.9966535154188271e-01 1.0838706961206078e+01 0.0000000000000000e+00  7.6987884502761994e-01 1.0840049358720078e+01 0.0000000000000000e