<?xml version="1.0"?>
<VTKFile type="UnstructuredGrid"  version="0.1"  >
<UnstructuredGrid>
<Piece  NumberOfPoints="1933" NumberOfCells="3640">
<Points>
<DataArray  type="Float64"  NumberOfComponents="3"  format="ascii">0.2935685267413124 0.002416446234805969 0  5.293568520972651 0.002330253213318777 0  5.293697874154256 7.50233027720723 0  0.2936978555448551 7.50241642537209 0  10.29356849446538 0.002244016108798223 0  10.29369792145461 7.502244061547583 0  15.29356847066732 0.002157665383126502 0  15.29369801864613 7.502157721277625 0  20.29356848690864 0.002071160189121879 0  20.29369818938327 7.502071221374115 0  25.29356858531521 0.00198447930646237 0  25.29369846017539 7.501984543625443 0  30.29356880919973 0.001897614926278219 0  30.29369886000964 7.501897681848838 0  35.29356920212773 0.001810568446856005 0  35.29369942008812 7.501810638357835 0  40.2935698083007 0.001723347760387978 0  40.29370017387069 7.50172342159903 0  45.29357067359351 0.001635965646990607 0  45.29370115741572 7.50163604473814 0  50.29357184693713 0.001548439002890402 0  50.29370240996208 7.501548524998773 0  55.29357338191851 0.001460788724169115 0  55.29370397470157 7.501460883615368 0  60.29357533856908 0.001373040145444324 0  60.29370589970613 7.501373146322127 0  65.29357778536854 0.001285223998081418 0  65.29370823898815 7.501285344356432 0  70.29358080152628 0.001197377911213315 0  70.29371105368325 7.501197516010029 0  75.29358447963611 0.001109548538508959 0  75.29371441334695 7.501109708819969 0  80.2935889288313 0.001021794463436212 0  80.2937183973504 7.501021982561968 0  85.29359427860858 0.0009341901280926605 0  85.29372309634221 7.500934413303748 0  90.29360068354566 0.0008468311641424552 0  90.29372861370173 7.500847098911835 0  95.29360832921279 0.0007598417097758479 0  95.29373506683891 7.500760166610907 0  100.2936174396729 0.0006733846271310844 0  100.293742588062 7.500673783514476 0  105.2936282870864 0.000587676086080473 0  105.2937513245105 7.500588171554083 0  110.2936412040486 0.0005030069302057888 0  110.2937614362654 7.500503629050508 0  115.2936565993173 0.0004197749265514267 0  115.2937730911391 7.500420562490625 0  120.2936749773064 0.0003385350808695727 0  120.2937864536945 7.500339534195727 0  125.2936969605418 0.0002600809926488525 0  125.293801664793 7.500261334927215 0  130.2937233107352 0.0001855814219050598 0  130.2938188067848 7.500187095626386 0  135.2937549345616 0.000116818317313085 0  135.2938378501909 7.500118460020698 0  140.2937928352688 5.661558289061114e-05 0  140.293858586773 7.50005785084609 0  145.2938379047821 9.621130303942437e-06 0  145.2938805930238 7.50000888541288 0  150.2938902582524 -1.635816539494507e-05 0  150.2939034150461 7.499977102757431 0  160.2938926261462 7.953085507720363e-19 0  165.293787736797 -0.0001161474410593859 0  165.2938730711561 7.499870202475713 0  160.2939082032582 7.499966175730605 0  170.2937193183395 -0.0002298397196143976 0  170.2938373930315 7.499763153689405 0  175.2936725299718 -0.0003414212593389352 0  175.2938061619417 7.499654509689569 0  180.2936393870616 -0.0004505222087155663 0  180.2937802002789 7.499546963335058 0  185.2936152574697 -0.0005571240681089793 0  185.2937590869116 7.49944125809703 0  190.2935973210169 -0.0006614291479044867 0  190.2937420846939 7.49933749404927 0  195.2935837898041 -0.0007637075941534465 0  195.2937284538458 7.49923555296796 0  200.2935734858312 -0.0008642237177950837 0  200.2937175494793 7.499135253782569 0  205.2935656036127 -0.0009632106157053126 0  205.2937088395872 7.499036410798317 0  210.2935595730547 -0.001060866109866992 0  210.2937018953258 7.498938853797468 0  215.2935549780968 -0.001157356340499357 0  215.2936963738381 7.498842433026563 0  220.2935515070267 -0.0012528212024755 0  220.2936920011904 7.498747018519322 0  225.2935489211712 -0.001347379489019426 0  225.2936885578085 7.498652497636285 0  230.2935470345117 -0.001441133144200056 0  230.2936858667985 7.498558772342866 0  235.2935456999697 -0.001534170602415032 0  235.2936837848297 7.498465756753337 0  240.2935447998808 -0.001626569370786803 0  240.2936821950927 7.498373375066175 0  245.2935442391823 -0.001718398036495638 0  245.2936810018629 7.49828155986578 0  250.2935439404092 -0.001809717858128833 0  250.2936801262915 7.49819025072015 0  255.2935438399367 -0.001900584067732091 0  255.2936795031314 7.498099392998491 0  260.2935438851039 -0.001991046981841024 0  260.2936790781706 7.498008936840428 0  265.2935440319924 -0.002081152998436897 0  265.2936788062238 7.497918836218468 0  270.2935442437 -0.002170945541727361 0  270.2936786495603 7.497829048044778 0  275.2935444890406 -0.002260466005278984 0  275.2936785766846 7.49773953128237 0  280.2935447416243 -0.002349754731756849 0  280.2936785614248 7.497650246031784 0  285.2935449793509 -0.002438852045651129 0  285.2936785822677 7.497561152583179 0  290.2935451843981 -0.002527799305050375 0  290.2936786219245 7.497472210459735 0  295.2935453438765 -0.002616639815968112 0  295.2936786670687 7.497383377546884 0  300.2935454514098 -0.002705419148950822 0  300.2936787081935 7.497294609523899 0  305.2935455099754 -0.002794183618198623 0  305.2936787395405 7.497205859992422 0  310.2935455362901 -0.002882973544156129 0  310.2936787592158 7.497117081794971 0  5.293827018112121 15.00233036007215 0  0.2938269905228358 15.00241638328078 0  10.29382708639368 15.00224420643261 0  15.29382721828107 15.00215789496356 0  20.29382743265019 15.0020714080991 0  25.29382774748449 15.00198473741356 0  30.2938281814665 15.00189788213249 0  35.29382875471698 15.00181084758223 0  40.29382948915016 15.00172364396655 0  45.29383040869 15.0016362856016 0  50.29383153945824 15.00154879062826 0  55.29383290997012 15.0014611811882 0  60.29383455133546 15.00137348405779 0  65.29383649743974 15.00128573175982 0  70.2938387850598 15.00119796421055 0  75.29384145385305 15.00111023100826 0  80.2938445461247 15.00102259453154 0  85.29384810624609 15.00093513409918 0  90.29385217953434 15.00084795155957 0  95.2938568103303 15.00076117883856 0  100.2938620389114 15.00067498820044 0  105.2938678967654 15.00058960628319 0  110.2938743996563 15.00050533336152 0  115.2938815379397 15.00042256972007 0  120.293889263929 15.0003418512866 0  125.2938974772547 15.00026389616457 0  130.2939060119845 15.0001896607174 0  135.2939146353594 15.00012039378132 0  140.2939230793774 15.00005764760005 0  145.293931142615 15.00000311541678 0  150.293938900488 14.99995788384652 0  165.2939365705237 14.99983409772007 0  160.2939447051417 14.99991790280783 0  170.2939242383323 14.99973931759632 0  175.2939099211908 14.99963902457474 0  180.2938955394511 14.99953678010942 0  185.2938821587253 14.99943441338457 0  190.2938702432929 14.99933277454946 0  195.2938599128603 14.99923221240807 0  200.2938511099331 14.99913282915359 0  205.2938436966919 14.99903461032317 0  210.293837507547 14.99893748987943 0  215.2938323759616 14.99884138223987 0  220.2938281469915 14.99874619762322 0  225.2938246821964 14.99865184905318 0  230.2938218606577 14.99855825524457 0  235.2938195781433 14.99846534149828 0  240.2938177454939 14.99837303966324 0  245.2938162867833 14.9982812876842 0  250.2938151375272 14.99819002898177 0  255.2938142430502 14.99809921177549 0  260.2938135570557 14.99800878839352 0  265.2938130404 14.99791871457959 0  270.2938126600582 14.99782894879295 0  275.2938123882491 14.99773945149173 0  280.2938122016952 14.99765018439047 0  285.2938120809828 14.99756110968772 0  290.2938120099657 14.99747218926553 0  295.2938119751868 14.99738338385764 0  300.2938119652629 14.99729465212713 0  305.2938119702382 14.99720594935713 0  310.2938119809581 14.9971172246598 0  5.293955817210444 22.50233058701801 0  0.2939557867400752 22.50241644276815 0  10.29395588326802 22.50224452419033 0  15.29395600637543 22.50215826001554 0  20.29395620162941 22.50207179844995 0  25.29395648096724 22.50198514464635 0  30.29395685513122 22.50189830622461 0  35.29395733477163 22.50181129369508 0  40.29395793099094 22.50172412056304 0  45.29395865554279 22.50163680342463 0  50.29395952081759 22.50154936222766 0  55.29396053967943 22.50146182079635 0  60.29396172517494 22.5013742076891 0  65.29396309010011 22.50128655745564 0  70.29396464638482 22.50119891237458 0  75.29396640423248 22.50111132478234 0  80.29396837093006 22.50102386014483 0  85.29397054921968 22.50093660107645 0  90.29397293510799 22.5008496525766 0  95.2939755149779 22.50076314882763 0  100.2939782618903 22.50067726196852 0  105.293981131044 22.50059221329127 0  110.2939840545677 22.50050828722235 0  115.2939869362355 22.50042584807109 0  120.2939896474862 22.50034535847814 0  125.2939920274505 22.50026739601496 0  130.2939938916435 22.50019265897142 0  135.2939950561618 22.50012194124707 0  140.2939953846248 22.50005603490287 0  145.2939948572158 22.49999548301479 0  150.2939936282342 22.49994006937595 0  165.2940038651562 22.49979510308235 0  160.2939984157788 22.49987306463841 0  170.2940051729798 22.49970830709228 0  175.2940031808298 22.49961556224169 0  180.2939990089 22.49951937542922 0  185.2939936672074 22.49942154373339 0  190.2939878962063 22.49932320501044 0  195.293982176531 22.49922502463545 0  200.2939767902542 22.4991273648081 0  205.2939718831764 22.49903040387206 0  210.293967513651 22.49893421256217 0  215.2939636869569 22.49883880049024 0  220.2939603781019 22.49874414376378 0  225.2939575463618 22.49865020112604 0  230.293955144244 22.49855692326107 0  235.2939531228298 22.49846425807437 0  240.2939514348196 22.49837215361674 0  245.2939500361548 22.49828055962837 0  250.2939488867711 22.49818942827326 0  255.2939479508432 22.49809871439431 0  260.2939471967279 22.49800837548099 0  265.2939465967499 22.49791837145967 0  270.2939461268949 22.49782866437043 0  275.2939457664593 22.49773921796787 0  280.2939454976618 22.49764999726712 0  285.2939453052179 22.49756096804654 0  290.2939451758575 22.49747209630343 0  295.2939450977618 22.4973833476269 0  300.2939450598703 22.49729468636941 0  3
[...]
<PointData  Vectors="v"> 
<DataArray  type="Float64"  Name="v"  NumberOfComponents="3" format="ascii">3.6579988729103246e+00 -1.6112924395872699e+00 0.0000000000000000e+00  3.5125776749696556e+00 -1.8382546145222167e+00 0.0000000000000000e+00  2.8953002470236768e+00 -1.6201219681981618e+00 0.0000000000000000e+00  3.0024091859995830e+00 -1.4513599514345190e+00 0.0000000000000000e+00  3.2684029357690796e+00 -2.3511167240613973e+00 0.0000000000000000e+00  2.7498114088899799e+00 -1.9852811049370156e+00 0.0000000000000000e+00  2.9632075398590647e+00 -3.0831277172154405e+00 0.0000000000000000e+00  2.5059355655701201e+00 -2.6258513931687415e+00 0.0000000000000000e+00  2.6051819836989862e+00 -3.7937908989592368e+00 0.0000000000000000e+00  2.2012687548222400e+00 -3.2578063856216981e+00 0.0000000000000000e+00  2.1994320870572523e+00 -4.6347902162868602e+00 0.0000000000000000e+00  1.8440978758646023e+00 -4.0277303653599974e+00 0.0000000000000000e+00  1.8038833165036652e+00 -5.3903715698983339e+00 0.0000000000000000e+00  1.4400256450532178e+00 -4.7989352762457376e+00 0.0000000000000000e+00  1.6316818442209522e+00 -5.8124489370241665e+00 0.0000000000000000e+00  1.0466802563191380e+00 -5.5569221167771392e+00 0.0000000000000000e+00  1.1323573432516623e+00 -6.6754538012784996e+00 0.0000000000000000e+00  8.7736901596165306e-01 -5.9299725941192500e+00 0.0000000000000000e+00  3.0270988270724022e+00 -3.9470626273841565e+00 0.0000000000000000e+00  3.8209984676188213e-01 -6.7931043726650264e+00 0.0000000000000000e+00  -1.3458902728033668e+00 -1.0494561633924844e+01 0.0000000000000000e+00  2.2818003321600151e+00 -3.9404765133606920e+00 0.0000000000000000e+00  2.8550251738958896e-02 -8.1907656416560766e+00 0.0000000000000000e+00  -2.0863566356931726e+00 -1.0257870137459395e+01 0.0000000000000000e+00  3.1582241414829854e-01 -7.5218185043512680e+00 0.0000000000000000e+00  -7.0539216384254444e-01 -7.9605487885161343e+00 0.0000000000000000e+00  -2.0076026588130451e-02 -7.8290902559340552e+00 0.0000000000000000e+00  -4.0909636226283591e-01 -7.3350897945622666e+00 0.0000000000000000e+00  -8.0939607201444042e-01 -8.8139634826582629e+00 0.0000000000000000e+00  -7.3391305369078264e-01 -7.6422922280287722e+00 0.0000000000000000e+00  -1.8670338103198307e+00 -1.0142293209832303e+01 0.0000000000000000e+00  -1.5088902883866757e+00 -8.5695691452752385e+00 0.0000000000000000e+00  -3.1370133708465073e+00 -1.1671450962866780e+01 0.0000000000000000e+00  -2.5500255596949017e+00 -9.7832348082595821e+00 0.0000000000000000e+00  -4.5747332567931780e+00 -1.3361798697031434e+01 0.0000000000000000e+00  -3.8011429560668861e+00 -1.1224427306421378e+01 0.0000000000000000e+00  -6.1353676389442047e+00 -1.5028809506363110e+01 0.0000000000000000e+00  -5.2159999144150975e+00 -1.2709041565097584e+01 0.0000000000000000e+00  -7.7832402993856995e+00 -1.6666275976968912e+01 0.0000000000000000e+00  -6.7514086792931680e+00 -1.4219647515655831e+01 0.0000000000000000e+00  -9.4780123400240122e+00 -1.8190310651452087e+01 0.0000000000000000e+00  -8.3702537983558400e+00 -1.5675814545805546e+01 0.0000000000000000e+00  -1.1152800919067969e+01 -1.9499657438487784e+01 0.0000000000000000e+00  -1.0032189397371305e+01 -1.7018946255997498e+01 0.0000000000000000e+00  -1.2745354435665339e+01 -2.0411075716686746e+01 0.0000000000000000e+00  -1.1669082685264689e+01 -1.8056488705783096e+01 0.0000000000000000e+00  -1.4203203966178847e+01 -2.1024423462400108e+01 0.0000000000000000e+00  -1.3222049590281681e+01 -1.8878238040192159e+01 0.0000000000000000e+00  -1.5453227059689407e+01 -2.0823006341963918e+01 0.0000000000000000e+00  -1.4630608925782724e+01 -1.8987552326828517e+01 0.0000000000000000e+00  -1.6477109217378803e+01 -2.0146738416791994e+01 0.0000000000000000e+00  -1.5834002316312297e+01 -1.8662879742482740e+01 0.0000000000000000e+00  -1.7227521999830952e+01 -1.8261365467243337e+01 0.0000000000000000e+00  -1.6795072985416969e+01 -1.7179554084797672e+01 0.0000000000000000e+00  -1.7742336547628110e+01 -1.5437269034064002e+01 0.0000000000000000e+00  -1.7493163842480303e+01 -1.4731316875650368e+01 0.0000000000000000e+00  -1.8011420202689397e+01 -1.1391713930496019e+01 0.0000000000000000e+00  -1.7928591240341163e+01 -1.1033474073023894e+01 0.0000000000000000e+00  -1.8136943835632621e+01 -4.7452349194525150e+00 0.0000000000000000e+00  -1.8141698836650743e+01 -4.6412586958611612e+00 0.0000000000000000e+00  -1.8163563200759995e+01 1.3646770559905956e-11 0.0000000000000000e+00  -1.8163229804721471e+01 3.1823219470484865e-04 0.0000000000000000e+00  -1.8163563200135275e+01 -1.4064744982608687e-19 0.0000000000000000e+00  -1.3885449445081576e+01 1.1514034674872336e+01 0.0000000000000000e+00  -1.8132849493644066e+01 5.1322596001762228e+00 0.0000000000000000e+00  -1.8163230956985146e+01 -3.3661356589525566e-04 0.0000000000000000e+00  -1.2623385238784913e+01 2.0107790565448447e+01 0.0000000000000000e+00  -1.3904349809849235e+01 1.8284008653206904e+01 0.0000000000000000e+00  -1.0751305699319591e+01 2.3970301406903001e+01 0.0000000000000000e+00  -1.2701026275117359e+01 2.1198747519885455e+01 0.0000000000000000e+00  -9.6668709181400292e+00 2.4796750412912775e+01 0.0000000000000000e+00  -1.0883610544950862e+01 2.3218160516139577e+01 0.0000000000000000e+00  -8.4439409862393955e+00 2.4350812769160974e+01 0.0000000000000000e+00  -9.8482438693872609e+00 2.2556171888167665e+01 0.0000000000000000e+00  -7.4340586739292345e+00 2.2832072357510377e+01 0.0000000000000000e+00  -8.6710236533053511e+00 2.1357542822350403e+01 0.0000000000000000e+00  -6.4856654786639014e+00 2.1049160419485091e+01 0.0000000000000000e+00  -7.7056958790759715e+00 1.9662075041782977e+01 0.0000000000000000e+00  -5.6336148814838323e+00 1.9039126224109719e+01 0.0000000000000000e+00  -6.7979411071559879e+00 1.7797080735555909e+01 0.0000000000000000e+00  -4.7452923580138400e+00 1.7225749722796692e+01 0.0000000000000000e+00  -5.9846271820900743e+00 1.5926230455069962e+01 0.0000000000000000e+00  -4.0357962804550986e+00 1.5488688632846976e+01 0.0000000000000000e+00  -5.1335856069606995e+00 1.4456267290776115e+01 0.0000000000000000e+00  -3.4044578823540323e+00 1.3973710703798114e+01 0.0000000000000000e+00  -4.4592382006836386e+00 1.3057400082795022e+01 0.0000000000000000e+00  -2.7519296811059126e+00 1.2758767118519586e+01 0.0000000000000000e+00  -3.8615442197717651e+00 1.1809427755677472e+01 0.0000000000000000e+00  -2.1572281153318125e+00 1.1699145960156899e+01 0.0000000000000000e+00  -3.2416541600257576e+00 1.0835252099132434e+01 0.0000000000000000e+00  -1.6201139412717203e+00 1.0776624284461418e+01 0.0000000000000000e+00  -2.6780911877949825e+00 9.9984655193633287e+00 0.0000000000000000e+00  -1.1386557071567538e+00 9.9321966207072769e+00 0.0000000000000000e+00  -2.1710102328120766e+00 9.2365017021758735e+00 0.0000000000000000e+00  -7.2228198379386910e-01 9.1283881041831734e+00 0.0000000000000000e+00  -1.7187743237672015e+00 8.5295041666459657e+00 0.0000000000000000e+00  -3.6599592262990444e-01 8.3701521877526197e+00 0.0000000000000000e+00  -1.3306254442387337e+00 7.8608536032412735e+00 0.0000000000000000e+00  -5.4320666708634065e-02 7.6285423334788254e+00 0.0000000000000000e+00  -1.0017640413756388e+00 7.1855447547400386e+00 0.0000000000000000e+00  2.0947876972725812e-01 6.9031472574993789e+00 0.0000000000000000e+00  -7.1699708034336707e-01 6.5313664108857692e+00 0.0000000000000000e+00  4.3032522524355021e-01 6.1876523959508392e+00 0.0000000000000000e+00  -4.7939118456867502e-01 5.8800231000573131e+00 0.0000000000000000e+00  6.1504865281751298e-01 5.4830528756099914e+00 0.0000000000000000e+00  -2.8435067634292366e-01 5.2290853011538676e+00 0.0000000000000000e+00  7.6425012417916283e-01 4.7617469231194347e+00 0.0000000000000000e+00  -1.2488449884853060e-01 4.5609256712423045e+00 0.0000000000000000e+00  8.7115460051163018e-01 4.0828881018825705e+00 0.0000000000000000e+00  -8.7603962362272085e-04 3.9449405058675264e+00 0.0000000000000000e+00  9.4575793135391750e-01 3.3286195165141885e+00 0.0000000000000000e+00  8.1711529726866433e-02 3.2394863864414871e+00 0.0000000000000000e+00  9.7411399047187319e-01 2.6979219168608553e+00 0.0000000000000000e+00  1.3123077070712616e-01 2.6769075848809440e+00 0.0000000000000000e+00  9.6050259313355779e-01 1.8799148792019105e+00 0.0000000000000000e+00  1.3642426720752018e-01 1.9235020802001650e+00 0.0000000000000000e+00  8.9600255695416309e-01 1.3984714510544283e+00 0.0000000000000000e+00  9.7043075977122945e-02 1.5152384093063205e+00 0.0000000000000000e+00  7.6615678635367812e-01 4.3064241855324165e-01 0.0000000000000000e+00  1.1607553219624481e-02 6.5032974574920110e-01 0.0000000000000000e+00  5.2169104195549398e-01 -5.0279927882985534e-02 0.0000000000000000e+00  -1.4740547741464519e-01 3.3239961251831529e-01 0.0000000000000000e+00  -5.9083354615394969e-02 -2.8478212647153239e-01 0.0000000000000000e+00  -4.0352433204764643e-01 6.1984418056263535e-01 0.0000000000000000e+00  2.0093290692727308e+00 -1.4584351104784123e+00 0.0000000000000000e+00  2.1171505572222813e+00 -1.2918830285171667e+00 0.0000000000000000e+00  1.9005355478406860e+00 -1.7657092695211134e+00 0.0000000000000000e+00  1.7528048839830777e+00 -2.2588522960173174e+00 0.0000000000000000e+00  1.5067460587925126e+00 -2.7997111827272572e+00 0.0000000000000000e+00  1.2001851218021184e+00 -3.4908131150090198e+00 0.0000000000000000e+00  8.4138806733380722e-01 -4.1923763910802796e+00 0.0000000000000000e+00  4.3655870336081948e-01 -4.9672052428745550e+00 0.0000000000000000e+00  4.3809444444641021e-02 -5.6765200608600788e+00 0.0000000000000000e+00  -1.2378400074179396e-01 -6.0524110883586788e+00 0.0000000000000000e+00  -6.1480191124397365e-01 -6.7938926402391804e+00 0.0000000000000000e+00  1.2901591467781761e+00 -3.7059951938548945e+00 0.0000000000000000e+00  -3.0787515039143170e+00 -1.0031184960143060e+01 0.0000000000000000e+00  -1.6973987381213318e+00 -7.7836572137805744e+00 0.0000000000000000e+00  -1.3939115804319773e+00 -7.1601620226278948e+00 0.0000000000000000e+00  -1.7079506625374299e+00 -7.4168041253001542e+00 0.0000000000000000e+00  -2.4665086354181893e+00 -8.2333903839144895e+00 0.0000000000000000e+00  -3.4869428982262765e+00 -9.3610829389538104e+00 0.0000000000000000e+00  -4.7137303496116072e+00 -1.0604227842283560e+01 0.0000000000000000e+00  -6.0987476053195699e+00 -1.1937147983347886e+01 0.0000000000000000e+00  -7.5987667285942893e+00 -1.3269488182437591e+01 0.0000000000000000e+00  -9.1776808508081249e+00 -1.4554594828621875e+01 0.0000000000000000e+00  -1.0791407226239764e+01 -1.5632076509093261e+01 0.0000000000000000e+00  -1.2373423246326759e+01 -1.6585706662014914e+01 0.0000000000000000e+00  -1.3862601908440782e+01 -1.6914590553212292e+01 0.0000000000000000e+00  -1.5199329680726056e+01 -1.6909982413570269e+01 0.0000000000000000e+00  -1.6316718972297316e+01 -1.5783207541972363e+01 0.0000000000000000e+00  -1.7189003653182812e+01 -1.3759852843508643e+01 0.0000000000000000e+00  -1.7771328133042577e+01 -1.0423674063999101e+01 0.0000000000000000e+00  -1.8104142119261709e+01 -4.4345764376778689e+00 0.0000000000000000e+00  -1.8162421561873046e+01 6.0657377041525959e-04 0.0000000000000000e+00  -1.8092019146990559e+01 4.9362922561674294e+00 0.0000000000000000e+00  -1.8162423637244036e+01 -6.9196779151809514e-04 0.0000000000000000e+00  -1.7900932950837142e+01 1.1960137505032394e+01 0.0000000000000000e+00  -1.3742992056811964e+01 1.9451298784535233e+01 0.0000000000000000e+00  -1.2626028075095876e+01 2.0534559767889704e+01 0.0000000000000000e+00  -1.0876632786250822e+01 2.1043211496791091e+01 0.0000000000000000e+00  -9.9048080112368080e+00 1.9621422098548916e+01 0.0000000000000000e+00  -8.7792851482706737e+00 1.8247177413157441e+01 0.0000000000000000e+00  -7.8646136129440061e+00 1.6461593783850169e+01 0.0000000000000000e+00  -7.0004933886842879e+00 1.4730767052336983e+01 0.0000000000000000e+00  -6.2275977957548720e+00 1.3203261307919492e+01 0.0000000000000000e+00  -5.4143900352967185e+00 1.2067457325187119e+01 0.0000000000000000e+00  -4.7753892346006230e+00 1.0932636817735158e+01 0.0000000000000000e+00  -4.2106170142653667e+00 9.9250635020235638e+00 0.0000000000000000e+00  -3.6224367656392080e+00 9.1712592139569402e+00 0.0000000000000000e+00  -3.0886541203687683e+00 8.4928317386766512e+00 0.0000000000000000e+00  -2.6096223387930428e+00 7.8676964254993376e+00 0.0000000000000000e+00  -2.1842778849479711e+00 7.2941929598428255e+00 0.0000000000000000e+00  -1.8216710075217293e+00 6.7069687494863386e+00 0.0000000000000000e+00  -1.5171318086967809e+00 6.1185960412477876e+00 0.0000000000000000e+00  -1.2558858854769221e+00 5.5374269376533620e+00 0.0000000000000000e+00  -1.0409705064939858e+00 4.9497240311041146e+00 0.0000000000000000e+00  -8.6783635319761543e-01 4.3348928377895755e+00 0.0000000000000000e+00  -7.2989479654976985e-01 3.7714655615577275e+00 0.0000000000000000e+00  -6.2677765954855991e-01 3.1283163534944118e+00 0.0000000000000000e+00  -5.6490421558328152e-01 2.6144121636816346e+00 0.0000000000000000e+00  -5.3538678667400397e-01 1.9286881652065651e+00 0.0000000000000000e+00  -5.5062573181370900e-01 1.5845344015026901e+00 0.0000000000000000e+00  -6.0870796698122664e-01 7.9292095025261478e-01 0.0000000000000000e+00  -7.1476084337808388e-01 5.7825254395688030e-01 0.0000000000000000e+00  -8.9110072925302641e-01 1.0197450276084008e+00 0.0000000000000000e+00  7.0052494787821429e-01 -1.2944287118921103e+00 0.0000000000000000e+00  7.9256703796780237e-01 -1.1572363066567555e+00 0.0000000000000000e+00  5.8898591941170297e-01 -1.5986967461203476e+00 0.0000000000000000e+00  4.7393787689541317e-01 -2.0332915805318676e+00 0.0000000000000000e+00  3.1992360986297691e-01 -2.4261794476363434e+00 0.0000000000000000e+00  6.6822712412876892e-02 -3.0265532987489046e+00 0.0000000000000000e+00  -2.4685113064270961e-01 -3.6504963414425085e+00 0.0000000000000000e+00  -6.1165375292714907e-01 -4.3568290044087838e+00 0.0000000000000000e+00  -1.0214133984479341e+00 -5.0858934735123880e+00 0.0000000000000000e+00  -1.4168527320908877e+00 -5.8021204117035872e+00 0.0000000000000000e+00  -1.5830220081903381e+00 -6.0613155482042043e+00 0.0000000000000000e+00  -2.0687237155244000e+00 -6.5675419395485637e+00 0.0000000000000000e+00  -1.6334573700660074e-01 -3.4726027764891034e+00 0.0000000000000000e+00  -4.5450904670073360e+00 -9.8478431395121344e+00 0.0000000000000000e+00  -3.1744993339325718e+00 -7.6185327516924506e+00 0.0000000000000000e+00  -2.8689832004174955e+00 -6.9550295946172858e+00 0.0000000000000000e+00  -3.1712783344406361e+00 -7.1109092601570865e+00 0.0000000000000000e+00  -3.9100730188078856e+00 -7.8517173625621899e+00 0.0000000000000000e+00  -4.9036197224584095e+00 -8.7909657811890796e+00 0.0000000000000000e+00  -6.0951298763077126e+00 -9.8918418648240838e+00 0.0000000000000000e+00  -7.4373569564007465e+00 -1.1058530432387723e+01 0.0000000000000000e+00  -8.8860880242030422e+00 -1.2233684989446466e+01 0.0000000000000000e+00  -1.0401416523982443e+01 -1.3265286191177704e+01 0.0000000000000000e+00  -1.1941020400833787e+01 -1.4280652575650199e+01 0.0000000000000000e+00  -1.3431954327663151e+01 -1.4754860525079176e+01 0.0000000000000000e+00  -1.4816506712874498e+01 -1.5000581072207639e+01 0.0000000000000000e+00  -1.6023327135320670e+01 -1.4203094040118238e+01 0.0000000000000000e+00  -1.6999354208094754e+01 -1.2590915160911962e+01 0.0000000000000000e+00  -1.7688195774471581e+01 -9.6564336985717709e+00 0.0000000000000000e+00  -1.8095456299191611e+01 -4.1504030897023227e+00 0.0000000000000000e+00  -1.8161163062991513e+01 8.6606005915170717e-04 0.0000000000000000e+00  -1.8071376884341657e+01 4.5911840621996616e+00 0.0000000000000000e+00  -1.8161165175620678e+01 -1.0058277471579769e-03 0.0000000000000000e+00  -1.7669555541608506e+01 1.1610230963643030e+01 0.0000000000000000e+00  -1.7468314469123229e+01 1.3303885770380829e+01 0.0000000000000000e+00  -1.3434071416587035e+01 1.8967714077887234e+01 0.0000000000000000e+00  -1.2455752276060188e+01 1.8499072250124016e+01 0.0000000000000000e+00  -1.0814548559109504e+01 1.8240770948969043e+01 0.0000000000000000e+00  -9.9360400372403159e+00 1.6617976831022233e+01 0.0000000000000000e+00  -8.8886557527154952e+00 1.5146167139961916e+01 0.0000000000000000e+00  -8.0446655649066461e+00 1.3483374787202896e+01 0.0000000000000000e+00  -7.2415832429215810e+00 1.2088705108199420e+01 0.0000000000000000e+00  -6.5251172686302779e+00 1.0888398594295925e+01 0.0000000000000000e+00  -5.7633268295912217e+00 1.0012760047451664e+01 0.0000000000000000e+00  -5.1722159436620494e+00 9.1137625717603186e+00 0.0000000000000000e+00  -4.6527418198750983e+00 8.3230976624877595e+00 0.0000000000000000e+00  -4.1073182530816865e+00 7.7243819994552680e+00 0.0000000000000000e+00  -3.6135073180851376e+00 7.1793616802147318e+00 0.0000000000000000e+00  -3.1721792001644316e+00 6.6846784255612341e+00 0.0000000000000000e+00  -2.7822559028575951e+00 6.1901698114877606e+00 0.0000000000000000e+00  -2.4529995127296442e+00 5.6873931901585868e+00 0.0000000000000000e+00  -2.1801079921878359e+00 5.1701061957815044e+00 0.0000000000000000e+00  -1.9490779299678089e+00 4.6508886944662713e+00 0.0000000000000000e+00  -1.7630039019994521e+00 4.0980564287761778e+00 0.0000000000000000e+00  -1.6179022877518650e+00 3.5864814058282741e+00 0.0000000000000000e+00  -1.5069163270633870e+00 2.9955918888775828e+00 0.0000000000000000e+00  -1.4304908218134458e+00 2.5421787474421818e+00 0.0000000000000000e+00  -1.3940178628342208e+00 1.9061452081980490e+00 0.0000000000000000e+00  -1.3905706853698194e+00 1.6259464384523559e+00 0.0000000000000000e+00  -1.4289963460333466e+00 9.0298378481713937e-01 0.0000000000000000e+00  -1.5140182173160932e+00 7.5173685054599726e-01 0.0000000000000000e+00  -1.6369298342253631e+00 1.3086152362879293e+00 0.0000000000000000e+00  -5.0435422595643919e-01 -1.1531389486749186e+00 0.0000000000000000e+00  -4.3259626765290127e-01 -1.0542904067127541e+00 0.0000000000000000e+00  -6.0155570004699210e-01 -1.4255844621462290e+00 0.0000000000000000e+00  -7.2258280230848737e-01 -1.8529996671211766e+00 0.0000000000000000e+00  -8.4902589501508718e-01 -2.1863999913536425e+00 0.0000000000000000e+00  -1.0161970169030174e+00 -2.6375106227418823e+00 0.0000000000000000e+00  -1.2831574578471303e+00 -3.1700104359013652e+00 0.0000000000000000e+00  -1.6110844658788130e+00 -3.8002986624738728e+00 0.0000000000000000e+00  -1.9893450724857606e+00 -4.4632674575724369e+00 0.0000000000000000e+00  -2.4100397096088439e+00 -5.2032425854279065e+00 0.0000000000000000e+00  -2.8120739053310677e+00 -5.8109773046251680e+00 0.0000000000000000e+00  -2.9797700494305417e+00 -5.8399358434482798e+00 0.0000000000000000e+00  -3.4655332486447530e+00 -6.3247994307194686e+00 0.0000000000000000e+00  -1.5747462060467525e+00 -3.2529586267119375e+00 0.0000000000000000e+00  -5.9928078103349369e+00 -9.6502331458171362e+00 0.0000000000000000e+00  -4.6528690628017912e+00 -7.4038098728705126e+00 0.0000000000000000e+00  -4.3596087406836048e+00 -6.6568747526680694e+00 0.0000000000000000e+00  -4.6619955083754689e+00 -6.7518121323269273e+00 0.0000000000000000e+00  -5.3887984715744564e+00 -7.3141565523946861e+00 0.0000000000000000e+00  -6.3624138102736545e+00 -8.1256621822558817e+00 0.0000000000000000e+00  -7.5249655901208277e+00 -9.0723126260774212e+00 0.0000000000000000e+00  -8.8281418776836151e+00 -1.0095803127901689e+01 0.0000000000000000e+00  -1.0226210495399986e+01 -1.1036303497790270e+01 0.0000000000000000e+00  -1.1678085268260144e+01 -1.2030034846761199e+01 0.0000000000000000e+00  -1.3133316747302699e+01 -1.2585608863578802e+01 0.0000000000000000e+00  -1.4523099071666216e+01 -1.3018759184886184e+01 0.0000000000000000e+00  -1.5773104095570851e+01 -1.2491054195335252e+01 0.0000000000000000e+00  -1.6827267912818712e+01 -1.1278673028425176e+01 0.0000000000000000e+00  -1.7594208563660427e+01 -8.7453028032491957e+00 0.0000000000000000e+00  -1.8073710749184347e+01 -3.7947484451053444e+00 0.0000000000000000e+00  -1.8159505231704898e+01 1.0956026155519204e-03 0.0000000000