<?xml version="1.0"?>
<VTKFile type="UnstructuredGrid"  version="0.1"  >
<UnstructuredGrid>
<Piece  NumberOfPoints="1933" NumberOfCells="3640">
<Points>
<DataArray  type="Float64"  NumberOfComponents="3"  format="ascii">0.0002931355571640371 -0.002611849571702159 0  5.000293175963849 -0.002537947383280176 0  5.000182290022683 7.497462136654259 0  0.0001822433979928872 7.497388226547604 0  10.00029325077081 -0.002464100936922335 0  10.00018236201859 7.497535979215942 0  15.00029338972639 -0.002390281884546105 0  15.00018246612311 7.497609792142446 0  20.00029361209597 -0.002316447145951617 0  20.00018260558845 7.497683621244041 0  25.00029392762618 -0.002242547718644933 0  25.00018278006822 7.497757516074169 0  30.00029433846386 -0.002168532131360462 0  30.00018298530913 7.497831527978641 0  35.00029484075787 -0.00209434746657983 0  35.0001832129112 7.497905709572341 0  40.0002954256796 -0.002019939220426154 0  40.00018345007925 7.497980115036295 0  45.00029607988327 -0.001945250576209584 0  45.00018367926037 7.498054800880205 0  50.0002967854818 -0.001870221348049315 0  50.0001838775844 7.498129826991216 0  55.00029751959404 -0.00179478669138044 0  55.00018401603995 7.49820525789832 0  60.0002982534798 -0.001718875590138052 0  60.00018405832043 7.498281164248474 0  65.00029895123411 -0.001642409075217225 0  65.00018395925572 7.498357624536387 0  70.00029956795413 -0.001565298083954141 0  70.00018366272 7.498434727167068 0  75.00030004722785 -0.001487440822654662 0  75.00018309885984 7.498512572967275 0  80.00030031768897 -0.001408719432864623 0  80.00018218042445 7.498591278305321 0  85.0003002882368 -0.001328995675921007 0  85.00018079789969 7.498670979030098 0  90.0002998412632 -0.001248105225593399 0  90.00017881303712 7.498751835499309 0  95.00029882282426 -0.001165849978099641 0  95.00017605024456 7.49883403902116 0  100.0002970279634 -0.001081987533684827 0  100.0001722851847 7.498917820046253 0  105.0002941781371 -0.0009962166644457359 0  105.0001672298903 7.499003458323209 0  110.0002898854191 -0.0009081571912906019 0  110.0001605139465 7.499091294743673 0  115.0002835940535 -0.0008173224187196295 0  115.0001516622955 7.499181743238367 0  120.0002744824081 -0.0007230826864376861 0  120.0001400730235 7.499275297706059 0  125.0002612945779 -0.000624621356186143 0  125.0001250054337 7.499372521133055 0  130.0002420455071 -0.0005208943608057783 0  130.0001056046341 7.499473986765224 0  135.0002134969235 -0.0004106347655797934 0  135.0000810237831 7.499580104720886 0  140.0001702157699 -0.0002925357681192645 0  140.0000507792317 7.499690696199552 0  145.0001028657898 -0.0001660399972499244 0  145.0000156286012 7.499804064206675 0  149.9999950471503 -3.421660309639728e-05 0  149.999979594315 7.499915276308228 0  159.9999999999998 1.210950750700496e-18 0  165.0000132858253 -2.658999749743802e-05 0  165.0000034406783 7.499962989679386 0  159.9999921144366 7.499975900828875 0  170.0000376743956 -2.574397477019069e-05 0  170.0000145087986 7.499969386961162 0  175.0000646916414 -6.157672038371216e-06 0  175.0000264784581 7.499991514646683 0  180.0000907941796 2.668324652681426e-05 0  180.0000390086809 7.500025591493191 0  185.000114618738 6.90751848779351e-05 0  185.0000515363685 7.500068601081678 0  190.0001357769309 0.0001184529313717373 0  190.0000636087536 7.500118290398463 0  195.0001543043849 0.0001730110378919355 0  195.0000749343747 7.500173005023362 0  200.000170406099 0.0002314592854560485 0  200.000085356471 7.500231530200541 0  205.0001843399388 0.0002928609122984214 0  205.0000948133831 7.500292967589536 0  210.0001963651431 0.000356524750042713 0  210.0001033046886 7.500356645847734 0  215.0002067213224 0.0004219327498925335 0  215.0001108665126 7.500422057275139 0  220.000215621535 0.0004886907557858679 0  220.0001175548963 7.500488813177192 0  225.000223251641 0.0005564946007923975 0  225.0001234351249 7.500556612300615 0  230.0002297722678 0.0006251063842788268 0  230.0001285751694 7.500625218316912 0  235.0002353216901 0.0006943375941354376 0  235.0001330418444 7.500694443574249 0  240.0002400188677 0.0007640369008523907 0  240.0001368987178 7.500764137225228 0  245.0002439663407 0.0008340811965915956 0  245.00014020513 7.500834176446445 0  250.0002472528722 0.000904368934197137 0  250.0001430159051 7.500904459877689 0  255.0002499558458 0.0009748151363861669 0  255.0001453814955 7.500974902688754 0  260.0002521434381 0.001045347656989271 0  260.0001473483788 7.501045432874485 0  265.0002538766338 0.001115904424591301 0  265.000148959607 7.501115988516632 0  270.0002552111152 0.001186431511279629 0  270.0001502554327 7.501186515855244 0  275.0002561990909 0.001256881965003682 0  275.0001512739435 7.501256968099279 0  280.0002568910691 0.001327215439470335 0  280.0001520516643 7.50132730498646 0  285.0002573375695 0.001397398765974599 0  285.0001526240561 7.501397493185755 0  290.0002575906324 0.001467407753058202 0  290.0001530258466 7.501467507725852 0  295.0002577048306 0.001537230683864169 0  295.0001532911438 7.501537334726303 0  300.0002577370471 0.001606874188317926 0  300.0001534533417 7.50160697578857 0  305.0002577434894 0.001676372228499477 0  305.0001535451083 7.501676454450624 0  310.0002577707103 0.001745797991687493 0  310.0001535994245 7.501745825257784 0  5.000071308875506 14.99746230331295 0  7.126602804380378e-05 14.99738840984437 0  10.00007135668976 14.99753611279462 0  15.00007140976219 14.99760989277466 0  20.00007146426287 14.99768369345621 0  25.0000715138148 14.99775756438123 0  30.00007154957541 14.99783155549977 0  35.00007155982597 14.99790571773793 0  40.00007152940863 14.99798010362108 0  45.00007143909072 14.998054768065 0  50.00007126484424 14.99812976933715 0  55.00007097699981 14.99820517017919 0  60.00007053922675 14.99828103909699 0  65.00006990729317 14.99835745184186 0  70.00006902755933 14.99843449312185 0  75.00006783517036 14.99851225859126 0  80.00006625192783 14.99859085716545 0  85.00006418387304 14.99867041368673 0  90.0000615187043 14.99875107190462 0  95.00005812334948 14.9988329975847 0  100.00005384237 14.99891638124204 0  105.0000484985445 14.99900143934511 0  110.0000418981281 14.99908841155669 0  115.0000338452429 14.99917754913555 0  120.0000241729305 14.99926908509716 0  125.0000128028318 14.99936316865983 0  129.9999998507085 14.99945973287091 0  134.9999857980941 14.99955824327951 0  139.9999717415661 14.99965724843793 0  144.9999596839344 14.99975363159587 0  149.9999526779647 14.99984146971766 0  164.9999738712621 14.99993434268707 0  159.9999678968281 14.99992105720515 0  169.9999775716373 14.99995501797278 0  174.9999809819895 14.99998462151066 0  179.9999848603094 15.00002255437088 0  184.9999893234435 15.00006752690711 0  189.9999942298925 15.00011819325046 0  194.9999993703761 15.00017337254619 0  200.0000045489922 15.0002320974563 0  205.0000096105406 15.00029359921587 0  210.0000144439201 15.00035727447788 0  215.0000189763485 15.00042265123141 0  220.0000231651617 15.00048935945262 0  225.0000269899926 15.00055710756324 0  230.0000304462837 15.00062566414792 0  235.0000335402798 15.0006948439553 0  240.0000362853253 15.00076449722929 0  245.0000386992145 15.00083450157695 0  250.0000408023496 15.00090475575912 0  255.0000426164936 15.00097517494495 0  260.0000441639519 15.00104568710035 0  265.0000454670546 15.0011162302782 0  270.0000465478414 15.00118675065805 0  275.0000474278773 15.00125720124557 0  280.0000481281462 15.00132754119254 0  285.0000486690204 15.0013977357364 0  290.0000490703073 15.00146775677439 0  295.0000493515255 15.00153758406443 0  300.0000495326479 15.00160720694487 0  305.000049635864 15.00167662622774 0  310.0000496893143 15.0017458554581 0  4.999960377187244 22.49746257295786 0  -3.966078157496833e-05 22.49738876445756 0  9.999960405478783 22.4975363035607 0  14.99996041816324 22.49761001330673 0  19.99996040794526 22.49768375254284 0  24.99996036609566 22.4977575688703 0  29.999960282314 22.49783150930806 0  34.99996014437891 22.49790562152391 0  39.99995993767844 22.4979799547023 0  44.99995964469105 22.49805456032056 0  49.99995924445118 22.49812949294613 0  54.99995871200615 22.4982048110944 0  59.99995801787221 22.49828057815761 0  64.99995712750696 22.49835686340036 0  69.99995600083889 22.49843374300176 0  74.99995459194173 22.49851130109836 0  79.99995284900076 22.4985896307332 0  84.99995071483063 22.4986688345254 0  89.99994812836191 22.49874902471663 0  94.99994502776104 22.4988303219736 0  99.99994135620534 22.49891285185398 0  104.999937071833 22.49899673706036 0  109.9999321640174 22.49908208233542 0  114.9999266787881 22.49916894687872 0  119.9999207566106 22.49925729629156 0  124.9999146851028 22.49934692235138 0  129.999908965953 22.49943731538869 0  134.9999043862923 22.49952747433633 0  139.9999020653287 22.49961565387015 0  144.9999034122242 22.49969910218777 0  149.999909884647 22.49977400041145 0  164.9999248042872 22.4999008233091 0  159.9999229620809 22.49986861034337 0  169.9999246906189 22.49993499817944 0  174.9999237522692 22.49997337467869 0  179.999922804307 22.50001671055131 0  184.9999222739263 22.50006489404043 0  189.9999223079383 22.50011741043689 0  194.9999228919812 22.50017361702536 0  199.9999239358249 22.50023288060095 0  204.9999253244767 22.50029463532244 0  209.9999269451114 22.50035839956982 0  214.9999286992102 22.50042377381445 0  219.9999305064839 22.5004904309656 0  224.9999323046422 22.5005581047445 0  229.9999340473329 22.50062657854428 0  234.9999357014948 22.50069567569636 0  239.9999372447372 22.50076525134859 0  244.9999386630128 22.5008351858562 0  249.9999399486608 22.50090537948168 0  254.9999410988237 22.50097574818644 0  259.9999421141795 22.50104622032054 0  264.9999429979509 22.50111673405021 0  269.9999437551259 22.50118723539915 0  274.9999443918686 22.50125767680543 0  279.9999449150905 22.50132801611259 0  284.9999453322099 22.50139821590917 0  289.9999456511586 22.50146824309545 0  294.9999458807772 22.50153806846813 0  299.9999460317964
[...]
<PointData  Vectors="v"> 
<DataArray  type="Float64"  Name="v"  NumberOfComponents="3" format="ascii">-1.5826367630921507e+00 5.7324676959131518e+00 0.0000000000000000e+00  -1.1482021563600600e+00 5.5740236581995681e+00 0.0000000000000000e+00  -8.4738466553187830e-01 4.9225460826907828e+00 0.0000000000000000e+00  -1.1793439976464266e+00 5.2351656123620165e+00 0.0000000000000000e+00  -5.6811745706300010e-01 6.2502527089807405e+00 0.0000000000000000e+00  -4.1317840251739613e-01 5.3809831856993329e+00 0.0000000000000000e+00  4.7576499778324392e-03 7.3337627028405024e+00 0.0000000000000000e+00  1.6594781990700896e-01 6.4757039555676288e+00 0.0000000000000000e+00  5.6227478296368549e-01 7.9667684533582648e+00 0.0000000000000000e+00  7.3727024260095142e-01 7.1325541714264018e+00 0.0000000000000000e+00  1.2344035341199660e+00 9.0267039203279591e+00 0.0000000000000000e+00  1.2925388990623090e+00 8.0213144314064824e+00 0.0000000000000000e+00  1.8123067683579344e+00 9.7130399943942685e+00 0.0000000000000000e+00  1.9613450372864718e+00 8.8495781978240213e+00 0.0000000000000000e+00  1.9674861984976333e+00 9.8107944566780159e+00 0.0000000000000000e+00  2.5350884537487341e+00 9.5824669183667943e+00 0.0000000000000000e+00  2.9462197113998663e+00 1.1021927132920482e+01 0.0000000000000000e+00  2.6852212788813992e+00 9.5591155296145871e+00 0.0000000000000000e+00  -1.4347221622728284e-01 6.1449961323925590e+00 0.0000000000000000e+00  3.6576045504681018e+00 1.0785721390953759e+01 0.0000000000000000e+00  9.4307666989976866e+00 2.0006257018711221e+01 0.0000000000000000e+00  5.6055341520626911e-01 5.6516058979080004e+00 0.0000000000000000e+00  8.3840194771466585e+00 1.7486586741844768e+01 0.0000000000000000e+00  1.0127204161311449e+01 1.9064663059115425e+01 0.0000000000000000e+00  8.2543433639699479e+00 1.6258019198531031e+01 0.0000000000000000e+00  9.0711525824082049e+00 1.6462499980394703e+01 0.0000000000000000e+00  8.7902708184937399e+00 1.6035878841188183e+01 0.0000000000000000e+00  8.9298256514024068e+00 1.5243979229694114e+01 0.0000000000000000e+00  9.8591938794890375e+00 1.6624497999533425e+01 0.0000000000000000e+00  9.4519847641601356e+00 1.5035429296287782e+01 0.0000000000000000e+00  1.1285536432813398e+01 1.7687493882309703e+01 0.0000000000000000e+00  1.0503984785036430e+01 1.5563798232339034e+01 0.0000000000000000e+00  1.2976835928634001e+01 1.9008771815387604e+01 0.0000000000000000e+00  1.1911157610911472e+01 1.6490379593575692e+01 0.0000000000000000e+00  1.4849543180357298e+01 2.0601688678333812e+01 0.0000000000000000e+00  1.3581004868987792e+01 1.7813466326126896e+01 0.0000000000000000e+00  1.6820054309178602e+01 2.2088709662376871e+01 0.0000000000000000e+00  1.5428644205050682e+01 1.9155509854549639e+01 0.0000000000000000e+00  1.8818905851408847e+01 2.3486615321556499e+01 0.0000000000000000e+00  1.7371914859827850e+01 2.0514253067936508e+01 0.0000000000000000e+00  2.0781878335202119e+01 2.4643720011639093e+01 0.0000000000000000e+00  1.9340352972000797e+01 2.1727206164251623e+01 0.0000000000000000e+00  2.2633380577403251e+01 2.5474757485662344e+01 0.0000000000000000e+00  2.1269785901491684e+01 2.2728398418211629e+01 0.0000000000000000e+00  2.4312848472066669e+01 2.5587676259220643e+01 0.0000000000000000e+00  2.3083750740587039e+01 2.3101401504654817e+01 0.0000000000000000e+00  2.5779417592165682e+01 2.5522553982568123e+01 0.0000000000000000e+00  2.4724633209456407e+01 2.3360482180061361e+01 0.0000000000000000e+00  2.6984412175856995e+01 2.4071437062935711e+01 0.0000000000000000e+00  2.6145144161477717e+01 2.2300427725360180e+01 0.0000000000000000e+00  2.7930070290293365e+01 2.2621368149587038e+01 0.0000000000000000e+00  2.7306789186234262e+01 2.1248869834711396e+01 0.0000000000000000e+00  2.8598770804207234e+01 1.9182749208049231e+01 0.0000000000000000e+00  2.8196784081862290e+01 1.8218469662277819e+01 0.0000000000000000e+00  2.9041100374444060e+01 1.5793908161841591e+01 0.0000000000000000e+00  2.8819108789348764e+01 1.5186583905291091e+01 0.0000000000000000e+00  2.9266166773924226e+01 1.0274757615466319e+01 0.0000000000000000e+00  2.9194247254806836e+01 9.9756526180614316e+00 0.0000000000000000e+00  2.9368171934843478e+01 3.7238783256921821e+00 0.0000000000000000e+00  2.9372091304208965e+01 3.6398260869669117e+00 0.0000000000000000e+00  2.9389264413293439e+01 1.2411506256944916e-05 0.0000000000000000e+00  2.9389462129249683e+01 2.2004914018860906e-04 0.0000000000000000e+00  2.9389262614619579e+01 -1.3658287694791582e-19 0.0000000000000000e+00  2.1019875737022428e+01 -1.1521027345322176e+01 0.0000000000000000e+00  2.9366937538802588e+01 9.9541809499138822e-01 0.0000000000000000e+00  2.9389455239148226e+01 -1.8668009287137535e-04 0.0000000000000000e+00  2.0626355181715105e+01 -2.0688738452853091e+01 0.0000000000000000e+00  2.1049007781401389e+01 -2.0165838744242720e+01 0.0000000000000000e+00  1.7603179110565659e+01 -2.7675464635915720e+01 0.0000000000000000e+00  2.0714936435089434e+01 -2.3182016712440454e+01 0.0000000000000000e+00  1.6453126552731138e+01 -2.9095480830718337e+01 0.0000000000000000e+00  1.7749169868926156e+01 -2.7421549706812424e+01 0.0000000000000000e+00  1.4659141109645828e+01 -3.0536445711460150e+01 0.0000000000000000e+00  1.6652640944273713e+01 -2.7890330054541508e+01 0.0000000000000000e+00  1.3286395346108494e+01 -2.9728813756201895e+01 0.0000000000000000e+00  1.4909748862566543e+01 -2.7715434548408506e+01 0.0000000000000000e+00  1.1900193127940961e+01 -2.8675779553070676e+01 0.0000000000000000e+00  1.3587576055967183e+01 -2.6638479855751651e+01 0.0000000000000000e+00  1.0684278517382769e+01 -2.6783406693870120e+01 0.0000000000000000e+00  1.2249019428112014e+01 -2.5002210464299583e+01 0.0000000000000000e+00  9.3147759270787223e+00 -2.4941259494423697e+01 0.0000000000000000e+00  1.1079348457309987e+01 -2.2927353679296697e+01 0.0000000000000000e+00  8.2857780882994678e+00 -2.2730139671192251e+01 0.0000000000000000e+00  9.7550820628760384e+00 -2.1226166103227211e+01 0.0000000000000000e+00  7.4113742068946102e+00 -2.0648034795190323e+01 0.0000000000000000e+00  8.7697184931743859e+00 -1.9375123748701444e+01 0.0000000000000000e+00  6.4815395870019898e+00 -1.8851471988504834e+01 0.0000000000000000e+00  7.9377838881200597e+00 -1.7494466899435501e+01 0.0000000000000000e+00  5.6153151445180152e+00 -1.7208807960199145e+01 0.0000000000000000e+00  7.0496715217525061e+00 -1.5946177869950947e+01 0.0000000000000000e+00  4.8149487206839963e+00 -1.5764218648046361e+01 0.0000000000000000e+00  6.2239869367447866e+00 -1.4599852130247182e+01 0.0000000000000000e+00  4.0566332689372171e+00 -1.4442253755776390e+01 0.0000000000000000e+00  5.4632480070813543e+00 -1.3340115185511806e+01 0.0000000000000000e+00  3.3801147646586349e+00 -1.3179123016293302e+01 0.0000000000000000e+00  4.7438697451960365e+00 -1.2198968724514810e+01 0.0000000000000000e+00  2.7870875675509481e+00 -1.2007373896633409e+01 0.0000000000000000e+00  4.1054322109710393e+00 -1.1151940848258835e+01 0.0000000000000000e+00  2.2448146752881319e+00 -1.0876693385191825e+01 0.0000000000000000e+00  3.5497352159328424e+00 -1.0096829715319457e+01 0.0000000000000000e+00  1.7709632911131179e+00 -9.7719783589185631e+00 0.0000000000000000e+00  3.0442997981661266e+00 -9.0941426963222050e+00 0.0000000000000000e+00  1.3680602273623312e+00 -8.7135415499878945e+00 0.0000000000000000e+00  2.6065568441755338e+00 -8.1418402408708008e+00 0.0000000000000000e+00  1.0096013346334689e+00 -7.6579129164772644e+00 0.0000000000000000e+00  2.2393816036985079e+00 -7.1522769075637314e+00 0.0000000000000000e+00  7.0659167263837286e-01 -6.6346690799935732e+00 0.0000000000000000e+00  1.9159647409316161e+00 -6.2120916935893176e+00 0.0000000000000000e+00  4.6295452056837166e-01 -5.6265214270751196e+00 0.0000000000000000e+00  1.6479900154656215e+00 -5.2922202786970081e+00 0.0000000000000000e+00  2.6056327310856509e-01 -4.6570522194329733e+00 0.0000000000000000e+00  1.4382004655250562e+00 -4.3851357747093198e+00 0.0000000000000000e+00  1.0806548081947707e-01 -3.6874520743418513e+00 0.0000000000000000e+00  1.2707013765981556e+00 -3.4886327503891641e+00 0.0000000000000000e+00  -1.6890102684361254e-03 -2.8498557359878078e+00 0.0000000000000000e+00  1.1504175616054826e+00 -2.7173976648080087e+00 0.0000000000000000e+00  -7.0883275853517003e-02 -1.9655242741881858e+00 0.0000000000000000e+00  1.0764488849643032e+00 -1.8895087084281992e+00 0.0000000000000000e+00  -1.3772933999301012e-01 -1.3324706102053978e+00 0.0000000000000000e+00  1.0363013254167728e+00 -1.2667217586074009e+00 0.0000000000000000e+00  -2.0977055154477595e-01 -7.1170809722588402e-01 0.0000000000000000e+00  1.0098500271846997e+00 -6.2576660070614754e-01 0.0000000000000000e+00  -3.7209564802847489e-01 1.7149180622833024e-01 0.0000000000000000e+00  9.5396185106790887e-01 3.6872448512478850e-01 0.0000000000000000e+00  -1.2832677566545889e-01 4.4237679959700715e+00 0.0000000000000000e+00  -4.8785290485142219e-01 4.6978872385051673e+00 0.0000000000000000e+00  2.0486739745634736e-01 4.7288980997300785e+00 0.0000000000000000e+00  6.4012916796384223e-01 5.6067928049810956e+00 0.0000000000000000e+00  1.2195265690183041e+00 6.2759054552859341e+00 0.0000000000000000e+00  1.7900527161636983e+00 7.1891748027493332e+00 0.0000000000000000e+00  2.3434658879473407e+00 7.8482085383313862e+00 0.0000000000000000e+00  3.0088652579403177e+00 8.7248225995498601e+00 0.0000000000000000e+00  3.5772787884727575e+00 9.3375017453393276e+00 0.0000000000000000e+00  3.7204783584816590e+00 9.3323904290604460e+00 0.0000000000000000e+00  4.6834414728983962e+00 1.0304236104718603e+01 0.0000000000000000e+00  1.5758849644124877e+00 4.7182518392985520e+00 0.0000000000000000e+00  1.1136374170524775e+01 1.8050194253853665e+01 0.0000000000000000e+00  1.0073189383369540e+01 1.5463437599084205e+01 0.0000000000000000e+00  9.9190017435665272e+00 1.4260907516617156e+01 0.0000000000000000e+00  1.0424442104063946e+01 1.3998832545614942e+01 0.0000000000000000e+00  1.1453999486400637e+01 1.4395235222844519e+01 0.0000000000000000e+00  1.2833902448172493e+01 1.5326099644591554e+01 0.0000000000000000e+00  1.4472373125007953e+01 1.6405515538162181e+01 0.0000000000000000e+00  1.6283018161372009e+01 1.7624033861455917e+01 0.0000000000000000e+00  1.8183744468383438e+01 1.8800703147665743e+01 0.0000000000000000e+00  2.0105204504504687e+01 1.9866178237265263e+01 0.0000000000000000e+00  2.1980360822641227e+01 2.0414605419972744e+01 0.0000000000000000e+00  2.3734288948846672e+01 2.0938127856915603e+01 0.0000000000000000e+00  2.5308020393034731e+01 2.0210836479397400e+01 0.0000000000000000e+00  2.6655331227210322e+01 1.9557262236128885e+01 0.0000000000000000e+00  2.7733164191050570e+01 1.6927760771687087e+01 0.0000000000000000e+00  2.8538721838979495e+01 1.4321123867859567e+01 0.0000000000000000e+00  2.9056800889870079e+01 9.4530576175782155e+00 0.0000000000000000e+00  2.9341388573564750e+01 3.4678469645250907e+00 0.0000000000000000e+00  2.9389936836751200e+01 4.1939526757035273e-04 0.0000000000000000e+00  2.9328731818969036e+01 1.1551142207137755e+00 0.0000000000000000e+00  2.9389927440370101e+01 -3.6698229581252147e-04 0.0000000000000000e+00  2.9172624949628656e+01 -7.7081376202129315e+00 0.0000000000000000e+00  2.0919431934061400e+01 -2.2733072960933391e+01 0.0000000000000000e+00  2.0666194894457909e+01 -2.3014846382154612e+01 0.0000000000000000e+00  1.7768713542390554e+01 -2.6286608986481649e+01 0.0000000000000000e+00  1.6738014564979157e+01 -2.5133667902301138e+01 0.0000000000000000e+00  1.5051504581411862e+01 -2.4690780114343475e+01 0.0000000000000000e+00  1.3784978449470515e+01 -2.3024361701948894e+01 0.0000000000000000e+00  1.2496335353507499e+01 -2.1201338767233128e+01 0.0000000000000000e+00  1.1373794584703287e+01 -1.9267444032992771e+01 0.0000000000000000e+00  1.0094490092395681e+01 -1.7923185829141385e+01 0.0000000000000000e+00  9.1520564305686953e+00 -1.6271125114390060e+01 0.0000000000000000e+00  8.3610445462916747e+00 -1.4638490501852589e+01 0.0000000000000000e+00  7.5128917157904844e+00 -1.3384614093472337e+01 0.0000000000000000e+00  6.7256225861473684e+00 -1.2221290865158585e+01 0.0000000000000000e+00  6.0018482734822607e+00 -1.1141821498330998e+01 0.0000000000000000e+00  5.3184201480602296e+00 -1.0215348353370130e+01 0.0000000000000000e+00  4.7147188002247669e+00 -9.2835695642589133e+00 0.0000000000000000e+00  4.1926033606355828e+00 -8.3558739263238166e+00 0.0000000000000000e+00  3.7198922559659762e+00 -7.5045587994636795e+00 0.0000000000000000e+00  3.3139925506598229e+00 -6.6201464676653874e+00 0.0000000000000000e+00  2.9777414509483706e+00 -5.7455130595099613e+00 0.0000000000000000e+00  2.6847209664274900e+00 -4.9079732592102960e+00 0.0000000000000000e+00  2.4462610794346702e+00 -4.0883960038636369e+00 0.0000000000000000e+00  2.2656792240771955e+00 -3.2539457479076792e+00 0.0000000000000000e+00  2.1262634186865483e+00 -2.5551240696477611e+00 0.0000000000000000e+00  2.0345406061805695e+00 -1.7928308994881945e+00 0.0000000000000000e+00  1.9866092848144705e+00 -1.2265326910085206e+00 0.0000000000000000e+00  1.9750549522905558e+00 -5.9624960837753138e-01 0.0000000000000000e+00  1.9725932544921314e+00 4.3081814082168834e-01 0.0000000000000000e+00  1.1212970311632482e+00 3.8825933064819842e+00 0.0000000000000000e+00  7.9980691999892684e-01 4.2187048381511989e+00 0.0000000000000000e+00  1.4838677244999283e+00 4.2262255536494431e+00 0.0000000000000000e+00  1.8217091857035130e+00 4.9516528777367350e+00 0.0000000000000000e+00  2.2605307337237273e+00 5.4051588424330337e+00 0.0000000000000000e+00  2.8427098276207152e+00 6.3328093929847382e+00 0.0000000000000000e+00  3.4145622386170658e+00 7.0193256463501488e+00 0.0000000000000000e+00  3.9667008526940313e+00 7.7295682649859794e+00 0.0000000000000000e+00  4.6283013970280882e+00 8.4901722325456781e+00 0.0000000000000000e+00  5.1896024409063850e+00 9.1259851647651811e+00 0.0000000000000000e+00  5.3211866480233319e+00 8.8708872684004376e+00 0.0000000000000000e+00  6.2690268484391165e+00 9.3912313637205660e+00 0.0000000000000000e+00  3.1501740223184309e+00 3.7131129760506347e+00 0.0000000000000000e+00  1.2709695167943327e+01 1.7060340794335616e+01 0.0000000000000000e+00  1.1644485067303425e+01 1.4502916215254231e+01 0.0000000000000000e+00  1.1477739002808208e+01 1.3257756784065050e+01 0.0000000000000000e+00  1.1960647490581740e+01 1.2874524203719936e+01 0.0000000000000000e+00  1.2958547997501938e+01 1.3286678053517431e+01 0.0000000000000000e+00  1.4298127789002942e+01 1.3984773665350604e+01 0.0000000000000000e+00  1.5886545612404513e+01 1.4951184262044455e+01 0.0000000000000000e+00  1.7638247103623268e+01 1.5999975706417542e+01 0.0000000000000000e+00  1.9470677073104682e+01 1.7042706530050928e+01 0.0000000000000000e+00  2.1311620995802365e+01 1.7666828393498690e+01 0.0000000000000000e+00  2.3095988583513307e+01 1.8384535744399955e+01 0.0000000000000000e+00  2.4744303384685747e+01 1.7932649292796427e+01 0.0000000000000000e+00  2.6201187824285618e+01 1.7635956295474287e+01 0.0000000000000000e+00  2.7411873058724634e+01 1.5409403182413291e+01 0.0000000000000000e+00  2.8346113960089578e+01 1.3244635211993678e+01 0.0000000000000000e+00  2.8977500765282922e+01 8.7766008999656098e+00 0.0000000000000000e+00  2.9334384821687344e+01 3.2259190979146837e+00 0.0000000000000000e+00  2.9390679434269845e+01 6.0082515704694211e-04 0.0000000000000000e+00  2.9304670021906396e+01 1.4680035426498395e+00 0.0000000000000000e+00  2.9390670966056046e+01 -5.2567444756493071e-04 0.0000000000000000e+00  2.8937331002298080e+01 -7.4161896641519442e+00 0.0000000000000000e+00  2.8768882553766197e+01 -1.0433801911654296e+01 0.0000000000000000e+00  2.0627769085361173e+01 -2.2736205436942683e+01 0.0000000000000000e+00  2.0505007566138989e+01 -2.2021077631443379e+01 0.0000000000000000e+00  1.7717078544174054e+01 -2.3667437810454363e+01 0.0000000000000000e+00  1.6784816476911441e+01 -2.2226124930957038e+01 0.0000000000000000e+00  1.5184072332881343e+01 -2.1187354242709329e+01 0.0000000000000000e+00  1.3996688047708577e+01 -1.9324420530926986e+01 0.0000000000000000e+00  1.2778553563839326e+01 -1.7636008308981225e+01 0.0000000000000000e+00  1.1722114794953878e+01 -1.6053000473800637e+01 0.0000000000000000e+00  1.0504442093597550e+01 -1.4904389670503717e+01 0.0000000000000000e+00  9.6205187723209811e+00 -1.3496562044663992e+01 0.0000000000000000e+00  8.8858068019820973e+00 -1.2155534101443283e+01 0.0000000000000000e+00  8.0919160030513311e+00 -1.1082027107909846e+01 0.0000000000000000e+00  7.3566573067951353e+00 -1.0096140569348174e+01 0.0000000000000000e+00  6.6830005177889005e+00 -9.2286850378442011e+00 0.0000000000000000e+00  6.0476903464970819e+00 -8.4152256888275634e+00 0.0000000000000000e+00  5.4901977969222040e+00 -7.6084511140414266e+00 0.0000000000000000e+00  5.0125717912188117e+00 -6.8301385117942850e+00 0.0000000000000000e+00  4.5828229504351032e+00 -6.0447556950061276e+00 0.0000000000000000e+00  4.2182706969322981e+00 -5.2738053218012837e+00 0.0000000000000000e+00  3.9223001756666593e+00 -4.4997914660004996e+00 0.0000000000000000e+00  3.6679906942262104e+00 -3.7619732175175109e+00 0.0000000000000000e+00  3.4677070982521325e+00 -3.0122935605595105e+00 0.0000000000000000e+00  3.3232367607764592e+00 -2.3765986509474479e+00 0.0000000000000000e+00  3.2205479057428166e+00 -1.6812409293886981e+00 0.0000000000000000e+00  3.1612870112100109e+00 -1.1865266717544061e+00 0.0000000000000000e+00  3.1507861451401795e+00 -5.9887154639926754e-01 0.0000000000000000e+00  3.1625936105262147e+00 4.0083652922651242e-01 0.0000000000000000e+00  2.4345013892581813e+00 3.3975964921265840e+00 0.0000000000000000e+00  2.1490955475307985e+00 3.7947791960036188e+00 0.0000000000000000e+00  2.7604151210162526e+00 3.6775406823112804e+00 0.0000000000000000e+00  3.1308930423279375e+00 4.4388469353397166e+00 0.0000000000000000e+00  3.4775449015449764e+00 4.7409008654962328e+00 0.0000000000000000e+00  3.9253007379757516e+00 5.4542362712799815e+00 0.0000000000000000e+00  4.5151742565620783e+00 6.1572404812682997e+00 0.0000000000000000e+00  5.0928798700188338e+00 6.8992226186228951e+00 0.0000000000000000e+00  5.6479178894391264e+00 7.4983754094689239e+00 0.0000000000000000e+00  6.3080810136739309e+00 8.2879216088827441e+00 0.0000000000000000e+00  6.8625853449929561e+00 8.6820486442253433e+00 0.0000000000000000e+00  6.9823524126524550e+00 7.9797366373516754e+00 0.0000000000000000e+00  7.9174436290481749e+00 8.3959193324513670e+00 0.0000000000000000e+00  4.7983097280738196e+00 2.7110961156008537e+00 0.0000000000000000e+00  1.4375895859361734e+01 1.6089019312181165e+01 0.0000000000000000e+00  1.3325781749087458e+01 1.3507489588598059e+01 0.0000000000000000e+00  1.3158963324844153e+01 1.2159065933755441e+01 0.0000000000000000e+00  1.3628743648531069e+01 1.1808748766830135e+01 0.0000000000000000e+00  1.4599387597378662e+01 1.2001880456494941e+01 0.0000000000000000e+00  1.5900389230168589e+01 1.2604549726553589e+01 0.0000000000000000e+00  1.7438044474946292e+01 1.3416697211483124e+01 0.0000000000000000e+00  1.9125936558598092e+01 1.4348040602062699e+01 0.0000000000000000e+00  2.0880585017506892e+01 1.4969362100894841e+01 0.0000000000000000e+00  2.2629390845359517e+01 1.5786453279552902e+01 0.0000000000000000e+00  2.4301267272372900e+01 1.5546939532023643e+01 0.0000000000000000e+00  2.5821376592692459e+01 1.5560984473068077e+01 0.0000000000000000e+00  2.7122272341192289e+01 1.3705254569805939e+01 0.0000000000000000e+00  2.8164090896774024e+01 1.1996950983491567e+01 0.0000000000000000e+00  2.8887606174609235e+01 7.9531799434900829e+00 0.0000000000000000e+00  2.9316850192826795e+01 2.9168710754908829e+00 0.0000000000000000e+00  2.9391662372542612e+01 7.6339727336579926e-04 0.0000000000000000e+00  2.9281464452259161e+01 1.8915260266443679e+00 0.0000000000000000e+00  2.9391654572606765e+01 -6.6699994866001452e-04 0.0000000000000000e+00  2.8785567373454438e+01 -6.6928909491056281e+00 0.0000000000000000e+00  2.8260994696410961e+01 -1