<?xml version="1.0"?>
<VTKFile type="UnstructuredGrid"  version="0.1"  >
<UnstructuredGrid>
<Piece  NumberOfPoints="1933" NumberOfCells="3640">
<Points>
<DataArray  type="Float64"  NumberOfComponents="3"  format="ascii">0.475282571239002 0.001706674831254867 0  5.475282576141211 0.001640945524780943 0  5.475381224633549 7.501640990576313 0  0.47538119431006 7.501706673961882 0  10.47528256902691 0.001575159476198243 0  10.47538128924551 7.501575224627667 0  15.47528258010097 0.001509255327217135 0  15.4753814105751 7.50150932926188 0  20.4752826506544 0.001443203422870615 0  20.4753816126202 7.501443281198602 0  25.47528282438985 0.00137699478874908 0  25.4753819213155 7.501377074548095 0  30.47528314435107 0.001310634202666239 0  30.47538236409033 7.50131071565273 0  35.47528365239873 0.001244135829699951 0  35.47538296955372 7.501244219502067 0  40.47528438983679 0.001177520602989338 0  40.47538376747747 7.501177607495023 0  45.47528539854473 0.001110814834423759 0  45.47538478904218 7.50111090624763 0  50.47528672233043 0.001044049725671192 0  50.47538606727186 7.501044147210625 0  55.47528840839186 0.000977261581615541 0  55.47538763758955 7.500977366944538 0  60.47529050886299 0.0009104926261200607 0  60.4753895384429 7.500910607975618 0  65.47529308246307 0.0008437923977258048 0  65.47539181195732 7.500843920222978 0  70.47529619628774 0.0007772197717879842 0  70.47539450457826 7.500777363050422 0  75.4752999277989 0.0007108457262810851 0  75.47539766765456 7.500711008063536 0  80.4753043670719 0.0006447570527663093 0  80.47540135789379 7.500644942853285 0  85.47530961936704 0.00057906132678742 0  85.47540563757991 7.500579275993718 0  90.47531580807691 0.000513893615066083 0  90.47541057437783 7.500514143750441 0  95.47532307807798 0.0004494256449339298 0  95.47541624044462 7.500449719172861 0  100.4753315994208 0.0003858785516441563 0  100.4754227104085 7.500386224561441 0  105.4753415710943 0.000323540948294245 0  105.475430057543 7.500323948771062 0  110.4753532241343 0.0002627950975862183 0  110.4754383471473 7.500263271492785 0  115.475366822338 0.0002041556931600941 0  115.4754476257911 7.500204697612577 0  120.4753826566645 0.0001483286834505108 0  120.4754579048572 7.500148905983664 0  125.4754010247532 9.63025604950369e-05 0  125.475469137322 7.500096818289163 0  130.4754221770806 4.949301193418434e-05 0  130.4754811895634 7.500049694406677 0  135.4754461900644 9.975592163037747e-06 0  135.4754938194985 7.500009259047226 0  140.4754726800288 -1.914132304904201e-05 0  140.4755066999673 7.499977858071567 0  145.4755001647184 -3.316093801417327e-05 0  145.4755196042554 7.499958641006329 0  150.4755245977253 -2.528745012744718e-05 0  150.475533102488 7.499955885034926 0  160.4755282581476 1.347521027962687e-18 0  165.4754290357658 -0.0001201048504120126 0  165.4755099761721 7.499863999467476 0  160.475541656894 7.499961314821785 0  170.4753682279212 -0.0002309978334040854 0  170.4754777732242 7.499760933365152 0  175.4753292253793 -0.0003351038200757931 0  175.4754501656318 7.499660330317803 0  180.4753033318796 -0.0004334335215824018 0  180.4754278601976 7.499563832139855 0  185.4752856749075 -0.0005269073904311313 0  185.4754103003004 7.499471391603017 0  190.4752733998397 -0.0006163753931898188 0  190.4753966499312 7.499382531760888 0  195.4752647687326 -0.0007025605687591936 0  195.4753861117437 7.499296716175786 0  200.4752586827536 -0.0007860487526250395 0  200.4753780154257 7.499213459565325 0  205.4752544204764 -0.0008673050028874985 0  205.4753718251823 7.499132353009623 0  210.4752514907432 -0.0009466972187459652 0  210.475367121615 7.499053060657379 0  215.4752495478174 -0.001024518207760784 0  215.4753635786473 7.498975308362495 0  220.4752483410853 -0.001101003601331846 0  220.4753609426119 7.498898871592053 0  225.4752476843186 -0.00117634555453587 0  225.4753590153015 7.49882356494776 0  230.4752474362753 -0.001250702963221286 0  230.4753576408867 7.498749233753731 0  235.4752474880474 -0.001324209033220912 0  235.475356696031 7.498675747512091 0  240.475247754537 -0.001396976912295136 0  240.4753560824792 7.498602994862464 0  245.4752481685447 -0.001469103929334342 0  245.475355721497 7.498530879690974 0  250.4752486765567 -0.001540674839193743 0  250.4753555496855 7.498459318095692 0  255.4752492356839 -0.001611764358924832 0  255.4753555158186 7.498388235982024 0  260.4752498114026 -0.001682439199149873 0  260.4753555784357 7.498317567118314 0  265.4752503758922 -0.001752759735540143 0  265.4753557040155 7.498247251527063 0  270.4752509068222 -0.001822781422125145 0  270.4753558655989 7.498177234122804 0  275.4752513865384 -0.001892556012955043 0  275.4753560417556 7.498107463538362 0  280.4752518016035 -0.0019621326229124 0  280.4753562158434 7.498037891112167 0  285.4752521427278 -0.002031558609901937 0  285.4753563754853 7.497968470048074 0  290.4752524051299 -0.002100880176850063 0  290.4753565122297 7.49789915481674 0  295.4752525894319 -0.0021701424272993 0  295.4753566213263 7.497829900957369 0  300.4752527031577 -0.002239388260910898 0  300.4753567015692 7.497760665577778 0  305.4752527627982 -0.002308654717880609 0  305.4753567552297 7.497691409036492 0  310.4752527959379 -0.002377963517604928 0  310.4753567884274 7.497622098423244 0  5.475479644818225 15.00164111338503 0  0.4754796066040551 15.00170667822486 0  10.47547972414164 15.00157540028224 0  15.47547986711473 15.00150952522928 0  20.47548009132262 15.0014434831325 0  25.47548041286279 15.00137727769622 0  30.47548084792616 15.00131092022734 0  35.47548141342241 15.00124442825934 0  40.47548212719116 15.00117782451132 0  45.47548300805835 15.00111113633869 0  50.47548407584354 15.00104439569529 0  55.47548535134321 15.00097763959193 0  60.47548685627541 15.00091091104797 0  65.47548861314941 15.00084426056221 0  70.4754906450043 15.00077774817023 0  75.47549297494679 15.00071144620538 0  80.47549562539041 15.00064544294169 0  85.47549861687811 15.00057984737383 0  90.47550196633253 15.00051479548789 0  95.47550568455682 15.00045045849778 0  100.4755097727973 15.00038705366373 0  105.4755142182434 15.00032485844781 0  110.4755189885367 15.00026422882361 0  115.4755240258798 15.000205622364 0  120.4755292424612 15.00014962585181 0  125.4755345211542 15.00009698462206 0  130.4755397295834 15.00004862447359 0  135.4755447624629 15.00000564179007 0  140.4755496362269 14.99996920117332 0  145.4755546643199 14.99994018675223 0  150.4755607041679 14.99991817286821 0  165.4755644918566 14.99982138034234 0  160.475571031369 14.99989991429127 0  170.475553258121 14.99973397123328 0  175.4755400235404 14.99964343917929 0  180.475526856838 14.99955310660644 0  185.475514826553 14.99946442960496 0  190.4755043486915 14.99937789578082 0  195.4754954859433 14.99929354602654 0  200.4754881316075 14.99921123511778 0  205.4754821110523 14.9991307546064 0  210.4754772338509 14.99905188783626 0  215.4754733184719 14.99897443248852 0  220.4754702024172 14.998898208061 0  225.475467745014 14.99882305669302 0  230.4754658267453 14.99874884131827 0  235.4754643471542 14.99867544297101 0  240.4754632223188 14.99860275803404 0  245.47546238238 14.99853069573099 0  250.4754617693189 14.99845917594601 0  255.4754613350441 14.99838812736079 0  260.4754610397852 14.99831748586687 0  265.4754608507628 14.99824719320312 0  270.4754607410969 14.99817719577513 0  275.4754606889065 14.99810744362308 0  280.4754606765587 14.99803788951808 0  285.4754606900358 14.99796848818179 0  290.4754607183655 14.99789919563376 0  295.4754607531223 14.9978299686611 0  300.4754607880067 14.99776076432612 0  305.4754608186433 14.99769153913848 0  310.475460842872 14.99762224662667 0  5.475577738710863 22.50164140245166 0  0.4755776988605085 22.50170682361152 0  10.47557781109831 22.50157575936861 0  15.47557793562089 22.50150991378522 0  20.47557812530493 22.50144388174703 0  25.47557838973329 22.50137767980022 0  30.47557873693814 22.50131132676889 0  35.47557917439685 22.50124484447518 0  40.47557970945067 22.50117825805929 0  45.47558034937223 22.50111159626989 0  50.47558110121964 22.50104489192258 0  55.47558197154255 22.50097818263401 0  60.4755829659616 22.50091151190205 0  65.47558408861256 22.50084493059677 0  70.47558534142543 22.50077849893717 0  75.47558672319991 22.50071228905202 0  80.4755882284293 22.50064638824993 0  85.47558984583434 22.50058090315419 0  90.47559155658797 22.50051596488161 0  95.47559333226738 22.50045173544746 0  100.4755951326823 22.5003884155289 0  105.4755969039329 22.50032625355273 0  110.4755985774128 22.50026555566816 0  115.4756000710604 22.50020669529161 0  120.4756012950329 22.50015011914859 0  125.4756021651335 22.50009634335324 0  130.4756026284118 22.50004592683074 0  135.47560270525 22.49999939847245 0  140.4756025477384 22.49995709687553 0  145.4756024975391 22.49991885941018 0  150.4756030819098 22.49988350058435 0  165.475617610357 22.49977465828173 0  160.4756118464539 22.49984258713112 0  170.4756188109637 22.49969853681668 0  175.4756165693464 22.49961763489901 0  180.475612194741 22.49953460576686 0  185.4756067855428 22.49945118123198 0  190.4756011035215 22.49936834446363 0  195.4755956148791 22.49928658389247 0  200.4755905722588 22.49920609399781 0  205.4755860887722 22.49912690668785 0  210.4755821926178 22.4990489700941 0  215.4755788637758 22.49897219344123 0  220.4755760572948 22.49889647156756 0  225.475573717438 22.49882169773104 0  230.4755717859147 22.49874776986449 0  235.4755702064245 22.49867459325984 0  240.4755689269637 22.49860208136225 0  245.4755679008157 22.49853015560293 0  250.4755670867888 22.4984587447746 0  255.4755664490512 22.49838778421668 0  260.4755659567539 22.49831721494763 0  265.4755655835677 22.49824698281075 0  270.475565307189 22.49817703766377 0  275.4755651088436 22.49810733262337 0  280.4755649728024 22.4980378233647 0  285.4755648859016 22.49796846746518 0  290.4755648370694 22.49789922375893 0  295.4755648168709 22.4978300516157 0  300.4755648170647 22.49776090993412 
[...]
<PointData  Vectors="v"> 
<DataArray  type="Float64"  Name="v"  NumberOfComponents="3" format="ascii">4.3375516571528818e+00 3.1248092572685620e+00 0.0000000000000000e+00  4.5365875997730001e+00 2.5967612597304974e+00 0.0000000000000000e+00  3.8388342062366201e+00 2.2983673807442959e+00 0.0000000000000000e+00  3.6801768647791424e+00 2.8862529828151144e+00 0.0000000000000000e+00  4.7213669945751917e+00 2.4422831151667004e+00 0.0000000000000000e+00  4.0375476898458649e+00 2.1653033759009062e+00 0.0000000000000000e+00  4.8002251719755620e+00 2.3415798842322442e+00 0.0000000000000000e+00  4.2218632926143504e+00 2.2237508726470314e+00 0.0000000000000000e+00  4.7782911921904665e+00 1.8241273022247284e+00 0.0000000000000000e+00  4.3000138333776681e+00 1.8574105906230258e+00 0.0000000000000000e+00  4.7936941453318465e+00 1.5231921234067336e+00 0.0000000000000000e+00  4.2772211660499089e+00 1.5004049112797400e+00 0.0000000000000000e+00  4.7314357907163558e+00 9.8663198355125137e-01 0.0000000000000000e+00  4.2920106723819513e+00 1.0803892870104250e+00 0.0000000000000000e+00  4.6080489190273601e+00 4.0173979411832395e-01 0.0000000000000000e+00  4.2291594772694650e+00 5.8676202991109738e-01 0.0000000000000000e+00  4.7787071104748113e+00 2.1623148298633185e-01 0.0000000000000000e+00  4.1054000419315031e+00 -4.0079714381847500e-02 0.0000000000000000e+00  4.7541898500099729e+00 -2.4642950387929316e-01 0.0000000000000000e+00  4.2762710936201813e+00 -2.1016667509772152e-01 0.0000000000000000e+00  7.2540374767251059e+00 3.0219014831962916e+00 0.0000000000000000e+00  4.2524114001458626e+00 -7.2905322824377949e-01 0.0000000000000000e+00  8.4308058592137058e+00 4.2294148140743459e+00 0.0000000000000000e+00  6.7524798456435597e+00 2.4632039159596584e+00 0.0000000000000000e+00  8.7657788025339762e+00 4.0830126154428150e+00 0.0000000000000000e+00  7.9304991831552432e+00 3.5777735765805607e+00 0.0000000000000000e+00  8.7581305455310456e+00 3.3636259802289881e+00 0.0000000000000000e+00  8.2684240796497601e+00 3.3711465533605320e+00 0.0000000000000000e+00  8.5498781555267183e+00 2.3585933962261731e+00 0.0000000000000000e+00  8.2649401835444145e+00 2.6654231882261206e+00 0.0000000000000000e+00  8.2649145195974807e+00 1.2722923973471234e+00 0.0000000000000000e+00  8.0629717009378545e+00 1.6934243234865665e+00 0.0000000000000000e+00  7.9013411085366991e+00 1.1939252970900334e-01 0.0000000000000000e+00  7.7855375529220616e+00 6.5631453218604052e-01 0.0000000000000000e+00  7.4477755444497591e+00 -1.0227193861332955e+00 0.0000000000000000e+00  7.4310330301820233e+00 -3.5247899181902320e-01 0.0000000000000000e+00  6.8931322269319955e+00 -2.2329460848955422e+00 0.0000000000000000e+00  6.9893868398164472e+00 -1.4125542885750224e+00 0.0000000000000000e+00  6.2256748647213467e+00 -3.4844019908204173e+00 0.0000000000000000e+00  6.4483170926531619e+00 -2.4979069274444239e+00 0.0000000000000000e+00  5.4464517382417732e+00 -4.7932888297430516e+00 0.0000000000000000e+00  5.7974106748352927e+00 -3.6411381462831334e+00 0.0000000000000000e+00  4.5880867035339321e+00 -6.0807673093268368e+00 0.0000000000000000e+00  5.0377760146700377e+00 -4.8131344532732152e+00 0.0000000000000000e+00  3.6907313347239601e+00 -7.4426651626850182e+00 0.0000000000000000e+00  4.2031790765206072e+00 -6.1190338212447530e+00 0.0000000000000000e+00  2.7984368140685278e+00 -8.5002137840971503e+00 0.0000000000000000e+00  3.3312967154327344e+00 -7.1896034594460865e+00 0.0000000000000000e+00  1.9808093013376278e+00 -9.6259579433593334e+00 0.0000000000000000e+00  2.4726713119875567e+00 -8.4270872401935399e+00 0.0000000000000000e+00  1.2697660479537689e+00 -9.9817617552448379e+00 0.0000000000000000e+00  1.6871528832179057e+00 -8.9533162824552033e+00 0.0000000000000000e+00  7.2421544335283417e-01 -1.0370940384811286e+01 0.0000000000000000e+00  1.0220345569306792e+00 -9.5848485735654165e+00 0.0000000000000000e+00  3.3352759477452087e-01 -9.1906015507014658e+00 0.0000000000000000e+00  5.1476840445041716e-01 -8.6557661193731779e+00 0.0000000000000000e+00  1.2316238670753729e-01 -8.1649275499425968e+00 0.0000000000000000e+00  1.8529508912574907e-01 -7.8845216314077753e+00 0.0000000000000000e+00  2.1990212610225320e-02 -3.9656896543058249e+00 0.0000000000000000e+00  1.8236764361958917e-02 -3.8815878879253289e+00 0.0000000000000000e+00  -2.1573842832274130e-09 4.6924423633483359e-11 0.0000000000000000e+00  7.4421651802917285e-04 7.1247302508598638e-04 0.0000000000000000e+00  -2.5594997963087312e-12 -2.1799152400784229e-19 0.0000000000000000e+00  -1.4479816814503794e+00 7.1227299006963589e+00 0.0000000000000000e+00  2.7391455348002813e-02 9.3142293765475053e+00 0.0000000000000000e+00  7.4194473342459267e-04 -7.5353222006489481e-04 0.0000000000000000e+00  2.0022466556511870e-01 1.1844231342003654e+01 0.0000000000000000e+00  -1.4496353093987537e+00 9.4164191057751392e+00 0.0000000000000000e+00  2.0650091412492277e-01 1.1108091382068498e+01 0.0000000000000000e+00  1.6308966611059328e-01 1.1116289536225578e+01 0.0000000000000000e+00  8.1071354774897708e-01 1.1021125553783699e+01 0.0000000000000000e+00  1.3836446082882742e-01 1.0141355249313335e+01 0.0000000000000000e+00  9.9551812430914033e-01 8.8585321514775828e+00 0.0000000000000000e+00  7.1673299828162118e-01 8.6007187458543921e+00 0.0000000000000000e+00  1.2567017376859522e+00 7.2079938512114161e+00 0.0000000000000000e+00  8.7870361504998651e-01 6.8356925259128323e+00 0.0000000000000000e+00  1.4050188810396165e+00 5.3760033170945762e+00 0.0000000000000000e+00  1.1183737032274219e+00 5.1689972576908190e+00 0.0000000000000000e+00  1.5676781269159017e+00 4.0160952154357199e+00 0.0000000000000000e+00  1.2485930035794841e+00 3.7877863527462226e+00 0.0000000000000000e+00  1.6354542480208452e+00 2.9243927706711044e+00 0.0000000000000000e+00  1.3948197540238743e+00 2.8357647853579597e+00 0.0000000000000000e+00  1.7544435698209710e+00 2.3251243614895025e+00 0.0000000000000000e+00  1.4475022137642359e+00 2.1586702396786994e+00 0.0000000000000000e+00  1.9017110751228965e+00 1.9564767556950715e+00 0.0000000000000000e+00  1.5532422342695895e+00 1.7466055070365418e+00 0.0000000000000000e+00  2.0277811347000299e+00 1.7876641023389721e+00 0.0000000000000000e+00  1.6885340569731113e+00 1.6085054506434242e+00 0.0000000000000000e+00  2.1238841564748299e+00 1.7162376302293603e+00 0.0000000000000000e+00  1.8035091064913691e+00 1.5809673523245387e+00 0.0000000000000000e+00  2.1926442697958772e+00 1.6684852306953828e+00 0.0000000000000000e+00  1.8897604337873450e+00 1.5736986582830190e+00 0.0000000000000000e+00  2.2134002264107373e+00 1.6244865076452566e+00 0.0000000000000000e+00  1.9495484244855061e+00 1.6008986151749047e+00 0.0000000000000000e+00  2.2106314737840913e+00 1.5873243669323207e+00 0.0000000000000000e+00  1.9619545244642431e+00 1.5984130696440930e+00 0.0000000000000000e+00  2.1941281478255892e+00 1.5324674646752499e+00 0.0000000000000000e+00  1.9515930075187049e+00 1.5637873365626402e+00 0.0000000000000000e+00  2.1562004856245847e+00 1.4634679137244730e+00 0.0000000000000000e+00  1.9280438219939462e+00 1.5264896492570463e+00 0.0000000000000000e+00  2.1092311745470389e+00 1.3947106867588521e+00 0.0000000000000000e+00  1.8834127985071538e+00 1.4709328696788571e+00 0.0000000000000000e+00  2.0637153607095540e+00 1.2956647745305809e+00 0.0000000000000000e+00  1.8301672788397900e+00 1.3695443521973056e+00 0.0000000000000000e+00  2.0042008981349131e+00 1.2114663349123180e+00 0.0000000000000000e+00  1.7786237385760568e+00 1.3060988642818110e+00 0.0000000000000000e+00  1.9426692022437135e+00 1.0678310205415458e+00 0.0000000000000000e+00  1.7132829888270953e+00 1.1653834551443341e+00 0.0000000000000000e+00  1.8720706171161920e+00 9.7777382194802853e-01 0.0000000000000000e+00  1.6460211304033070e+00 1.0887832251716070e+00 0.0000000000000000e+00  1.7904729086198563e+00 7.2703137551988684e-01 0.0000000000000000e+00  1.5699245675680182e+00 8.5461121133398199e-01 0.0000000000000000e+00  1.6839267528415802e+00 6.7637072368399431e-01 0.0000000000000000e+00  1.4826295783123362e+00 8.4108833869690114e-01 0.0000000000000000e+00  1.5522507081496379e+00 1.9059282517117596e-01 0.0000000000000000e+00  1.3708188844028777e+00 3.9342960007652811e-01 0.0000000000000000e+00  1.3787697957002423e+00 2.9622829367867809e-01 0.0000000000000000e+00  1.2332279507247352e+00 5.6106303305444793e-01 0.0000000000000000e+00  1.1019315675548540e+00 -6.3661327031969017e-01 0.0000000000000000e+00  1.0549210376767357e+00 -2.1555329979333956e-01 0.0000000000000000e+00  6.3454877864585679e-01 -7.9343851091995787e-01 0.0000000000000000e+00  7.7127677567111852e-01 -8.8633450291970520e-02 0.0000000000000000e+00  -4.6786910861529291e-01 -2.8935935570043059e-01 0.0000000000000000e+00  3.0118944110243773e-01 1.3721572224076302e+00 0.0000000000000000e+00  3.1244291528469748e+00 2.0611634417180236e+00 0.0000000000000000e+00  2.9393643196747146e+00 2.6069846367710325e+00 0.0000000000000000e+00  3.2816110338400515e+00 1.8686201086052092e+00 0.0000000000000000e+00  3.4777639310169013e+00 1.9490012242609698e+00 0.0000000000000000e+00  3.6588086332879359e+00 1.7423054847548018e+00 0.0000000000000000e+00  3.7331052943454983e+00 1.5372605192531794e+00 0.0000000000000000e+00  3.7058210607863651e+00 1.0607995699968531e+00 0.0000000000000000e+00  3.7159810669892193e+00 6.8354271828351221e-01 0.0000000000000000e+00  3.6487626292332429e+00 1.4828764749897749e-01 0.0000000000000000e+00  3.5208513661313261e+00 -4.6475686144110268e-01 0.0000000000000000e+00  3.6891752825079278e+00 -6.9282848793629481e-01 0.0000000000000000e+00  3.6633098628568006e+00 -1.2831047800163309e+00 0.0000000000000000e+00  6.1560002896365500e+00 1.8154534708887071e+00 0.0000000000000000e+00  7.3275185756129213e+00 2.8649551524395895e+00 0.0000000000000000e+00  7.6642214527919768e+00 2.6711007310489445e+00 0.0000000000000000e+00  7.6614583138518197e+00 1.9937512804923680e+00 0.0000000000000000e+00  7.4636126386668655e+00 1.0689618961954712e+00 0.0000000000000000e+00  7.1924057303235678e+00 1.7520786332749735e-01 0.0000000000000000e+00  6.8458869750941966e+00 -7.5678290514769464e-01 0.0000000000000000e+00  6.4155272492835635e+00 -1.6948545749042705e+00 0.0000000000000000e+00  5.8891724341340028e+00 -2.6740136880849614e+00 0.0000000000000000e+00  5.2558964766987426e+00 -3.6878455027147869e+00 0.0000000000000000e+00  4.5199802690782978e+00 -4.8829502861904919e+00 0.0000000000000000e+00  3.7141457371706394e+00 -5.9024787689227578e+00 0.0000000000000000e+00  2.8783008890429200e+00 -7.1624866180703934e+00 0.0000000000000000e+00  2.0627104777592757e+00 -7.8086319224192398e+00 0.0000000000000000e+00  1.3325001096313305e+00 -8.6162000983823912e+00 0.0000000000000000e+00  7.2660530120187783e-01 -7.9493745414127321e+00 0.0000000000000000e+00  3.0237064485743631e-01 -7.4204688322587211e+00 0.0000000000000000e+00  4.8348217991587027e-02 -3.7191710860792302e+00 0.0000000000000000e+00  2.5523843666753103e-03 1.3595147483954938e-03 0.0000000000000000e+00  5.5283336821360815e-02 9.1568079768220230e+00 0.0000000000000000e+00  2.5481061809952024e-03 -1.5506789621338233e-03 0.0000000000000000e+00  2.0826995994837158e-01 1.1642745205894355e+01 0.0000000000000000e+00  -1.3181387399523175e+00 8.7380303104403669e+00 0.0000000000000000e+00  2.3573490461659596e-01 1.0205124613638837e+01 0.0000000000000000e+00  1.6925047883377675e-01 7.7569343200870904e+00 0.0000000000000000e+00  7.1066606429859591e-01 6.6082209303892823e+00 0.0000000000000000e+00  8.4537188792069329e-01 4.8275043787848118e+00 0.0000000000000000e+00  1.0587338629079357e+00 3.6048176612583220e+00 0.0000000000000000e+00  1.1682639222873283e+00 2.6276459202867670e+00 0.0000000000000000e+00  1.2962137835600229e+00 2.0901193683152330e+00 0.0000000000000000e+00  1.3326288562247322e+00 1.5968484549831861e+00 0.0000000000000000e+00  1.4240986241453608e+00 1.4130104259876288e+00 0.0000000000000000e+00  1.5470361009835640e+00 1.4158402032679507e+00 0.0000000000000000e+00  1.6506540167834971e+00 1.4504003792760742e+00 0.0000000000000000e+00  1.7271294560022057e+00 1.5163765570804359e+00 0.0000000000000000e+00  1.7784922625080737e+00 1.5846673627562071e+00 0.0000000000000000e+00  1.7833313499239887e+00 1.5834557451642675e+00 0.0000000000000000e+00  1.7663752864539988e+00 1.5653500915485861e+00 0.0000000000000000e+00  1.7370503412075990e+00 1.5412718277190682e+00 0.0000000000000000e+00  1.6870824010786789e+00 1.4524377435128348e+00 0.0000000000000000e+00  1.6289646933193480e+00 1.3861499739538423e+00 0.0000000000000000e+00  1.5728981212015736e+00 1.2661619034804217e+00 0.0000000000000000e+00  1.5031235632988635e+00 1.1922566452125294e+00 0.0000000000000000e+00  1.4315730815101062e+00 9.7139048584089327e-01 0.0000000000000000e+00  1.3511649250566411e+00 9.7454388764379096e-01 0.0000000000000000e+00  1.2595884505550210e+00 5.6399921615121240e-01 0.0000000000000000e+00  1.1432735438825046e+00 7.6972207061866915e-01 0.0000000000000000e+00  1.0014623725229932e+00 5.5244326167021206e-02 0.0000000000000000e+00  8.1838125073808776e-01 3.3853672000893437e-01 0.0000000000000000e+00  5.3068950118948177e-01 2.0809847173114115e+00 0.0000000000000000e+00  2.2563718270281727e+00 1.7853090704060923e+00 0.0000000000000000e+00  2.0837891137633222e+00 2.3455810363590071e+00 0.0000000000000000e+00  2.4384816560926330e+00 1.6361199815526157e+00 0.0000000000000000e+00  2.5902022492464325e+00 1.6589339112141042e+00 0.0000000000000000e+00  2.7797381384560635e+00 1.4762703158097943e+00 0.0000000000000000e+00  2.9521778233899507e+00 1.4323925577611059e+00 0.0000000000000000e+00  3.0162875520171277e+00 1.1089206151577711e+00 0.0000000000000000e+00  2.9780145040867514e+00 6.7622292876318313e-01 0.0000000000000000e+00  2.9763973173168514e+00 2.5683261223145232e-01 0.0000000000000000e+00  2.8977167438303515e+00 -2.6631958988871784e-01 0.0000000000000000e+00  2.7604896936447698e+00 -9.4059178646812402e-01 0.0000000000000000e+00  2.9222815691350235e+00 -1.2397071715484136e+00 0.0000000000000000e+00  2.8857953364799358e+00 -1.9107056259290611e+00 0.0000000000000000e+00  5.3567592132389388e+00 1.1222554560336151e+00 0.0000000000000000e+00  6.5088459539196544e+00 2.1715723009538652e+00 0.0000000000000000e+00  6.8362763388684247e+00 1.9999120996055799e+00 0.0000000000000000e+00  6.8299837841833204e+00 1.3645150480806467e+00 0.0000000000000000e+00  6.6324628445753984e+00 5.7805219599760393e-01 0.0000000000000000e+00  6.3644353924874979e+00 -2.4353707551532108e-01 0.0000000000000000e+00  6.0249447309190653e+00 -1.0582563693514968e+00 0.0000000000000000e+00  5.6048774734138957e+00 -1.8972601379414789e+00 0.0000000000000000e+00  5.0932133860245381e+00 -2.7559309453576439e+00 0.0000000000000000e+00  4.4822986939526599e+00 -3.8011095753060551e+00 0.0000000000000000e+00  3.7755348389078991e+00 -4.7263509346755725e+00 0.0000000000000000e+00  3.0114417968706872e+00 -5.9461012048883504e+00 0.0000000000000000e+00  2.2280504779340671e+00 -6.6404196786866709e+00 0.0000000000000000e+00  1.4859969554324022e+00 -7.5778499445676815e+00 0.0000000000000000e+00  8.4092929873645528e-01 -7.1344677313289528e+00 0.0000000000000000e+00  3.5764832690686810e-01 -6.8555043484457370e+00 0.0000000000000000e+00  5.5453542007125711e-02 -3.5013045437298560e+00 0.0000000000000000e+00  5.3722293574843165e-03 1.9436754876702047e-03 0.0000000000000000e+00  6.4655738021608677e-02 8.9112534557935081e+00 0.0000000000000000e+00  5.3678434179578235e-03 -2.2569584933826428e-03 0.0000000000000000e+00  3.4736097766144702e-01 1.1368436550177591e+01 0.0000000000000000e+00  5.0454385865248008e-01 1.1091375549214094e+01 0.0000000000000000e+00  -1.1099126221423516e+00 7.9487904478510147e+00 0.0000000000000000e+00  3.5013060658418727e-01 7.9051871452609461e+00 0.0000000000000000e+00  2.1816513906827648e-01 5.8410327982821411e+00 0.0000000000000000e+00  7.0703159544270044e-01 4.6559252521476839e+00 0.0000000000000000e+00  8.0107959964003495e-01 3.3135816211015876e+00 0.0000000000000000e+00  9.7921777030093227e-01 2.4862867822729680e+00 0.0000000000000000e+00  1.0604859103370343e+00 1.9183304394848333e+00 0.0000000000000000e+00  1.1632201137333957e+00 1.5594078451051685e+00 0.0000000000000000e+00  1.1780634328710085e+00 1.2914169580778485e+00 0.0000000000000000e+00  1.2505473220220069e+00 1.2448930949473413e+00 0.0000000000000000e+00  1.3564817541107757e+00 1.3070234903519604e+00 0.0000000000000000e+00  1.4451740868639622e+00 1.4121693976316014e+00 0.0000000000000000e+00  1.5089790131914198e+00 1.5165309830842342e+00 0.0000000000000000e+00  1.5494476203146186e+00 1.5838327157900789e+00 0.0000000000000000e+00  1.5450890167487890e+00 1.5974417494715507e+00 0.0000000000000000e+00  1.5203763064715001e+00 1.5909397957954670e+00 0.0000000000000000e+00  1.4843303509467418e+00 1.5324603514092452e+00 0.0000000000000000e+00  1.4284329602541048e+00 1.4779518809302772e+00 0.0000000000000000e+00  1.3649944914365675e+00 1.3545892549165208e+00 0.0000000000000000e+00  1.3038483716133047e+00 1.3010483487336155e+00 0.0000000000000000e+00  1.2291692257823741e+00 1.0829668688123142e+00 0.0000000000000000e+00  1.1526041574891133e+00 1.0992276146253699e+00 0.0000000000000000e+00  1.0672076277263727e+00 7.0592845057804465e-01 0.0000000000000000e+00  9.7017113715484238e-01 9.4821361993965614e-01 0.0000000000000000e+00  8.4880260262941698e-01 2.7318379306214330e-01 0.0000000000000000e+00  7.0082565070940939e-01 6.1649986392187606e-01 0.0000000000000000e+00  5.1382612353247570e-01 2.5182492281279352e+00 0.0000000000000000e+00  1.6199977065271356e+00 1.5288403986239960e+00 0.0000000000000000e+00  1.4507057991866950e+00 2.0881792155889962e+00 0.0000000000000000e+00  1.7886715330290508e+00 1.3674894350764675e+00 0.0000000000000000e+00  1.9633479945892909e+00 1.4377866881050230e+00 0.0000000000000000e+00  2.1054318320166416e+00 1.2000905942846725e+00 0.0000000000000000e+00  2.2826214301390246e+00 1.1836264936329501e+00 0.0000000000000000e+00  2.4403261719681306e+00 1.0245848334631644e+00 0.0000000000000000e+00  2.4872302582975832e+00 7.4658275939509666e-01 0.0000000000000000e+00  2.4300804772143998e+00 2.7278699797774525e-01 0.0000000000000000e+00  2.4093360030757842e+00 -1.3516236622232017e-01 0.0000000000000000e+00  2.3131838056580811e+00 -7.2451491923216338e-01 0.0000000000000000e+00  2.1616585107566828e+00 -1.4736639264563571e+00 0.0000000000000000e+00  2.3106016872477779e+00 -1.8423557975196319e+00 0.0000000000000000e+00  2.2502306705871304e+00 -2.5573485601757562e+00 0.0000000000000000e+00  4.6805060360161512e+00 4.7062602200892217e-01 0.0000000000000000e+00  5.7980987873787768e+00 1.5236162562043407e+00 0.0000000000000000e+00  6.1056284798209361e+00 1.3837589649272137e+00 0.0000000000000000e+00  6.0860644759944416e+00 8.7984541614173495e-01 0.0000000000000000e+00  5.8806880953623262e+00 1.6314254056805225e-01 0.0000000000000000e+00  5.6063341809011291e+00 -5.4710203940689539e-01 0.0000000000000000e+00  5.2629376434262269e+00 -1.2667180454828042e+00 0.0000000000000000e+00  4.8422487477614515e+00 -1.9913778311965744e+00 0.0000000000000000e+00  4.3347721999103950e+00 -2.8919543035286117e+00 0.0000000000000000e+00  3.7343997853187969e+00 -3.6828117967312619e+00 0.0000000000000000e+00  3.0516452804280121e+00 -4.8218474257060864e+00 0.0000000000000000e+00  2.3230275488134162e+00 -5.5087028626064960e+00 0.0000000000000000e+00  1.6013203562526828e+00 -6.5118346067089270e+00 0.0000000000000000e+00  9.3741277161560166e-01 -6.2588822499702408e+00 0.0000000000000000e+00  4.1989570510840862e-01 -6.2046774687473514e+00 0.0000000000000000e+00  7.3167350456364313e-02 -3.2348955836008124e+00 0.0000000000000000e+00  9.0928414471636056e-03 2.4625872637806449e-03 0.0000000000000000e+00  7.9499380907360487e-02 8.6291910042540554e+00 0.0000000000000000e+00  9.0883271849417427e-03 -2.8796186147198185e-03 0.0000000000000000e+00  3.9966573644675729e-01 1.0839174584205765e+01 0.0000000000000000e+00  7.6987743714040990e-01 1.0839643070937738e+01 0.0000000000000000