<?xml version="1.0"?>
<VTKFile type="UnstructuredGrid"  version="0.1"  >
<UnstructuredGrid>
<Piece  NumberOfPoints="1933" NumberOfCells="3640">
<Points>
<DataArray  type="Float64"  NumberOfComponents="3"  format="ascii">0.2940298538293545 -0.001392042052311677 0  5.294029886076847 -0.001358367617594331 0  5.293979368232913 7.498641710619655 0  0.2939793229572836 7.498608015109537 0  10.29402993987945 -0.001324753335476817 0  10.29397944368694 7.498675328673127 0  15.29403004731485 -0.001291198474835456 0  15.29397956174387 7.498708881898388 0  20.29403023635153 -0.001257680878859072 0  20.29397973276186 7.498742396588007 0  25.29403052869457 -0.001224167150239909 0  25.29397996507057 7.498775907568771 0  30.29403094019446 -0.001190617505205701 0  30.29398026459606 7.49880945504882 0  35.29403148186282 -0.001156987974485266 0  35.29398063457818 7.498843083045375 0  40.29403216083698 -0.001123231163197839 0  40.29398107537988 7.498876838867516 0  45.29403298109586 -0.001089296168005727 0  45.29398158429839 7.498910773290985 0  50.29403394388878 -0.001055127950744666 0  50.29398215529206 7.498944941214078 0  55.2940350478816 -0.001020666305663304 0  55.29398277855007 7.498979402692078 0  60.29403628902369 -0.000985844460371298 0  60.29398343983944 7.499014224322184 0  65.29403766012062 -0.0009505872838396791 0  65.29398411955191 7.49904948100724 0  70.29403915006044 -0.0009148090185996867 0  70.29398479135656 7.499085258175082 0  75.29404074259942 -0.0008784103953137907 0  75.29398542032567 7.499121654580093 0  80.29404241453526 -0.0008412749142825622 0  80.29398596034763 7.499158785872575 0  85.29404413299038 -0.0008032639769094552 0  85.29398635056846 7.499196789194968 0  90.2940458513302 -0.000764210403209982 0  90.2939865104981 7.499235829157263 0  95.29404750293202 -0.0007239096548922719 0  95.29398633329055 7.49927610565577 0  100.2940489914425 -0.0006821077645216265 0  100.293985676565 7.499317864113493 0  105.2940501751586 -0.0006384845107152501 0  105.2939843500292 7.499361408783019 0  110.2940508413135 -0.0005926297466293865 0  110.2939820992436 7.499407119612576 0  115.2940506626485 -0.0005440100168082039 0  115.2939785854969 7.499455472471738 0  120.29404912232 -0.0004919219460653123 0  120.2939733637868 7.499507060416581 0  125.2940453813466 -0.0004354293192078322 0  125.2939658662453 7.499562608273957 0  130.2940380405837 -0.0003732853663830125 0  130.2939554111791 7.499622960166464 0  135.2940247074276 -0.000303860130875045 0  135.2939412870819 7.499688991915208 0  140.2940011981417 -0.0002251567856643442 0  140.2939230253997 7.499761345470649 0  145.2939600504398 -0.0001352292421292352 0  145.2939011173002 7.499839800064816 0  150.2938876732677 -3.421662743509982e-05 0  150.2938787562922 7.499922123814514 0  160.2938926261461 1.106220044688785e-18 0  165.2938700420003 -5.91448701977471e-05 0  165.2938891509916 7.499927870698765 0  160.2938911617588 7.499969361752767 0  170.2938683124834 -9.476046140933899e-05 0  170.2938867989458 7.499898962292916 0  175.2938756761087 -0.0001141459607578649 0  175.2938866358428 7.499882622347311 0  180.2938866430528 -0.000121738255986337 0  180.2938886340401 7.499876553011712 0  185.2938986029021 -0.0001206097997056602 0  185.2938921887742 7.499878481019659 0  190.2939103332584 -0.0001129571391828282 0  190.293896687284 7.499886565317698 0  195.2939212933234 -0.0001003663438865096 0  195.2939016504512 7.499899393827811 0  200.2939312774992 -8.399295822486387e-05 0  200.293906741583 7.499915900324051 0  205.2939402428327 -6.46885856412308e-05 0  205.293911739145 7.49993528028616 0  210.2939482224996 -4.308939391905656e-05 0  210.293916505467 7.499956922843495 0  215.2939552824273 -1.967758550625097e-05 0  215.2939209607178 7.499980359627129 0  220.2939614997199 5.175907071754951e-06 0  220.293925063626 7.500005227411709 0  225.2939669521565 3.118158039409674e-05 0  225.2939287979594 7.500031241077381 0  230.2939717133401 5.811028030334585e-05 0  230.2939321633472 7.50005817402195 0  235.2939758507278 8.577811106483745e-05 0  235.2939351691776 7.500085843875711 0  240.2939794251237 0.0001140354735482634 0  240.2939378306151 7.500114101982315 0  245.2939824909157 0.0001427589859752546 0  245.29394016605 7.50014282556816 0  250.2939850966758 0.0001718454494407298 0  250.293942195516 7.50017191185144 0  255.2939872859522 0.0002012072933121249 0  255.2939439397634 7.500201273573576 0  260.2939890981531 0.000230769120814804 0  260.293945419769 7.500230835598447 0  265.2939905695063 0.000260465105384855 0  265.2939466565476 7.500260532342847 0  270.2939917340717 0.0002902370864499475 0  270.2939476711693 7.500290305891032 0  275.2939926248369 0.0003200332962742523 0  275.2939484848935 7.500320104721203 0  280.2939932748876 0.0003498077322510297 0  280.2939491193761 7.50034988304169 0  285.2939937186583 0.0003795202870800871 0  285.2939495968708 7.500379600809433 0  290.2939939931751 0.0004091378818593004 0  290.2939499403648 7.500409224589045 0  295.2939941391032 0.0004386370377530077 0  295.2939501735923 7.500438729509614 0  300.2939942010795 0.0004680085899093913 0  300.2939503209161 7.500468102681997 0  305.293994226182 0.0004972655483642457 0  305.2939504072982 7.500497348534919 0  310.2939942579777 0.0005264550237711661 0  310.2939504591955 7.50052649668257 0  5.2939287041638 14.99864187591313 0  0.2939286590827492 14.99860815351796 0  10.29392876653305 14.99867548691072 0  15.29392885386504 14.998709022417 0  20.29392896913631 14.99874251800226 0  25.29392911294114 14.99877601165831 0  30.29392928407502 14.99880954419877 0  35.29392947943626 14.99884315922759 0  40.2939296936772 14.99887690325978 0  45.29392991875007 14.99891082612994 0  50.29393014337306 14.99894498169675 0  55.2939303523949 14.9989794288324 0  60.29393052601701 14.99901423270011 0  65.29393063882679 14.99904946634681 0  70.29393065858872 14.99908521266191 0  75.29393054474484 14.99912156677696 0  80.29393024657737 14.99915863900025 0  85.29392970101866 14.99919655838993 0  90.29392883014867 14.99923547705485 0  95.29392753856169 14.99927557520109 0  100.2939257110449 14.99931706675092 0  105.2939232115352 14.99936020492108 0  110.2939198852414 14.99940528621236 0  115.293915567456 14.99945264937478 0  120.2939101052462 14.99950266224484 0  125.2939034022671 14.99955568249361 0  130.2938955022268 14.99961196606158 0  135.2938867310901 14.99967147638949 0  140.2938779146039 14.99973351543568 0  145.2938706541094 14.99979605068136 0  150.2938675169822 14.99985452242692 0  165.293884779039 14.99989249994728 0  160.2938825253997 14.99990819705319 0  170.2938837963902 14.99987940255729 0  175.2938819490259 14.99987194878944 0  180.2938804806714 14.99987077870094 0  185.293879827363 14.99987540422021 0  190.2938800185311 14.99988497873498 0  195.2938809175504 14.99989863325283 0  200.2938823425688 14.9999155977733 0  205.2938841200713 14.99993523018985 0  210.2938861044288 14.99995700941269 0  215.2938881816209 14.99998051721126 0  220.2938902663996 15.00000541869065 0  225.2938922973432 15.00003144494829 0  230.2938942317802 15.00005837879743 0  235.2938960413559 15.0000860434216 0  240.2938977084369 15.00011429350275 0  245.2938992233204 15.00014300832687 0  250.2939005821297 15.00017208643453 0  255.2939017852554 15.00020144146952 0  260.2939028362186 15.00023099896422 0  265.2939037408485 15.00026069387187 0  270.2939045066886 15.00029046871705 0  275.2939051425659 15.0003202722862 0  280.2939056582642 15.00035005882168 0  285.2939060642951 15.00037978771669 0  290.2939063717453 15.00040942372322 0  295.2939065923191 15.00043893766519 0  300.2939067387513 15.00046830754921 0  305.2939068260483 15.00049751969387 0  310.2939068743532 15.00052656886369 0  5.29387796882298 22.4986421726597 0  0.2938779268253958 22.49860846577589 0  10.29387801439977 22.4986757483003 0  15.29387806563664 22.49870924145366 0  20.29387812142722 22.49874269478874 0  25.29387817846196 22.49877614910322 0  30.29387823175211 22.49880964551921 0  35.29387827469932 22.4988432266373 0  40.2938782988852 22.49887693728868 0  45.29387829370797 22.49891082520979 0  50.29387824593707 22.49894494178858 0  55.29387813921231 22.49897934294737 0  60.29387795350076 22.49901409019348 0  65.29387766452119 22.49904925185576 0  70.29387724315694 22.49908490451692 0  75.29387665491002 22.49912113463987 0  80.29387585949068 22.49915804035892 0  85.29387481072344 22.49919573334843 0  90.29387345707521 22.49923434057137 0  95.29387174331444 22.4992740055046 0  100.2938696141126 22.49931488806785 0  105.2938670208413 22.49935716184507 0  110.2938639334055 22.49940100610277 0  115.2938603596523 22.49944658834956 0  120.2938563754712 22.49949403045413 0  125.2938521686143 22.49954334745804 0  130.2938480971508 22.49959434353012 0  135.2938447567151 22.4996464461237 0  140.293843034718 22.49969846427763 0  145.293844098211 22.49974828989767 0  150.2938492125288 22.49979267880152 0  165.2938653189053 22.4998521427416 0  160.293862102497 22.49985020756261 0  170.2938655809189 22.49985284200759 0  175.2938641020026 22.49985510216618 0  180.2938619211573 22.4998603616248 0  185.2938597175146 22.49986910533133 0  190.2938578499555 22.49988127128647 0  195.2938564599892 22.4998965397086 0  200.2938555625121 22.49991450170982 0  205.2938551082896 22.49993474556489 0  210.2938550219728 22.49995689508324 0  215.2938552231738 22.49998062267951 0  220.2938556370083 22.50000565016565 0  225.293856198543 22.50003174424177 0  230.2938568539407 22.50005871021212 0  235.2938575599622 22.50008638558802 0  240.2938582827591 22.5001146342794 0  245.2938589964546 22.50014334160411 0  250.293859681758 22.50017241012655 0  255.2938603247256 22.50020175625013 0  260.293860915689 22.50023130746325 0  265.2938614483632 22.50026100014055 0  270.2938619191017 22.5002907778163 0  275.2938623262947 22.50032058986006 0  280.2938626698885 22.50035039049363 0  285.2938629510493 22.50038013808199 0  290.2938631720106 22.50040979459666 0  295.2938633362163 22.500439325068 0  300.29386
[...]
<PointData  Vectors="v"> 
<DataArray  type="Float64"  Name="v"  NumberOfComponents="3" format="ascii">1.0987847387791567e+00 7.6634316950288053e+00 0.0000000000000000e+00  1.6561943617528181e+00 7.1775938505811094e+00 0.0000000000000000e+00  1.5258275733287019e+00 6.3417524376188901e+00 0.0000000000000000e+00  1.0957979981412318e+00 7.0186722659491023e+00 0.0000000000000000e+00  2.3503707598878512e+00 7.7579543452783870e+00 0.0000000000000000e+00  2.0828064997687128e+00 6.7176611902902126e+00 0.0000000000000000e+00  2.9718876216423462e+00 8.7793142594897944e+00 0.0000000000000000e+00  2.7757363469931096e+00 7.8485747579323712e+00 0.0000000000000000e+00  3.5157900536960476e+00 9.0922643764278153e+00 0.0000000000000000e+00  3.3952652336024278e+00 8.2787138197409043e+00 0.0000000000000000e+00  4.1973370793908567e+00 9.9661485532271907e+00 0.0000000000000000e+00  3.9363872917888569e+00 8.9468307443055455e+00 0.0000000000000000e+00  4.7367035932057595e+00 1.0320716398818380e+01 0.0000000000000000e+00  4.6142334238685834e+00 9.5152946415945827e+00 0.0000000000000000e+00  4.8156927624678643e+00 1.0057140697248760e+01 0.0000000000000000e+00  5.1490733986379729e+00 9.9430673813696888e+00 0.0000000000000000e+00  5.8998189864018178e+00 1.1153479290288374e+01 0.0000000000000000e+00  5.2227859618789827e+00 9.5323789652167275e+00 0.0000000000000000e+00  2.7949858220848669e+00 5.9906892403543130e+00 0.0000000000000000e+00  6.3006934159027805e+00 1.0653783644668685e+01 0.0000000000000000e+00  1.3914121062614727e+01 2.1871785224873424e+01 0.0000000000000000e+00  3.1889074556288461e+00 5.1990400388029743e+00 0.0000000000000000e+00  1.3594638344995495e+01 2.0098376428602357e+01 0.0000000000000000e+00  1.4300590822841352e+01 2.0584846343667550e+01 0.0000000000000000e+00  1.3672013074809646e+01 1.8779335545764141e+01 0.0000000000000000e+00  1.3972577739870522e+01 1.8671507914716791e+01 0.0000000000000000e+00  1.4203234146634388e+01 1.8112601903331925e+01 0.0000000000000000e+00  1.4040126873636481e+01 1.7325325142683067e+01 0.0000000000000000e+00  1.5143462846222302e+01 1.8080034446726476e+01 0.0000000000000000e+00  1.4560153394518824e+01 1.6680595715153899e+01 0.0000000000000000e+00  1.6393691145405011e+01 1.8471631612279602e+01 0.0000000000000000e+00  1.5487342453957220e+01 1.6608228432680072e+01 0.0000000000000000e+00  1.7860288384247792e+01 1.9080372521995990e+01 0.0000000000000000e+00  1.6723053956749343e+01 1.6893845841498482e+01 0.0000000000000000e+00  1.9452672763707536e+01 1.9967387287613359e+01 0.0000000000000000e+00  1.8173802593305162e+01 1.7593432139854784e+01 0.0000000000000000e+00  2.1080391048427362e+01 2.0706420693933204e+01 0.0000000000000000e+00  1.9748484539220186e+01 1.8280290244631058e+01 0.0000000000000000e+00  2.2666727209924758e+01 2.1330895132290351e+01 0.0000000000000000e+00  2.1357350083669406e+01 1.8968261579637769e+01 0.0000000000000000e+00  2.4148110203187873e+01 2.1678991585126443e+01 0.0000000000000000e+00  2.2923500806234539e+01 1.9474587908580627e+01 0.0000000000000000e+00  2.5469110150790549e+01 2.1714300905076843e+01 0.0000000000000000e+00  2.4383449314792667e+01 1.9751424328118492e+01 0.0000000000000000e+00  2.6593978420250171e+01 2.0985431667206676e+01 0.0000000000000000e+00  2.5681601265007494e+01 1.9317247801320502e+01 0.0000000000000000e+00  2.7509072937686611e+01 2.0266655269879411e+01 0.0000000000000000e+00  2.6783625074519975e+01 1.8914625057640027e+01 0.0000000000000000e+00  2.8208739064961989e+01 1.8119525392497760e+01 0.0000000000000000e+00  2.7673470619049780e+01 1.7089494792846967e+01 0.0000000000000000e+00  2.8714935332467011e+01 1.6449552187876062e+01 0.0000000000000000e+00  2.8349626416687514e+01 1.5712698284811802e+01 0.0000000000000000e+00  2.9046455882171042e+01 1.2769895930901900e+01 0.0000000000000000e+00  2.8828542755197159e+01 1.2291466906818435e+01 0.0000000000000000e+00  2.9247305116893045e+01 1.0110429670268005e+01 0.0000000000000000e+00  2.9137335309756644e+01 9.8336613725880131e+00 0.0000000000000000e+00  2.9342347727651109e+01 5.2248319580060700e+00 0.0000000000000000e+00  2.9308826750772777e+01 5.0990183491521384e+00 0.0000000000000000e+00  2.9381791776758593e+01 1.2674607536448392e+00 0.0000000000000000e+00  2.9383384521770232e+01 1.2353863927884317e+00 0.0000000000000000e+00  2.9389262611743902e+01 -2.4338702470195914e-09 0.0000000000000000e+00  2.9389916197720101e+01 6.8475062854743624e-04 0.0000000000000000e+00  2.9389262614625796e+01 -3.6184082267052946e-19 0.0000000000000000e+00  2.0124759490461383e+01 -7.1127393419078198e+00 0.0000000000000000e+00  2.9383847580882666e+01 6.7583796507896672e+00 0.0000000000000000e+00  2.9389904732215214e+01 -6.5390761085328875e-04 0.0000000000000000e+00  2.0749731190103379e+01 -1.3369032411382868e+01 0.0000000000000000e+00  2.0152869171640173e+01 -1.4346440881346373e+01 0.0000000000000000e+00  1.7730636508049230e+01 -2.0810243651976936e+01 0.0000000000000000e+00  2.0815385306526540e+01 -1.6312046774794801e+01 0.0000000000000000e+00  1.6953826048203251e+01 -2.2285790274642213e+01 0.0000000000000000e+00  1.7834545834000917e+01 -2.1155322780670190e+01 0.0000000000000000e+00  1.5274091277557657e+01 -2.5063338267626776e+01 0.0000000000000000e+00  1.7095300591432835e+01 -2.2576590288916993e+01 0.0000000000000000e+00  1.4062718256366864e+01 -2.5276171719614922e+01 0.0000000000000000e+00  1.5452546054075757e+01 -2.3492793108998640e+01 0.0000000000000000e+00  1.2768172251567435e+01 -2.5355490744188618e+01 0.0000000000000000e+00  1.4278450278729196e+01 -2.3446086979492012e+01 0.0000000000000000e+00  1.1652744048919525e+01 -2.4303608316234037e+01 0.0000000000000000e+00  1.3020361096278272e+01 -2.2663427832285340e+01 0.0000000000000000e+00  1.0325100131251743e+01 -2.3136099023320870e+01 0.0000000000000000e+00  1.1941016499023933e+01 -2.1176905627962874e+01 0.0000000000000000e+00  9.3696202019125927e+00 -2.1295285289568721e+01 0.0000000000000000e+00  1.0649275322156212e+01 -1.9894141957871103e+01 0.0000000000000000e+00  8.5862715523724429e+00 -1.9440821783773622e+01 0.0000000000000000e+00  9.7292381026015491e+00 -1.8297669584315454e+01 0.0000000000000000e+00  7.7343767859424073e+00 -1.7748427380406529e+01 0.0000000000000000e+00  8.9809542001604630e+00 -1.6502182501683578e+01 0.0000000000000000e+00  6.9275692298279621e+00 -1.6149755055404430e+01 0.0000000000000000e+00  8.1639223519076705e+00 -1.4970759272597542e+01 0.0000000000000000e+00  6.1697142799077573e+00 -1.4734559034587175e+01 0.0000000000000000e+00  7.3915645003921773e+00 -1.3628797627880319e+01 0.0000000000000000e+00  5.4242426898709004e+00 -1.3439658050723974e+01 0.0000000000000000e+00  6.6677906496519013e+00 -1.2352122389544482e+01 0.0000000000000000e+00  4.7460238862509332e+00 -1.2199390455102707e+01 0.0000000000000000e+00  5.9560948350569136e+00 -1.1212400199882689e+01 0.0000000000000000e+00  4.1428080018837612e+00 -1.1061462234605271e+01 0.0000000000000000e+00  5.3112638549202922e+00 -1.0186689601281001e+01 0.0000000000000000e+00  3.5771073797771513e+00 -9.9733310578488990e+00 0.0000000000000000e+00  4.7410231002962311e+00 -9.1545375737182937e+00 0.0000000000000000e+00  3.0742411189760444e+00 -8.9110296408528722e+00 0.0000000000000000e+00  4.2080165702227150e+00 -8.1861071808527530e+00 0.0000000000000000e+00  2.6432242283852996e+00 -7.9137378031980905e+00 0.0000000000000000e+00  3.7373798212136360e+00 -7.2964012589091549e+00 0.0000000000000000e+00  2.2480022360932370e+00 -6.9100651290175197e+00 0.0000000000000000e+00  3.3383648157908636e+00 -6.3459715595731412e+00 0.0000000000000000e+00  1.9069876096847562e+00 -5.9755212845313963e+00 0.0000000000000000e+00  2.9745843629786735e+00 -5.4926880923866408e+00 0.0000000000000000e+00  1.6197409214957539e+00 -5.0229628542722367e+00 0.0000000000000000e+00  2.6650621831485002e+00 -4.6200885336930870e+00 0.0000000000000000e+00  1.3669523598586915e+00 -4.2083865447315167e+00 0.0000000000000000e+00  2.4082665586009102e+00 -3.8576681882429296e+00 0.0000000000000000e+00  1.1486313660058864e+00 -3.2700195329186084e+00 0.0000000000000000e+00  2.1868460945716874e+00 -2.9694387481043782e+00 0.0000000000000000e+00  9.5754134293207016e-01 -2.7325875901597727e+00 0.0000000000000000e+00  1.9974894894818396e+00 -2.4748300156138319e+00 0.0000000000000000e+00  7.8115919090713237e-01 -1.7828618973047965e+00 0.0000000000000000e+00  1.8385220930374540e+00 -1.5432163265322394e+00 0.0000000000000000e+00  5.4327144872761668e-01 -1.7263089347776546e+00 0.0000000000000000e+00  1.6882135216002323e+00 -1.4003963072520629e+00 0.0000000000000000e+00  1.8247722493758967e-01 -1.2022311018405754e+00 0.0000000000000000e+00  1.4865019769521157e+00 -6.8085070619203703e-01 0.0000000000000000e+00  -6.6132439964961798e-01 -7.3642187330328892e-03 0.0000000000000000e+00  1.1401715779034387e+00 1.2169595395658885e+00 0.0000000000000000e+00  1.8033353613856691e+00 5.6963513537641495e+00 0.0000000000000000e+00  1.3294256392355182e+00 6.3087838868329973e+00 0.0000000000000000e+00  2.2336848038084858e+00 5.8822680245594237e+00 0.0000000000000000e+00  2.7901352263413099e+00 6.8100167665787961e+00 0.0000000000000000e+00  3.4813167079426761e+00 7.3510662836449630e+00 0.0000000000000000e+00  4.0976662064879497e+00 8.1375610411271069e+00 0.0000000000000000e+00  4.6341576412362615e+00 8.5019711544148056e+00 0.0000000000000000e+00  5.3057354327462640e+00 9.1453298970921200e+00 0.0000000000000000e+00  5.8325466207855907e+00 9.4270849475839089e+00 0.0000000000000000e+00  5.8967598818568945e+00 9.0432257286853392e+00 0.0000000000000000e+00  6.9636729625550595e+00 9.8740141814058564e+00 0.0000000000000000e+00  3.8401415691363234e+00 3.9232103770820661e+00 0.0000000000000000e+00  1.4941104469746463e+01 1.9169998637236009e+01 0.0000000000000000e+00  1.4601941022782762e+01 1.7231884449903074e+01 0.0000000000000000e+00  1.4655873924087313e+01 1.5909555216501552e+01 0.0000000000000000e+00  1.5159626715216881e+01 1.5228870939086102e+01 0.0000000000000000e+00  1.6066920439226674e+01 1.5053747031085852e+01 0.0000000000000000e+00  1.7279209370434021e+01 1.5432219836734864e+01 0.0000000000000000e+00  1.8703515855877978e+01 1.5935617021579196e+01 0.0000000000000000e+00  2.0248177727209846e+01 1.6574391216935897e+01 0.0000000000000000e+00  2.1823592188179870e+01 1.7145837271391315e+01 0.0000000000000000e+00  2.3353659922330589e+01 1.7584707897882488e+01 0.0000000000000000e+00  2.4773990508100752e+01 1.7394430136086044e+01 0.0000000000000000e+00  2.6029879743409630e+01 1.7287793516552100e+01 0.0000000000000000e+00  2.7087025425451451e+01 1.5781503496417544e+01 0.0000000000000000e+00  2.7930263136884445e+01 1.4728575712913255e+01 0.0000000000000000e+00  2.8556789038259257e+01 1.1599441751678127e+01 0.0000000000000000e+00  2.8987859315154562e+01 9.4047975218052109e+00 0.0000000000000000e+00  2.9243722680109155e+01 4.8632391246123525e+00 0.0000000000000000e+00  2.9371273405132463e+01 1.1638042469994019e+00 0.0000000000000000e+00  2.9391483901750160e+01 1.3052709259413933e-03 0.0000000000000000e+00  2.9362806138378478e+01 6.8207380632089825e+00 0.0000000000000000e+00  2.9391462857159301e+01 -1.2860151955334184e-03 0.0000000000000000e+00  2.9301260620565824e+01 -5.1254751645152863e-01 0.0000000000000000e+00  2.0104525658739099e+01 -1.7332785550941654e+01 0.0000000000000000e+00  2.0811507067863705e+01 -1.6709523931300360e+01 0.0000000000000000e+00  1.7873157651222655e+01 -2.1494092085128873e+01 0.0000000000000000e+00  1.7176903406462674e+01 -2.1051642236382001e+01 0.0000000000000000e+00  1.5573681158041625e+01 -2.1709347757137721e+01 0.0000000000000000e+00  1.4438969789890665e+01 -2.0798619527840160e+01 0.0000000000000000e+00  1.3218004028222088e+01 -1.9579428468528281e+01 0.0000000000000000e+00  1.2174489494977218e+01 -1.7977723735210223e+01 0.0000000000000000e+00  1.0917653950133612e+01 -1.6938242075025830e+01 0.0000000000000000e+00  1.0031724496486643e+01 -1.5399713871682104e+01 0.0000000000000000e+00  9.3167260572627413e+00 -1.3765159315064837e+01 0.0000000000000000e+00  8.5326335217611486e+00 -1.2489793854570189e+01 0.0000000000000000e+00  7.7926482733231195e+00 -1.1285558337728039e+01 0.0000000000000000e+00  7.1006313032752129e+00 -1.0163772006251895e+01 0.0000000000000000e+00  6.4202086101062834e+00 -9.2379574792893351e+00 0.0000000000000000e+00  5.8060378636832866e+00 -8.3172763427919048e+00 0.0000000000000000e+00  5.2658087288946316e+00 -7.4043850932783055e+00 0.0000000000000000e+00  4.7622282483351439e+00 -6.6079087371922585e+00 0.0000000000000000e+00  4.3204230995090676e+00 -5.7643903629319073e+00 0.0000000000000000e+00  3.9495372934213027e+00 -4.9638521722160220e+00 0.0000000000000000e+00  3.6134120098494136e+00 -4.1719249475466142e+00 0.0000000000000000e+00  3.3307556112203307e+00 -3.4887878544763282e+00 0.0000000000000000e+00  3.1005000836111187e+00 -2.6523169675120459e+00 0.0000000000000000e+00  2.9045208984618767e+00 -2.2071767500409329e+00 0.0000000000000000e+00  2.7409340042653265e+00 -1.3176391059933026e+00 0.0000000000000000e+00  2.6054052166261892e+00 -1.1928904403880460e+00 0.0000000000000000e+00  2.4807270725403985e+00 -3.8739201244885291e-01 0.0000000000000000e+00  2.3004860151904425e+00 1.7169796926844112e+00 0.0000000000000000e+00  2.5164342338353136e+00 4.9846737568798352e+00 0.0000000000000000e+00  2.0882638462642182e+00 5.6680131153086002e+00 0.0000000000000000e+00  2.9915591137166992e+00 5.2358767833866882e+00 0.0000000000000000e+00  3.4231790047345712e+00 5.9756548439996999e+00 0.0000000000000000e+00  3.9791014925286263e+00 6.3160558192738288e+00 0.0000000000000000e+00  4.6677450243507890e+00 7.2165207857493057e+00 0.0000000000000000e+00  5.2791255298834567e+00 7.7029175633798213e+00 0.0000000000000000e+00  5.8075503730666052e+00 8.1457017687181636e+00 0.0000000000000000e+00  6.4680506930091761e+00 8.6469296371551359e+00 0.0000000000000000e+00  6.9806652160712579e+00 8.9593603194203961e+00 0.0000000000000000e+00  7.0275055732955209e+00 8.2876542951925138e+00 0.0000000000000000e+00  8.0752580250596484e+00 8.6229638947838723e+00 0.0000000000000000e+00  4.9338665557907762e+00 2.5301420643102124e+00 0.0000000000000000e+00  1.6020434272104453e+01 1.7751706959797353e+01 0.0000000000000000e+00  1.5667235770078710e+01 1.5842779346628284e+01 0.0000000000000000e+00  1.5702878439174015e+01 1.4491570959181436e+01 0.0000000000000000e+00  1.6181916804871211e+01 1.3715688985525425e+01 0.0000000000000000e+00  1.7057752620758876e+01 1.3641779795680971e+01 0.0000000000000000e+00  1.8231682112948313e+01 1.3832098568393709e+01 0.0000000000000000e+00  1.9610278024843666e+01 1.4295006590693584e+01 0.0000000000000000e+00  2.1102356407426580e+01 1.4825198198291202e+01 0.0000000000000000e+00  2.2618552856078459e+01 1.5337220213948127e+01 0.0000000000000000e+00  2.4081924475901477e+01 1.5315296252975877e+01 0.0000000000000000e+00  2.5429481725026143e+01 1.5461116791816490e+01 0.0000000000000000e+00  2.6605555988562166e+01 1.4255110919484055e+01 0.0000000000000000e+00  2.7578268780541233e+01 1.3529290356146547e+01 0.0000000000000000e+00  2.8330329507137364e+01 1.0722843384595748e+01 0.0000000000000000e+00  2.8865875248980206e+01 8.8319714023621003e+00 0.0000000000000000e+00  2.9198554714616044e+01 4.5359694934173289e+00 0.0000000000000000e+00  2.9368628309318904e+01 1.0565456199708683e+00 0.0000000000000000e+00  2.9393932788182759e+01 1.8678390075213714e-03 0.0000000000000000e+00  2.9344487756629235e+01 6.9818700201943384e+00 0.0000000000000000e+00  2.9393914041611918e+01 -1.8402780757048121e-03 0.0000000000000000e+00  2.9151843868716519e+01 -3.9018828755077400e-01 0.0000000000000000e+00  2.9080576318364006e+01 -3.5788183497911188e+00 0.0000000000000000e+00  1.9941511359766224e+01 -1.7825213028602882e+01 0.0000000000000000e+00  2.0720991031807976e+01 -1.7137250195621156e+01 0.0000000000000000e+00  1.7851724760851440e+01 -2.0059296224483742e+01 0.0000000000000000e+00  1.7221431778964192e+01 -1.9350765799446556e+01 0.0000000000000000e+00  1.5678845429889794e+01 -1.9141513604557687e+01 0.0000000000000000e+00  1.4601503893882013e+01 -1.7789836261235525e+01 0.0000000000000000e+00  1.3433576458264870e+01 -1.6452374380277011e+01 0.0000000000000000e+00  1.2440578137375015e+01 -1.5091135080985840e+01 0.0000000000000000e+00  1.1232040393509317e+01 -1.4108084443824296e+01 0.0000000000000000e+00  1.0392886158553159e+01 -1.2728934161076241e+01 0.0000000000000000e+00  9.7236785999791842e+00 -1.1349360392644115e+01 0.0000000000000000e+00  8.9846230303228030e+00 -1.0210731351412448e+01 0.0000000000000000e+00  8.2888171233970187e+00 -9.1602258748551044e+00 0.0000000000000000e+00  7.6401846859440727e+00 -8.2510863151970888e+00 0.0000000000000000e+00  7.0021954524291798e+00 -7.4291162463114109e+00 0.0000000000000000e+00  6.4294395694259139e+00 -6.6262831589392182e+00 0.0000000000000000e+00  5.9295464023287092e+00 -5.8840516648635202e+00 0.0000000000000000e+00  5.4652633006472486e+00 -5.1322840768621329e+00 0.0000000000000000e+00  5.0615177883817442e+00 -4.4375181909408896e+00 0.0000000000000000e+00  4.7277723952379800e+00 -3.6965346921484645e+00 0.0000000000000000e+00  4.4273284565423854e+00 -3.0934418789096974e+00 0.0000000000000000e+00  4.1797463709263409e+00 -2.3336402539703509e+00 0.0000000000000000e+00  3.9825235029134425e+00 -1.9409808056904696e+00 0.0000000000000000e+00  3.8198893374908383e+00 -1.0957746910193564e+00 0.0000000000000000e+00  3.6856505183901906e+00 -1.0182506896923760e+00 0.0000000000000000e+00  3.5837294502440660e+00 -2.1826990417444145e-01 0.0000000000000000e+00  3.4799737441884471e+00 1.9571772071125653e+00 0.0000000000000000e+00  3.4362857338556010e+00 4.3411410277132738e+00 0.0000000000000000e+00  3.0462448860712938e+00 5.0849916819645538e+00 0.0000000000000000e+00  3.8664607616648032e+00 4.5211561726937504e+00 0.0000000000000000e+00  4.3448970978034245e+00 5.3261494162810319e+00 0.0000000000000000e+00  4.7793732057312432e+00 5.4811616497219768e+00 0.0000000000000000e+00  5.3365978640065004e+00 6.1843595051280786e+00 0.0000000000000000e+00  6.0238294400831816e+00 6.7888498548528400e+00 0.0000000000000000e+00  6.6304286223512552e+00 7.3589323488171461e+00 0.0000000000000000e+00  7.1500861810649212e+00 7.6651456685941328e+00 0.0000000000000000e+00  7.7973273299883710e+00 8.2024483393009682e+00 0.0000000000000000e+00  8.2923468732776744e+00 8.2322597165047444e+00 0.0000000000000000e+00  8.3185324972071921e+00 7.0669937267103258e+00 0.0000000000000000e+00  9.3455946439312090e+00 7.2551466916747041e+00 0.0000000000000000e+00  6.1891600529555495e+00 1.1284619699234433e+00 0.0000000000000000e+00  1.7268645293684855e+01 1.6377610053634097e+01 0.0000000000000000e+00  1.6909222979512975e+01 1.4446880712942939e+01 0.0000000000000000e+00  1.6932491707145257e+01 1.3012094281164412e+01 0.0000000000000000e+00  1.7390197029626371e+01 1.2350361070352827e+01 0.0000000000000000e+00  1.8233919158704214e+01 1.2100557331711734e+01 0.0000000000000000e+00  1.9365358603064479e+01 1.2264302253780004e+01 0.0000000000000000e+00  2.0690776397961208e+01 1.2631640399483391e+01 0.0000000000000000e+00  2.2118659711826471e+01 1.3115100209106167e+01 0.0000000000000000e+00  2.3559662412089864e+01 1.3179745018006555e+01 0.0000000000000000e+00  2.4937409604973421e+01 1.3508002157772276e+01 0.0000000000000000e+00  2.6187314851945928e+01 1.2564252065863373e+01 0.0000000000000000e+00  2.7257105037094565e+01 1.2153780635511488e+01 0.0000000000000000e+00  2.8111952524502563e+01 9.6775493768191776e+00 0.0000000000000000e+00  2.8743434971572373e+01 8.1254491418266372e+00 0.0000000000000000e+00  2.9147086331745236e+01 4.1148010996154953e+00 0.0000000000000000e+00  2.9361997136115328e+01 9.1216655860276818e-01 0.0000000000000000e+00  2.9397169068157513e+01 2.3696138043126638e-03 0.0000000000000000e+00  2.9330404740495307e+01 7.2310782535497955e+00 0.0000000000000000e+00  2.9397151641464760e+01 -2.3316848951091969e-03 0.0000000000000000e+00  2.9032349715687900e+01 5.9993249323210080e-03 0.0000000000000000e+00  2.8736581408329290e+01 -3.44898069974