<?xml version="1.0"?>
<VTKFile type="UnstructuredGrid"  version="0.1"  >
<UnstructuredGrid>
<Piece  NumberOfPoints="1933" NumberOfCells="3640">
<Points>
<DataArray  type="Float64"  NumberOfComponents="3"  format="ascii">0.4752977655900857 0.001181819723848256 0  5.475297801946441 0.001118462957410391 0  5.475392908212279 7.501118595674371 0  0.4753928251557384 7.501181870208432 0  10.47529783980252 0.001054975557803751 0  10.475393064974 7.501055139635876 0  15.47529794872796 0.0009912721864278348 0  15.47539333742172 7.500991447215342 0  20.4752982103489 0.0009273300496213431 0  20.47539376800879 7.500927508072929 0  25.47529870441339 0.0008631647913892343 0  25.47539440023527 7.500863343390946 0  30.47529950488468 0.0007988166803293273 0  30.47539527773283 7.500798995991918 0  35.4753006801146 0.0007343426583685515 0  35.47539644360577 7.500734524016595 0  40.47530229458231 0.0006698120712627317 0  40.47539794026495 7.500669997395971 0  45.47530441113149 0.0006053048489831328 0  45.47539980963229 7.500605496386358 0  50.47530709327372 0.0005409114219998606 0  50.47540209353375 7.500541111660405 0  55.47531040741063 0.0004767339837650552 0  55.47540483412811 7.500476945657606 0  60.47531442494183 0.0004128889314105265 0  60.47540807423943 7.500413115069637 0  65.47531922427625 0.0003495104848993061 0  65.47541185746705 7.500349754479808 0  70.47532489275699 0.0002867556325751819 0  70.47541622793494 7.500287021308936 0  75.47533152849773 0.0002248107051712559 0  75.47542122949432 7.500225102360935 0  80.47533924206628 0.0001639000680567212 0  80.47542690411026 7.500164222431077 0  85.47534815786437 0.000104297676289793 0  85.47543328904857 7.500104655660189 0  90.47535841486318 4.634260635052654e-05 0  90.47544041227803 7.500046740619879 0  95.47537016603621 -9.539765680908032e-06 0  95.4754482852418 7.499990900530252 0  100.4753835751899 -6.280841441319779e-05 0  100.475456891795 7.499937670581013 0  105.4753988087133 -0.0001127652876872576 0  105.4754661716569 7.499887735073218 0  110.4754160174342 -0.0001584959678551956 0  110.4754759963364 7.499841977978932 0  115.4754352992997 -0.0001987832230134487 0  115.4754861355144 7.499801551303213 0  120.4754566247844 -0.0002319794500409877 0  120.4754962133037 7.499767965596638 0  125.4754796896562 -0.0002558171532363536 0  125.475505659239 7.499743204211359 0  130.4755036255478 -0.0002671285617876939 0  130.4755136742615 7.49972985297269 0  135.4755264306466 -0.0002614430375489693 0  135.4755192715287 7.499731210876949 0  140.4755438439195 -0.0002324688874152278 0  140.4755215491496 7.499751293564615 0  145.4755470856952 -0.0001717194366993792 0  145.4755205927391 7.499794585835724 0  150.4755181352883 -6.993223794619476e-05 0  150.475520049416 7.499865708169104 0  160.475528258148 8.562390941724474e-19 0  165.4753679162576 -0.0002234299365022329 0  165.4755006438069 7.499742712920924 0  160.4755473768656 7.499920181705864 0  170.4752806962456 -0.0004131141640711424 0  170.475453178386 7.499569791113684 0  175.4752325731294 -0.0005784186480960148 0  175.4754142223759 7.499412158501249 0  180.475206237467 -0.0007247172661236737 0  180.4753847038718 7.499269841675109 0  185.475192401105 -0.0008561301259620447 0  185.4753632791937 7.499140628115279 0  190.4751859065913 -0.0009758938871019072 0  190.4753482081517 7.499022124148704 0  195.4751838058652 -0.001086503617844665 0  195.4753379283051 7.498912257176316 0  200.4751843645867 -0.001189859963883488 0  200.4753311875535 7.498809351205724 0  205.4751865318556 -0.001287409102581628 0  205.4753270297001 7.498712083174762 0  210.475189651767 -0.001380258556186681 0  210.4753247400126 7.498619414437413 0  215.4751933032123 -0.001469265866607135 0  215.475323788586 7.498530526732687 0  220.4751972088371 -0.001555103910909729 0  220.4753237829592 7.498444770056748 0  225.4752011819714 -0.00163830823065248 0  225.4753244316714 7.498361622499849 0  230.4752050948346 -0.001719311223782964 0  230.4753255173077 7.49828065999893 0  235.4752088589413 -0.001798466972429541 0  235.4753268769206 7.498201533711554 0  240.4752124126907 -0.001876069455096278 0  240.4753283879059 7.498123953053301 0  245.4752157133155 -0.001952366083412232 0  245.4753299578278 7.498047672885375 0  250.4752187315601 -0.002027567914054718 0  250.4753315170785 7.497972483733631 0  255.4752214481408 -0.002101857471467248 0  255.4753330135816 7.4978982042318 0  260.4752238514177 -0.002175394827509682 0  260.4753344089702 7.4978246752144 0  265.4752259359557 -0.002248322379403763 0  265.4753356758546 7.497751755058633 0  270.4752277017723 -0.002320768615133873 0  270.4753367959048 7.497679316008566 0  275.4752291541889 -0.00239285102954096 0  275.475337758536 7.497607241326585 0  280.4752303042601 -0.002464678229084944 0  280.4753385600523 7.497535423224749 0  285.4752311697966 -0.002536351107420622 0  285.4753392031158 7.497463761650373 0  290.4752317769907 -0.002607962739190199 0  290.4753396963926 7.497392164156739 0  295.4752321626099 -0.002679596241428842 0  295.4753400542704 7.497320547303433 0  300.4752323763987 -0.00275131913162904 0  300.4753402965464 7.49724884031833 0  305.4752324826467 -0.002823171363970753 0  305.4753404483309 7.497176992096893 0  310.4752325579441 -0.002895141707639817 0  310.4753405413674 7.497104982937899 0  5.475487570259708 15.00111891135298 0  0.475487476328887 15.00118199707147 0  10.47548773640632 15.00105552337048 0  15.47548801280603 15.00099184454188 0  20.47548842658345 15.0009278978941 0  25.47548900079266 15.00086372073125 0  30.47548975713615 15.00079936333754 0  35.47549071676188 15.00073488706453 0  40.4754919002639 15.00067036302275 0  45.4754933273741 15.00060587171569 0  50.47549501651275 15.00054150365312 0  55.47549698421309 15.00047736091793 0  60.47549924436318 15.00041355969032 0  65.47550180716985 15.00035023379717 0  70.4755046777187 15.00028753943399 0  75.47550785398229 15.00022566130121 0  80.47551132409728 15.00016482050192 0  85.47551506271876 15.00010528467041 0  90.47551902626401 15.00004738093087 0  95.47552314694494 14.99999151240236 0  100.4755273257042 14.99993817900525 0  105.4755314247272 14.99988800313903 0  110.4755352613082 14.99984176007052 0  115.4755386070631 14.99980041092437 0  120.4755412004926 14.99976513164905 0  125.4755427878239 14.9997373215863 0  130.4755432178661 14.99971855516996 0  135.4755426309061 14.99971039990453 0  140.4755417926429 14.99971394221331 0  145.4755426026996 14.99972868254432 0  150.4755486442416 14.99974994693765 0  165.4755746609267 14.99964956666826 0  160.475581480501 14.99977537925166 0  170.475558041342 14.99951356397 0  175.4755377783311 14.99937841718214 0  180.475517945892 14.99924936138402 0  185.4755004494307 14.99912797045211 0  190.4754859014994 14.99901413545475 0  195.4754742651998 14.99890710385018 0  200.4754652239718 14.99880595582064 0  205.4754583735679 14.99870980293466 0  210.4754533133732 14.9986178586859 0  215.4754496845206 14.99852945304112 0  220.4754471814738 14.99844402458848 0  225.4754455513352 14.99836110539541 0  230.4754445881728 14.99828030499983 0  235.4754441259439 14.99820129597123 0  240.4754440316012 14.99812380172016 0  245.4754441990294 14.99804758651406 0  250.4754445439715 14.9979724474079 0  255.4754449998975 14.99789820774794 0  260.4754455147054 14.99782471194133 0  265.4754460480924 14.99775182124085 0  270.4754465694851 14.99767941035993 0  275.4754470563794 14.99760736479398 0  280.4754474930008 14.99753557878204 0  285.4754478692044 14.99746395389325 0  290.4754481795512 14.99739239825228 0  295.4754484226467 14.99732082638586 0  300.4754486009197 14.99724915947668 0  305.4754487214356 14.99717732517204 0  310.4754487988262 14.99710525429513 0  5.47558171496389 22.50111957160794 0  0.4755816214121732 22.50118246956498 0  10.47558185691305 22.50105625173604 0  15.47558207631343 22.50099257866474 0  20.47558239032517 22.50092861103834 0  25.47558280943394 22.50086440650328 0  30.47558334054327 22.50080002611129 0  35.47558398842043 22.50073553635385 0  40.47558475609232 22.50067101029608 0  45.47558564461713 22.50060652860996 0  50.47558665248204 22.5005421809126 0  55.47558777474108 22.50047806762052 0  60.47558900193398 22.50041430244907 0  65.47559031877785 22.50035101566878 0  70.47559170261012 22.50028835823932 0  75.47559312156835 22.5002265069652 0  80.47559453252742 22.50016567083175 0  85.47559587889248 22.50010609867455 0  90.47559708849508 22.50004808827102 0  95.47559807209845 22.49999199676592 0  100.4755987234503 22.49993825194159 0  105.4755989225172 22.49988736303392 0  110.4755985445908 22.4998399282411 0  115.4755974794392 22.49979663322837 0  120.4755956664924 22.49975822992958 0  125.4755931536884 22.49972547652713 0  130.4755901873954 22.49969900613662 0  135.4755873347835 22.49967907251492 0  140.4755856193445 22.49966509901365 0  145.4755865979045 22.49965495151855 0  150.4755921966133 22.49964396004145 0  165.4756323755241 22.49954583743246 0  160.475620740547 22.49963991559521 0  170.4756346574136 22.49943882003618 0  175.4756303609944 22.49932637885882 0  180.4756223425881 22.49921363518683 0  185.475612801824 22.49910349263175 0  190.4756031560089 22.49899728321229 0  195.4755942000197 22.49889540104771 0  200.4755863084274 22.49879774350993 0  205.4755795986667 22.49870397668586 0  210.4755740436528 22.49861368199553 0  215.4755695432355 22.49852643146328 0  220.4755659669027 22.49844182290719 0  225.4755631778974 22.4983594937052 0  230.4755610459182 22.49827912369619 0  235.4755594530818 22.49820043296027 0  240.4755582960699 22.49812317749929 0  245.4755574862224 22.49804714433608 0  250.4755569485989 22.4979721467521 0  255.4755566206087 22.49789801996571 0  260.4755564504987 22.49782461734874 0  265.4755563958855 22.49775180718137 0  270.4755564223811 22.49767946990793 0  275.4755565023452 22.49760749584213 0  280.4755566137723 22.49753578326431 0  285.4755567393106 22.49746423683167 0  290.4755568654618 22.4973927661644 0  295.4755569820523 22.4973212843213 0  300.4755
[...]
<PointData  Vectors="v"> 
<DataArray  type="Float64"  Name="v"  NumberOfComponents="3" format="ascii">4.3366519345840286e+00 3.1246522179807310e+00 0.0000000000000000e+00  4.5357766005874058e+00 2.5995869195504713e+00 0.0000000000000000e+00  3.8379506672701313e+00 2.3010600142169446e+00 0.0000000000000000e+00  3.6793271199405129e+00 2.8861467532454581e+00 0.0000000000000000e+00  4.7207956435699714e+00 2.4462606377418608e+00 0.0000000000000000e+00  4.0367526872168034e+00 2.1689212300387566e+00 0.0000000000000000e+00  4.7998743410894393e+00 2.3453613103300781e+00 0.0000000000000000e+00  4.2213078419012326e+00 2.2272013398914945e+00 0.0000000000000000e+00  4.7781334299973324e+00 1.8284919806184716e+00 0.0000000000000000e+00  4.2996790288936859e+00 1.8614858286421418e+00 0.0000000000000000e+00  4.7938058765146305e+00 1.5277954106056253e+00 0.0000000000000000e+00  4.2770793496601662e+00 1.5046039680231327e+00 0.0000000000000000e+00  4.7316942414120238e+00 9.9153265726050888e-01 0.0000000000000000e+00  4.2921383928675088e+00 1.0850700828336273e+00 0.0000000000000000e+00  4.6082733122501551e+00 4.0646148503780699e-01 0.0000000000000000e+00  4.2294338781328635e+00 5.9153506296679736e-01 0.0000000000000000e+00  4.7790548467479885e+00 2.2114171560579604e-01 0.0000000000000000e+00  4.1056403838134710e+00 -3.5354574600353170e-02 0.0000000000000000e+00  4.7547321109416583e+00 -2.4134553324594310e-01 0.0000000000000000e+00  4.2766347364458435e+00 -2.0537431631132899e-01 0.0000000000000000e+00  7.2540082364395220e+00 3.0260761988085747e+00 0.0000000000000000e+00  4.2529695612923124e+00 -7.2402453753760498e-01 0.0000000000000000e+00  8.4307781143249461e+00 4.2337481016900345e+00 0.0000000000000000e+00  6.7524663311005249e+00 2.4675335059522765e+00 0.0000000000000000e+00  8.7657517803957070e+00 4.0875016191098332e+00 0.0000000000000000e+00  7.9304870515949188e+00 3.5822613799953897e+00 0.0000000000000000e+00  8.7581042649195844e+00 3.3681962283348148e+00 0.0000000000000000e+00  8.2684126085770462e+00 3.3757162689278397e+00 0.0000000000000000e+00  8.5498528007290844e+00 2.3632894393973336e+00 0.0000000000000000e+00  8.2649293794134095e+00 2.6701189079395968e+00 0.0000000000000000e+00  8.2648902874525554e+00 1.2770234529783828e+00 0.0000000000000000e+00  8.0629617627449051e+00 1.6981550558618930e+00 0.0000000000000000e+00  7.9013180789265656e+00 1.2407913661032532e-01 0.0000000000000000e+00  7.7855286809041164e+00 6.6100105493807260e-01 0.0000000000000000e+00  7.4477535655228344e+00 -1.0180310716743166e+00 0.0000000000000000e+00  7.4310252212551546e+00 -3.4779023456942726e-01 0.0000000000000000e+00  6.8931109705638018e+00 -2.2282907180860705e+00 0.0000000000000000e+00  6.9893800610516283e+00 -1.4078974051712474e+00 0.0000000000000000e+00  6.2256537101748410e+00 -3.4798360894319305e+00 0.0000000000000000e+00  6.4483110213365924e+00 -2.4933378768960681e+00 0.0000000000000000e+00  5.4464299335972752e+00 -4.7886368248045965e+00 0.0000000000000000e+00  5.7974048330327523e+00 -3.6364808825766781e+00 0.0000000000000000e+00  4.5880634096445245e+00 -6.0760732641802377e+00 0.0000000000000000e+00  5.0377697467227343e+00 -4.8084329420670082e+00 0.0000000000000000e+00  3.6907062977266465e+00 -7.4377807490532346e+00 0.0000000000000000e+00  4.2031721643118107e+00 -6.1141398966253098e+00 0.0000000000000000e+00  2.7984093932925540e+00 -8.4950903351724172e+00 0.0000000000000000e+00  3.3312881691476619e+00 -7.1844696954611171e+00 0.0000000000000000e+00  1.9807817108500343e+00 -9.6201524738635964e+00 0.0000000000000000e+00  2.4726624552920708e+00 -8.4212727437017474e+00 0.0000000000000000e+00  1.2697381376439134e+00 -9.9756070928599669e+00 0.0000000000000000e+00  1.6871425821872517e+00 -8.9471570149385631e+00 0.0000000000000000e+00  7.2419466065850857e-01 -1.0363343847026353e+01 0.0000000000000000e+00  1.0220270907219970e+00 -9.5772576805412850e+00 0.0000000000000000e+00  3.3351070417842804e-01 -9.1824051182290347e+00 0.0000000000000000e+00  5.1476090336311342e-01 -8.6475871943016980e+00 0.0000000000000000e+00  1.2316691676433190e-01 -8.1548262387601884e+00 0.0000000000000000e+00  1.8529536482899253e-01 -7.8744633259100674e+00 0.0000000000000000e+00  2.1993473821140336e-02 -3.9526752318011948e+00 0.0000000000000000e+00  1.8236432665694451e-02 -3.8686098161103120e+00 0.0000000000000000e+00  -5.8494637480587607e-09 1.2976781476473600e-10 0.0000000000000000e+00  7.4420347786062165e-04 7.1246101638547854e-04 0.0000000000000000e+00  1.0965510764151460e-10 -4.6152815597065685e-19 0.0000000000000000e+00  -1.4473317912978343e+00 7.1073580077587035e+00 0.0000000000000000e+00  2.7398444271818395e-02 9.2979465385273770e+00 0.0000000000000000e+00  7.4193631070734679e-04 -7.5352308105738571e-04 0.0000000000000000e+00  2.0099994982566530e-01 1.1843683625731368e+01 0.0000000000000000e+00  -1.4490324268563541e+00 9.4157582369205635e+00 0.0000000000000000e+00  2.0699506324687703e-01 1.1109761158248244e+01 0.0000000000000000e+00  1.6379333110688638e-01 1.1118372052226727e+01 0.0000000000000000e+00  8.1145833823040103e-01 1.1026564635070851e+01 0.0000000000000000e+00  1.3878576223929540e-01 1.0146423482420014e+01 0.0000000000000000e+00  9.9633107389503084e-01 8.8649693587622345e+00 0.0000000000000000e+00  7.1739382568054944e-01 8.6070353760160891e+00 0.0000000000000000e+00  1.2576229863676349e+00 7.2152308041472750e+00 0.0000000000000000e+00  8.7943537211600276e-01 6.8427561720772871e+00 0.0000000000000000e+00  1.4060497729430843e+00 5.3836877193844437e+00 0.0000000000000000e+00  1.1192139302655915e+00 5.1765061325265824e+00 0.0000000000000000e+00  1.5688565672557151e+00 4.0237667328682614e+00 0.0000000000000000e+00  1.2495453608476961e+00 3.7952298801234550e+00 0.0000000000000000e+00  1.6367803172668016e+00 2.9318441178692169e+00 0.0000000000000000e+00  1.3959217146642280e+00 2.8429897841925968e+00 0.0000000000000000e+00  1.7558349748684283e+00 2.3322666127024969e+00 0.0000000000000000e+00  1.4487538050793849e+00 2.1657124191805988e+00 0.0000000000000000e+00  1.9030137168900398e+00 1.9630238990326101e+00 0.0000000000000000e+00  1.5545603308094063e+00 1.7532848295761887e+00 0.0000000000000000e+00  2.0290102098401168e+00 1.7936624922964532e+00 0.0000000000000000e+00  1.6897645765051503e+00 1.6146137802078304e+00 0.0000000000000000e+00  2.1250594506723650e+00 1.7217538947827502e+00 0.0000000000000000e+00  1.8046670367534283e+00 1.5865640021190552e+00 0.0000000000000000e+00  2.1937787447334087e+00 1.6736068816729619e+00 0.0000000000000000e+00  1.8908654210199152e+00 1.5788811854827682e+00 0.0000000000000000e+00  2.2144993817298828e+00 1.6292094169636155e+00 0.0000000000000000e+00  1.9506134452476531e+00 1.6056740194978798e+00 0.0000000000000000e+00  2.2117044617388610e+00 1.5917007075834981e+00 0.0000000000000000e+00  1.9629850431833020e+00 1.6028281276483396e+00 0.0000000000000000e+00  2.1951726129282139e+00 1.5365561262305325e+00 0.0000000000000000e+00  1.9525981281720686e+00 1.5679181944264686e+00 0.0000000000000000e+00  2.1572113461470339e+00 1.4672446253924265e+00 0.0000000000000000e+00  1.9290211945180351e+00 1.5303161337782680e+00 0.0000000000000000e+00  2.1102025962697391e+00 1.3982006805033829e+00 0.0000000000000000e+00  1.8843573319152300e+00 1.4744813873687157e+00 0.0000000000000000e+00  2.0646368217332869e+00 1.2989001324675862e+00 0.0000000000000000e+00  1.8310730915405420e+00 1.3728539984834311e+00 0.0000000000000000e+00  2.0050634041468123e+00 1.2144166053947094e+00 0.0000000000000000e+00  1.7794803441015166e+00 1.3091369319830164e+00 0.0000000000000000e+00  1.9434602986681246e+00 1.0705182104617423e+00 0.0000000000000000e+00  1.7140813222463311e+00 1.1681770833029299e+00 0.0000000000000000e+00  1.8727826021053564e+00 9.8019968828462167e-01 0.0000000000000000e+00  1.6467488033681896e+00 1.0913271447671751e+00 0.0000000000000000e+00  1.7910883248870391e+00 7.2919605940005094e-01 0.0000000000000000e+00  1.5705737391029801e+00 8.5692000429371229e-01 0.0000000000000000e+00  1.6844441927060232e+00 6.7825099748375972e-01 0.0000000000000000e+00  1.4831830047246144e+00 8.4311501742408468e-01 0.0000000000000000e+00  1.5526422106526503e+00 1.9224266956581870e-01 0.0000000000000000e+00  1.3712747799249492e+00 3.9526741517777769e-01 0.0000000000000000e+00  1.3790455451652917e+00 2.9753495332178992e-01 0.0000000000000000e+00  1.2335589518965671e+00 5.6254291685492286e-01 0.0000000000000000e+00  1.1020407641602583e+00 -6.3548622821667322e-01 0.0000000000000000e+00  1.0551364082783452e+00 -2.1417781645734307e-01 0.0000000000000000e+00  6.3443795201967068e-01 -7.9292392266338596e-01 0.0000000000000000e+00  7.7132693644907890e-01 -8.7789457496425347e-02 0.0000000000000000e+00  -4.6772934558733653e-01 -2.8940528661790560e-01 0.0000000000000000e+00  3.0102074484525365e-01 1.3717344960794551e+00 0.0000000000000000e+00  3.1235888143563972e+00 2.0639068746013463e+00 0.0000000000000000e+00  2.9385688140380282e+00 2.6069457156607947e+00 0.0000000000000000e+00  3.2807367044338567e+00 1.8721049126224196e+00 0.0000000000000000e+00  3.4769780358080546e+00 1.9520919956179483e+00 0.0000000000000000e+00  3.6582624322503259e+00 1.7460497754216511e+00 0.0000000000000000e+00  3.7327796522234946e+00 1.5411701554226680e+00 0.0000000000000000e+00  3.7056884591526336e+00 1.0650761751809223e+00 0.0000000000000000e+00  3.7161179609384796e+00 6.8809593996594087e-01 0.0000000000000000e+00  3.6490462030601867e+00 1.5306422409786752e-01 0.0000000000000000e+00  3.5211008491203866e+00 -4.6014957542435830e-01 0.0000000000000000e+00  3.6895480568418471e+00 -6.8809130346395619e-01 0.0000000000000000e+00  3.6638771596034556e+00 -1.2779220240644380e+00 0.0000000000000000e+00  6.1559956050182389e+00 1.8199372552409434e+00 0.0000000000000000e+00  7.3275150672215430e+00 2.8695237013518335e+00 0.0000000000000000e+00  7.6642184489318463e+00 2.6757960916983916e+00 0.0000000000000000e+00  7.6614558677328688e+00 1.9984819584861182e+00 0.0000000000000000e+00  7.4636109734434157e+00 1.0736483918635296e+00 0.0000000000000000e+00  7.1924049390731497e+00 1.7989679001851561e-01 0.0000000000000000e+00  6.8458871771224592e+00 -7.5212533999890463e-01 0.0000000000000000e+00  6.4155283837420827e+00 -1.6902838325333336e+00 0.0000000000000000e+00  5.8891742750546605e+00 -2.6693532415919559e+00 0.0000000000000000e+00  5.2558986122919595e+00 -3.6831389295212102e+00 0.0000000000000000e+00  4.5199825620222356e+00 -4.8780494839795523e+00 0.0000000000000000e+00  3.7141472786163949e+00 -5.8973366920854495e+00 0.0000000000000000e+00  2.8783022660841864e+00 -7.1566640163760527e+00 0.0000000000000000e+00  2.0627104175155506e+00 -7.8024661444594408e+00 0.0000000000000000e+00  1.3325005325575823e+00 -8.6086085283347078e+00 0.0000000000000000e+00  7.2660422054561291e-01 -7.9411998638903434e+00 0.0000000000000000e+00  3.0237133753560286e-01 -7.4104257345096602e+00 0.0000000000000000e+00  4.8347926675261811e-02 -3.7062033405413568e+00 0.0000000000000000e+00  2.5523281299917534e-03 1.3594932598111531e-03 0.0000000000000000e+00  5.5289575742528095e-02 9.1405505298346856e+00 0.0000000000000000e+00  2.5480605181673068e-03 -1.5506577979525651e-03 0.0000000000000000e+00  2.0826675888348375e-01 1.1641165915586804e+01 0.0000000000000000e+00  -1.3175542215790970e+00 8.7399896572240614e+00 0.0000000000000000e+00  2.3641758620594266e-01 1.0210608466880162e+01 0.0000000000000000e+00  1.6964485288025863e-01 7.7628852006974114e+00 0.0000000000000000e+00  7.1130169010357580e-01 6.6151681965090185e+00 0.0000000000000000e+00  8.4607894627820901e-01 4.8348424571301027e+00 0.0000000000000000e+00  1.0595515537750106e+00 3.6120866997947796e+00 0.0000000000000000e+00  1.1691957256967054e+00 2.6346428157415454e+00 0.0000000000000000e+00  1.2972970590481254e+00 2.0969345078736863e+00 0.0000000000000000e+00  1.3338630076559921e+00 1.6034267381112282e+00 0.0000000000000000e+00  1.4254005230533098e+00 1.4192498145561174e+00 0.0000000000000000e+00  1.5482514141840444e+00 1.4215456450169974e+00 0.0000000000000000e+00  1.6517975785365007e+00 1.4556621924837132e+00 0.0000000000000000e+00  1.7282209130020008e+00 1.5212117776622769e+00 0.0000000000000000e+00  1.7795445317092378e+00 1.5891338867500928e+00 0.0000000000000000e+00  1.7843498458994962e+00 1.5876243333207671e+00 0.0000000000000000e+00  1.7673691126805120e+00 1.5692178186529255e+00 0.0000000000000000e+00  1.7380171255918353e+00 1.5448691865276161e+00 0.0000000000000000e+00  1.6880169989936555e+00 1.4558050090401076e+00 0.0000000000000000e+00  1.6298612579045328e+00 1.3892614536109449e+00 0.0000000000000000e+00  1.5737460795695226e+00 1.2690424644043490e+00 0.0000000000000000e+00  1.5039139204560197e+00 1.1949061671420649e+00 0.0000000000000000e+00  1.4322932947920277e+00 9.7381650103380213e-01 0.0000000000000000e+00  1.3518073749302724e+00 9.7671388065745512e-01 0.0000000000000000e+00  1.2601354964134872e+00 5.6598261986723730e-01 0.0000000000000000e+00  1.1437240074711368e+00 7.7138918488812458e-01 0.0000000000000000e+00  1.0017879679791279e+00 5.6792228194609849e-02 0.0000000000000000e+00  8.1859237754422309e-01 3.3962840756154222e-01 0.0000000000000000e+00  5.3073679304774701e-01 2.0808909495212555e+00 0.0000000000000000e+00  2.2555808645035431e+00 1.7881197553642427e+00 0.0000000000000000e+00  2.0830636247131635e+00 2.3456403453855308e+00 0.0000000000000000e+00  2.4376456638487740e+00 1.6396555302065032e+00 0.0000000000000000e+00  2.5893321616838159e+00 1.6618915768501874e+00 0.0000000000000000e+00  2.7789566323501833e+00 1.4796548786461461e+00 0.0000000000000000e+00  2.9516359152339904e+00 1.4359712273468550e+00 0.0000000000000000e+00  3.0159662522501876e+00 1.1129078170258802e+00 0.0000000000000000e+00  2.9778861884144918e+00 6.8037197675883698e-01 0.0000000000000000e+00  2.9765384803081063e+00 2.6138941820886552e-01 0.0000000000000000e+00  2.8980045345779177e+00 -2.6166081296831190e-01 0.0000000000000000e+00  2.7607433900464353e+00 -9.3603968116923242e-01 0.0000000000000000e+00  2.9226585302389623e+00 -1.2348158652998542e+00 0.0000000000000000e+00  2.8863668019197455e+00 -1.9053691738818492e+00 0.0000000000000000e+00  5.3567582292230354e+00 1.1268197836823806e+00 0.0000000000000000e+00  6.5088457911508986e+00 2.1762664470637105e+00 0.0000000000000000e+00  6.8362764585423834e+00 2.0046424066006368e+00 0.0000000000000000e+00  6.8299842814679321e+00 1.3692014453142698e+00 0.0000000000000000e+00  6.6324638691158464e+00 5.8274096461716596e-01 0.0000000000000000e+00  6.3644371366955035e+00 -2.3887959328637251e-01 0.0000000000000000e+00  6.0249472657765208e+00 -1.0536853862857043e+00 0.0000000000000000e+00  5.6048808019350078e+00 -1.8925987199031395e+00 0.0000000000000000e+00  5.0932173062280013e+00 -2.7512223160829099e+00 0.0000000000000000e+00  4.4823031739134382e+00 -3.7962055315896470e+00 0.0000000000000000e+00  3.7755392073373693e+00 -4.7212044837118565e+00 0.0000000000000000e+00  3.0114462671406894e+00 -5.9402741524788460e+00 0.0000000000000000e+00  2.2280539117011977e+00 -6.6342498811503710e+00 0.0000000000000000e+00  1.4860000350004747e+00 -7.5702574625884695e+00 0.0000000000000000e+00  8.4093060315502777e-01 -7.1262942050801712e+00 0.0000000000000000e+00  3.5764916229867949e-01 -6.8454673769170693e+00 0.0000000000000000e+00  5.5453286582421789e-02 -3.4883405807299055e+00 0.0000000000000000e+00  5.3721044653046064e-03 1.9436460973023025e-03 0.0000000000000000e+00  6.4654335576529942e-02 8.8949954912467515e+00 0.0000000000000000e+00  5.3677321609362479e-03 -2.2569279530044581e-03 0.0000000000000000e+00  3.4736357813673274e-01 1.1366875961225167e+01 0.0000000000000000e+00  5.0453417361235131e-01 1.1092422415492958e+01 0.0000000000000000e+00  -1.1093322126286469e+00 7.9541449207110171e+00 0.0000000000000000e+00  3.5080431068128709e-01 7.9115587375937606e+00 0.0000000000000000e+00  2.1855237470102509e-01 5.8476156374375190e+00 0.0000000000000000e+00  7.0766030120408296e-01 4.6631490842479053e+00 0.0000000000000000e+00  8.0178162640690820e-01 3.3206803502249045e+00 0.0000000000000000e+00  9.8003217917902485e-01 2.4931089317107400e+00 0.0000000000000000e+00  1.0614162312888189e+00 1.9249164934648868e+00 0.0000000000000000e+00  1.1643031584009140e+00 1.5657579582185797e+00 0.0000000000000000e+00  1.1792987079392514e+00 1.2975539081678642e+00 0.0000000000000000e+00  1.2518514714132989e+00 1.2507281197319331e+00 0.0000000000000000e+00  1.3577002763166655e+00 1.3123926412928648e+00 0.0000000000000000e+00  1.4463218125813186e+00 1.4170824803431614e+00 0.0000000000000000e+00  1.5100755263095775e+00 1.5210559456662134e+00 0.0000000000000000e+00  1.5505057762395191e+00 1.5880514448946399e+00 0.0000000000000000e+00  1.5461142345465311e+00 1.6013459182793586e+00 0.0000000000000000e+00  1.5213776678749187e+00 1.5945771472800916e+00 0.0000000000000000e+00  1.4853054244615338e+00 1.5358752418054675e+00 0.0000000000000000e+00  1.4293766426471244e+00 1.4811197961857969e+00 0.0000000000000000e+00  1.3659008458994544e+00 1.3575420687027027e+00 0.0000000000000000e+00  1.3047069029561140e+00 1.3037836820411808e+00 0.0000000000000000e+00  1.2299707751942994e+00 1.0854973703829194e+00 0.0000000000000000e+00  1.1533364302324505e+00 1.1015137748703281e+00 0.0000000000000000e+00  1.0678625750685211e+00 7.0805407597434489e-01 0.0000000000000000e+00  9.7073178334735810e-01 9.5002536502241153e-01 0.0000000000000000e+00  8.4926677185531430e-01 2.7491781684993044e-01 0.0000000000000000e+00  7.0116631162272358e-01 6.1776318066774416e-01 0.0000000000000000e+00  5.1405373014832001e-01 2.5184021120631455e+00 0.0000000000000000e+00  1.6192744813622615e+00 1.5317494156759073e+00 0.0000000000000000e+00  1.4500197319605788e+00 2.0882943957461997e+00 0.0000000000000000e+00  1.7878826368596028e+00 1.3710923356300346e+00 0.0000000000000000e+00  1.9625139585454088e+00 1.4407951994748331e+00 0.0000000000000000e+00  2.1045638433694869e+00 1.2033421637215596e+00 0.0000000000000000e+00  2.2818419166629536e+00 1.1868455522420540e+00 0.0000000000000000e+00  2.4397862938952182e+00 1.0282412063997222e+00 0.0000000000000000e+00  2.4869109191609744e+00 7.5044256434742396e-01 0.0000000000000000e+00  2.4299540952677936e+00 2.7693980387746592e-01 0.0000000000000000e+00  2.4094790261192034e+00 -1.3072318081229276e-01 0.0000000000000000e+00  2.3134734390506568e+00 -7.1991113656985584e-01 0.0000000000000000e+00  2.1619140517992008e+00 -1.4689575235969041e+00 0.0000000000000000e+00  2.3109804457335827e+00 -1.8373105609879916e+00 0.0000000000000000e+00  2.2508038550395275e+00 -2.5519313694687176e+00 0.0000000000000000e+00  4.6805062040677141e+00 4.7531622236582982e-01 0.0000000000000000e+00  5.7980993955555196e+00 1.5283455816994687e+00 0.0000000000000000e+00  6.1056291264754616e+00 1.3884451774857460e+00 0.0000000000000000e+00  6.0860652167036013e+00 8.8453420437575991e-01 0.0000000000000000e+00  5.8806891813518076e+00 1.6779988995727249e-01 0.0000000000000000e+00  5.6063357616701657e+00 -5.4253123064984332e-01 0.0000000000000000e+00  5.2629398261056028e+00 -1.2620566754235232e+00 0.0000000000000000e+00  4.8422515299271920e+00 -1.9866688294318209e+00 0.0000000000000000e+00  4.3347756490850049e+00 -2.8870493838428142e+00 0.0000000000000000e+00  3.7344034791288041e+00 -3.6776637968800641e+00 0.0000000000000000e+00  3.0516492952391641e+00 -4.8160188735480531e+00 0.0000000000000000e+00  2.3230310570931354e+00 -5.5025315805382728e+00 0.0000000000000000e+00  1.6013233939586387e+00 -6.5042423376089591e+00 0.0000000000000000e+00  9.3741443097412624e-01 -6.2507096192945300e+00 0.0000000000000000e+00  4.1989627119452166e-01 -6.1946437230269691e+00 0.0000000000000000e+00  7.3167026539500440e-02 -3.2219333750833230e+00 0.0000000000000000e+00  9.0926300179628682e-03 2.4625517620935500e-03 0.0000000000000000e+00  7.9498552801362074e-02 8.6129372868464849e+00 0.0000000000000000e+00  9.0881315433257084e-03 -2.8795806225567445e-03 0.0000000000000000e+00  3.9966480443860930e-01 1.0837611793644486e+01 0.0000000000000000e+00  7.6988024423752666e-01 1.0840707161472919e+01 0.0000000000000000e