<?xml version="1.0"?>
<VTKFile type="UnstructuredGrid"  version="0.1"  >
<UnstructuredGrid>
<Piece  NumberOfPoints="1933" NumberOfCells="3640">
<Points>
<DataArray  type="Float64"  NumberOfComponents="3"  format="ascii">0.0003058024510100288 -0.003049202427858181 0  5.00030586901415 -0.002973323980142053 0  5.00019203250326 7.497026833029286 0  0.0001919419904315989 7.496950916403117 0  10.00030598124249 -0.002897562849916714 0  10.00019218123684 7.49710259966034 0  15.00030620168882 -0.002821910672297289 0  15.00019241122185 7.497178247519728 0  20.00030658323094 -0.002746318648874837 0  20.00019274108981 7.497253833201449 0  25.00030716565296 -0.002670717261411839 0  25.00019318513167 7.497329428818952 0  30.00030797686729 -0.002595025462679156 0  30.00019375259539 7.497405116118167 0  35.00030903509802 -0.002519154687560625 0  35.00019444715962 7.497480983673245 0  40.00031035082834 -0.002443010088187218 0  40.00019526656082 7.497557126108525 0  45.00031192818179 -0.002366490166055856 0  45.00019620219635 7.497633644633773 0  50.00031376569014 -0.002289485377931671 0  50.00019723853 7.497710648487501 0  55.00031585647432 -0.002211875972139777 0  55.0001983521625 7.497788257097519 0  60.00031818784777 -0.00213352912163471 0  60.00019951043308 7.497866602914884 0  65.00032074031255 -0.002054295289579379 0  65.00020066939871 7.497945834987291 0  70.0003234858376 -0.001974003652647057 0  70.00020177099771 7.49802612343326 0  75.00032638521949 -0.001892456290046643 0  75.00020273912692 7.498107665077363 0  80.00032938416774 -0.001809420698726342 0  80.00020347424828 7.498190690623856 0  85.00033240753137 -0.00172461999070283 0  85.00020384599691 7.498275473892796 0  90.00033535068306 -0.001637719831912348 0  90.00020368304152 7.498362343828882 0  95.00033806642463 -0.001548310744915069 0  95.00020275919127 7.498451700214378 0  100.0003403445941 -0.001455883755101537 0  100.0002007744598 7.498544034239281 0  105.0003418794793 -0.001359796435519632 0  105.0001973295783 7.498639955189041 0  110.0003422163104 -0.001259225144650234 0  110.0001918926314 7.498740224188124 0  115.0003406611182 -0.001153097738364919 0  115.0001837578093 7.498845794432556 0  120.0003361251919 -0.001039999844317453 0  120.0001720004582 7.498957852903217 0  125.0003268510532 -0.0009180489896237977 0  125.0001554436626 7.499077847314521 0  130.0003099212532 -0.0007847410447537758 0  130.0001326779827 7.499207455877499 0  135.0002803656279 -0.0006368131923032876 0  135.0001022359378 7.499348400630812 0  140.0002295199629 -0.0004703059150028789 0  140.0000631549632 7.499501894281482 0  145.0001419668992 -0.0002815037065414 0  145.0000164530572 7.49966735259068 0  149.999989661922 -7.142030257981073e-05 0  149.9999687170425 7.49984012921149 0  159.9999999999981 1.131456521698185e-18 0  164.9999623536506 -0.0001126951598022773 0  164.9999956640463 7.499861917236506 0  159.9999968811973 7.499941623393755 0  169.9999647326459 -0.0001775093754145495 0  169.9999940142198 7.499810100906813 0  174.9999841498311 -0.0002089226527639186 0  174.9999965276589 7.499784703235664 0  180.0000098842254 -0.0002160566509740344 0  180.0000030476643 7.499780597027006 0  185.0000368928949 -0.0002052813586490267 0  185.000012355244 7.499792961516 0  190.0000628684514 -0.0001811509022828165 0  190.0000232441677 7.499817946457014 0  195.0000868381015 -0.000146947420775779 0  195.0000347854201 7.499852617317327 0  200.0001084772597 -0.0001050568066133218 0  200.0000463374374 7.499894767093419 0  205.0001277692323 -5.72334194170692e-05 0  205.0000574882418 7.499942735663912 0  210.0001448359698 -4.784779126956664e-06 0  210.0000679913101 7.499995266024884 0  215.0001598542739 5.130045394652932e-05 0  215.000077712919 7.500051397046582 0  220.0001730149192 0.0001102637524042132 0  220.0000865934538 7.500110385473923 0  225.0001845033988 0.0001715147937247374 0  225.000094620493 7.500171649625784 0  230.000194491559 0.0002345877585385844 0  230.0001018106898 7.500234728682737 0  235.0002031346944 0.0002991100707820999 0  235.0001081978522 7.500299253037645 0  240.0002105713466 0.00036477970827698 0  240.0001138252595 7.500364922488417 0  245.0002169244168 0.0004313484938744923 0  245.0001187408357 7.500431490023068 0  250.0002223028849 0.0004986096285732912 0  250.0001229942327 7.500498749636907 0  255.0002268038063 0.0005663882953121538 0  255.0001266351954 7.500566527105839 0  260.0002305144286 0.0006345345466528091 0  260.0001297127811 7.500634672979189 0  265.0002335143922 0.0007029179597011165 0  265.0001322751521 7.500703057300401 0  270.0002358780034 0.0007714237447832622 0  270.0001343697533 7.500771565750361 0  275.0002376766186 0.0008399501657853547 0  275.0001360437111 7.500840097062299 0  280.0002389811568 0.000908407300097508 0  280.0001373443405 7.500908561701709 0  285.0002398647219 0.0009767173659686445 0  285.0001383196353 7.500976881956913 0  290.0002404051666 0.001044817112350019 0  290.0001390185892 7.501044993758637 0  295.0002406871859 0.001112663144755211 0  295.0001394912589 7.501112850743335 0  300.0002408028466 0.001180241578651579 0  300.0001397885421 7.501180431279118 0  305.0002408481889 0.001247583948317502 0  305.0001399621383 7.501247749351347 0  310.0002409106029 0.00131479090014613 0  310.0001400663829 7.501314870512888 0  5.000077920857818 14.99702716032507 0  7.78316373928889e-05 14.99695120177803 0  10.00007804097088 14.9971029065516 0  15.00007820518151 14.9971785158637 0  20.00007841760882 14.99725406189812 0  25.00007867767231 14.99732962219648 0  30.0000789811216 14.99740527918968 0  35.00007931976899 14.99748112031863 0  40.00007968075109 14.99755723843461 0  45.00008004558914 14.9976337327431 0  50.00008038908805 14.99771071030777 0  55.00008067802447 14.99778828809651 0  60.00008086954143 14.99786659558193 0  65.0000809091534 14.9979457779547 0  70.00008072825767 14.9980260000553 0  75.00008024105205 14.99810745117628 0  80.00007934077145 14.99819035092282 0  85.00007789521402 14.99827495633578 0  90.00007574165296 14.99836157044523 0  95.00007268151842 14.99845055227003 0  100.0000684757792 14.99854232787471 0  105.0000628430357 14.99863740117565 0  110.0000554642443 14.99873636124815 0  115.0000460013604 14.99883987898119 0  120.0000341426744 14.99894867836893 0  125.0000196959455 14.99906345364765 0  130.0000027612532 14.99918467841268 0  134.9999840247877 14.99931221083899 0  139.9999652075548 14.99944453435733 0  144.9999496342674 14.99957737916646 0  149.9999426292791 14.99970128196212 0  164.9999823467661 14.99979116467141 0  159.999976605438 14.99981727856201 0  169.9999815595219 14.99977134471187 0  174.9999791135758 14.99976376862421 0  179.9999774378301 14.9997694313406 0  184.9999773464515 14.9997871413947 0  189.9999788617113 14.99981505583563 0  194.9999816913444 14.99985133263992 0  199.9999854645793 14.99989435899288 0  204.9999898348835 14.99994279948742 0  209.9999945160124 14.99999557590691 0  214.999999287415 15.00005182648083 0  220.0000039872365 15.00011086376105 0  225.0000085015968 15.0001721377755 0  230.0000127539306 15.00023520594458 0  235.0000166958323 15.00029970929499 0  240.0000202997118 15.00036535392572 0  245.0000235531525 15.00043189664579 0  250.0000264546937 15.00049913385722 0  255.0000290107347 15.0005668929486 0  260.0000312333067 15.00063502564798 0  265.000033138471 15.0007034029357 0  270.0000347451913 15.00077191124722 0  275.0000360745139 15.00084044980032 0  280.0000371489734 15.00090892896959 0  285.0000379921693 15.0009772696983 0  290.0000386285218 15.00104540397092 0  295.0000390834091 15.00111327632804 0  300.0000393840787 15.00118084620806 0  305.0000395622544 15.00124809037077 0  310.0000396600703 15.00131500343995 0  4.999963699455859 22.49702773920162 0  -3.638320563636999e-05 22.49695182888704 0  9.999963785661821 22.49710340495886 0  14.99996387736121 22.49717892427647 0  19.99996397070259 22.49725438300018 0  24.9999640577083 22.49732986298116 0  29.99996412713641 22.49740544642781 0  34.99996416450622 22.497481218232 0  39.99996415160941 22.49755726751521 0  44.99996406574471 22.4976336890238 0  49.99996387880278 22.49771058465926 0  54.99996355624994 22.49778806526971 0  59.99996305603349 22.49786625276128 0  64.99996232742686 22.49794528256501 0  69.99996130986277 22.49802530647641 0  74.99995993186057 22.4981064958612 0  79.9999581102537 22.49818904515891 0  84.99995575009022 22.4982731754983 0  89.99995274584528 22.49835913800467 0  94.99994898500165 22.49844721595281 0  99.99994435567883 22.49853772415577 0  104.9999387608967 22.49863100265942 0  109.9999321432697 22.49872739958485 0  114.9999245253449 22.49882723434586 0  119.9999160719762 22.4989307268943 0  124.9999071808933 22.49903787074537 0  129.9998986032242 22.49914821807235 0  134.9998915817777 22.49926053854778 0  139.9998879619712 22.4993723241562 0  144.9998901656665 22.49947918019018 0  149.9999008163514 22.49957438400284 0  164.9999371113244 22.49971013938583 0  159.9999303762694 22.499699718096 0  169.9999378991933 22.49971856702726 0  174.9999352490904 22.49973066013196 0  179.9999312652451 22.49974923313754 0  184.9999272924858 22.49977515078896 0  189.9999240238713 22.49980818909956 0  194.9999217189235 22.49984762677957 0  199.9999203890186 22.49989258305089 0  204.9999199227734 22.49994218723361 0  209.9999201613014 22.49999565212327 0  214.9999209393174 22.50005229719619 0  219.9999221052395 22.50011154784757 0  224.9999235292679 22.50017292456658 0  229.9999251050471 22.50023602900172 0  234.9999267482014 22.50030053014078 0  239.9999283935822 22.50036615192821 0  244.9999299921925 22.50043266271135 0  249.9999315082503 22.50049986649243 0  254.9999329166014 22.50056759579773 0  259.9999342005056 22.50063570593757 0  264.9999353498083 22.5007040704415 0  269.99993635943 22.500772577488 0  274.9999372281462 22.50084112717868 0  279.9999379576399 22.50090962952754 0  284.9999385518404 22.5009780030224 0  289.9999390166587 22.50104617355144 0  294.9999393603206 22.50111407331855 0  299.999939594
[...]
<PointData  Vectors="v"> 
<DataArray  type="Float64"  Name="v"  NumberOfComponents="3" format="ascii">-1.5833686632994322e+00 5.7323468642730599e+00 0.0000000000000000e+00  -1.1488584021963302e+00 5.5763664222858660e+00 0.0000000000000000e+00  -8.4811096856000812e-01 4.9247755050032991e+00 0.0000000000000000e+00  -1.1800444428471457e+00 5.2350838551601875e+00 0.0000000000000000e+00  -5.6857772829501785e-01 6.2535563818585365e+00 0.0000000000000000e+00  -4.1382925713694202e-01 5.3839925201794996e+00 0.0000000000000000e+00  4.4780531029414280e-03 7.3369179252287147e+00 0.0000000000000000e+00  1.6549281792418319e-01 6.4785875933750292e+00 0.0000000000000000e+00  5.6215874226798646e-01 7.9703952770123507e+00 0.0000000000000000e+00  7.3699609734402372e-01 7.1359353425072678e+00 0.0000000000000000e+00  1.2345085837620451e+00 9.0305373999678569e+00 0.0000000000000000e+00  1.2924282569054497e+00 8.0248156985037138e+00 0.0000000000000000e+00  1.8125305545586197e+00 9.7171084208392369e+00 0.0000000000000000e+00  1.9614556165784807e+00 8.8534681916168942e+00 0.0000000000000000e+00  1.9676833987089277e+00 9.8147232874392003e+00 0.0000000000000000e+00  2.5353178038751105e+00 9.5864357474404738e+00 0.0000000000000000e+00  2.9465170794175992e+00 1.1026006563362264e+01 0.0000000000000000e+00  2.6854241405917314e+00 9.5630440087858641e+00 0.0000000000000000e+00  -1.4302904016099627e-01 6.1491956181250815e+00 0.0000000000000000e+00  3.6579076215767117e+00 1.0789705936850421e+01 0.0000000000000000e+00  9.4307475554793765e+00 2.0009728786818538e+01 0.0000000000000000e+00  5.6100259521906870e-01 5.6557606631262773e+00 0.0000000000000000e+00  8.3839970852127159e+00 1.7490180732010494e+01 0.0000000000000000e+00  1.0127190761918618e+01 1.9068264219111342e+01 0.0000000000000000e+00  8.2543195060052472e+00 1.6261738666748947e+01 0.0000000000000000e+00  9.0711361630070897e+00 1.6466223015812464e+01 0.0000000000000000e+00  8.7902466130730534e+00 1.6039666931501323e+01 0.0000000000000000e+00  8.9298078816617501e+00 1.5247768357547013e+01 0.0000000000000000e+00  9.8591701008043842e+00 1.6628390998880562e+01 0.0000000000000000e+00  9.4519666716874742e+00 1.5039321293811703e+01 0.0000000000000000e+00  1.1285513727047062e+01 1.7691419838411726e+01 0.0000000000000000e+00  1.0503967090947832e+01 1.5567721504511910e+01 0.0000000000000000e+00  1.2976814915654845e+01 1.9012668116830294e+01 0.0000000000000000e+00  1.1911140908972380e+01 1.6494271648070413e+01 0.0000000000000000e+00  1.4849524303499052e+01 2.0605593251407825e+01 0.0000000000000000e+00  1.3580989496906195e+01 1.7817365102517247e+01 0.0000000000000000e+00  1.6820038269985126e+01 2.2092595637924141e+01 0.0000000000000000e+00  1.5428630733760757e+01 1.9159388610002821e+01 0.0000000000000000e+00  1.8818893109007909e+01 2.3490440325673585e+01 0.0000000000000000e+00  1.7371903663171295e+01 2.0518069657973019e+01 0.0000000000000000e+00  2.0781869223468224e+01 2.4647623365491249e+01 0.0000000000000000e+00  1.9340344401358042e+01 2.1731100437937620e+01 0.0000000000000000e+00  2.2633375000260514e+01 2.5478705984829126e+01 0.0000000000000000e+00  2.1269780043913670e+01 2.2732338195388813e+01 0.0000000000000000e+00  2.4312846480556651e+01 2.5591782335642641e+01 0.0000000000000000e+00  2.3083748024483999e+01 2.3105500896919821e+01 0.0000000000000000e+00  2.5779416754463128e+01 2.5526856922650943e+01 0.0000000000000000e+00  2.4724631987375091e+01 2.3364782522927488e+01 0.0000000000000000e+00  2.6984413131980489e+01 2.4076276184229268e+01 0.0000000000000000e+00  2.6145145578130474e+01 2.2305271292688548e+01 0.0000000000000000e+00  2.7930066702545076e+01 2.2626479966265421e+01 0.0000000000000000e+00  2.7306788972172420e+01 2.1253996942685212e+01 0.0000000000000000e+00  2.8598766333735664e+01 1.9188994411788237e+01 0.0000000000000000e+00  2.8196785042032236e+01 1.8224742562562771e+01 0.0000000000000000e+00  2.9041085239256333e+01 1.5800604594121882e+01 0.0000000000000000e+00  2.8819105357169789e+01 1.5193325754287798e+01 0.0000000000000000e+00  2.9266150553210153e+01 1.0283053723683194e+01 0.0000000000000000e+00  2.9194243582977538e+01 9.9840012532820648e+00 0.0000000000000000e+00  2.9368169411943388e+01 3.7344535706425352e+00 0.0000000000000000e+00  2.9372091540700971e+01 3.6504303398997404e+00 0.0000000000000000e+00  2.9389264412309387e+01 1.2410673324832122e-05 0.0000000000000000e+00  2.9389462126847889e+01 2.2004696945861457e-04 0.0000000000000000e+00  2.9389262614587846e+01 -1.7262408635324756e-19 0.0000000000000000e+00  2.1020356501886230e+01 -1.1533490966187429e+01 0.0000000000000000e+00  2.9366938548966306e+01 9.8209264159895404e-01 0.0000000000000000e+00  2.9389455237941046e+01 -1.8667981642520566e-04 0.0000000000000000e+00  2.0626849162922618e+01 -2.0689433207766751e+01 0.0000000000000000e+00  2.1049401307886519e+01 -2.0166652886336067e+01 0.0000000000000000e+00  1.7603412642851083e+01 -2.7674078830960404e+01 0.0000000000000000e+00  2.0715386164141044e+01 -2.3180338417540433e+01 0.0000000000000000e+00  1.6453529779798025e+01 -2.9091136197715588e+01 0.0000000000000000e+00  1.7749382039806921e+01 -2.7417483132758647e+01 0.0000000000000000e+00  1.4659598396996183e+01 -3.0531232466499990e+01 0.0000000000000000e+00  1.6653030801239670e+01 -2.7885223805740182e+01 0.0000000000000000e+00  1.3286940344600678e+01 -2.9722952762572952e+01 0.0000000000000000e+00  1.4910204478238663e+01 -2.7709710218742455e+01 0.0000000000000000e+00  1.1900834175141400e+01 -2.8669533467484374e+01 0.0000000000000000e+00  1.3588122889905236e+01 -2.6632381307390798e+01 0.0000000000000000e+00  1.0685048002851438e+01 -2.6777155380946237e+01 0.0000000000000000e+00  1.2249666476144521e+01 -2.4996150312470458e+01 0.0000000000000000e+00  9.3156749819747731e+00 -2.4935171300707303e+01 0.0000000000000000e+00  1.1080125996652320e+01 -2.2921459695518102e+01 0.0000000000000000e+00  8.2867373346570208e+00 -2.2724297274364524e+01 0.0000000000000000e+00  9.7559901914069282e+00 -2.1220411582325653e+01 0.0000000000000000e+00  7.4122689712111800e+00 -2.0642669478401089e+01 0.0000000000000000e+00  8.7706868941511242e+00 -1.9369659632709816e+01 0.0000000000000000e+00  6.4823790939058519e+00 -1.8846552081487232e+01 0.0000000000000000e+00  7.9386880235521833e+00 -1.7489463250619551e+01 0.0000000000000000e+00  5.6161165527834234e+00 -1.7204278779288536e+01 0.0000000000000000e+00  7.0505205097931825e+00 -1.5941591021594089e+01 0.0000000000000000e+00  4.8157225147367031e+00 -1.5760011012405508e+01 0.0000000000000000e+00  6.2247977972297095e+00 -1.4595602857962236e+01 0.0000000000000000e+00  4.0573844944723580e+00 -1.4438370527608056e+01 0.0000000000000000e+00  5.4640312947471896e+00 -1.3336198041179140e+01 0.0000000000000000e+00  3.3808507657831735e+00 -1.3175523250969576e+01 0.0000000000000000e+00  4.7446304549094531e+00 -1.2195346013441032e+01 0.0000000000000000e+00  2.7878065787203936e+00 -1.2004010272376000e+01 0.0000000000000000e+00  4.1061776032583790e+00 -1.1148551618756672e+01 0.0000000000000000e+00  2.2455125025149574e+00 -1.0873585172955806e+01 0.0000000000000000e+00  3.5504635578937718e+00 -1.0093689583828063e+01 0.0000000000000000e+00  1.7716349763145107e+00 -9.7691061685561777e+00 0.0000000000000000e+00  3.0450068514360371e+00 -9.0912310942537253e+00 0.0000000000000000e+00  1.3686969761406784e+00 -8.7108796006309550e+00 0.0000000000000000e+00  2.6072376066098957e+00 -8.1391256540932009e+00 0.0000000000000000e+00  1.0101955506756257e+00 -7.6554862097603040e+00 0.0000000000000000e+00  2.2400272998238275e+00 -7.1497861334976465e+00 0.0000000000000000e+00  7.0713304601590321e-01 -6.6324601677230737e+00 0.0000000000000000e+00  1.9165677308310292e+00 -6.2098032294653560e+00 0.0000000000000000e+00  4.6343642340032626e-01 -5.6245304077270308e+00 0.0000000000000000e+00  1.6485399759413355e+00 -5.2901397419641683e+00 0.0000000000000000e+00  2.6097197492042823e-01 -4.6552769094115458e+00 0.0000000000000000e+00  1.4386907589284716e+00 -4.3832503531521212e+00 0.0000000000000000e+00  1.0839966410805789e-01 -3.6859149286325557e+00 0.0000000000000000e+00  1.2711182657874627e+00 -3.4869835074552649e+00 0.0000000000000000e+00  -1.4497689384702513e-03 -2.8485056777730628e+00 0.0000000000000000e+00  1.1507596783146872e+00 -2.7159049363429002e+00 0.0000000000000000e+00  -7.0729532289262806e-02 -1.9644588294770773e+00 0.0000000000000000e+00  1.0766958600228040e+00 -1.8883147519145358e+00 0.0000000000000000e+00  -1.3769877316176574e-01 -1.3315379689344968e+00 0.0000000000000000e+00  1.0364625211560654e+00 -1.2656042352720689e+00 0.0000000000000000e+00  -2.0989187172157073e-01 -7.1126327271316947e-01 0.0000000000000000e+00  1.0098878230338146e+00 -6.2509392870742919e-01 0.0000000000000000e+00  -3.7197797747746292e-01 1.7146294100473233e-01 0.0000000000000000e+00  9.5384783264023587e-01 3.6833739070625043e-01 0.0000000000000000e+00  -1.2902880714214529e-01 4.4260366228934283e+00 0.0000000000000000e+00  -4.8851701366234318e-01 4.6978627566508866e+00 0.0000000000000000e+00  2.0413927655110295e-01 4.7317941811561655e+00 0.0000000000000000e+00  6.3947634406556964e-01 5.6093821413343097e+00 0.0000000000000000e+00  1.2190697807733646e+00 6.2790150765460258e+00 0.0000000000000000e+00  1.7897767059715048e+00 7.1924304132316212e+00 0.0000000000000000e+00  2.3433535074055851e+00 7.8517662926308560e+00 0.0000000000000000e+00  3.0089741167442288e+00 8.7286129550108260e+00 0.0000000000000000e+00  3.5775065157270518e+00 9.3414702772185585e+00 0.0000000000000000e+00  3.7206796517967771e+00 9.3362238669278188e+00 0.0000000000000000e+00  4.6837431325114647e+00 1.0308176934039732e+01 0.0000000000000000e+00  1.5763333270857329e+00 4.7225332585530975e+00 0.0000000000000000e+00  1.1136359127502560e+01 1.8053925106933541e+01 0.0000000000000000e+00  1.0073171584037993e+01 1.5467230670591540e+01 0.0000000000000000e+00  9.9189827470021861e+00 1.4264800717653422e+01 0.0000000000000000e+00  1.0424422873064325e+01 1.4002754808035265e+01 0.0000000000000000e+00  1.1453980676097578e+01 1.4399124498050551e+01 0.0000000000000000e+00  1.2833884366380735e+01 1.5329994015656153e+01 0.0000000000000000e+00  1.4472356240801968e+01 1.6409388408050742e+01 0.0000000000000000e+00  1.6283002728759023e+01 1.7627843257438453e+01 0.0000000000000000e+00  1.8183730784164027e+01 1.8804589275699474e+01 0.0000000000000000e+00  2.0105192704886736e+01 1.9870109518385480e+01 0.0000000000000000e+00  2.1980351504600883e+01 2.0418697079849590e+01 0.0000000000000000e+00  2.3734281130594912e+01 2.0942422866333402e+01 0.0000000000000000e+00  2.5308015395012912e+01 2.0215678455366842e+01 0.0000000000000000e+00  2.6655326519948431e+01 1.9562394492701372e+01 0.0000000000000000e+00  2.7733161913157343e+01 1.6934044655094421e+01 0.0000000000000000e+00  2.8538718906611784e+01 1.4327885078369475e+01 0.0000000000000000e+00  2.9056799122406328e+01 9.4614260872433817e+00 0.0000000000000000e+00  2.9341388716117841e+01 3.4784596010545794e+00 0.0000000000000000e+00  2.9389936826290530e+01 4.1939146590819502e-04 0.0000000000000000e+00  2.9328732414059019e+01 1.1417897701412596e+00 0.0000000000000000e+00  2.9389927432192898e+01 -3.6698215215328570e-04 0.0000000000000000e+00  2.9172605613522315e+01 -7.7097475855524955e+00 0.0000000000000000e+00  2.0919836248381646e+01 -2.2731497586270162e+01 0.0000000000000000e+00  2.0666665504502109e+01 -2.3010469274831330e+01 0.0000000000000000e+00  1.7768953435346319e+01 -2.6281778507319199e+01 0.0000000000000000e+00  1.6738438984537257e+01 -2.5128050613268858e+01 0.0000000000000000e+00  1.5051997224459752e+01 -2.4684819732184987e+01 0.0000000000000000e+00  1.3785565036780616e+01 -2.3018450918837935e+01 0.0000000000000000e+00  1.2497023512128465e+01 -2.1195637574548257e+01 0.0000000000000000e+00  1.1374613487964337e+01 -1.9261884424893552e+01 0.0000000000000000e+00  1.0095439406974803e+01 -1.7917810044187718e+01 0.0000000000000000e+00  9.1530659185907091e+00 -1.6266022851607605e+01 0.0000000000000000e+00  8.3619894893028590e+00 -1.4633819783299826e+01 0.0000000000000000e+00  7.5137811745924292e+00 -1.3380306891828525e+01 0.0000000000000000e+00  6.7264736989787233e+00 -1.2217331744223804e+01 0.0000000000000000e+00  6.0026715648613083e+00 -1.1138164468957326e+01 0.0000000000000000e+00  5.3192205576322609e+00 -1.0211935760427149e+01 0.0000000000000000e+00  4.7155036571884503e+00 -9.2804033973908080e+00 0.0000000000000000e+00  4.1933709007465545e+00 -8.3529299631911282e+00 0.0000000000000000e+00  3.7206382128577680e+00 -7.5018043666000791e+00 0.0000000000000000e+00  3.3147119703014924e+00 -6.6176026220941910e+00 0.0000000000000000e+00  2.9784255232428181e+00 -5.7431600991362144e+00 0.0000000000000000e+00  2.6853620576311630e+00 -4.9058127538994585e+00 0.0000000000000000e+00  2.4468488716859378e+00 -4.0864206598743591e+00 0.0000000000000000e+00  2.2662070968971788e+00 -3.2521859989433182e+00 0.0000000000000000e+00  2.1267175833957777e+00 -2.5535188753190710e+00 0.0000000000000000e+00  2.0349197919115203e+00 -1.7914939168836568e+00 0.0000000000000000e+00  1.9868930210280160e+00 -1.2252863248806662e+00 0.0000000000000000e+00  1.9752527293076163e+00 -5.9539173042431459e-01 0.0000000000000000e+00  1.9726676653141018e+00 4.3065915589141374e-01 0.0000000000000000e+00  1.1206308645624337e+00 3.8849194380103911e+00 0.0000000000000000e+00  7.9919427418567535e-01 4.2187613225576701e+00 0.0000000000000000e+00  1.4831633723744755e+00 4.2291610311954067e+00 0.0000000000000000e+00  1.8209785616640752e+00 4.9541290991906441e+00 0.0000000000000000e+00  2.2598755837929221e+00 5.4079742786286982e+00 0.0000000000000000e+00  2.8422506166518624e+00 6.3357935314361438e+00 0.0000000000000000e+00  3.4142839318003140e+00 7.0226378121593633e+00 0.0000000000000000e+00  3.9665861922697645e+00 7.7330264109330606e+00 0.0000000000000000e+00  4.6284080791815345e+00 8.4939623294588884e+00 0.0000000000000000e+00  5.1898280394730660e+00 9.1298587534366344e+00 0.0000000000000000e+00  5.3213860465289358e+00 8.8746769778274874e+00 0.0000000000000000e+00  6.2693269216114142e+00 9.3952996548101329e+00 0.0000000000000000e+00  3.1506213526184688e+00 3.7175224349599594e+00 0.0000000000000000e+00  1.2709677996140183e+01 1.7064142160275463e+01 0.0000000000000000e+00  1.1644465503891910e+01 1.4506813714827956e+01 0.0000000000000000e+00  1.1477718526488710e+01 1.3261680556548761e+01 0.0000000000000000e+00  1.1960627003519011e+01 1.2878412808047871e+01 0.0000000000000000e+00  1.2958527867054785e+01 1.3290570081411344e+01 0.0000000000000000e+00  1.4298108460559753e+01 1.3988642774849284e+01 0.0000000000000000e+00  1.5886527282379060e+01 1.4954988718779282e+01 0.0000000000000000e+00  1.7638229976535751e+01 1.6003855989953674e+01 0.0000000000000000e+00  1.9470661293995128e+01 1.7046631509998164e+01 0.0000000000000000e+00  2.1311607155373466e+01 1.7670913840075201e+01 0.0000000000000000e+00  2.3095976198193540e+01 1.8388825934442387e+01 0.0000000000000000e+00  2.4744293699683684e+01 1.7937488277274529e+01 0.0000000000000000e+00  2.6201179597089322e+01 1.7641089580809378e+01 0.0000000000000000e+00  2.7411867816798452e+01 1.5415690783522480e+01 0.0000000000000000e+00  2.8346110209770245e+01 1.3251404491271918e+01 0.0000000000000000e+00  2.8977499029873332e+01 8.7849770852649272e+00 0.0000000000000000e+00  2.9334384723025302e+01 3.2365347187346343e+00 0.0000000000000000e+00  2.9390679411040178e+01 6.0082005473932317e-04 0.0000000000000000e+00  2.9304669545016161e+01 1.4546773830353248e+00 0.0000000000000000e+00  2.9390670945821274e+01 -5.2567404364394930e-04 0.0000000000000000e+00  2.8937325790146698e+01 -7.4177852643893347e+00 0.0000000000000000e+00  2.8768863791250133e+01 -1.0432981663154228e+01 0.0000000000000000e+00  2.0628186787005493e+01 -2.2731928292095674e+01 0.0000000000000000e+00  2.0505493034692066e+01 -2.2015928260333638e+01 0.0000000000000000e+00  1.7717338681572095e+01 -2.3662097680141297e+01 0.0000000000000000e+00  1.6785262059092428e+01 -2.2220271852870336e+01 0.0000000000000000e+00  1.5184588090958377e+01 -2.1181583317404456e+01 0.0000000000000000e+00  1.3997298419743737e+01 -1.9318870141147457e+01 0.0000000000000000e+00  1.2779265454862902e+01 -1.7630642571797722e+01 0.0000000000000000e+00  1.1722956845858823e+01 -1.6047819904553165e+01 0.0000000000000000e+00  1.0505414274211143e+01 -1.4899375963105802e+01 0.0000000000000000e+00  9.6215506194827825e+00 -1.3491792734385481e+01 0.0000000000000000e+00  8.8867734808665109e+00 -1.2151142775820338e+01 0.0000000000000000e+00  8.0928267338623527e+00 -1.1078009693530715e+01 0.0000000000000000e+00  7.3575292171344921e+00 -1.0092441131834361e+01 0.0000000000000000e+00  6.6838440876564391e+00 -9.2252376390188537e+00 0.0000000000000000e+00  6.0485106064812406e+00 -8.4120356524749553e+00 0.0000000000000000e+00  5.4910020590010582e+00 -7.6054806051115751e+00 0.0000000000000000e+00  5.0133582705221738e+00 -6.8273512041671456e+00 0.0000000000000000e+00  4.5835874443839835e+00 -6.0421714987366357e+00 0.0000000000000000e+00  4.2190082265049877e+00 -5.2713987995989813e+00 0.0000000000000000e+00  3.9230019461206491e+00 -4.4975659971263440e+00 0.0000000000000000e+00  3.6686490880940519e+00 -3.7599174592292410e+00 0.0000000000000000e+00  3.4683118269010005e+00 -3.0104434840372911e+00 0.0000000000000000e+00  3.3237811590863311e+00 -2.3748825735128132e+00 0.0000000000000000e+00  3.2210183006359330e+00 -1.6797911693230116e+00 0.0000000000000000e+00  3.1616820371258938e+00 -1.1851369790964814e+00 0.0000000000000000e+00  3.1510854726789059e+00 -5.9788464239204120e-01 0.0000000000000000e+00  3.1628069977915230e+00 4.0086301581541173e-01 0.0000000000000000e+00  2.4338887680646319e+00 3.4000035983628973e+00 0.0000000000000000e+00  2.1485132132744829e+00 3.7948818454415605e+00 0.0000000000000000e+00  2.7597486945370844e+00 3.6805336581128003e+00 0.0000000000000000e+00  3.1301882331392634e+00 4.4413625328168926e+00 0.0000000000000000e+00  3.4768139844986750e+00 4.7436031541532868e+00 0.0000000000000000e+00  3.9246451796493012e+00 5.4569261621112171e+00 0.0000000000000000e+00  4.5147147504381673e+00 6.1602811081927733e+00 0.0000000000000000e+00  5.0926012651744914e+00 6.9024350933352308e+00 0.0000000000000000e+00  5.6478030174515954e+00 7.5018331964440419e+00 0.0000000000000000e+00  6.3081875091719297e+00 8.2916166638572406e+00 0.0000000000000000e+00  6.8628109405384317e+00 8.6858784461096885e+00 0.0000000000000000e+00  6.9825521596733973e+00 7.9836537046887504e+00 0.0000000000000000e+00  7.9177441508269508e+00 8.4001157581736408e+00 0.0000000000000000e+00  4.7987580623876402e+00 2.7155756507083697e+00 0.0000000000000000e+00  1.4375878549115543e+01 1.6092924977355576e+01 0.0000000000000000e+00  1.3325762469102127e+01 1.3511417568397732e+01 0.0000000000000000e+00  1.3158943466846752e+01 1.2162956051210907e+01 0.0000000000000000e+00  1.3628723849124722e+01 1.1812640310581049e+01 0.0000000000000000e+00  1.4599368334859880e+01 1.2005747660147962e+01 0.0000000000000000e+00  1.5900370715283774e+01 1.2608351205741014e+01 0.0000000000000000e+00  1.7438026872545159e+01 1.3420573764258249e+01 0.0000000000000000e+00  1.9125919968596033e+01 1.4351961458607388e+01 0.0000000000000000e+00  2.0880569933489927e+01 1.4973443335433197e+01 0.0000000000000000e+00  2.2629377088099858e+01 1.5790740045028624e+01 0.0000000000000000e+00  2.4301255867819155e+01 1.5551775944537320e+01 0.0000000000000000e+00  2.5821367097545341e+01 1.5566117512880645e+01 0.0000000000000000e+00  2.7122265837112558e+01 1.3711543156234930e+01 0.0000000000000000e+00  2.8164086759304507e+01 1.2003723503782863e+01 0.0000000000000000e+00  2.8887604382945096e+01 7.9615591967009909e+00 0.0000000000000000e+00  2.9316849964072667e+01 2.9274877997605024e+00 0.0000000000000000e+00  2.9391662333459880e+01 7.6339125063991690e-04 0.0000000000000000e+00  2.9281464055586515e+01 1.8781983118843026e+00 0.0000000000000000e+00  2.9391654536975935e+01 -6.6699929703133046e-04 0.0000000000000000e+00  2.8785564996331253e+01 -6.6944876338015202e+00 0.0000000000000000e+00  2.8260989424853179e+01 -1