<?xml version="1.0"?>
<VTKFile type="UnstructuredGrid"  version="0.1"  >
<UnstructuredGrid>
<Piece  NumberOfPoints="1933" NumberOfCells="3640">
<Points>
<DataArray  type="Float64"  NumberOfComponents="3"  format="ascii">-0.2939976154751626 0.00051176613265608 0  4.706002406178524 0.0004814392368165535 0  4.706047931902851 7.500481514443967 0  -0.293952114766715 7.500511797480234 0  9.70600243084381 0.0004510398839340213 0  9.70604801906231 7.500451131367682 0  14.70600249711413 0.000420524927486379 0  14.70604816927636 7.500420621774216 0  19.70600264925108 0.0003898851583920364 0  19.70604840512476 7.500389983194776 0  24.70600292989041 0.0003591320248661073 0  24.70604874949258 7.500359230032879 0  29.70600337809721 0.000328290118778951 0  29.70604922506455 7.500328388218852 0  34.70600402955276 0.000297392905408874 0  34.70604985395931 7.500297491830438 0  39.70600491753082 0.0002664804661559557 0  39.70605065762498 7.50026658123643 0  44.70600607410104 0.0002355985674146805 0  44.70605165692309 7.500235702354987 0  49.70600753133769 0.0002047986618566881 0  49.70605287230253 7.500204906746664 0  54.70600932245827 0.0001741386091382299 0  54.7060543239765 7.500174252380199 0  59.70601148287768 0.0001436840250230864 0  59.70605603203219 7.500143805003249 0  64.70601405118533 0.0001135102595054892 0  64.70605801640112 7.500113640128518 0  69.70601707004693 8.370508444416574e-05 0  69.70606029661324 7.500083845717798 0  74.70602058702393 5.437225435580239e-05 0  74.70606289122962 7.50005452572172 0  79.70602465526261 2.563620525086198e-05 0  79.70606581680293 7.500025804724251 0  84.7060293339579 -2.351706155601595e-06 0  84.70606908614991 7.499997834058552 0  89.70603468837844 -2.940482132531214e-05 0  89.70607270561104 7.499970799921433 0  94.70604078906101 -5.528975581384237e-05 0  94.70607667083003 7.499944934234002 0  99.70604770940513 -7.971057122136489e-05 0  99.70608096039138 7.499920529294265 0  104.7060555202242 -0.0001022864688949041 0  104.7060855264225 7.499897957651689 0  109.7060642784785 -0.0001225198239376934 0  109.706090281073 7.499877699069207 0  114.7060740048707 -0.0001397496786665082 0  114.7060950778504 7.49986037678194 0  119.7060846400098 -0.000153083285276503 0  119.7060996876882 7.499846805071943 0  124.7060959591236 -0.0001612947920920871 0  124.7061037728224 7.499838048334758 0  129.7061074061658 -0.0001626762790353 0  129.7061068704336 7.499835485699029 0  134.7061177702449 -0.0001548258582102245 0  134.7061084205147 7.499840859491509 0  139.7061245507038 -0.0001343786899216503 0  139.7061079270362 7.49985625247903 0  144.7061226941238 -9.681752333830812e-05 0  144.7061054745478 7.499883895504139 0  149.7061019901038 -3.719296626913669e-05 0  149.7061031692995 7.499925819911174 0  159.7061073738539 1.318318440148746e-18 0  164.7060228697705 -0.0001199083962599152 0  164.7060928661285 7.499861567557122 0  159.706116854826 7.49995589343689 0  169.705977711166 -0.0002206107806048437 0  169.706068345827 7.499770100635437 0  174.7059534263149 -0.0003075975234494748 0  174.7060483425821 7.499687306499475 0  179.7059406733349 -0.0003839602899655199 0  179.7060333548954 7.499613108380825 0  184.7059344641341 -0.0004520292440876147 0  184.7060226517681 7.499546230960501 0  189.705932042962 -0.00051361897357754 0  189.706015292971 7.499485321998474 0  194.705931843864 -0.0005701224785812062 0  194.7060104381387 7.499429218946597 0  199.7059329522386 -0.0006225988556995298 0  199.7060074166229 7.49937698483246 0  204.7059348188584 -0.0006718533491769384 0  204.706005718457 7.499327881182209 0  209.7059371047173 -0.0007185025504816028 0  209.7060049642263 7.499281328692996 0  214.7059395950962 -0.0007630239595086301 0  214.7060048740864 7.499236871100193 0  219.705942150879 -0.0008057923609585681 0  219.7060052419886 7.499194145968676 0  224.7059446802743 -0.0008471061401586164 0  224.7060059159243 7.499152862264686 0  229.7059471219481 -0.0008872062835981795 0  229.7060067833598 7.499112783492199 0  234.7059494346841 -0.0009262901771035341 0  234.7060077606858 7.499073715086053 0  239.7059515908736 -0.0009645217320553791 0  239.7060087856307 7.499035494961209 0  244.7059535723295 -0.001002038916434466 0  244.7060098118142 7.498997986372983 0  249.7059553675444 -0.001038959438720855 0  249.7060108048321 7.498961072465796 0  254.705956969898 -0.001075385101899951 0  254.7060117394481 7.498924652062708 0  259.7059583765007 -0.001111405183962431 0  259.7060125975776 7.498888636377953 0  264.7059595875146 -0.001147099087265252 0  264.706013366859 7.498852946431971 0  269.7059606058322 -0.001182538413986058 0  269.7060140396628 7.498817511023459 0  274.705961437086 -0.001217788553901225 0  274.7060146124202 7.498782265175977 0  279.7059620899592 -0.001252909799574939 0  279.7060150851966 7.498747149037501 0  284.705962576818 -0.001287957915433114 0  284.7060154614273 7.498712107280227 0  289.7059629146473 -0.001322983954584616 0  289.706015747742 7.498677089135844 0  294.7059631262621 -0.001358032895310524 0  294.706015953812 7.498642049320058 0  299.7059632415548 -0.001393140274613881 0  299.7060160921706 7.498606950257158 0  304.7059632981257 -0.001428325277750804 0  304.7060161781492 7.498571766199972 0  309.7059633395265 -0.001463577464454041 0  309.7060162306328 7.498536490020365 0  4.706093217338212 15.00048169142243 0  -0.2939068348246557 15.00051187598684 0  9.706093307912834 15.00045134206247 0  14.7060934569851 15.00042083744343 0  19.70609367861605 15.00039019297316 0  24.70609398454813 15.00035943155858 0  29.70609438564372 15.00032858297879 0  34.70609489227942 15.00029768289998 0  39.70609551431215 15.00026677221087 0  44.70609626087892 15.000235896863 0  49.70609714011822 15.00020510823491 0  54.70609815881971 15.00017446400479 0  59.70609932196867 15.0001440295325 0  64.70610063213437 15.00011387978641 0  69.70610208863224 15.00008410189319 0  74.70610368638253 15.00005479843821 0  79.70610541436939 15.00002609169956 0  84.70610725360199 14.99999812906134 0  89.70610917448683 14.99997108991693 0  94.70611113357232 14.9999451944262 0  99.7061130697612 14.99992071449559 0  104.7061149004086 14.99989798722021 0  109.7061165183573 14.99987743058124 0  114.7061177922176 14.99985956005023 0  119.7061185744458 14.99984500215907 0  124.7061187256048 14.99983449558008 0  129.706118169079 14.99982885902645 0  134.7061169980562 14.99982888301489 0  139.7061156616415 14.99983505838205 0  144.7061152426733 14.99984695980943 0  149.7061177454156 14.99986184316843 0  164.7061311001584 14.99981111168287 0  159.7061343040679 14.99987743232728 0  169.7061226332615 14.99973971894112 0  174.7061121992918 14.99966913171517 0  179.7061019906763 14.99960211603028 0  184.7060930280093 14.99953946527087 0  189.7060856343562 14.99948107272896 0  194.7060797841874 14.99942649377622 0  199.7060753032492 14.99937520181959 0  204.7060719718333 14.99932669382473 0  209.7060695735712 14.99928052684458 0  214.7060679155636 14.99923632464896 0  219.7060668342886 14.99919377256358 0  224.7060661949794 14.99915260860968 0  229.7060658883907 14.99911261435015 0  234.706065826867 14.9990736067105 0  239.7060659405513 14.99903543110581 0  244.7060661740672 14.99899795582694 0  249.7060664837585 14.99896106751176 0  254.7060668354488 14.99892466750523 0  259.7060672026582 14.99888866893507 0  264.7060675651892 14.99885299436273 0  269.7060679080123 14.99881757390744 0  274.7060682203814 14.99878234377608 0  279.7060684951113 14.99874724516388 0  284.7060687279965 14.99871222352013 0  289.7060689173196 14.99867722818846 0  294.7060690635154 14.99864221241281 0  299.7060691690967 14.99860713358982 0  304.706069239191 14.99857195329334 0  309.706069283319 14.99853663561366 0  4.706138233181731 22.50048205671213 0  -0.2938618184786249 22.50051214773872 0  9.706138309789013 22.50045173810921 0  14.70613842631502 22.50042123184973 0  19.70613859136683 22.50039057214229 0  24.70613880993498 22.50035979250743 0  29.70613908501656 22.50032892822573 0  34.70613941835738 22.500298017477 0  39.70613981063349 22.50026710198079 0  44.70614026130052 22.50023622757557 0  49.70614076824615 22.50020544495813 0  54.70614132730545 22.50017481069504 0  59.70614193166104 22.50014438857491 0  64.7061425711257 22.50011425135872 0  69.70614323129573 22.50008448298986 0  74.70614389257531 22.50005518133606 0  79.70614452908497 22.50002646154137 0  84.70614510752181 22.49999846005763 0  89.70614558611976 22.49997133938462 0  94.70614591400604 22.49994529344142 0  99.70614603149455 22.4999205532583 0  104.7061458722439 22.49989739221743 0  109.7061453687899 22.49987612919404 0  114.7061444637684 22.49985712636714 0  119.7061431301088 22.49984077570978 0  124.7061414042921 22.49982746358688 0  129.7061394364786 22.49981749574309 0  134.7061375576617 22.49981095499387 0  139.7061363521946 22.49980745333457 0  144.7061366949566 22.49980574085102 0  149.7061396527391 22.49980319818358 0  164.7061602003309 22.49975491073813 0  159.7061538932198 22.49980380140682 0  169.7061614977679 22.49969932875183 0  174.7061592837137 22.49964109098682 0  179.706155093105 22.49958292616158 0  184.7061501053524 22.49952636454175 0  189.7061450772413 22.49947209027633 0  194.7061404301582 22.49942028547749 0  199.7061363598121 22.499370868955 0  204.7061329245113 22.49932363924145 0  209.7061301058842 22.49927835310743 0  214.7061278472567 22.49923476549881 0  219.7061260764781 22.49919264789946 0  224.7061247187314 22.49915179523063 0  229.7061237032112 22.49911202698604 0  234.706122966201 22.49907318569094 0  239.706122452121 22.49903513429873 0  244.7061221134953 22.49899775333176 0  249.7061219103834 22.4989609381415 0  254.7061218095945 22.49892459644341 0  259.7061217838352 22.49888864617165 0  264.7061218108943 22.49885301364925 0  269.7061218728801 22.4988176320499 0  274.7061219555375 22.49878244012131 0  279.7061220476372 22.49874738113673 0  284.7061221404482 22.49871240202984 0  289.7061222273176 22.49867745263325 0  294.7061223034203 22.49864248485798 0
[...]
<PointData  Vectors="v"> 
<DataArray  type="Float64"  Name="v"  NumberOfComponents="3" format="ascii">-1.1006774871491944e+00 -7.6634672957263819e+00 0.0000000000000000e+00  -1.6579356474147577e+00 -7.1726747953170129e+00 0.0000000000000000e+00  -1.5277610728805286e+00 -6.3370430087997605e+00 0.0000000000000000e+00  -1.0976858421855178e+00 -7.0186098420601679e+00 0.0000000000000000e+00  -2.3517030282397609e+00 -7.7512430223669968e+00 0.0000000000000000e+00  -2.0846137387709733e+00 -6.7115964639922296e+00 0.0000000000000000e+00  -2.9728408609705310e+00 -8.7730832815177955e+00 0.0000000000000000e+00  -2.7771507400383855e+00 -7.8429626362010261e+00 0.0000000000000000e+00  -3.5164436972127100e+00 -9.0848797519974802e+00 0.0000000000000000e+00  -3.3962834692779915e+00 -8.2717956694517554e+00 0.0000000000000000e+00  -4.1975549286707743e+00 -9.9585343448790322e+00 0.0000000000000000e+00  -3.9371165107958892e+00 -8.9399160402420978e+00 0.0000000000000000e+00  -4.7366203512396563e+00 -1.0312427604326018e+01 0.0000000000000000e+00  -4.6145181448244070e+00 -9.5074764723195635e+00 0.0000000000000000e+00  -4.8156953834524758e+00 -1.0049331391302349e+01 0.0000000000000000e+00  -5.1490594432913905e+00 -9.9351077420089098e+00 0.0000000000000000e+00  -5.8995682634827018e+00 -1.1145208450829180e+01 0.0000000000000000e+00  -5.2228537914853446e+00 -9.5245562899216925e+00 0.0000000000000000e+00  -2.7938212078371718e+00 -5.9816595377366353e+00 0.0000000000000000e+00  -6.3005090810397739e+00 -1.0645792589544513e+01 0.0000000000000000e+00  -1.3915348450476047e+01 -2.1865470300439195e+01 0.0000000000000000e+00  -3.1878003253401057e+00 -5.1901596361007387e+00 0.0000000000000000e+00  -1.3595565114524652e+01 -2.0091468822726171e+01 0.0000000000000000e+00  -1.4301863795964675e+01 -2.0578289712007884e+01 0.0000000000000000e+00  -1.3672727497991474e+01 -1.8771957700973264e+01 0.0000000000000000e+00  -1.3973546303554665e+01 -1.8664380876310769e+01 0.0000000000000000e+00  -1.4203813132466101e+01 -1.8104991082625396e+01 0.0000000000000000e+00  -1.4040882676955086e+01 -1.7317892856832096e+01 0.0000000000000000e+00  -1.5143965568031557e+01 -1.8072151904957234e+01 0.0000000000000000e+00  -1.4560774894575184e+01 -1.6672844255252713e+01 0.0000000000000000e+00  -1.6394153388116305e+01 -1.8463679007703835e+01 0.0000000000000000e+00  -1.5487887026623477e+01 -1.6600382447401746e+01 0.0000000000000000e+00  -1.7860730888691219e+01 -1.9072509681816811e+01 0.0000000000000000e+00  -1.6723555509366712e+01 -1.6886075973910241e+01 0.0000000000000000e+00  -1.9453112765725109e+01 -1.9959546570844473e+01 0.0000000000000000e+00  -1.8174287790287117e+01 -1.7585676084843303e+01 0.0000000000000000e+00  -2.1080829099745252e+01 -2.0698654728968073e+01 0.0000000000000000e+00  -1.9748961951757966e+01 -1.8272603947954487e+01 0.0000000000000000e+00  -2.2667163222101124e+01 -2.1323350211487362e+01 0.0000000000000000e+00  -2.1357824707151462e+01 -1.8960791511518686e+01 0.0000000000000000e+00  -2.4148539118600137e+01 -2.1671318174979362e+01 0.0000000000000000e+00  -2.2923970539261823e+01 -1.9466982772555756e+01 0.0000000000000000e+00  -2.5469525663607094e+01 -2.1706658428872021e+01 0.0000000000000000e+00  -2.4383910348184976e+01 -1.9743842013283711e+01 0.0000000000000000e+00  -2.6594361582887409e+01 -2.0977477862632085e+01 0.0000000000000000e+00  -2.5682035492175412e+01 -1.9309344315368371e+01 0.0000000000000000e+00  -2.7509431143486488e+01 -2.0258492907299317e+01 0.0000000000000000e+00  -2.6784036620220029e+01 -1.8906497128722258e+01 0.0000000000000000e+00  -2.8209037931935271e+01 -1.8110130084648162e+01 0.0000000000000000e+00  -2.7673825428885515e+01 -1.7080120034451713e+01 0.0000000000000000e+00  -2.8715201662566418e+01 -1.6439925381415275e+01 0.0000000000000000e+00  -2.8349943096787406e+01 -1.5703068570649645e+01 0.0000000000000000e+00  -2.9046644295637069e+01 -1.2757693947610862e+01 0.0000000000000000e+00  -2.8828778937619955e+01 -1.2279251536088536e+01 0.0000000000000000e+00  -2.9247461189754105e+01 -1.0097368070375360e+01 0.0000000000000000e+00  -2.9137523894629112e+01 -9.8205622956312180e+00 0.0000000000000000e+00  -2.9342426188863332e+01 -5.2093621772297158e+00 0.0000000000000000e+00  -2.9308933803446457e+01 -5.0835259118983753e+00 0.0000000000000000e+00  -2.9381811805041316e+01 -1.2445945500889459e+00 0.0000000000000000e+00  -2.9383432809800368e+01 -1.2125305544388896e+00 0.0000000000000000e+00  -2.9389262611378548e+01 2.7403754484644717e-09 0.0000000000000000e+00  -2.9389940984527712e+01 -7.0929678983706337e-04 0.0000000000000000e+00  -2.9389262614630187e+01 4.1363494851337858e-19 0.0000000000000000e+00  -2.0123788487706346e+01 7.0844224371811402e+00 0.0000000000000000e+00  -2.9383909538229013e+01 -6.7881160703888206e+00 0.0000000000000000e+00  -2.9389929051541760e+01 6.7739402266131976e-04 0.0000000000000000e+00  -2.0748310962743332e+01 1.3371707326320408e+01 0.0000000000000000e+00  -2.0151587810627284e+01 1.4348640294868730e+01 0.0000000000000000e+00  -1.7729933820986837e+01 2.0812069588438334e+01 0.0000000000000000e+00  -2.0813752144874105e+01 1.6315251411504928e+01 0.0000000000000000e+00  -1.6952411620286355e+01 2.2295853203152287e+01 0.0000000000000000e+00  -1.7833672941965837e+01 2.1164392389087819e+01 0.0000000000000000e+00  -1.5272682917956709e+01 2.5073961780390810e+01 0.0000000000000000e+00  -1.7093714496511332e+01 2.2587375208698482e+01 0.0000000000000000e+00  -1.4061061391478781e+01 2.5288445429073210e+01 0.0000000000000000e+00  -1.5451013459184910e+01 2.3504735110384242e+01 0.0000000000000000e+00  -1.2766377708683724e+01 2.5368353816557192e+01 0.0000000000000000e+00  -1.4276674718334080e+01 2.3458784408173813e+01 0.0000000000000000e+00  -1.1650711662014780e+01 2.4316477528268322e+01 0.0000000000000000e+00  -1.3018471857826182e+01 2.2675929650552657e+01 0.0000000000000000e+00  -1.0322856730824551e+01 2.3148517907437441e+01 0.0000000000000000e+00  -1.1938901809429263e+01 2.1188999755752238e+01 0.0000000000000000e+00  -9.3673005929735158e+00 2.1307233082016118e+01 0.0000000000000000e+00  -1.0646952782166982e+01 1.9905929171877780e+01 0.0000000000000000e+00  -8.5841886747261729e+00 1.9451702595010953e+01 0.0000000000000000e+00  -9.7268323191286772e+00 1.8308855449363833e+01 0.0000000000000000e+00  -7.7324463659106826e+00 1.7758407781113249e+01 0.0000000000000000e+00  -8.9787838807857963e+00 1.6512352154153714e+01 0.0000000000000000e+00  -6.9257674048233193e+00 1.6158912716641012e+01 0.0000000000000000e+00  -8.1619002616206711e+00 1.4980074723857159e+01 0.0000000000000000e+00  -6.1680046406410289e+00 1.4743066265988860e+01 0.0000000000000000e+00  -7.3896640176046340e+00 1.3637416191232591e+01 0.0000000000000000e+00  -5.4226188234460828e+00 1.3447477658884823e+01 0.0000000000000000e+00  -6.6659789769609779e+00 1.2360049999613668e+01 0.0000000000000000e+00  -4.7444631013879146e+00 1.2206621971178786e+01 0.0000000000000000e+00  -5.9543651131413515e+00 1.1219707373997950e+01 0.0000000000000000e+00  -4.1413125187983244e+00 1.1068209670334202e+01 0.0000000000000000e+00  -5.3095916711874693e+00 1.0193519550469208e+01 0.0000000000000000e+00  -3.5756838018503645e+00 9.9795400328921158e+00 0.0000000000000000e+00  -4.7394139482380373e+00 9.1608411812737227e+00 0.0000000000000000e+00  -3.0728959588023090e+00 8.9167500435133054e+00 0.0000000000000000e+00  -4.2064766616489173e+00 8.1919323435473714e+00 0.0000000000000000e+00  -2.6419721295290617e+00 7.9190301693591341e+00 0.0000000000000000e+00  -3.7359141173269261e+00 7.3018221440737623e+00 0.0000000000000000e+00  -2.2468553738969286e+00 6.9148695628347676e+00 0.0000000000000000e+00  -3.3369916984148356e+00 6.3509224245961269e+00 0.0000000000000000e+00  -1.9059658559531205e+00 5.9798814558084308e+00 0.0000000000000000e+00  -2.9733129470320221e+00 5.4972269293004397e+00 0.0000000000000000e+00  -1.6188488864441031e+00 5.0268854464050401e+00 0.0000000000000000e+00  -2.6639149659970003e+00 4.6241952607289116e+00 0.0000000000000000e+00  -1.3662229324676307e+00 4.2118692060414524e+00 0.0000000000000000e+00  -2.4072443564593304e+00 3.8613903072296663e+00 0.0000000000000000e+00  -1.1480518051702995e+00 3.2730234839977750e+00 0.0000000000000000e+00  -2.1859895811487586e+00 2.9726574629987264e+00 0.0000000000000000e+00  -9.5716057962322576e-01 2.7352308808983170e+00 0.0000000000000000e+00  -1.9967706767066764e+00 2.4777791843077375e+00 0.0000000000000000e+00  -7.8094768765678246e-01 1.7848977850990073e+00 0.0000000000000000e+00  -1.8380145593669810e+00 1.5454960629923606e+00 0.0000000000000000e+00  -5.4325015105624996e-01 1.7281911898519700e+00 0.0000000000000000e+00  -1.6878523907013689e+00 1.4025957253173771e+00 0.0000000000000000e+00  -1.8286501698200808e-01 1.2030122586842946e+00 0.0000000000000000e+00  -1.4863514742792205e+00 6.8226114634503843e-01 0.0000000000000000e+00  6.6166788646092101e-01 7.4690108419860311e-03 0.0000000000000000e+00  -1.1404707521453303e+00 -1.2179502799217252e+00 0.0000000000000000e+00  -1.8052759905291385e+00 -5.6915356397886372e+00 0.0000000000000000e+00  -1.3313318544556583e+00 -6.3086363620160322e+00 0.0000000000000000e+00  -2.2356963972620383e+00 -5.8764045357751264e+00 0.0000000000000000e+00  -2.7920369340008033e+00 -6.8050426937446753e+00 0.0000000000000000e+00  -3.4828087645832131e+00 -7.3447583722328069e+00 0.0000000000000000e+00  -4.0987729940058211e+00 -8.1311040509981840e+00 0.0000000000000000e+00  -4.6349671304063298e+00 -8.4948436868433639e+00 0.0000000000000000e+00  -5.3061032864583844e+00 -9.1378320818971286e+00 0.0000000000000000e+00  -5.8326122312744539e+00 -9.4191032312434277e+00 0.0000000000000000e+00  -5.8969087883137332e+00 -9.0356738060252333e+00 0.0000000000000000e+00  -6.9635621007051149e+00 -9.8661656006398655e+00 0.0000000000000000e+00  -3.8390939499926811e+00 -3.9140726430676613e+00 0.0000000000000000e+00  -1.4942435809234780e+01 -1.9163214296266961e+01 0.0000000000000000e+00  -1.4602968931737811e+01 -1.7224694731624073e+01 0.0000000000000000e+00  -1.4656691326192178e+01 -1.5901973696096471e+01 0.0000000000000000e+00  -1.5160310297881114e+01 -1.5221147284151369e+01 0.0000000000000000e+00  -1.6067525510140946e+01 -1.5046074815585465e+01 0.0000000000000000e+00  -1.7279775436422586e+01 -1.5424547184026778e+01 0.0000000000000000e+00  -1.8704061214341419e+01 -1.5928005966931256e+01 0.0000000000000000e+00  -2.0248715088290510e+01 -1.6566991426663762e+01 0.0000000000000000e+00  -2.1824124427593134e+01 -1.7138297843173959e+01 0.0000000000000000e+00  -2.3354186221883918e+01 -1.7577185639842440e+01 0.0000000000000000e+00  -2.4774495697991508e+01 -1.7386581317529643e+01 0.0000000000000000e+00  -2.6030367153562299e+01 -1.7279711036438801e+01 0.0000000000000000e+00  -2.7087461021643076e+01 -1.5772166809707141e+01 0.0000000000000000e+00  -2.7930660919700500e+01 -1.4718970379352532e+01 0.0000000000000000e+00  -2.8557106110751640e+01 -1.1587245649954815e+01 0.0000000000000000e+00  -2.8988121741502823e+01 -9.3917046437815745e+00 0.0000000000000000e+00  -2.9243895916795299e+01 -4.8477568157598085e+00 0.0000000000000000e+00  -2.9371380948595903e+01 -1.1409663136509334e+00 0.0000000000000000e+00  -2.9391565356590540e+01 -1.3511267537401309e-03 0.0000000000000000e+00  -2.9362954387927925e+01 -6.8505452977373116e+00 0.0000000000000000e+00  -2.9391543592016877e+01 1.3313532605144130e-03 0.0000000000000000e+00  -2.9301270174168774e+01 5.1341364694796598e-01 0.0000000000000000e+00  -2.0103202973465361e+01 1.7335507875426774e+01 0.0000000000000000e+00  -2.0809887334417553e+01 1.6719959842897172e+01 0.0000000000000000e+00  -1.7872287413251424e+01 2.1503876933095579e+01 0.0000000000000000e+00  -1.7175362903666080e+01 2.1063741262309403e+01 0.0000000000000000e+00  -1.5572196696178112e+01 2.1721711546214635e+01 0.0000000000000000e+00  -1.4437263125195543e+01 2.0810955712181418e+01 0.0000000000000000e+00  -1.3216193755232146e+01 1.9591156390195675e+01 0.0000000000000000e+00  -1.2172455670325510e+01 1.7989186541217791e+01 0.0000000000000000e+00  -1.0915404176951139e+01 1.6949267820067885e+01 0.0000000000000000e+00  -1.0029389189900037e+01 1.5410188914023855e+01 0.0000000000000000e+00  -9.3146212263373709e+00 1.3774663652624998e+01 0.0000000000000000e+00  -8.5306692679018070e+00 1.2498569387585844e+01 0.0000000000000000e+00  -7.7908015641639103e+00 1.1293596168242342e+01 0.0000000000000000e+00  -7.0988689401340128e+00 1.0171185752904794e+01 0.0000000000000000e+00  -6.4185220781178751e+00 9.2448614317382027e+00 0.0000000000000000e+00  -5.8044060281805727e+00 8.3236606672546802e+00 0.0000000000000000e+00  -5.2642367291146241e+00 7.4103029160131877e+00 0.0000000000000000e+00  -4.7607208031303827e+00 6.6134322616584598e+00 0.0000000000000000e+00  -4.3189889215548680e+00 5.7694675256787891e+00 0.0000000000000000e+00  -3.9481917654219409e+00 4.9685350636234826e+00 0.0000000000000000e+00  -3.6121668910805718e+00 4.1762078473692688e+00 0.0000000000000000e+00  -3.3296296825517357e+00 3.4926914702890426e+00 0.0000000000000000e+00  -3.0995019223251279e+00 2.6557723779720090e+00 0.0000000000000000e+00  -2.9036760614062391e+00 2.2103377497616399e+00 0.0000000000000000e+00  -2.7402390679850215e+00 1.3202216413084689e+00 0.0000000000000000e+00  -2.6048985955990323e+00 1.1953304883697096e+00 0.0000000000000000e+00  -2.4803869263097766e+00 3.8911613970793713e-01 0.0000000000000000e+00  -2.3003975701901478e+00 -1.7173447018866204e+00 0.0000000000000000e+00  -2.5183769149791750e+00 -4.9797587429580314e+00 0.0000000000000000e+00  -2.0901213385667989e+00 -5.6676861306191970e+00 0.0000000000000000e+00  -2.9935616142574055e+00 -5.2298925507033358e+00 0.0000000000000000e+00  -3.4252691194439397e+00 -5.9708671374024540e+00 0.0000000000000000e+00  -3.9810653545539081e+00 -6.3103707650070264e+00 0.0000000000000000e+00  -4.6693106706088976e+00 -7.2106585398480787e+00 0.0000000000000000e+00  -5.2802983490086843e+00 -7.6962321747556039e+00 0.0000000000000000e+00  -5.8084294701252439e+00 -8.1388787781263989e+00 0.0000000000000000e+00  -6.4684854525649582e+00 -8.6393938785677964e+00 0.0000000000000000e+00  -6.9808001394107260e+00 -8.9516337359084517e+00 0.0000000000000000e+00  -7.0277169406462319e+00 -8.2802287410240236e+00 0.0000000000000000e+00  -8.0751969788832856e+00 -8.6148446322765810e+00 0.0000000000000000e+00  -4.9328670551936256e+00 -2.5207502441359839e+00 0.0000000000000000e+00  -1.6021816887388439e+01 -1.7744843168864055e+01 0.0000000000000000e+00  -1.5668320026715065e+01 -1.5835423788289702e+01 0.0000000000000000e+00  -1.5703755206087720e+01 -1.4484000560856435e+01 0.0000000000000000e+00  -1.6182660454105605e+01 -1.3708122219040177e+01 0.0000000000000000e+00  -1.7058423753464464e+01 -1.3634187504677215e+01 0.0000000000000000e+00  -1.8232311847620636e+01 -1.3824553588513197e+01 0.0000000000000000e+00  -1.9610888560264975e+01 -1.4287664563781910e+01 0.0000000000000000e+00  -2.1102958379540354e+01 -1.4817711955168276e+01 0.0000000000000000e+00  -2.2619150277068318e+01 -1.5329747266287912e+01 0.0000000000000000e+00  -2.4082505477865542e+01 -1.5307493328828148e+01 0.0000000000000000e+00  -2.5430051701350841e+01 -1.5453075762299875e+01 0.0000000000000000e+00  -2.6606081687935664e+01 -1.4245812847252276e+01 0.0000000000000000e+00  -2.7578761848485012e+01 -1.3519716712121173e+01 0.0000000000000000e+00  -2.8330745362026981e+01 -1.0710676568205079e+01 0.0000000000000000e+00  -2.8866236292750120e+01 -8.8189009833747125e+00 0.0000000000000000e+00  -2.9198820995379297e+01 -4.5205071552219671e+00 0.0000000000000000e+00  -2.9368823123406798e+01 -1.0337257654965253e+00 0.0000000000000000e+00  -2.9394100452071488e+01 -1.9321177486582466e-03 0.0000000000000000e+00  -2.9344750367345576e+01 -7.0117254286919728e+00 0.0000000000000000e+00  -2.9394081142190281e+01 1.9039617703995198e-03 0.0000000000000000e+00  -2.9151966290669325e+01 3.9102937654232467e-01 0.0000000000000000e+00  -2.9080629144495127e+01 3.5802656409238383e+00 0.0000000000000000e+00  -1.9940249874193611e+01 1.7835158565752351e+01 0.0000000000000000e+00  -2.0719433743525201e+01 1.7148399973181025e+01 0.0000000000000000e+00  -1.7850951249576109e+01 2.0070390967666718e+01 0.0000000000000000e+00  -1.7219991300448235e+01 1.9363283420704089e+01 0.0000000000000000e+00  -1.5677478894575652e+01 1.9153514527989650e+01 0.0000000000000000e+00  -1.4599923744355007e+01 1.7801398015811731e+01 0.0000000000000000e+00  -1.3431893240663399e+01 1.6463471352673452e+01 0.0000000000000000e+00  -1.2438662648684449e+01 1.5101836885578262e+01 0.0000000000000000e+00  -1.1229905484386705e+01 1.4118400626246874e+01 0.0000000000000000e+00  -1.0390659852527126e+01 1.2738745675153535e+01 0.0000000000000000e+00  -9.7216745062965657e+00 1.1358326789495820e+01 0.0000000000000000e+00  -8.9827548131321642e+00 1.0218928487347917e+01 0.0000000000000000e+00  -8.2870614426034006e+00 9.1677525265416264e+00 0.0000000000000000e+00  -7.6385067869350296e+00 8.2580998056037647e+00 0.0000000000000000e+00  -7.0005900998777983e+00 7.4355779124518513e+00 0.0000000000000000e+00  -6.4278853432101482e+00 6.6322854081885856e+00 0.0000000000000000e+00  -5.9280470176940181e+00 5.8896718856752672e+00 0.0000000000000000e+00  -5.4638272585060692e+00 5.1374682862977297e+00 0.0000000000000000e+00  -5.0601508728493769e+00 4.4423321327663681e+00 0.0000000000000000e+00  -4.7264927005713231e+00 3.7009667246857996e+00 0.0000000000000000e+00  -4.4261440643486623e+00 3.0975270628183416e+00 0.0000000000000000e+00  -4.1786839183018278e+00 2.3372828605777900e+00 0.0000000000000000e+00  -3.9815764495109143e+00 1.9443844752529758e+00 0.0000000000000000e+00  -3.8191079751319679e+00 1.0985752559031234e+00 0.0000000000000000e+00  -3.6849960621834903e+00 1.0210000367150645e+00 0.0000000000000000e+00  -3.5832838888481753e+00 2.2024117338436272e-01 0.0000000000000000e+00  -3.4797352130302834e+00 -1.9572215032155753e+00 0.0000000000000000e+00  -3.4381558878172016e+00 -4.3360414900214836e+00 0.0000000000000000e+00  -3.0480841386587261e+00 -5.0845584493564795e+00 0.0000000000000000e+00  -3.8684415265156429e+00 -4.5150672110197547e+00 0.0000000000000000e+00  -4.3469544665548021e+00 -5.3212349353933011e+00 0.0000000000000000e+00  -4.7815022201423885e+00 -5.4756564577792304e+00 0.0000000000000000e+00  -5.3386125195793372e+00 -6.1791129751117539e+00 0.0000000000000000e+00  -6.0254389645787265e+00 -6.7827516461227475e+00 0.0000000000000000e+00  -6.6316496564350951e+00 -7.3525435425600012e+00 0.0000000000000000e+00  -7.1510116161693089e+00 -7.6582765459907520e+00 0.0000000000000000e+00  -7.7978116252298975e+00 -8.1951594082371564e+00 0.0000000000000000e+00  -8.2925253273921253e+00 -8.2246515512023581e+00 0.0000000000000000e+00  -8.3187754411355836e+00 -7.0592885934027692e+00 0.0000000000000000e+00  -9.3455637418523700e+00 -7.2467663227217276e+00 0.0000000000000000e+00  -6.1881945566651719e+00 -1.1189672096861616e+00 0.0000000000000000e+00  -1.7270067782107414e+01 -1.6370567846052211e+01 0.0000000000000000e+00  -1.6910353554607067e+01 -1.4439523772045254e+01 0.0000000000000000e+00  -1.6933418730405535e+01 -1.3004668157603827e+01 0.0000000000000000e+00  -1.7390999746444081e+01 -1.2342861021664499e+01 0.0000000000000000e+00  -1.8234649439228729e+01 -1.2093078868297159e+01 0.0000000000000000e+00  -1.9366051361396863e+01 -1.2257011910214533e+01 0.0000000000000000e+00  -2.0691451660682489e+01 -1.2624197142914245e+01 0.0000000000000000e+00  -2.2119329092548572e+01 -1.3107665472821230e+01 0.0000000000000000e+00  -2.3560319168420769e+01 -1.3171977660240104e+01 0.0000000000000000e+00  -2.4938062048956173e+01 -1.3499993620866475e+01 0.0000000000000000e+00  -2.6187932159402074e+01 -1.2554985615335385e+01 0.0000000000000000e+00  -2.7257699172422495e+01 -1.2144236475778724e+01 0.0000000000000000e+00  -2.8112476303981058e+01 -9.6654105838593765e+00 0.0000000000000000e+00  -2.8743909814957032e+01 -8.1124040580535830e+00 0.0000000000000000e+00  -2.9147464960985392e+01 -4.0993596344216785e+00 0.0000000000000000e+00  -2.9362302239913195e+01 -8.8936260969092173e-01 0.0000000000000000e+00  -2