<?xml version="1.0"?>
<VTKFile type="UnstructuredGrid"  version="0.1"  >
<UnstructuredGrid>
<Piece  NumberOfPoints="1933" NumberOfCells="3640">
<Points>
<DataArray  type="Float64"  NumberOfComponents="3"  format="ascii">-0.4754295254992718 -0.001069217015589784 0  4.524570505693655 -0.00104650885148057 0  4.524536443384226 7.498953569914979 0  -0.4754636027087413 7.498930837150099 0  9.524570555839288 -0.001023863081591506 0  9.52453652139987 7.498976221334022 0  14.52457065819949 -0.001001285479785222 0  14.52453664535357 7.498998798325942 0  19.52457084334668 -0.0009787583990466656 0  19.52453682749078 7.499021323090775 0  24.52457113623688 -0.0009562514927239083 0  24.52453707836649 7.499043827642111 0  29.52457155627815 -0.0009337270001320119 0  29.52453740645239 7.499066350304542 0  34.52457211823718 -0.0009111422714801502 0  34.52453781784489 7.49908893386112 0  39.52457283321996 -0.0008884507560311727 0  39.52453831609157 7.499111624833335 0  44.52457370947378 -0.0008656020695294767 0  44.52453890204836 7.499134473520994 0  49.52457475294568 -0.0008425414563676088 0  49.52453957367905 7.499157534579313 0  54.52457596759047 -0.0008192087957760402 0  54.52454032572253 7.49918086802125 0  59.52457735543074 -0.0007955371997069308 0  59.52454114916116 7.49920454061126 0  64.52457891635821 -0.0007714511789482211 0  64.52454203041432 7.499228627676907 0  69.52458064763414 -0.0007468642935908377 0  69.52454295016554 7.499253215417484 0  74.52458254300976 -0.0007216761405628528 0  74.52454388169485 7.499278403843181 0  79.52458459131554 -0.0006957684520497029 0  79.52454478853571 7.499304310543398 0  84.52458677427317 -0.0006689999699852115 0  84.52454562120342 7.499331075564585 0  89.52458906309775 -0.0006411996043617968 0  89.52454631263588 7.499358867784029 0  94.52459141317144 -0.000612157149833424 0  94.52454677185621 7.499387893298289 0  99.52459375552137 -0.0005816104879212092 0  99.5245468752142 7.499418406493151 0  104.5245959828848 -0.0005492276918165719 0  104.5245464544345 7.49945072458328 0  109.524597926367 -0.0005145817263979887 0  109.5245452807283 7.499485246372222 0  114.5245993154258 -0.0004771144881174523 0  114.5245430447615 7.499522475462571 0  119.5245997077698 -0.0004360859283673506 0  119.5245393341094 7.499563046358615 0  124.5245983641978 -0.000390503717485215 0  124.5245336148369 7.499607747096189 0  129.524594021546 -0.0003390319546236877 0  129.5245252360762 7.499657520430449 0  134.5245844754673 -0.000279892322331133 0  134.5245135047271 7.499713399747906 0  139.5245658053329 -0.0002108268919477973 0  139.5244979406292 7.499776284002147 0  144.5245309152955 -0.0001293997546277705 0  144.524478963592 7.499846377370259 0  149.5244667098746 -3.476293900477915e-05 0  149.524459595084 7.49992215021195 0  159.5244717418524 1.494192693686706e-18 0  164.5244382385512 -7.05987677389326e-05 0  164.5244667348598 7.499915327735789 0  159.5244723324502 7.499966857267566 0  169.5244290850721 -0.0001182493044721212 0  169.5244607358272 7.499874871116448 0  174.5244312066583 -0.0001499306390132055 0  174.5244573303873 7.499846467314957 0  179.5244383627378 -0.000169871523801141 0  179.5244565873278 7.499828180804127 0  184.5244474866621 -0.0001810447506562817 0  184.5244578763257 7.499817886938194 0  189.5244570677054 -0.0001856061790138534 0  189.5244605222063 7.499813807245249 0  194.5244663765303 -0.0001851290943204009 0  194.5244639782869 7.499814554293128 0  199.5244750800868 -0.0001807686028935845 0  199.5244678464631 7.499819069190819 0  204.5244830464511 -0.0001733809827068884 0  204.5244718530534 7.499826546849752 0  209.5244902448129 -0.0001636089437652015 0  209.5244758174235 7.499836372332777 0  214.5244966938495 -0.0001519416823879424 0  214.524479624799 7.499848071789458 0  219.5245024349741 -0.0001387569806664832 0  219.5244832056052 7.499861276084108 0  224.5245075184923 -0.0001243508132601568 0  224.5244865206733 7.49987569422067 0  229.524511996526 -0.000108958350523684 0  229.5244895509903 7.499891093966222 0  234.52451591952 -9.276903987018564e-05 0  234.5244922907314 7.499907287655043 0  239.5245193346583 -7.593758643273222e-05 0  239.5244947425888 7.499924121698347 0  244.5245222853231 -5.859206323028754e-05 0  244.5244969146796 7.499941468751787 0  249.5245248111158 -4.083998237254765e-05 0  249.5244988185346 7.499959221805813 0  254.5245269482123 -2.27728904240406e-05 0  254.5245004678332 7.499977289687883 0  259.5245287299069 -4.469867971473342e-06 0  259.524501877643 7.499995593624355 0  264.5245301873081 1.399981562810065e-05 0  264.5245030640179 7.500014064625649 0  269.5245313501405 3.257473853321207e-05 0  269.5245040438431 7.500032641546424 0  274.5245322476766 5.119998215230635e-05 0  274.5245048348366 7.500051269746534 0  279.5245329097822 6.982641689712798e-05 0  279.524505455651 7.50006990034802 0  284.5245333680846 8.841072667025189e-05 0  284.5245059259999 7.500088490158408 0  289.5245336571816 0.0001069164155884906 0  289.524506266741 7.500107002418004 0  294.5245338157257 0.0001253162391151481 0  294.524506499859 7.500125408632345 0  299.5245338868975 0.0001435967938061286 0  299.5245066483305 7.500143691866193 0  304.5245339171726 0.0001617663701959473 0  304.5245067360856 7.500161851986202 0  309.5245339509029 0.0001798672943425755 0  309.5245067888929 7.500179913500181 0  4.524502219864902 14.99895373852447 0  -0.475497826877891 14.99893096807849 0  9.524502287152515 14.99897638887908 0  14.52450238455073 14.99899895140277 0  19.52450251669918 14.9990214589196 0  24.52450268585296 14.99904394742589 0  29.52450289259967 14.9990664563407 0  34.52450313583598 14.99908902833288 0  39.5245034124658 14.99911170932646 0  44.52450371698369 14.99913454882844 0  49.52450404097833 14.99915760058877 0  54.52450437253888 14.9991809235811 0  59.52450469552348 14.99920458330763 0  64.52450498864268 14.99922865345742 0  69.52450522430109 14.99925321797452 0  74.52450536714332 14.99927837362114 0  79.5245053722482 14.99930423314647 0  84.52450518294158 14.99933092919099 0  89.52450472824493 14.99935861905547 0  94.52450392010375 14.99938749041481 0  99.52450265078035 14.99941776789874 0  104.5245007912874 14.99944972007386 0  109.5244981926159 14.99948366550623 0  114.5244946930952 14.99951997481358 0  119.5244901378342 14.99955906210781 0  124.5244844202452 14.99960135254711 0  129.5244775610908 14.99964720051441 0  134.5244698456204 14.99969671175595 0  139.5244620373318 14.99974938815454 0  144.5244556563052 14.99980345803022 0  149.5244531877545 14.99985463573488 0  164.5244702565566 14.99987685522784 0  159.5244686571348 14.99990187275887 0  169.5244681909332 14.99985314958313 0  174.5244650292957 14.99983432831537 0  179.5244621995315 14.99982140848734 0  184.5244602484722 14.99981411938118 0  189.5244592602035 14.99981173251833 0  194.5244591182559 14.99981344104474 0  199.524459641779 14.99981850630689 0  204.5244606485837 14.99982630075655 0  209.5244619801607 14.99983630875556 0  214.5244635084012 14.99984811262644 0  219.524465134306 14.99986137544107 0  224.5244667837664 14.99987582495465 0  229.5244684027651 14.99989124003849 0  234.5244699529864 14.99990743972917 0  239.5244714081485 14.99992427457453 0  244.5244727510908 14.99994161985623 0  249.5244739715321 14.99995937029752 0  254.5244750643766 14.9999774359326 0  259.524476028454 14.9999957388889 0  264.524476865585 15.00001421089903 0  269.524477579894 15.00003279141728 0  274.5244781772951 15.00005142626349 0  279.5244786650953 15.00007006675846 0  284.5244790517032 15.00008866934761 0  289.5244793464194 15.0001071957256 0  294.5244795594184 15.00012561345346 0  299.5244797020915 15.00014389695715 0  304.5244797881996 15.00016202850686 0  309.5244798366203 15.00017999807656 0  4.524467895166185 22.49895404793747 0  -0.4755321488519167 22.498931276977 0  9.524467945945526 22.49897667248189 0  14.52446800747848 22.49899919842541 0  19.52446808007659 22.49902166748417 0  24.52446816162495 22.49904411964443 0  29.52446824827355 22.49906659541374 0  34.52446833460696 22.49908913698293 0  39.52446841348995 22.49911178896878 0  44.52446847573186 22.49913459908139 0  49.52446850965073 22.49915761887718 0  54.52446850056812 22.49918090467085 0  59.52446843024907 22.49920451864358 0  64.52446827629414 22.49922853017266 0  69.52446801149893 22.49925301740172 0  74.52446760322421 22.49927806906275 0  79.52446701285814 22.49930378653944 0  84.52446619553179 22.49933028611168 0  89.52446510036883 22.49935770122218 0  94.52446367174446 22.49938618441659 0  99.52446185232286 22.49941590826001 0  104.5244595890799 22.49944706392087 0  109.5244568441073 22.49947985505645 0  114.5244536127201 22.49951448289053 0  119.5244499520404 22.4995511156162 0  124.524446023301 22.49958983121377 0  129.5244421493087 22.49963051759945 0  134.5244388822402 22.49967270942605 0  139.5244370615482 22.49971534304092 0  144.5244378104137 22.49975643870679 0  149.5244423674348 22.49979282919976 0  164.5244596841181 22.49983319578449 0  159.5244556570587 22.49984038539138 0  169.5244603290741 22.49982381736256 0  174.5244588760421 22.4998152980627 0  179.5244564674971 22.49980931810158 0  184.5244538814877 22.49980654957384 0  189.5244515535657 22.49980705870626 0  194.5244496782246 22.49981060803381 0  199.5244483040821 22.4998168393621 0  204.5244474016766 22.49982537107552 0  209.5244469059808 22.49983584407425 0  214.5244467408254 22.49984793976056 0  219.5244468317729 22.49986138394524 0  224.5244471121229 22.49987594428929 0  229.5244475250698 22.49989142523685 0  234.5244480238451 22.49990766237708 0  239.5244485709049 22.49992451710898 0  244.5244491367467 22.49994187194503 0  249.5244496986567 22.4999596265307 0  254.5244502395408 22.49997769434483 0  259.5244507468824 22.49999600000555 0  264.5244512118549 22.50001447709885 0  269.5244516285689 22.50003306645647 0  274.5244519934496 22.50005171481909 0  279.5244523047318 22.50007037382836 0  284.5244525620886 22.50008899928282 0  289.524452766437 22.50010755055841 0  294.52445292
[...]
<PointData  Vectors="v"> 
<DataArray  type="Float64"  Name="v"  NumberOfComponents="3" format="ascii">-3.3620618830778031e+00 -6.6673030115027654e+00 0.0000000000000000e+00  -3.8294238312190649e+00 -6.0357589789199819e+00 0.0000000000000000e+00  -3.3177671094071406e+00 -5.3349758239274525e+00 0.0000000000000000e+00  -2.9538804426674519e+00 -6.1212832699745059e+00 0.0000000000000000e+00  -4.3722191885339337e+00 -6.2971722044072838e+00 0.0000000000000000e+00  -3.7846752023182155e+00 -5.4837118718225542e+00 0.0000000000000000e+00  -4.8046755334248452e+00 -6.8666344158256720e+00 0.0000000000000000e+00  -4.3264208503066657e+00 -6.2192052439276004e+00 0.0000000000000000e+00  -5.1269699828147761e+00 -6.7390747494743799e+00 0.0000000000000000e+00  -4.7572031355702693e+00 -6.2573000909218450e+00 0.0000000000000000e+00  -5.5572533087197877e+00 -7.0929248031649932e+00 0.0000000000000000e+00  -5.0772531961744765e+00 -6.4495722226158021e+00 0.0000000000000000e+00  -5.8518110174604567e+00 -6.9797360201598586e+00 0.0000000000000000e+00  -5.5048658610961319e+00 -6.5403784171033310e+00 0.0000000000000000e+00  -5.8245046648671304e+00 -6.4558658916557370e+00 0.0000000000000000e+00  -5.7962604426612030e+00 -6.4995054196230706e+00 0.0000000000000000e+00  -6.5996997365158823e+00 -7.0182511964673591e+00 0.0000000000000000e+00  -5.7654604888677436e+00 -5.8584345937985347e+00 0.0000000000000000e+00  -4.6651127381312563e+00 -3.5411036217227383e+00 0.0000000000000000e+00  -6.5369438651762071e+00 -6.4461321920703512e+00 0.0000000000000000e+00  -1.3083685684871053e+01 -1.5378120319997748e+01 0.0000000000000000e+00  -4.5984617396896930e+00 -2.7536752474222332e+00 0.0000000000000000e+00  -1.3613437717036565e+01 -1.5028035675160801e+01 0.0000000000000000e+00  -1.3012559711931786e+01 -1.4237192456861038e+01 0.0000000000000000e+00  -1.3868179150656264e+01 -1.4121967624281893e+01 0.0000000000000000e+00  -1.3537810454962493e+01 -1.3743197994431322e+01 0.0000000000000000e+00  -1.4191675153966056e+01 -1.3265080609396152e+01 0.0000000000000000e+00  -1.3788302959110238e+01 -1.2783288241865604e+01 0.0000000000000000e+00  -1.4643990029848577e+01 -1.2623498921131407e+01 0.0000000000000000e+00  -1.4107454028158578e+01 -1.1948342745364362e+01 0.0000000000000000e+00  -1.5240504108517701e+01 -1.2194027186712050e+01 0.0000000000000000e+00  -1.4555592881264648e+01 -1.1302751995639310e+01 0.0000000000000000e+00  -1.5922171035865924e+01 -1.1857756856084512e+01 0.0000000000000000e+00  -1.5147786946668136e+01 -1.0838330541269888e+01 0.0000000000000000e+00  -1.6625971719270176e+01 -1.1700057664469259e+01 0.0000000000000000e+00  -1.5825264847697126e+01 -1.0647180350701808e+01 0.0000000000000000e+00  -1.7289144143351802e+01 -1.1408863162955575e+01 0.0000000000000000e+00  -1.6525488608358145e+01 -1.0416530893088648e+01 0.0000000000000000e+00  -1.7857020325668081e+01 -1.1021539012821657e+01 0.0000000000000000e+00  -1.7185397501725838e+01 -1.0171101682036442e+01 0.0000000000000000e+00  -1.8290955042160498e+01 -1.0427545819354100e+01 0.0000000000000000e+00  -1.7751025659653919e+01 -9.7772769658734084e+00 0.0000000000000000e+00  -1.8576852917357364e+01 -9.6536395874987377e+00 0.0000000000000000e+00  -1.8183818367452826e+01 -9.2240102946079077e+00 0.0000000000000000e+00  -1.8717428379026718e+01 -8.3611065548824879e+00 0.0000000000000000e+00  -1.8470278348042509e+01 -8.1482127324244171e+00 0.0000000000000000e+00  -1.8731485895299425e+01 -7.2630138425020068e+00 0.0000000000000000e+00  -1.8612482347499530e+01 -7.2374623402338480e+00 0.0000000000000000e+00  -1.8658530208910484e+01 -5.2389735158663768e+00 0.0000000000000000e+00  -1.8631728989927460e+01 -5.3433676434826856e+00 0.0000000000000000e+00  -1.8531885318942248e+01 -3.9867284904783578e+00 0.0000000000000000e+00  -1.8564097078944922e+01 -4.1669820705715708e+00 0.0000000000000000e+00  -1.8399539330145235e+01 -1.4694438157283198e+00 0.0000000000000000e+00  -1.8448953228067889e+01 -1.6596332663186426e+00 0.0000000000000000e+00  -1.8282159844344452e+01 -5.5447337458237744e-01 0.0000000000000000e+00  -1.8326235380715946e+01 -7.1400862590834058e-01 0.0000000000000000e+00  -1.8210807005551636e+01 1.8333345037854523e+00 0.0000000000000000e+00  -1.8228521538862214e+01 1.7377346729714676e+00 0.0000000000000000e+00  -1.8172579150356341e+01 1.6912843633547929e+00 0.0000000000000000e+00  -1.8171281440956104e+01 1.6590483886341971e+00 0.0000000000000000e+00  -1.8163571106310755e+01 -5.4633825763028956e-05 0.0000000000000000e+00  -1.8164444441504145e+01 -9.6814917454210057e-04 0.0000000000000000e+00  -1.8163563200144541e+01 4.6176193875621064e-19 0.0000000000000000e+00  -1.1542039330929530e+01 -3.4724755513445310e-02 0.0000000000000000e+00  -1.8177121848726877e+01 -9.9632384015022524e+00 0.0000000000000000e+00  -1.8164414103176092e+01 8.2215569226295462e-04 0.0000000000000000e+00  -1.2946498495641423e+01 9.4450850947123055e-01 0.0000000000000000e+00  -1.1558192376402040e+01 3.0484564779960848e+00 0.0000000000000000e+00  -1.1085301890531047e+01 5.9971916747923810e+00 0.0000000000000000e+00  -1.2963963591498963e+01 3.2134607858584912e+00 0.0000000000000000e+00  -1.0977891619695342e+01 6.9711164994189954e+00 0.0000000000000000e+00  -1.1107267743898914e+01 6.8150997015194124e+00 0.0000000000000000e+00  -1.0054021609616502e+01 1.0024775657569638e+01 0.0000000000000000e+00  -1.1007097656216009e+01 8.6473622013832561e+00 0.0000000000000000e+00  -9.4665108271426792e+00 1.1178102928104556e+01 0.0000000000000000e+00  -1.0091991891058592e+01 1.0305638866482653e+01 0.0000000000000000e+00  -8.7579668007742910e+00 1.2359960952179268e+01 0.0000000000000000e+00  -9.5142258118885863e+00 1.1307640162243530e+01 0.0000000000000000e+00  -8.1688670186425210e+00 1.2550383619207505e+01 0.0000000000000000e+00  -8.8170394325293362e+00 1.1677412813118037e+01 0.0000000000000000e+00  -7.3900101233514404e+00 1.2503128438627913e+01 0.0000000000000000e+00  -8.2400906588434832e+00 1.1346730238026844e+01 0.0000000000000000e+00  -6.8729256342244440e+00 1.1735392157950663e+01 0.0000000000000000e+00  -7.4740963316367912e+00 1.0972135223299961e+01 0.0000000000000000e+00  -6.4800132847702407e+00 1.0816085311969649e+01 0.0000000000000000e+00  -6.9707250407752150e+00 1.0239574978735632e+01 0.0000000000000000e+00  -6.0315627938609371e+00 9.8736029601125761e+00 0.0000000000000000e+00  -6.5920820111245675e+00 9.2142902266966011e+00 0.0000000000000000e+00  -5.5924374241298045e+00 8.9289309364422706e+00 0.0000000000000000e+00  -6.1583188970789715e+00 8.2840281345488496e+00 0.0000000000000000e+00  -5.1666335741623790e+00 8.0831930733383963e+00 0.0000000000000000e+00  -5.7343925670575686e+00 7.4584838482677718e+00 0.0000000000000000e+00  -4.7188112202455219e+00 7.3094448244556105e+00 0.0000000000000000e+00  -5.3241051433106881e+00 6.6519938838844643e+00 0.0000000000000000e+00  -4.2979916038115737e+00 6.5653392447979906e+00 0.0000000000000000e+00  -4.8919948268407394e+00 5.9485641686437294e+00 0.0000000000000000e+00  -3.9150403867068495e+00 5.8955214196617280e+00 0.0000000000000000e+00  -4.4871145496201725e+00 5.3356024157349529e+00 0.0000000000000000e+00  -3.5420416678761857e+00 5.2651652719168531e+00 0.0000000000000000e+00  -4.1201870730150416e+00 4.7202631153336538e+00 0.0000000000000000e+00  -3.2022950280034483e+00 4.6506750855995502e+00 0.0000000000000000e+00  -3.7632498824365439e+00 4.1556397763221362e+00 0.0000000000000000e+00  -2.9078665600082090e+00 4.0951406637365579e+00 0.0000000000000000e+00  -3.4395408728126386e+00 3.6680675177975006e+00 0.0000000000000000e+00  -2.6269209882938784e+00 3.5264263169102810e+00 0.0000000000000000e+00  -3.1611646607537582e+00 3.1194510400934261e+00 0.0000000000000000e+00  -2.3782509692999279e+00 3.0372135937309421e+00 0.0000000000000000e+00  -2.8960480363851184e+00 2.6786869920514143e+00 0.0000000000000000e+00  -2.1572102569508340e+00 2.5037612623587209e+00 0.0000000000000000e+00  -2.6632991533494690e+00 2.1863381612058475e+00 0.0000000000000000e+00  -1.9507028308092671e+00 2.1548892860907305e+00 0.0000000000000000e+00  -2.4576774942490145e+00 1.8595144684521965e+00 0.0000000000000000e+00  -1.7500615207699806e+00 1.6058203664056099e+00 0.0000000000000000e+00  -2.2670366530521830e+00 1.3184514855762290e+00 0.0000000000000000e+00  -1.5507733018863283e+00 1.5735692202060971e+00 0.0000000000000000e+00  -2.0810362028217937e+00 1.2891981658021194e+00 0.0000000000000000e+00  -1.3347004068193258e+00 9.2075337983457806e-01 0.0000000000000000e+00  -1.8979511097670534e+00 6.0919362951394085e-01 0.0000000000000000e+00  -1.0167704431672728e+00 1.4622070230227104e+00 0.0000000000000000e+00  -1.6949981164331536e+00 1.0008502492384852e+00 0.0000000000000000e+00  -5.0534509895565971e-01 1.2341471993052981e+00 0.0000000000000000e+00  -1.3952297575421022e+00 4.7695427908733623e-01 0.0000000000000000e+00  6.9821855052946324e-01 1.8350037520677140e-01 0.0000000000000000e+00  -8.9109199824833130e-01 -1.6011479494522067e+00 0.0000000000000000e+00  -3.0476684678541366e+00 -4.7893917787397973e+00 0.0000000000000000e+00  -2.6403581083992709e+00 -5.5098732603902167e+00 0.0000000000000000e+00  -3.4108525770944200e+00 -4.7842594759937667e+00 0.0000000000000000e+00  -3.8758588354991415e+00 -5.4081921054857256e+00 0.0000000000000000e+00  -4.4144943281859108e+00 -5.6134619053449581e+00 0.0000000000000000e+00  -4.8409344721576701e+00 -5.9726477630263330e+00 0.0000000000000000e+00  -5.1553424102167069e+00 -5.9027033822554227e+00 0.0000000000000000e+00  -5.5762206106746532e+00 -6.0667622662691114e+00 0.0000000000000000e+00  -5.8599517900438745e+00 -5.9095643916139782e+00 0.0000000000000000e+00  -5.8207149690194431e+00 -5.2938915902297516e+00 0.0000000000000000e+00  -6.5838251124871299e+00 -5.6660200866474684e+00 0.0000000000000000e+00  -4.6368372607079191e+00 -1.6224790180325668e+00 0.0000000000000000e+00  -1.3039747838796824e+01 -1.2962186265520925e+01 0.0000000000000000e+00  -1.3554088436907950e+01 -1.2412819042351058e+01 0.0000000000000000e+00  -1.3795410397086446e+01 -1.1475443363602526e+01 0.0000000000000000e+00  -1.4104948391386014e+01 -1.0635984981093840e+01 0.0000000000000000e+00  -1.4543337655688214e+01 -9.9562117147719480e+00 0.0000000000000000e+00  -1.5124905345725162e+01 -9.6376888151894882e+00 0.0000000000000000e+00  -1.5790973556281779e+01 -9.3728056373985780e+00 0.0000000000000000e+00  -1.6479618178940253e+01 -9.1879881308014379e+00 0.0000000000000000e+00  -1.7127945375300939e+01 -8.9358064452576453e+00 0.0000000000000000e+00  -1.7682167564525070e+01 -8.5804298612217362e+00 0.0000000000000000e+00  -1.8105127028449562e+01 -7.7238417884472685e+00 0.0000000000000000e+00  -1.8383246357902667e+01 -7.0275629634052237e+00 0.0000000000000000e+00  -1.8519972020962687e+01 -5.3166013188626655e+00 0.0000000000000000e+00  -1.8537018079200514e+01 -4.2662629949516244e+00 0.0000000000000000e+00  -1.8472874946250943e+01 -1.8306475527975596e+00 0.0000000000000000e+00  -1.8364773605619597e+01 -8.8558387013061557e-01 0.0000000000000000e+00  -1.8260639783602166e+01 1.5965896772471531e+00 0.0000000000000000e+00  -1.8182407323252757e+01 1.6028301953353030e+00 0.0000000000000000e+00  -1.8166536163055333e+01 -1.8422498677033035e-03 0.0000000000000000e+00  -1.8181345496571129e+01 -9.9045789900990560e+00 0.0000000000000000e+00  -1.8166495030628621e+01 1.6137907193744926e-03 0.0000000000000000e+00  -1.8237762817970307e+01 -6.8785313232866265e+00 0.0000000000000000e+00  -1.1609478912410474e+01 5.3135625473602230e+00 0.0000000000000000e+00  -1.3006383798257849e+01 4.0294030999090555e+00 0.0000000000000000e+00  -1.1150133578844384e+01 8.4987487354876734e+00 0.0000000000000000e+00  -1.1053715738941543e+01 8.9376518842145494e+00 0.0000000000000000e+00  -1.0146193820158942e+01 1.0444959430327524e+01 0.0000000000000000e+00  -9.5765201037235670e+00 1.0637797858144621e+01 0.0000000000000000e+00  -8.8894965261770711e+00 1.0487674310749339e+01 0.0000000000000000e+00  -8.3233984363303666e+00 9.8297657050205220e+00 0.0000000000000000e+00  -7.5689205167475624e+00 9.4917809942084226e+00 0.0000000000000000e+00  -7.0778093363518293e+00 8.6540391586466328e+00 0.0000000000000000e+00  -6.7121008787149536e+00 7.6411634536364161e+00 0.0000000000000000e+00  -6.2916733274527319e+00 6.8308981375973117e+00 0.0000000000000000e+00  -5.8817111015499908e+00 6.0451657374842389e+00 0.0000000000000000e+00  -5.4858417378565223e+00 5.3090759600982702e+00 0.0000000000000000e+00  -5.0683800289596670e+00 4.7371688490869799e+00 0.0000000000000000e+00  -4.6783719975015670e+00 4.1788662332050661e+00 0.0000000000000000e+00  -4.3264217232143958e+00 3.6291257131739378e+00 0.0000000000000000e+00  -3.9843702702233208e+00 3.1914229987468477e+00 0.0000000000000000e+00  -3.6754685266782614e+00 2.7106605009713856e+00 0.0000000000000000e+00  -3.4116797587945129e+00 2.2897024489252464e+00 0.0000000000000000e+00  -3.1609140504275088e+00 1.8455777870062198e+00 0.0000000000000000e+00  -2.9421159578375176e+00 1.5595333394174387e+00 0.0000000000000000e+00  -2.7502335344558855e+00 1.0402075240621784e+00 0.0000000000000000e+00  -2.5726638199742524e+00 1.0185611948942792e+00 0.0000000000000000e+00  -2.3998121161587358e+00 3.4111100312077380e-01 0.0000000000000000e+00  -2.2285928635435059e+00 7.0546680706064213e-01 0.0000000000000000e+00  -2.0385396451013702e+00 3.1876826306122763e-02 0.0000000000000000e+00  -1.7495593357533623e+00 -2.3476273627470627e+00 0.0000000000000000e+00  -2.9518398699891590e+00 -4.1789799526318241e+00 0.0000000000000000e+00  -2.5804611696664681e+00 -4.9521365529706651e+00 0.0000000000000000e+00  -3.3580865587027526e+00 -4.2409646255384175e+00 0.0000000000000000e+00  -3.7186879292688881e+00 -4.7134599871654945e+00 0.0000000000000000e+00  -4.1792703614696185e+00 -4.8100212555060819e+00 0.0000000000000000e+00  -4.7110237888870028e+00 -5.3392142060915031e+00 0.0000000000000000e+00  -5.1280928009994868e+00 -5.4390495497457261e+00 0.0000000000000000e+00  -5.4307246424369628e+00 -5.4451290695474652e+00 0.0000000000000000e+00  -5.8374756452690528e+00 -5.4949528807347878e+00 0.0000000000000000e+00  -6.1053488179511914e+00 -5.3644832448275412e+00 0.0000000000000000e+00  -6.0496133332524451e+00 -4.5329484302695677e+00 0.0000000000000000e+00  -6.7968378533186522e+00 -4.5545673966393405e+00 0.0000000000000000e+00  -4.8322455062794782e+00 -3.7337770320419472e-01 0.0000000000000000e+00  -1.3212830518360882e+01 -1.1657112891320908e+01 0.0000000000000000e+00  -1.3706487481624904e+01 -1.1125566997172063e+01 0.0000000000000000e+00  -1.3930774318986170e+01 -1.0184232073329692e+01 0.0000000000000000e+00  -1.4222855436106144e+01 -9.3120137900904023e+00 0.0000000000000000e+00  -1.4642004552673924e+01 -8.7801971023896428e+00 0.0000000000000000e+00  -1.5201827065218035e+01 -8.3900408591913909e+00 0.0000000000000000e+00  -1.5843987169804690e+01 -8.1727590245957593e+00 0.0000000000000000e+00  -1.6506492338083266e+01 -7.9816942497292596e+00 0.0000000000000000e+00  -1.7127298345121336e+01 -7.7674175965146137e+00 0.0000000000000000e+00  -1.7654113192629545e+01 -7.1075349425910206e+00 0.0000000000000000e+00  -1.8050115812454198e+01 -6.6255531392367208e+00 0.0000000000000000e+00  -1.8304690029731958e+01 -5.1250576208940855e+00 0.0000000000000000e+00  -1.8421657976332103e+01 -4.2471097947669003e+00 0.0000000000000000e+00  -1.8427781669994332e+01 -1.9306692858880690e+00 0.0000000000000000e+00  -1.8360040816846311e+01 -1.0352543216018644e+00 0.0000000000000000e+00  -1.8266889741054111e+01 1.4496230805241379e+00 0.0000000000000000e+00  -1.8185167500936711e+01 1.5343985421643702e+00 0.0000000000000000e+00  -1.8169801093280022e+01 -2.6338358711727157e-03 0.0000000000000000e+00  -1.8175847855792060e+01 -9.8525176001261627e+00 0.0000000000000000e+00  -1.8169764317139304e+01 2.3072291041500723e-03 0.0000000000000000e+00  -1.8231393676910617e+01 -6.7846839003507791e+00 0.0000000000000000e+00  -1.8284428737355562e+01 -4.6425004597086801e+00 0.0000000000000000e+00  -1.1637380427166043e+01 6.1128331328082082e+00 0.0000000000000000e+00  -1.3021102029984345e+01 5.7158188677483190e+00 0.0000000000000000e+00  -1.1167095963768777e+01 8.7974168122362162e+00 0.0000000000000000e+00  -1.1078970924648395e+01 9.0934600556729013e+00 0.0000000000000000e+00  -1.0183806800822941e+01 9.7932739427545865e+00 0.0000000000000000e+00  -9.6278263567313385e+00 9.4688308427900694e+00 0.0000000000000000e+00  -8.9561180158719527e+00 8.9928357862651627e+00 0.0000000000000000e+00  -8.4056544451050161e+00 8.3730225429955816e+00 0.0000000000000000e+00  -7.6676942447883940e+00 7.9307423531783057e+00 0.0000000000000000e+00  -7.1937565548931701e+00 7.1066833892517245e+00 0.0000000000000000e+00  -6.8458373261731307e+00 6.2148677976839908e+00 0.0000000000000000e+00  -6.4440184331993358e+00 5.4454461312087306e+00 0.0000000000000000e+00  -6.0535282292929447e+00 4.7310697542786944e+00 0.0000000000000000e+00  -5.6777366287662883e+00 4.1271219054276731e+00 0.0000000000000000e+00  -5.2808147480427232e+00 3.6101918908940167e+00 0.0000000000000000e+00  -4.9116073957947011e+00 3.1176135459117553e+00 0.0000000000000000e+00  -4.5804302656572835e+00 2.6946883540549025e+00 0.0000000000000000e+00  -4.2590009516418892e+00 2.2633605717737804e+00 0.0000000000000000e+00  -3.9703310521766260e+00 1.9098815434624126e+00 0.0000000000000000e+00  -3.7263563743897223e+00 1.4846738440373479e+00 0.0000000000000000e+00  -3.4946091272768434e+00 1.2464099900097250e+00 0.0000000000000000e+00  -3.2943902700219656e+00 7.6637063641905645e-01 0.0000000000000000e+00  -3.1198338327947068e+00 7.6655601923922589e-01 0.0000000000000000e+00  -2.9595039851267555e+00 9.3879081127227273e-02 0.0000000000000000e+00  -2.8016552554208025e+00 4.6313159824513556e-01 0.0000000000000000e+00  -2.6474060850555543e+00 -2.4421056547144948e-01 0.0000000000000000e+00  -2.4678817797926857e+00 -2.7660242257207228e+00 0.0000000000000000e+00  -3.1269181341722532e+00 -3.6225839271015063e+00 0.0000000000000000e+00  -2.7811910786350169e+00 -4.4326388580032585e+00 0.0000000000000000e+00  -3.4971315081339474e+00 -3.6331343695632885e+00 0.0000000000000000e+00  -3.9008380585247102e+00 -4.1752546093207377e+00 0.0000000000000000e+00  -4.2572409305245920e+00 -4.1235408546756611e+00 0.0000000000000000e+00  -4.7110025220044403e+00 -4.5482049735147525e+00 0.0000000000000000e+00  -5.2327725787258146e+00 -4.8226125479092241e+00 0.0000000000000000e+00  -5.6362538968184053e+00 -5.0028093036653152e+00 0.0000000000000000e+00  -5.9217987984926372e+00 -4.8987299491645748e+00 0.0000000000000000e+00  -6.3085341327653337e+00 -4.9782098519212550e+00 0.0000000000000000e+00  -6.5547310791191729e+00 -4.6320356624898018e+00 0.0000000000000000e+00  -6.4773870551942601e+00 -3.4488077857800179e+00 0.0000000000000000e+00  -7.2038815979964923e+00 -3.3364926049003896e+00 0.0000000000000000e+00  -5.2152301636153133e+00 8.9266295426822473e-01 0.0000000000000000e+00  -1.3566290326040706e+01 -1.0404939627522491e+01 0.0000000000000000e+00  -1.4034782225190229e+01 -9.8623610601150400e+00 0.0000000000000000e+00  -1.4239122048262621e+01 -8.8891744323777111e+00 0.0000000000000000e+00  -1.4509818712502446e+01 -8.1686768851967226e+00 0.0000000000000000e+00  -1.4904264016928543e+01 -7.5713175276852658e+00 0.0000000000000000e+00  -1.5433916224373778e+01 -7.2336996583217896e+00 0.0000000000000000e+00  -1.6040795216708712e+01 -7.0157627185137770e+00 0.0000000000000000e+00  -1.6663240505174333e+01 -6.8666501562535451e+00 0.0000000000000000e+00  -1.7240156131064111e+01 -6.3496346680154430e+00 0.0000000000000000e+00  -1.7720570593069013e+01 -6.0634565046176929e+00 0.0000000000000000e+00  -1.8071045938920136e+01 -4.7749275344289348e+00 0.0000000000000000e+00  -1.8281865018746419e+01 -4.0964883744523828e+00 0.0000000000000000e+00  -1.8364091300047111e+01 -1.9435288533803037e+00 0.0000000000000000e+00  -1.8344001404534897e+01 -1.1397966740669352e+00 0.0000000000000000e+00  -1.8273555015174427e+01 1.3076272759865391e+00 0.0000000000000000e+00  -1.8192022921879754e+01 1.4589151626016585e+00 0.0000000000000000e+00  -1.8174