<?xml version="1.0"?>
<VTKFile type="UnstructuredGrid"  version="0.1"  >
<UnstructuredGrid>
<Piece  NumberOfPoints="1933" NumberOfCells="3640">
<Points>
<DataArray  type="Float64"  NumberOfComponents="3"  format="ascii">-0.2939869785449289 0.000144374507985898 0  4.706013065114914 0.0001157081692005914 0  4.706056111612101 7.500115844724604 0  -0.2939439719587026 7.500144441785642 0  9.70601312124799 8.69176497489757e-05 0  9.706056263264975 7.500087078364838 0  14.70601325600316 5.794301693507918e-05 0  14.70605651925083 7.500058110612632 0  19.70601354187655 2.877986464647556e-05 0  19.70605691506819 7.500028948057519 0  24.70601404673565 -5.431259673660798e-07 0  24.70605748589783 7.499999624053384 0  29.70601483128906 -2.997651945951417e-05 0  29.70605826576593 7.499970190066636 0  34.70601594976174 -5.945690674642138e-05 0  34.70605928693775 7.499940710380791 0  39.70601745164991 -8.891031760095941e-05 0  39.70606057970847 7.499911259337056 0  44.706019383698 -0.0001182534529899933 0  44.70606217245853 7.499881920401705 0  49.70602179177274 -0.0001473934001120697 0  49.70606409179788 7.499852786590548 0  54.70602472253405 -0.0001762261773552452 0  54.70606636265467 7.4998239619875 0  59.70602822488253 -0.0002046342477207916 0  59.70606900817931 7.499795564255872 0  64.70603235119025 -0.0002324829842820925 0  64.70607204933488 7.499767728173174 0  69.70603715829604 -0.0002596159361601402 0  69.70607550402612 7.499740610340916 0  74.70604270821724 -0.0002858486019866722 0  74.7060793855654 7.499714395348342 0  79.70604906844487 -0.0003109602441724595 0  79.70608370018546 7.499689303822181 0  84.70605631157257 -0.0003346830404304451 0  84.70608844318984 7.499665602992051 0  89.706064513774 -0.0003566875254761187 0  89.70609359313137 7.499643620668637 0  94.7060737512535 -0.0003765627608106092 0  94.70609910315324 7.49962376389217 0  99.70608409303959 -0.0003937888849729166 0  99.70610488829796 7.499606543982748 0  104.7060955871257 -0.000407698491940649 0  104.7061108072037 7.499592610301787 0  109.7061082343259 -0.00041742144823044 0  109.7061166363651 7.499582795608655 0  114.7061219392472 -0.0004218050191207184 0  114.706122035465 7.499578176121773 0  119.7061364181578 -0.0004192972981665967 0  119.7061265043447 7.499580148311686 0  124.7061510249729 -0.0004077771308798412 0  124.7061293388268 7.49959051974335 0  129.7061644204499 -0.0003843101395523685 0  129.7061296102818 7.499611597711081 0  134.7061739389279 -0.0003448178808452045 0  134.7061262373684 7.499646226545281 0  139.706174365591 -0.0002837072016523708 0  139.7061183217506 7.499697657864033 0  144.7061555388475 -0.0001938079502139458 0  144.7061061666329 7.499769057204264 0  149.7060974664538 -6.844407168756582e-05 0  149.7060940322186 7.499862696197187 0  159.7061073738551 7.906379123602169e-19 0  164.7059800862598 -0.000192235866165601 0  164.7060863334902 7.499776667240313 0  159.7061208588072 7.499927100497716 0  169.705916439194 -0.000348092193697185 0  169.7060511295821 7.499636301269438 0  174.7058857699678 -0.0004779180351100131 0  174.7060231825796 7.499513586296412 0  179.7058727074942 -0.0005878592339996422 0  179.7060031458612 7.499407314926952 0  184.7058691727418 -0.000682485694086056 0  184.7059897374831 7.499314696162576 0  189.7058707979825 -0.0007652826779376055 0  189.7059813842928 7.499233036070386 0  194.705875170179 -0.0008388836004840701 0  194.7059767103623 7.499160096798475 0  199.7058809298739 -0.0009052679221697416 0  199.7059746377955 7.499094107882439 0  204.7058872972064 -0.0009659276688901905 0  204.7059743623473 7.499033690951361 0  209.7058938178469 -0.001021997167293761 0  209.7059752978707 7.498977774747221 0  214.7059002243151 -0.001074349230884589 0  214.705977021843 7.498925522125314 0  219.7059063587758 -0.001123664716197876 0  219.7059792310606 7.49887627282081 0  224.7059121291281 -0.001170482379132968 0  224.7059817082384 7.498829500241687 0  229.7059174834611 -0.00121523465777345 0  229.7059842977332 7.498784779320568 0  234.7059223948541 -0.001258273551520055 0  234.7059868882081 7.498741762650728 0  239.7059268521464 -0.00129988955345748 0  239.7059894003481 7.498700162689955 0  244.7059308542534 -0.00134032568966655 0  244.7059917781817 7.498659738375787 0  249.7059344066489 -0.001379788080078237 0  249.705993982959 7.498620284951808 0  254.7059375192363 -0.001418453993015701 0  254.7059959888486 7.498581626150637 0  259.7059402051449 -0.001456478059484586 0  259.7059977799315 7.498543608132592 0  264.7059424802067 -0.001493997097060374 0  264.7059993481384 7.498506094766211 0  269.705944362958 -0.001531133831804932 0  269.706000691881 7.498468963980678 0  274.7059458751146 -0.001567999672146024 0  274.706001815182 7.498432105040092 0  279.7059470425044 -0.001604696554830748 0  279.7060027271698 7.498395416703849 0  284.7059478964637 -0.001641317719363976 0  284.7060034418067 7.498358806364445 0  289.7059484756589 -0.001677947029083513 0  289.7060039777054 7.498322190411314 0  294.7059488282079 -0.001714656071709202 0  294.7060043579339 7.498285496274367 0  299.7059490135568 -0.001751497616679744 0  299.7060046097279 7.498248666861873 0  304.7059491027657 -0.001788492888944868 0  304.7060047644055 7.498211668402484 0  309.7059491736896 -0.001825608382936202 0  309.7060048587894 7.49817450301441 0  4.706098766682176 15.00011615669331 0  -0.2939013244701348 15.0001446060934 0  9.70609891802162 15.00008743469709 0  14.70609916048182 15.00005846721471 0  19.7060995148013 15.00002928933832 0  24.70609999759205 14.99999994749465 0  29.70610062357438 14.99997049874682 0  34.7061014060915 14.99994100943359 0  39.70610235692828 14.99991155431759 0  44.70610348585566 14.99988221655387 0  49.70610480003248 14.99985308851006 0  54.70610630326385 14.9998242734146 0  59.70610799505389 14.99979588783981 0  64.70610986935979 14.9997680650835 0  69.70611191292923 14.9997409595841 0  74.70611410308821 14.99971475258362 0  79.70611640482637 14.99968965934029 0  84.706118767031 14.99966593828561 0  89.70612111775391 14.99964390260935 0  94.70612335852859 14.99962393480475 0  99.70612535804406 14.99960650464014 0  104.7061269461506 14.99959219066686 0  109.7061279104458 14.99958170437173 0  114.7061280001269 14.99957591371341 0  119.7061269460658 14.99957585764153 0  124.7061245131707 14.99958273263607 0  129.7061206116538 14.99959781145924 0  134.7061155066067 14.99962221441818 0  139.7061101716288 14.9996563776305 0  144.7061067999044 14.9996989072029 0  149.7061093037492 14.99974408518617 0  164.7061382187461 14.99969084262996 0  159.706141618699 14.99979025852393 0  169.7061259818455 14.99958543420325 0  174.7061106281056 14.99948361648134 0  179.7060957536098 14.99938949433235 0  184.7060829647423 14.99930394359361 0  189.7060727221453 14.99922643998792 0  194.7060649305779 14.99915598348961 0  199.7060592688875 14.99909150529508 0  204.7060553566369 14.9990320263848 0  209.7060528303286 14.99897670491834 0  214.7060513729307 14.99892483726635 0  219.706050720796 14.99887584211811 0  224.7060506606017 14.99882924044451 0  229.7060510226126 14.99878463643122 0  234.7060516732646 14.99874170107814 0  239.7060525083131 14.99870015871941 0  244.7060534470032 14.99865977617625 0  249.7060544273119 14.99862035410578 0  254.7060554021567 14.99858172011787 0  259.7060563364256 14.9985437233009 0  264.7060572046548 14.99850622987579 0  269.7060579892305 14.99846911977709 0  274.7060586789696 14.9984322840301 0  279.7060592679884 14.99839562285746 0  284.7060597547929 14.99835904450155 0  289.7060601415388 14.99832246477941 0  294.706060433583 14.99828580735262 0  299.7060606395483 14.99824900450196 0  304.7060607725706 14.99821199759755 0  309.7060608539252 14.9981747348359 0  4.706141018423128 22.50011678179528 0  -0.2938590708157874 22.50014510680015 0  9.706141143712246 22.50008808921987 0  14.70614132664218 22.50005910349846 0  19.70614157871349 22.50002988865871 0  24.7061419055485 22.50000050699126 0  29.70614230935407 22.49997102333594 0  34.70614278997878 22.49994150714101 0  39.70614334507835 22.49991203367328 0  44.70614396975819 22.49988268511751 0  49.70614465590602 22.49985355193132 0  54.70614539130968 22.49982473464109 0  59.70614615859494 22.49979634618748 0  64.70614693398096 22.49976851491162 0  69.70614768584906 22.49974138827515 0  74.70614837313927 22.49971513741869 0  79.70614894363848 22.49968996265976 0  84.70614933232224 22.49966609999863 0  89.70614946008459 22.49964382859748 0  94.70614923348172 22.49962347896602 0  99.70614854658278 22.49960544110843 0  104.7061472867513 22.49959017097375 0  109.7061453472499 22.49957819187254 0  114.7061426509935 22.49957008455964 0  119.7061391914007 22.49956645465637 0  124.7061350974472 22.49956785797884 0  129.706130728817 22.49957465220917 0  134.7061267992599 22.49958672757293 0  139.7061245031197 22.4996030553963 0  144.7061255659056 22.49962100572427 0  149.7061320336516 22.49963552004143 0  164.7061705365375 22.49959473681045 0  159.7061601196377 22.49966193228644 0  169.7061725909499 22.49951752743453 0  174.7061689386404 22.49943721196832 0  179.7061621974892 22.49935824674497 0  184.7061543177565 22.49928298228214 0  189.7061465150961 22.49921234692272 0  194.7061394409637 22.49914645676322 0  199.706133376417 22.49908502264113 0  204.7061283827918 22.4990275870167 0  209.7061244030197 22.4989736499644 0  214.7061213243367 22.49892273039109 0  219.7061190147013 22.49887439186718 0  224.7061173425841 22.49882825019821 0  229.706116186773 22.49878397221229 0  234.7061154404444 22.4987412707862 0  239.706115012099 22.49869989866295 0  244.7061148249015 22.49865964227871 0  249.7061148152879 22.49862031612684 0  254.7061149313361 22.49858175783782 0  259.7061151311206 22.49854382399289 0  264.7061153811921 22.49850638662068 0  269.7061156552013 22.49846933030528 0  274.7061159326858 22.49843254983206 0  279.7061161980236 22.4983959482978 0  284.7061164395523 22.49835943559182 0  289.7061166489205 22.49832292709682 0  294.7061168207867 22.4982863423060
[...]
<PointData  Vectors="v"> 
<DataArray  type="Float64"  Name="v"  NumberOfComponents="3" format="ascii">-1.1012396961596480e+00 -7.6635540658188495e+00 0.0000000000000000e+00  -1.6584340999969986e+00 -7.1707017577723109e+00 0.0000000000000000e+00  -1.5283353008038612e+00 -6.3351657563776271e+00 0.0000000000000000e+00  -1.0982371536498463e+00 -7.0186625375315144e+00 0.0000000000000000e+00  -2.3520366404091853e+00 -7.7484634988047629e+00 0.0000000000000000e+00  -2.0851239526083294e+00 -6.7090638028315874e+00 0.0000000000000000e+00  -2.9730222643251967e+00 -8.7704236909424544e+00 0.0000000000000000e+00  -2.7774959669088108e+00 -7.8405307995519902e+00 0.0000000000000000e+00  -3.5164876287474240e+00 -9.0818293175958793e+00 0.0000000000000000e+00  -3.3964766965435915e+00 -8.2689512473203539e+00 0.0000000000000000e+00  -4.1974136200497671e+00 -9.9553091964625278e+00 0.0000000000000000e+00  -3.9371721856725297e+00 -8.9369682719929546e+00 0.0000000000000000e+00  -4.7363786433557324e+00 -1.0309006869701113e+01 0.0000000000000000e+00  -4.6143887088268345e+00 -9.5042061491570902e+00 0.0000000000000000e+00  -4.8154739288667825e+00 -1.0046023744443007e+01 0.0000000000000000e+00  -5.1488296191886453e+00 -9.9317699255771181e+00 0.0000000000000000e+00  -5.8992595864595021e+00 -1.1141771816062183e+01 0.0000000000000000e+00  -5.2226443019614504e+00 -9.5212498675863415e+00 0.0000000000000000e+00  -2.7933915398873128e+00 -5.9781174165685869e+00 0.0000000000000000e+00  -6.3002123852002532e+00 -1.0642435201901380e+01 0.0000000000000000e+00  -1.3915316253382860e+01 -2.1862570127693356e+01 0.0000000000000000e+00  -3.1873828882862290e+00 -5.1866530262245734e+00 0.0000000000000000e+00  -1.3595531324419843e+01 -2.0088459322603050e+01 0.0000000000000000e+00  -1.4301843536048287e+01 -2.0575283903320447e+01 0.0000000000000000e+00  -1.3672693259439374e+01 -1.8768839762230005e+01 0.0000000000000000e+00  -1.3973524593299873e+01 -1.8661264710792043e+01 0.0000000000000000e+00  -1.4203779311484418e+01 -1.8101815416486904e+01 0.0000000000000000e+00  -1.4040860587521932e+01 -1.7314717249665829e+01 0.0000000000000000e+00  -1.5143932850098242e+01 -1.8068890269724594e+01 0.0000000000000000e+00  -1.4560753210685846e+01 -1.6669581123540997e+01 0.0000000000000000e+00  -1.6394122345273836e+01 -1.8460393604828258e+01 0.0000000000000000e+00  -1.5487866395057567e+01 -1.6597094218331975e+01 0.0000000000000000e+00  -1.7860702030868445e+01 -1.9069255434982665e+01 0.0000000000000000e+00  -1.6723536459546192e+01 -1.6882817758752040e+01 0.0000000000000000e+00  -1.9453086355159293e+01 -1.9956292313338572e+01 0.0000000000000000e+00  -1.8174270559786422e+01 -1.7582416852219328e+01 0.0000000000000000e+00  -2.1080805545798928e+01 -2.0695424210388079e+01 0.0000000000000000e+00  -1.9748946961137335e+01 -1.8269367779876003e+01 0.0000000000000000e+00  -2.2667142606120915e+01 -2.1320177656701446e+01 0.0000000000000000e+00  -2.1357812092439353e+01 -1.8957613063307942e+01 0.0000000000000000e+00  -2.4148521366176649e+01 -2.1668084670542846e+01 0.0000000000000000e+00  -2.2923960355147834e+01 -1.9463743774880687e+01 0.0000000000000000e+00  -2.5469510303638000e+01 -2.1703384005778162e+01 0.0000000000000000e+00  -2.4383902352440803e+01 -1.9740563392989003e+01 0.0000000000000000e+00  -2.6594348526947165e+01 -2.0974065300196543e+01 0.0000000000000000e+00  -2.5682029925532017e+01 -1.9305930188056720e+01 0.0000000000000000e+00  -2.7509418051448211e+01 -2.0254888672342855e+01 0.0000000000000000e+00  -2.6784031647225749e+01 -1.8902895141084162e+01 0.0000000000000000e+00  -2.8209026292497136e+01 -1.8106057515375461e+01 0.0000000000000000e+00  -2.7673822572149987e+01 -1.7076055097875912e+01 0.0000000000000000e+00  -2.8715186063513379e+01 -1.6435565769844064e+01 0.0000000000000000e+00  -2.8349938255404403e+01 -1.5698723812479766e+01 0.0000000000000000e+00  -2.9046631063299984e+01 -1.2752372077117851e+01 0.0000000000000000e+00  -2.8828776332936300e+01 -1.2273950512903784e+01 0.0000000000000000e+00  -2.9247440677270255e+01 -1.0091591053276213e+01 0.0000000000000000e+00  -2.9137517584354971e+01 -9.8148158884543069e+00 0.0000000000000000e+00  -2.9342414117296180e+01 -5.2022903858908291e+00 0.0000000000000000e+00  -2.9308930688406200e+01 -5.0764795941745815e+00 0.0000000000000000e+00  -2.9381811141108905e+01 -1.2356362867232511e+00 0.0000000000000000e+00  -2.9383432852046369e+01 -1.2035803891740242e+00 0.0000000000000000e+00  -2.9389262608671860e+01 5.0429332320460683e-09 0.0000000000000000e+00  -2.9389940976280805e+01 -7.0928897846774983e-04 0.0000000000000000e+00  -2.9389262614655578e+01 4.8853560755336808e-19 0.0000000000000000e+00  -2.0123480198480678e+01 7.0736385662260206e+00 0.0000000000000000e+00  -2.9383913452537492e+01 -6.7992725540238013e+00 0.0000000000000000e+00  -2.9389929046249833e+01 6.7738835026251811e-04 0.0000000000000000e+00  -2.0747883283305629e+01 1.3371005391038690e+01 0.0000000000000000e+00  -2.0151184949468558e+01 1.4347811375777773e+01 0.0000000000000000e+00  -1.7729678622440840e+01 2.0813135842931679e+01 0.0000000000000000e+00  -2.0813255859275184e+01 1.6316662796736797e+01 0.0000000000000000e+00  -1.6951978691435777e+01 2.2299487884249690e+01 0.0000000000000000e+00  -1.7833367772493801e+01 2.1167778226061468e+01 0.0000000000000000e+00  -1.5272179421005470e+01 2.5078379493393708e+01 0.0000000000000000e+00  -1.7093233594436203e+01 2.2591716798154145e+01 0.0000000000000000e+00  -1.4060473413455302e+01 2.5293434429421747e+01 0.0000000000000000e+00  -1.5450473016551541e+01 2.3509606402272034e+01 0.0000000000000000e+00  -1.2765701057166670e+01 2.5373686065222564e+01 0.0000000000000000e+00  -1.4276052824377899e+01 2.3463991357559223e+01 0.0000000000000000e+00  -1.1649925327363402e+01 2.4321819948523121e+01 0.0000000000000000e+00  -1.3017765875094696e+01 2.2681109177335482e+01 0.0000000000000000e+00  -1.0321963787516459e+01 2.3153717607860642e+01 0.0000000000000000e+00  -1.1938088761056855e+01 2.1194041541682356e+01 0.0000000000000000e+00  -9.3663604033606287e+00 2.1312224503964089e+01 0.0000000000000000e+00  -1.0646034847113210e+01 1.9910848589182095e+01 0.0000000000000000e+00  -8.5833067862102688e+00 1.9456288401760261e+01 0.0000000000000000e+00  -9.7258677121277568e+00 1.8313527370086145e+01 0.0000000000000000e+00  -7.7316157398644183e+00 1.7762611290549458e+01 0.0000000000000000e+00  -8.9778782687642131e+00 1.6516632007016678e+01 0.0000000000000000e+00  -6.9249731314432097e+00 1.6162781448898368e+01 0.0000000000000000e+00  -8.1610464261729483e+00 1.4983997665658810e+01 0.0000000000000000e+00  -6.1672378918869697e+00 1.4746657536224106e+01 0.0000000000000000e+00  -7.3888468717859555e+00 1.3641048715048049e+01 0.0000000000000000e+00  -5.4218757716549844e+00 1.3450790661542866e+01 0.0000000000000000e+00  -6.6651897589165436e+00 1.2363398699477134e+01 0.0000000000000000e+00  -4.7437374081257948e+00 1.2209692326349222e+01 0.0000000000000000e+00  -5.9535999369844195e+00 1.1222803902661335e+01 0.0000000000000000e+00  -4.1406056713885651e+00 1.1071077287093107e+01 0.0000000000000000e+00  -5.3088441073502510e+00 1.0196415586490321e+01 0.0000000000000000e+00  -3.5749995690394680e+00 9.9821901696703446e+00 0.0000000000000000e+00  -4.7386855142207462e+00 9.1635253910571137e+00 0.0000000000000000e+00  -3.0722384998504588e+00 8.9191994939703427e+00 0.0000000000000000e+00  -4.2057710847055017e+00 8.1944220598911581e+00 0.0000000000000000e+00  -2.6413487788972971e+00 7.9213002469356439e+00 0.0000000000000000e+00  -3.7352354992072798e+00 7.3041434687983973e+00 0.0000000000000000e+00  -2.2462728941616872e+00 6.9169409773458748e+00 0.0000000000000000e+00  -3.3363474050059976e+00 6.3530551927694452e+00 0.0000000000000000e+00  -1.9054329613855774e+00 5.9817671569289237e+00 0.0000000000000000e+00  -2.9727096736148768e+00 5.4991870567985766e+00 0.0000000000000000e+00  -1.6183717941648132e+00 5.0285870881313661e+00 0.0000000000000000e+00  -2.6633614443673559e+00 4.6259806077722549e+00 0.0000000000000000e+00  -1.3658136484254788e+00 4.2133846089229445e+00 0.0000000000000000e+00  -2.4067467354393384e+00 3.8630074817961848e+00 0.0000000000000000e+00  -1.1477130536089650e+00 3.2743382966249341e+00 0.0000000000000000e+00  -2.1855599534370187e+00 2.9740780460830414e+00 0.0000000000000000e+00  -9.5691064331981701e-01 2.7363745948877471e+00 0.0000000000000000e+00  -1.9964115603787667e+00 2.4790563073503988e+00 0.0000000000000000e+00  -7.8078123887695294e-01 1.7858030471126416e+00 0.0000000000000000e+00  -1.8377445413536835e+00 1.5465265065570184e+00 0.0000000000000000e+00  -5.4320164899337431e-01 1.7289536066111970e+00 0.0000000000000000e+00  -1.6876656760745001e+00 1.4035355616397582e+00 0.0000000000000000e+00  -1.8295716534764267e-01 1.2033608166268583e+00 0.0000000000000000e+00  -1.4862830999779686e+00 6.8282093421813417e-01 0.0000000000000000e+00  6.6175038298938560e-01 7.4400884160946163e-03 0.0000000000000000e+00  -1.1405435947975300e+00 -1.2182409934601801e+00 0.0000000000000000e+00  -1.8058301634792602e+00 -5.6896244184208946e+00 0.0000000000000000e+00  -1.3318529365474039e+00 -6.3086397833333772e+00 0.0000000000000000e+00  -2.2362732029244836e+00 -5.8739677246853956e+00 0.0000000000000000e+00  -2.7925495512321676e+00 -6.8028577392746126e+00 0.0000000000000000e+00  -3.4831566114389423e+00 -7.3421417389389685e+00 0.0000000000000000e+00  -4.0989687360744913e+00 -8.1283623008288473e+00 0.0000000000000000e+00  -4.6350254493278706e+00 -8.4918507393299585e+00 0.0000000000000000e+00  -5.3059764907224203e+00 -9.1346446721460044e+00 0.0000000000000000e+00  -5.8323851290460276e+00 -9.4157667269007774e+00 0.0000000000000000e+00  -5.8967020515729294e+00 -9.0324465088184596e+00 0.0000000000000000e+00  -6.9632682847016394e+00 -9.8628446147266065e+00 0.0000000000000000e+00  -3.8386798936178712e+00 -3.9104577472404536e+00 0.0000000000000000e+00  -1.4942418102879127e+01 -1.9160102228746528e+01 0.0000000000000000e+00  -1.4602949905549364e+01 -1.7221521230522466e+01 0.0000000000000000e+00  -1.4656671980360617e+01 -1.5898710839750436e+01 0.0000000000000000e+00  -1.5160291382556647e+01 -1.5217857669980829e+01 0.0000000000000000e+00  -1.6067507627107645e+01 -1.5042813824017998e+01 0.0000000000000000e+00  -1.7279758829109053e+01 -1.5421283961661501e+01 0.0000000000000000e+00  -1.8704046283131220e+01 -1.5924764853961845e+01 0.0000000000000000e+00  -2.0248701975300495e+01 -1.6563807428373636e+01 0.0000000000000000e+00  -2.1824113247859795e+01 -1.7135053194132936e+01 0.0000000000000000e+00  -2.3354176875862372e+01 -1.7573901933461276e+01 0.0000000000000000e+00  -2.4774488598566762e+01 -1.7383163571582230e+01 0.0000000000000000e+00  -2.6030361056233755e+01 -1.7276108101859727e+01 0.0000000000000000e+00  -2.7087457273039135e+01 -1.5768104008646350e+01 0.0000000000000000e+00  -2.7930656819666101e+01 -1.4714632755337796e+01 0.0000000000000000e+00  -2.8557104288203174e+01 -1.1581954147035365e+01 0.0000000000000000e+00  -2.8988118726178492e+01 -9.3859726782636432e+00 0.0000000000000000e+00  -2.9243894664006447e+01 -4.8407205670585576e+00 0.0000000000000000e+00  -2.9371380925381217e+01 -1.1320185557639126e+00 0.0000000000000000e+00  -2.9391565321314765e+01 -1.3511127458584768e-03 0.0000000000000000e+00  -2.9362957619379848e+01 -6.8617138649464158e+00 0.0000000000000000e+00  -2.9391543563490178e+01 1.3313404009803497e-03 0.0000000000000000e+00  -2.9301252207497587e+01 5.1215957478308649e-01 0.0000000000000000e+00  -2.0102801083219241e+01 1.7336782724698825e+01 0.0000000000000000e+00  -2.0809399334178718e+01 1.6723674336367786e+01 0.0000000000000000e+00  -1.7871993758412369e+01 2.1507965526970835e+01 0.0000000000000000e+00  -1.7174900011300188e+01 2.1068534642205403e+01 0.0000000000000000e+00  -1.5571676557223105e+01 2.1726800959048102e+01 0.0000000000000000e+00  -1.4436664768370902e+01 2.0816011029200432e+01 0.0000000000000000e+00  -1.3215513309621871e+01 1.9596036702575589e+01 0.0000000000000000e+00  -1.2171669179412216e+01 1.7993948934879768e+01 0.0000000000000000e+00  -1.0914513189103413e+01 1.6953868538247097e+01 0.0000000000000000e+00  -1.0028451983481027e+01 1.5414555522774306e+01 0.0000000000000000e+00  -9.3137432077596305e+00 1.3778663327699643e+01 0.0000000000000000e+00  -8.5298431041157574e+00 1.2502256377169950e+01 0.0000000000000000e+00  -7.7900122684850368e+00 1.1296986295454435e+01 0.0000000000000000e+00  -7.0981076993644328e+00 1.0174318086760167e+01 0.0000000000000000e+00  -6.4177849383599597e+00 9.2477837178439035e+00 0.0000000000000000e+00  -5.8036866177536028e+00 8.3263733481194269e+00 0.0000000000000000e+00  -5.2635365294957479e+00 7.4128267377929040e+00 0.0000000000000000e+00  -4.7600434948334094e+00 6.6157938791874855e+00 0.0000000000000000e+00  -4.3183386619874984e+00 5.7716515559703216e+00 0.0000000000000000e+00  -3.9475758538858412e+00 4.9705565589234828e+00 0.0000000000000000e+00  -3.6115920583369214e+00 4.1780676327765605e+00 0.0000000000000000e+00  -3.3291045981858658e+00 3.4943923699099626e+00 0.0000000000000000e+00  -3.0990328453837632e+00 2.6572947456350677e+00 0.0000000000000000e+00  -2.9032748695495347e+00 2.2117206872455308e+00 0.0000000000000000e+00  -2.7399086241233186e+00 1.3213855157046324e+00 0.0000000000000000e+00  -2.6046570021260602e+00 1.1963955772211938e+00 0.0000000000000000e+00  -2.4802289880217230e+00 3.8985339854327394e-01 0.0000000000000000e+00  -2.3003585962365931e+00 -1.7174242121513184e+00 0.0000000000000000e+00  -2.5188983322008505e+00 -4.9777984163305087e+00 0.0000000000000000e+00  -2.0905969259544102e+00 -5.6676213994778690e+00 0.0000000000000000e+00  -2.9941158119311999e+00 -5.2274219086056348e+00 0.0000000000000000e+00  -3.4258457479240993e+00 -5.9687781262746862e+00 0.0000000000000000e+00  -3.9815780077699134e+00 -6.3080010993059741e+00 0.0000000000000000e+00  -4.6696584284534648e+00 -7.2081446362628689e+00 0.0000000000000000e+00  -5.2804941295412524e+00 -7.6934453110955676e+00 0.0000000000000000e+00  -5.8084878159410156e+00 -8.1359687780053438e+00 0.0000000000000000e+00  -6.4683587624713006e+00 -8.6362078324833931e+00 0.0000000000000000e+00  -6.9805731590877853e+00 -8.9483764642204058e+00 0.0000000000000000e+00  -7.0275105194866629e+00 -8.2770378350945517e+00 0.0000000000000000e+00  -8.0749037249952487e+00 -8.6114160652613236e+00 0.0000000000000000e+00  -4.9324540176584373e+00 -2.5170274855778603e+00 0.0000000000000000e+00  -1.6021799074708280e+01 -1.7741674082301657e+01 0.0000000000000000e+00  -1.5668301044010423e+01 -1.5832163319793835e+01 0.0000000000000000e+00  -1.5703736042375249e+01 -1.4480711478299577e+01 0.0000000000000000e+00  -1.6182641827184526e+01 -1.3704860112206694e+01 0.0000000000000000e+00  -1.7058405991791034e+01 -1.3630921819580866e+01 0.0000000000000000e+00  -1.8232295352932706e+01 -1.3821308922597607e+01 0.0000000000000000e+00  -1.9610873482711497e+01 -1.4284476228898624e+01 0.0000000000000000e+00  -2.1102944848968356e+01 -1.4814462582131805e+01 0.0000000000000000e+00  -2.2619138289626068e+01 -1.5326458974608585e+01 0.0000000000000000e+00  -2.4082495482160432e+01 -1.5304071630405815e+01 0.0000000000000000e+00  -2.5430042970089321e+01 -1.5449470576230356e+01 0.0000000000000000e+00  -2.6606075337787146e+01 -1.4241749395751622e+01 0.0000000000000000e+00  -2.7578756317597541e+01 -1.3515381658785953e+01 0.0000000000000000e+00  -2.8330742220019893e+01 -1.0705388563574145e+01 0.0000000000000000e+00  -2.8866233651824036e+01 -8.8131752954680849e+00 0.0000000000000000e+00  -2.9198819857575817e+01 -4.5134747285170667e+00 0.0000000000000000e+00  -2.9368822909581851e+01 -1.0247788146923722e+00 0.0000000000000000e+00  -2.9394100373848921e+01 -1.9320985450940772e-03 0.0000000000000000e+00  -2.9344749332846344e+01 -7.0228923958296070e+00 0.0000000000000000e+00  -2.9394081072643029e+01 1.9039434110571212e-03 0.0000000000000000e+00  -2.9151962891055039e+01 3.8975471987684773e-01 0.0000000000000000e+00  -2.9080608736694757e+01 3.5810785372094287e+00 0.0000000000000000e+00  -1.9939857311718082e+01 1.7838736676404228e+01 0.0000000000000000e+00  -2.0718954233782721e+01 1.7152807991660445e+01 0.0000000000000000e+00  -1.7850671401510766e+01 2.0074931933011914e+01 0.0000000000000000e+00  -1.7219543084496038e+01 1.9368294212978277e+01 0.0000000000000000e+00  -1.5676975892899286e+01 1.9158453516831045e+01 0.0000000000000000e+00  -1.4599343845380032e+01 1.7806155433475407e+01 0.0000000000000000e+00  -1.3431231985405653e+01 1.6468073603119997e+01 0.0000000000000000e+00  -1.2437895397960554e+01 1.5106281322156974e+01 0.0000000000000000e+00  -1.1229034084820970e+01 1.4122696825064219e+01 0.0000000000000000e+00  -1.0389742294702126e+01 1.2742832762407149e+01 0.0000000000000000e+00  -9.7208160256357186e+00 1.1362090927189307e+01 0.0000000000000000e+00  -8.9819482096502945e+00 1.0222373389243151e+01 0.0000000000000000e+00  -8.2862916933339203e+00 9.1709265198507719e+00 0.0000000000000000e+00  -7.6377650146546339e+00 8.2610580591578149e+00 0.0000000000000000e+00  -6.9998724295010284e+00 7.4383169743632509e+00 0.0000000000000000e+00  -6.4271853790345936e+00 6.6348378115587821e+00 0.0000000000000000e+00  -5.9273661981807759e+00 5.8920677018735299e+00 0.0000000000000000e+00  -5.4631693359218376e+00 5.1396926961576597e+00 0.0000000000000000e+00  -5.0595199445751966e+00 4.4444049783201933e+00 0.0000000000000000e+00  -4.7258961124776935e+00 3.7028879690858032e+00 0.0000000000000000e+00  -4.4255884900797655e+00 3.0993025077849237e+00 0.0000000000000000e+00  -4.1781781592664169e+00 2.3388890680274232e+00 0.0000000000000000e+00  -3.9811265415374057e+00 1.9458693518982113e+00 0.0000000000000000e+00  -3.8187261808585045e+00 1.0998450960536794e+00 0.0000000000000000e+00  -3.6846847330433947e+00 1.0221987823410617e+00 0.0000000000000000e+00  -3.5830617894683705e+00 2.2110387123995429e-01 0.0000000000000000e+00  -3.4795973976205246e+00 -1.9571233159457091e+00 0.0000000000000000e+00  -3.4386325887200164e+00 -4.3340130624049547e+00 0.0000000000000000e+00  -3.0485340610297600e+00 -5.0844542340642320e+00 0.0000000000000000e+00  -3.8689637283310434e+00 -4.5125475022246810e+00 0.0000000000000000e+00  -4.3475092319394859e+00 -5.3191121218835198e+00 0.0000000000000000e+00  -4.7820796160670609e+00 -5.4733827590802697e+00 0.0000000000000000e+00  -5.3391257940921237e+00 -6.1768460390012763e+00 0.0000000000000000e+00  -6.0257874543121108e+00 -6.7801926335850862e+00 0.0000000000000000e+00  -6.6318461349761177e+00 -7.3498396274368858e+00 0.0000000000000000e+00  -7.1510707202563690e+00 -7.6553679022805756e+00 0.0000000000000000e+00  -7.7976856806731325e+00 -8.1920525916310911e+00 0.0000000000000000e+00  -8.2922992377170228e+00 -8.2214307050268953e+00 0.0000000000000000e+00  -8.3185702053391282e+00 -7.0559900979873147e+00 0.0000000000000000e+00  -9.3452717351574801e+00 -7.2432300758154016e+00 0.0000000000000000e+00  -6.1877831976499555e+00 -1.1151871514391356e+00 0.0000000000000000e+00  -1.7270050440831124e+01 -1.6367311808949722e+01 0.0000000000000000e+00  -1.6910335227527558e+01 -1.4436237108742301e+01 0.0000000000000000e+00  -1.6933400391875693e+01 -1.3001406671897056e+01 0.0000000000000000e+00  -1.7390981875030111e+01 -1.2339594436236352e+01 0.0000000000000000e+00  -1.8234632499962625e+01 -1.2089832124797091e+01 0.0000000000000000e+00  -1.9366035540144228e+01 -1.2253820647322913e+01 0.0000000000000000e+00  -2.0691437098055705e+01 -1.2620944330289914e+01 0.0000000000000000e+00  -2.2119315826844073e+01 -1.3104373650589464e+01 0.0000000000000000e+00  -2.3560307606546075e+01 -1.3168552626856895e+01 0.0000000000000000e+00  -2.4938051822816295e+01 -1.3496386098508454e+01 0.0000000000000000e+00  -2.6187924136584282e+01 -1.2550920559447423e+01 0.0000000000000000e+00  -2.7257692594953195e+01 -1.2139901799940970e+01 0.0000000000000000e+00  -2.8112472079853898e+01 -9.6601232770426844e+00 0.0000000000000000e+00  -2.8743907007448961e+01 -8.1066806877633972e+00 0.0000000000000000e+00  -2.9147463666127635e+01 -4.0923283774895047e+00 0.0000000000000000e+00  -2.9362301883266117e+01 -8.8041579991860397e-01 0.0000000000000000e+00  -2