<?xml version="1.0"?>
<VTKFile type="UnstructuredGrid"  version="0.1"  >
<UnstructuredGrid>
<Piece  NumberOfPoints="1933" NumberOfCells="3640">
<Points>
<DataArray  type="Float64"  NumberOfComponents="3"  format="ascii">-0.4754183807069355 -0.001454092657978883 0  4.524581673521549 -0.001429645220166448 0  4.524545014462698 7.498570497788271 0  -0.4754550702699708 7.49854599912087 0  9.524581756615378 -0.001405314363108903 0  9.52454516002491 7.498594842553367 0  14.52458193070418 -0.001381123446100897 0  14.52454539477008 7.498619034450814 0  19.52458225593939 -0.001357049790320659 0  19.52454574447755 7.498643105170284 0  24.52458278371016 -0.001333044995444206 0  24.52454623258336 7.498667106578123 0  29.52458355609853 -0.001309045274080102 0  29.52454687944055 7.498691103750996 0  34.52458460729768 -0.001284976606656112 0  34.52454770177501 7.4987151711161 0  39.52458596540827 -0.001260756939795139 0  39.52454871240251 7.498739390785038 0  44.52458765405098 -0.001236296569293512 0  44.52454992005553 7.498763852393705 0  49.52458969362178 -0.001211497305098688 0  49.52455132915211 7.498788654026582 0  54.5245921021577 -0.001186250708193012 0  54.52455293937024 7.498813904007664 0  59.5245948958089 -0.001160435496857568 0  59.524554744901 7.498839723489135 0  64.5245980889058 -0.001133914082253221 0  64.5245567332441 7.498866249885342 0  69.52460169355729 -0.001106528075048829 0  69.52455888338 7.498893641303667 0  74.52460571865858 -0.001078092480271886 0  74.5245611630897 7.498922082232622 0  79.52461016806757 -0.001048388142789055 0  79.52456352509461 7.49895179087755 0  84.52461503754226 -0.001017151793042086 0  84.52456590156217 7.498983028699906 0  89.52462030972166 -0.0009840627340211338 0  89.5245681963186 7.499016112933981 0  94.52462594592487 -0.0009487247514362658 0  94.52457027386143 7.499051433134026 0  99.52463187259936 -0.0009106411408017912 0  99.52457194397135 7.499089473137087 0  104.5246379585752 -0.0008691797200068866 0  104.5245729404297 7.499130840150864 0  109.5246439761369 -0.0008235232068507417 0  109.5245728923306 7.499176302784373 0  114.5246495331169 -0.0007725983028073508 0  114.5245712872822 7.499226839194104 0  119.5246539521982 -0.0007149744122771557 0  119.5245674288539 7.499283693796647 0  124.5246560528008 -0.000648721270044711 0  124.5245603992439 7.499348433187879 0  129.5246537512639 -0.0005712181173100005 0  129.5245490595888 7.499422972490376 0  134.5246433191886 -0.0004789302518716242 0  134.524532170628 7.499509499576821 0  139.5246179925388 -0.0003672653374548439 0  139.5245088307467 7.499610137921776 0  144.524565324077 -0.0002310082695822761 0  144.5244796888526 7.49972607092155 0  149.5244619708346 -6.750225919209366e-05 0  149.524450023007 7.499856020692852 0  159.5244717418528 8.737284751117159e-19 0  164.5243934178944 -0.0001463710637649497 0  164.5244598912821 7.499826384035815 0  159.5244765271736 7.49993669308228 0  169.524364895725 -0.0002518024133489623 0  169.5244427001587 7.499734699519453 0  174.5243603290592 -0.0003283632098252029 0  174.524430972948 7.499664473535567 0  179.5243671610178 -0.0003834818655692061 0  179.5244249406448 7.499612586102331 0  184.5243790868341 -0.0004224775893489164 0  184.5244233957434 7.499575324731988 0  189.5243929070506 -0.0004492564821722547 0  189.5244250000139 7.499549505377224 0  194.5244070049151 -0.0004666913163714756 0  194.5244286457173 7.499532614100778 0  199.52442058134 -0.0004769013908817715 0  199.5244335081157 7.499522718830857 0  204.5244332627875 -0.0004814624699436101 0  204.5244390052414 7.499518344110678 0  209.5244448976329 -0.0004815596530524515 0  209.5244447398874 7.499518359621097 0  214.5244554492804 -0.0004780962746783443 0  214.5244504478094 7.499521892493867 0  219.5244649395333 -0.0004717707636262015 0  219.5244559576538 7.499528261580605 0  224.5244734183734 -0.0004631309113625695 0  224.524461161868 7.49953692910935 0  229.5244809477949 -0.0004526124565938013 0  229.5244659962778 7.499547465295739 0  234.524487593219 -0.0004405668228722583 0  234.5244704260117 7.499559522353893 0  239.5244934190619 -0.0004272813247467617 0  239.5244744359071 7.499572815263341 0  244.5244984866223 -0.0004129940961095186 0  244.5244780240341 7.499587107394162 0  249.5245028532924 -0.0003979052705905503 0  249.5244811973713 7.499602199649976 0  254.5245065725587 -0.0003821854536736364 0  254.5244839689748 7.499617922191885 0  259.5245096944975 -0.0003659821909934898 0  259.5244863561817 7.499634128094399 0  264.5245122666337 -0.0003494249011588633 0  264.524488379543 7.499650688494395 0  269.5245143350812 -0.0003326285643304048 0  269.5244900622727 7.499667488954601 0  274.5245159459615 -0.0003156963090672534 0  274.5244914300421 7.499684426896335 0  279.5245171471021 -0.0002987208921331691 0  279.5244925109989 7.499701410082143 0  284.5245179900038 -0.0002817848891527651 0  284.5244933358854 7.499718356264625 0  289.5245185319786 -0.0002649591685333658 0  289.5244939381128 7.499735194277898 0  294.5245188381872 -0.0002482988512528942 0  294.5244943537008 7.499751867042371 0  299.5245189827708 -0.0002318353936582212 0  299.5244946210286 7.499768337177428 0  304.5245190472588 -0.0002155626419143089 0  304.5244947807743 7.499784596143389 0  309.524519111939 -0.0001994141062208802 0  309.5244948774982 7.499800678134624 0  4.524508035857621 14.99857080778681 0  -0.4754920517120189 14.99854621990653 0  9.524508166785655 14.99859516264187 0  14.52450836200199 14.99861933514244 0  19.52450863314158 14.99864337873418 0  24.5245089875607 14.99866735405311 0  29.52450942988838 14.99869132910151 0  34.52450996212887 14.99871537868129 0  39.52451058320553 14.99873958420337 0  44.52451128827674 14.99876403414976 0  49.52451206790451 14.99878882521124 0  54.52451290705099 14.99881406408061 0  59.52451378383163 14.99883986991106 0  64.52451466793438 14.99886637749846 0  69.52451551859704 14.99889374130369 0  74.52451628203144 14.99892214049091 0  79.52451688817858 14.99895178521673 0  84.52451724671158 14.99898292445669 0  89.52451724227913 14.99901585567892 0  94.52451672919054 14.99905093662153 0  99.5245155261488 14.99908859919808 0  104.5245134124923 14.99912936492945 0  109.5245101289526 14.99917385986446 0  114.5245053887558 14.99922282389448 0  119.5244989096334 14.99927710319073 0  124.5244904847853 14.99933760252392 0  129.5244801211742 14.99940515195409 0  134.5244682841429 14.99948020273149 0  139.5244562866722 14.99956219942516 0  144.524446812088 14.99964835566737 0  149.5244443445555 14.9997312703818 0  164.5244777146178 14.9997508585067 0  159.5244763204397 14.99981054741586 0  169.5244716996795 14.99969151713841 0  174.5244633842447 14.99963997791729 0  179.5244556666526 14.99959866051048 0  184.5244497073996 14.99956738059164 0  189.5244457346955 14.99954497224047 0  194.5244435590423 14.99953004676668 0  199.5244428457005 14.99952129749208 0  204.5244432441039 14.99951759822032 0  209.5244444416123 14.99951801542649 0  214.5244461800768 14.99952178844407 0  219.5244482556078 14.99952830101159 0  224.5244505118023 14.99953705349798 0  229.5244528312745 14.99954763895042 0  234.524455127615 14.99955972353066 0  239.5244573385186 14.99957303093948 0  244.5244594202377 14.99958733015667 0  249.5244613432513 14.99960242583011 0  254.524463088943 14.99961815074743 0  259.5244646470998 14.99963435994702 0  264.5244660140264 14.99965092613793 0  269.5244671911394 14.99966773619982 0  274.524468183896 14.99968468861936 0  279.524469000967 14.99970169179358 0  284.5244696536016 14.99971866318914 0  289.5244701551584 14.99973552937754 0  294.5244705209689 14.99975222692867 0  299.524470768825 14.99976870395655 0  304.5244709208779 14.99978492156548 0  309.5244710083197 14.99980085307869 0  4.524470815965149 22.4985713893535 0  -0.4755292674014389 22.49854676863139 0  9.524470917726601 22.49859571699875 0  14.52447104880897 22.4986198355301 0  19.52447121255475 22.49864381790269 0  24.52447140751068 22.49866773424278 0  29.52447162899854 22.49869165602469 0  34.52447186961503 22.49871565819652 0  39.52447211906044 22.49873982051976 0  44.52447236358636 22.49876422878137 0  49.52447258522476 22.49878897619192 0  54.52447276086631 22.49881416511903 0  59.52447286121596 22.49883990923633 0  64.52447284963283 22.49886633614774 0  69.52447268087694 22.49889359053962 0  74.52447229982212 22.49892183790582 0  79.52447164026783 22.49895126885922 0  84.52447062411183 22.49898210396839 0  89.52446916135852 22.4990145988938 0  94.52446715178307 22.49904904927618 0  99.52446448960086 22.49908579422517 0  104.5244610732858 22.49912521617067 0  109.5244568237842 22.49916773294182 0  114.5244517157487 22.49921377474908 0  119.5244458277647 22.49926373361121 0  124.5244394179635 22.49931786503379 0  129.5244330286557 22.49937611134998 0  134.5244276130076 22.49943780545878 0  139.5244246495217 22.49950121253626 0  144.524426152534 22.4995629070906 0  149.5244343865388 22.49961716658933 0  164.5244705135344 22.49966539383228 0  159.5244621808601 22.49969176003552 0  169.5244719516889 22.49963335794669 0  174.5244689921205 22.4996017093756 0  179.5244639117917 22.49957393822806 0  184.5244582962896 22.49955157591956 0  189.5244530618754 22.49953494450846 0  194.5244486440646 22.49952373737893 0  199.5244451808886 22.4995173784674 0  204.5244426460602 22.49951521789663 0  209.5244409340155 22.49951662765012 0  214.5244399098277 22.49952104185304 0  219.5244394363192 22.49952796850305 0  224.5244393873791 22.49953698761664 0  229.5244396533965 22.4995477437027 0  234.5244401424452 22.49955993652815 0  239.5244407793526 22.4995733120333 0  244.5244415038593 22.49958765416396 0  249.5244422685043 22.49960277785687 0  254.5244430365713 22.49961852316831 0  259.5244437802149 22.49963475044165 0  264.5244444788363 22.49965133638293 0  269.5244451176861 22.49966817092024 0  274.5244456866869 22.49968515473841 0  279.524446179472 22.49970219738928 0  284.524446592644 22.49971921586288 0  289.5244469253411 22.49973613344468 0  294.5244471792681
[...]
<PointData  Vectors="v"> 
<DataArray  type="Float64"  Name="v"  NumberOfComponents="3" format="ascii">-3.3626437910184150e+00 -6.6673991808753623e+00 0.0000000000000000e+00  -3.8299398409374268e+00 -6.0336892269047571e+00 0.0000000000000000e+00  -3.3183642627149412e+00 -5.3330050464842662e+00 0.0000000000000000e+00  -2.9544528589289638e+00 -6.1213425846271496e+00 0.0000000000000000e+00  -4.3725617978794409e+00 -6.2942592843126768e+00 0.0000000000000000e+00  -3.7852062044502870e+00 -5.4810587071000683e+00 0.0000000000000000e+00  -4.8048580911280698e+00 -6.8638538998726251e+00 0.0000000000000000e+00  -4.3267783125870984e+00 -6.2166643625666023e+00 0.0000000000000000e+00  -5.1270094900721794e+00 -6.7358793148576526e+00 0.0000000000000000e+00  -4.7574007391097304e+00 -6.2543191799611240e+00 0.0000000000000000e+00  -5.5570982566558289e+00 -7.0895499079995608e+00 0.0000000000000000e+00  -5.0773076602290246e+00 -6.4464888606476425e+00 0.0000000000000000e+00  -5.8515509659401035e+00 -6.9761532338770520e+00 0.0000000000000000e+00  -5.5047258691364389e+00 -6.5369531005315400e+00 0.0000000000000000e+00  -5.8242684486518277e+00 -6.4524072465201545e+00 0.0000000000000000e+00  -5.7960154403894011e+00 -6.4960112738156903e+00 0.0000000000000000e+00  -6.5993738655265570e+00 -7.0146579584779678e+00 0.0000000000000000e+00  -5.7652393736268284e+00 -5.8549754010117114e+00 0.0000000000000000e+00  -4.6646563625790893e+00 -3.5373958096103748e+00 0.0000000000000000e+00  -6.5366330861313164e+00 -6.4426223184289162e+00 0.0000000000000000e+00  -1.3083649341347439e+01 -1.5375088265247850e+01 0.0000000000000000e+00  -4.5980206145566402e+00 -2.7500050359626127e+00 0.0000000000000000e+00  -1.3613401323359314e+01 -1.5024891374147355e+01 0.0000000000000000e+00  -1.3012538349330198e+01 -1.4234048415140073e+01 0.0000000000000000e+00  -1.3868143097463893e+01 -1.4118710760816370e+01 0.0000000000000000e+00  -1.3537789083186743e+01 -1.3739941280835811e+01 0.0000000000000000e+00  -1.4191639971706605e+01 -1.3261764005267764e+01 0.0000000000000000e+00  -1.3788281943818310e+01 -1.2779971038402417e+01 0.0000000000000000e+00  -1.4643956218550793e+01 -1.2620091200930426e+01 0.0000000000000000e+00  -1.4107433841748087e+01 -1.1944933554775677e+01 0.0000000000000000e+00  -1.5240472092832954e+01 -1.2190593328380487e+01 0.0000000000000000e+00  -1.4555574005155634e+01 -1.1299315858285489e+01 0.0000000000000000e+00  -1.5922141151714126e+01 -1.1854353975923420e+01 0.0000000000000000e+00  -1.5147769779414968e+01 -1.0834924796455102e+01 0.0000000000000000e+00  -1.6625944038124899e+01 -1.1696651840342190e+01 0.0000000000000000e+00  -1.5825249511534624e+01 -1.0643771293305507e+01 0.0000000000000000e+00  -1.7289118755333025e+01 -1.1405478632927480e+01 0.0000000000000000e+00  -1.6525475330972686e+01 -1.0413143219003292e+01 0.0000000000000000e+00  -1.7856996978002961e+01 -1.1018212597615619e+01 0.0000000000000000e+00  -1.7185386198609709e+01 -1.0167772740596700e+01 0.0000000000000000e+00  -1.8290933325659296e+01 -1.0424150876262233e+01 0.0000000000000000e+00  -1.7751016126275164e+01 -9.7738807431275152e+00 0.0000000000000000e+00  -1.8576832128368959e+01 -9.6502005001643916e+00 0.0000000000000000e+00  -1.8183810128799507e+01 -9.2205717943537557e+00 0.0000000000000000e+00  -1.8717408330305357e+01 -8.3575206454637545e+00 0.0000000000000000e+00  -1.8470271443670221e+01 -8.1446300649390615e+00 0.0000000000000000e+00  -1.8731464768489385e+01 -7.2592328296174191e+00 0.0000000000000000e+00  -1.8612475125000930e+01 -7.2336874219190097e+00 0.0000000000000000e+00  -1.8658509963957098e+01 -5.2347032807166185e+00 0.0000000000000000e+00  -1.8631723024959872e+01 -5.3391064228094018e+00 0.0000000000000000e+00  -1.8531862371437697e+01 -3.9821781818134032e+00 0.0000000000000000e+00  -1.8564089188980510e+01 -4.1624434617914350e+00 0.0000000000000000e+00  -1.8399521159159953e+01 -1.4638913431240415e+00 0.0000000000000000e+00  -1.8448948086817044e+01 -1.6540917361012502e+00 0.0000000000000000e+00  -1.8282138724464055e+01 -5.4846929045013193e-01 0.0000000000000000e+00  -1.8326227828218553e+01 -7.0801643537097247e-01 0.0000000000000000e+00  -1.8210801090922079e+01 1.8406698689451495e+00 0.0000000000000000e+00  -1.8228519592791077e+01 1.7450730528926501e+00 0.0000000000000000e+00  -1.8172580216825530e+01 1.7006766137267488e+00 0.0000000000000000e+00  -1.8171281315478986e+01 1.6684520757292662e+00 0.0000000000000000e+00  -1.8163571102668616e+01 -5.4630504882222120e-05 0.0000000000000000e+00  -1.8164444431018303e+01 -9.6813912305664660e-04 0.0000000000000000e+00  -1.8163563200217077e+01 3.8985896237775152e-19 0.0000000000000000e+00  -1.1541735634999963e+01 -4.6118699968983601e-02 0.0000000000000000e+00  -1.8177127570496321e+01 -9.9750589596207053e+00 0.0000000000000000e+00  -1.8164414097316353e+01 8.2215309198442046e-04 0.0000000000000000e+00  -1.2946098311804809e+01 9.4383203821113604e-01 0.0000000000000000e+00  -1.1557805791415531e+01 3.0476353738986588e+00 0.0000000000000000e+00  -1.1085102541687808e+01 5.9982486813325968e+00 0.0000000000000000e+00  -1.2963486365662819e+01 3.2148790682856556e+00 0.0000000000000000e+00  -1.0977508779024070e+01 6.9748928761402729e+00 0.0000000000000000e+00  -1.1107002833722367e+01 6.8186100935746881e+00 0.0000000000000000e+00  -1.0053570837620418e+01 1.0029342870311940e+01 0.0000000000000000e+00  -1.1006645544521422e+01 8.6518550872115210e+00 0.0000000000000000e+00  -9.4659705586946092e+00 1.1183274967090508e+01 0.0000000000000000e+00  -1.0091480242479779e+01 1.0310687429632447e+01 0.0000000000000000e+00  -8.7573328519480800e+00 1.2365494746673342e+01 0.0000000000000000e+00  -9.5136267087310333e+00 1.1313043447281601e+01 0.0000000000000000e+00  -8.1681158450418216e+00 1.2555933560010065e+01 0.0000000000000000e+00  -8.8163507471426037e+00 1.1682790995447878e+01 0.0000000000000000e+00  -7.3891447092559179e+00 1.2508534718832708e+01 0.0000000000000000e+00  -8.2392873752756408e+00 1.1351968673055170e+01 0.0000000000000000e+00  -6.8720077556721773e+00 1.1740587074809062e+01 0.0000000000000000e+00  -7.4731808286302757e+00 1.0977251643543026e+01 0.0000000000000000e+00  -6.4791550595960432e+00 1.0820858307149537e+01 0.0000000000000000e+00  -6.9697579744666003e+00 1.0244437020718077e+01 0.0000000000000000e+00  -6.0307557243633942e+00 9.8779802870549567e+00 0.0000000000000000e+00  -6.5911755838080772e+00 9.2187441130245382e+00 0.0000000000000000e+00  -5.5916661426897738e+00 8.9329608846870947e+00 0.0000000000000000e+00  -6.1574644000207197e+00 8.2881116846851643e+00 0.0000000000000000e+00  -5.1658888400817666e+00 8.0869357476767565e+00 0.0000000000000000e+00  -5.7335744546913379e+00 7.4622664795441302e+00 0.0000000000000000e+00  -4.7180890006364500e+00 7.3128979869691992e+00 0.0000000000000000e+00  -5.3233142248527301e+00 6.6554811337442326e+00 0.0000000000000000e+00  -4.2972851389924545e+00 6.5685400438086523e+00 0.0000000000000000e+00  -4.8912270156244428e+00 5.9517889277974989e+00 0.0000000000000000e+00  -3.9143513598143027e+00 5.8985116663319985e+00 0.0000000000000000e+00  -4.4863630050644536e+00 5.3386191816888164e+00 0.0000000000000000e+00  -3.5413739632029166e+00 5.2679286958297160e+00 0.0000000000000000e+00  -4.1194535004492296e+00 4.7230589062438355e+00 0.0000000000000000e+00  -3.2016529873028956e+00 4.6532291930689302e+00 0.0000000000000000e+00  -3.7625381350020017e+00 4.1582327338774601e+00 0.0000000000000000e+00  -2.9072580128994541e+00 4.0975080007366742e+00 0.0000000000000000e+00  -3.4388552335559397e+00 3.6704854445471984e+00 0.0000000000000000e+00  -2.6263529201491336e+00 3.5285857618340111e+00 0.0000000000000000e+00  -3.1605129958204348e+00 3.1216715207261090e+00 0.0000000000000000e+00  -2.3777326485982284e+00 3.0391792003197771e+00 0.0000000000000000e+00  -2.8954372554899837e+00 2.6807275565018882e+00 0.0000000000000000e+00  -2.1567480432945407e+00 2.5055338892367054e+00 0.0000000000000000e+00  -2.6627385663901362e+00 2.1881952269061018e+00 0.0000000000000000e+00  -1.9503094391647040e+00 2.1564677830935781e+00 0.0000000000000000e+00  -2.4571733535445666e+00 1.8611965728913646e+00 0.0000000000000000e+00  -1.7497391887162996e+00 1.6071874060519538e+00 0.0000000000000000e+00  -2.2666018266164953e+00 1.3199253487797185e+00 0.0000000000000000e+00  -1.5505411647571457e+00 1.5747605786327674e+00 0.0000000000000000e+00  -2.0806726232435677e+00 1.2905253599701785e+00 0.0000000000000000e+00  -1.3345515675717796e+00 9.2169229596475666e-01 0.0000000000000000e+00  -1.8976783804139212e+00 6.1025764275536531e-01 0.0000000000000000e+00  -1.0167388721187387e+00 1.4630074313943526e+00 0.0000000000000000e+00  -1.6948086201207437e+00 1.0018275114807433e+00 0.0000000000000000e+00  -5.0545669979412000e-01 1.2345143455017380e+00 0.0000000000000000e+00  -1.3951583923809503e+00 4.7753663176449923e-01 0.0000000000000000e+00  6.9831070307592513e-01 1.8347969456352084e-01 0.0000000000000000e+00  -8.9116470077552190e-01 -1.6014737346196941e+00 0.0000000000000000e+00  -3.0482470647617923e+00 -4.7873842104901705e+00 0.0000000000000000e+00  -2.6409024164848183e+00 -5.5098814059819849e+00 0.0000000000000000e+00  -3.4114556366291535e+00 -4.7817053172855903e+00 0.0000000000000000e+00  -3.8763955834621653e+00 -5.4059109800518259e+00 0.0000000000000000e+00  -4.4148577411522227e+00 -5.6107206570738200e+00 0.0000000000000000e+00  -4.8411379181725636e+00 -5.9697789377174590e+00 0.0000000000000000e+00  -5.1554028239144856e+00 -5.8995696144185974e+00 0.0000000000000000e+00  -5.5760865466091873e+00 -6.0634256176742536e+00 0.0000000000000000e+00  -5.8597127678321348e+00 -5.9060697982524637e+00 0.0000000000000000e+00  -5.8204998386582121e+00 -5.2905156924906018e+00 0.0000000000000000e+00  -6.5835203955373638e+00 -5.6625484388316485e+00 0.0000000000000000e+00  -4.6364025232612525e+00 -1.6186947373171483e+00 0.0000000000000000e+00  -1.3039732189132334e+01 -1.2958929929490566e+01 0.0000000000000000e+00  -1.3554072767809311e+01 -1.2409502220625804e+01 0.0000000000000000e+00  -1.3795395051135122e+01 -1.1472033793468597e+01 0.0000000000000000e+00  -1.4104933839636754e+01 -1.0632547568450844e+01 0.0000000000000000e+00  -1.4543324361303572e+01 -9.9528038585061882e+00 0.0000000000000000e+00  -1.5124893473757279e+01 -9.6342769952963199e+00 0.0000000000000000e+00  -1.5790963389635010e+01 -9.3694148589099733e+00 0.0000000000000000e+00  -1.6479609752333616e+01 -9.1846561901749908e+00 0.0000000000000000e+00  -1.7127938635162209e+01 -8.9324078693312909e+00 0.0000000000000000e+00  -1.7682162235718287e+01 -8.5769902567327154e+00 0.0000000000000000e+00  -1.8105123295868680e+01 -7.7202598170082739e+00 0.0000000000000000e+00  -1.8383242985921310e+01 -7.0237911449395627e+00 0.0000000000000000e+00  -1.8519970134360314e+01 -5.3123451188187101e+00 0.0000000000000000e+00  -1.8537015338195193e+01 -4.2617319375141323e+00 0.0000000000000000e+00  -1.8472873918907968e+01 -1.8251124836188446e+00 0.0000000000000000e+00  -1.8364771133585979e+01 -8.7959910472499381e-01 0.0000000000000000e+00  -1.8260639265392882e+01 1.6039284377265179e+00 0.0000000000000000e+00  -1.8182407175025400e+01 1.6122370675144648e+00 0.0000000000000000e+00  -1.8166536117712532e+01 -1.8422319192886209e-03 0.0000000000000000e+00  -1.8181350435027671e+01 -9.9164189784846943e+00 0.0000000000000000e+00  -1.8166494994130058e+01 1.6137870123101319e-03 0.0000000000000000e+00  -1.8237749608593926e+01 -6.8798097942398391e+00 0.0000000000000000e+00  -1.1609084574151714e+01 5.3148345311807175e+00 0.0000000000000000e+00  -1.3005902352711267e+01 4.0332627671904087e+00 0.0000000000000000e+00  -1.1149863865191731e+01 8.5029706270085015e+00 0.0000000000000000e+00  -1.1053263810159923e+01 8.9426230541962166e+00 0.0000000000000000e+00  -1.0145684068683012e+01 1.0450238209468798e+01 0.0000000000000000e+00  -9.5759259730556394e+00 1.0643045763693099e+01 0.0000000000000000e+00  -8.8888150063322904e+00 1.0492741956634818e+01 0.0000000000000000e+00  -8.3226038245225329e+00 9.8347151688881826e+00 0.0000000000000000e+00  -7.5680145013841136e+00 9.4965654960439299e+00 0.0000000000000000e+00  -7.0768526129563760e+00 8.6585830139516187e+00 0.0000000000000000e+00  -6.7112053671172118e+00 7.6453243344372845e+00 0.0000000000000000e+00  -6.2908301751168807e+00 6.8347350334151900e+00 0.0000000000000000e+00  -5.8809048283217438e+00 6.0486935358489564e+00 0.0000000000000000e+00  -5.4850630926475592e+00 5.3123353415161549e+00 0.0000000000000000e+00  -5.0676248584675143e+00 4.7402100707157748e+00 0.0000000000000000e+00  -4.6776334986029395e+00 4.1816890078663747e+00 0.0000000000000000e+00  -4.3257015678773953e+00 3.6317514796703652e+00 0.0000000000000000e+00  -3.9836722570198044e+00 3.1938802017025187e+00 0.0000000000000000e+00  -3.6747969905668958e+00 2.7129319769573259e+00 0.0000000000000000e+00  -3.4110424835722681e+00 2.2918044487476692e+00 0.0000000000000000e+00  -3.1603180005558120e+00 1.8475101959016533e+00 0.0000000000000000e+00  -2.9415703329729608e+00 1.5613002708614099e+00 0.0000000000000000e+00  -2.7497447587732835e+00 1.0417853620305495e+00 0.0000000000000000e+00  -2.5722444421658919e+00 1.0199956098690468e+00 0.0000000000000000e+00  -2.3994645678329793e+00 3.4231120049835284e-01 0.0000000000000000e+00  -2.2283360157166112e+00 7.0656957626525518e-01 0.0000000000000000e+00  -2.0383667844147317e+00 3.2636403281802139e-02 0.0000000000000000e+00  -1.7495056336562262e+00 -2.3477377574970029e+00 0.0000000000000000e+00  -2.9523865237443045e+00 -4.1769212993978284e+00 0.0000000000000000e+00  -2.5809595798046612e+00 -4.9520727286079289e+00 0.0000000000000000e+00  -3.3586672093937673e+00 -4.2383737408888695e+00 0.0000000000000000e+00  -3.7192928630625617e+00 -4.7112779036546852e+00 0.0000000000000000e+00  -4.1798091882182504e+00 -4.8075398048750984e+00 0.0000000000000000e+00  -4.7113891550656106e+00 -5.3365850728344117e+00 0.0000000000000000e+00  -5.1282983046702553e+00 -5.4361303699186472e+00 0.0000000000000000e+00  -5.4307870797840945e+00 -5.4420840005479523e+00 0.0000000000000000e+00  -5.8373436472464757e+00 -5.4916158377305173e+00 0.0000000000000000e+00  -6.1051118474492441e+00 -5.3610720421541043e+00 0.0000000000000000e+00  -6.0494003770594675e+00 -4.5296107505503000e+00 0.0000000000000000e+00  -6.7965354567069909e+00 -4.5509821632734191e+00 0.0000000000000000e+00  -4.8318133754149128e+00 -3.6947986498866947e-01 0.0000000000000000e+00  -1.3212816533260515e+01 -1.1653796562761304e+01 0.0000000000000000e+00  -1.3706473411110432e+01 -1.1122157972486271e+01 0.0000000000000000e+00  -1.3930760557954549e+01 -1.0180794444525528e+01 0.0000000000000000e+00  -1.4222842453732834e+01 -9.3086048163418589e+00 0.0000000000000000e+00  -1.4641992601904839e+01 -8.7767833177750383e+00 0.0000000000000000e+00  -1.5201816458500979e+01 -8.3866474897383902e+00 0.0000000000000000e+00  -1.5843978006025285e+01 -8.1694241765636928e+00 0.0000000000000000e+00  -1.6506484673608540e+01 -7.9782928860220501e+00 0.0000000000000000e+00  -1.7127292059672921e+01 -7.7639758214441281e+00 0.0000000000000000e+00  -1.7654108538797836e+01 -7.1039517785622159e+00 0.0000000000000000e+00  -1.8050111994580231e+01 -6.6217817699856854e+00 0.0000000000000000e+00  -1.8304687851123997e+01 -5.1208029636232366e+00 0.0000000000000000e+00  -1.8421655893639695e+01 -4.2425821900482044e+00 0.0000000000000000e+00  -1.8427780999502666e+01 -1.9251368733663756e+00 0.0000000000000000e+00  -1.8360039681056890e+01 -1.0292730892956414e+00 0.0000000000000000e+00  -1.8266889375399263e+01 1.4569621508198796e+00 0.0000000000000000e+00  -1.8185167248716226e+01 1.5438066310055512e+00 0.0000000000000000e+00  -1.8169800992585671e+01 -2.6338113528860695e-03 0.0000000000000000e+00  -1.8175846547385024e+01 -9.8643563461135972e+00 0.0000000000000000e+00  -1.8169764228014387e+01 2.3072227975226458e-03 0.0000000000000000e+00  -1.8231392594018693e+01 -6.7859843497856458e+00 0.0000000000000000e+00  -1.8284410946991539e+01 -4.6417123799184692e+00 0.0000000000000000e+00  -1.1636990190813261e+01 6.1165493945290681e+00 0.0000000000000000e+00  -1.3020621948489826e+01 5.7203817442251532e+00 0.0000000000000000e+00  -1.1166831885670305e+01 8.8021167570882195e+00 0.0000000000000000e+00  -1.1078525292872216e+01 9.0986600108865261e+00 0.0000000000000000e+00  -1.0183305794893718e+01 9.7983979011922546e+00 0.0000000000000000e+00  -9.6272426181717936e+00 9.4737691775014117e+00 0.0000000000000000e+00  -8.9554481755176827e+00 8.9976157649828057e+00 0.0000000000000000e+00  -8.4048721105501727e+00 8.3776410788427498e+00 0.0000000000000000e+00  -7.6668013439239813e+00 7.9352098135512579e+00 0.0000000000000000e+00  -7.1928134938582211e+00 7.1109353309959182e+00 0.0000000000000000e+00  -6.8449558377022255e+00 6.2187829499793370e+00 0.0000000000000000e+00  -6.4431897496746195e+00 5.4490290376132435e+00 0.0000000000000000e+00  -6.0527368185801169e+00 4.7343704570283398e+00 0.0000000000000000e+00  -5.6769731704700712e+00 4.1301984531361526e+00 0.0000000000000000e+00  -5.2800751421780427e+00 3.6130397883094032e+00 0.0000000000000000e+00  -4.9108848138018928e+00 3.1202669324964023e+00 0.0000000000000000e+00  -4.5797263247630999e+00 2.6971789759120681e+00 0.0000000000000000e+00  -4.2583195158073517e+00 2.2656719150058935e+00 0.0000000000000000e+00  -3.9696763766735215e+00 1.9120351194686278e+00 0.0000000000000000e+00  -3.7257363084793624e+00 1.4866682540885610e+00 0.0000000000000000e+00  -3.4940305241961362e+00 1.2482528382153919e+00 0.0000000000000000e+00  -3.2938625272836748e+00 7.6803385242239597e-01 0.0000000000000000e+00  -3.1193630353457187e+00 7.6809500284873089e-01 0.0000000000000000e+00  -2.9591032326791491e+00 9.5187030106588577e-02 0.0000000000000000e+00  -2.8013261957530204e+00 4.6437119896894674e-01 0.0000000000000000e+00  -2.6471685873097983e+00 -2.4332500399177270e-01 0.0000000000000000e+00  -2.4677293176568482e+00 -2.7659567782825336e+00 0.0000000000000000e+00  -3.1274183807383511e+00 -3.6204533836815043e+00 0.0000000000000000e+00  -2.7816633395634440e+00 -4.4325335616871930e+00 0.0000000000000000e+00  -3.4976796941041228e+00 -3.6304924706532358e+00 0.0000000000000000e+00  -3.9014200494832645e+00 -4.1730358653473800e+00 0.0000000000000000e+00  -4.2578473980542020e+00 -4.1211585137762219e+00 0.0000000000000000e+00  -4.7115427380751100e+00 -4.5458356922811145e+00 0.0000000000000000e+00  -5.2331394217438865e+00 -4.8199331268006960e+00 0.0000000000000000e+00  -5.6364608226679929e+00 -4.9999788976186430e+00 0.0000000000000000e+00  -5.9218626836327202e+00 -4.8956845617169540e+00 0.0000000000000000e+00  -6.3084035392423239e+00 -4.9749562809557446e+00 0.0000000000000000e+00  -6.5544955973795895e+00 -4.6286627871003834e+00 0.0000000000000000e+00  -6.4771757775619587e+00 -3.4453565976335536e+00 0.0000000000000000e+00  -7.2035808964077317e+00 -3.3327940408845533e+00 0.0000000000000000e+00  -5.2147999696683067e+00 8.9662087616940123e-01 0.0000000000000000e+00  -1.3566277237446789e+01 -1.0401531235801114e+01 0.0000000000000000e+00  -1.4034768994222361e+01 -9.8589241076975718e+00 0.0000000000000000e+00  -1.4239109121742768e+01 -8.8857653896886468e+00 0.0000000000000000e+00  -1.4509806387072709e+01 -8.1652621809452945e+00 0.0000000000000000e+00  -1.4904252679651007e+01 -7.5679224593798304e+00 0.0000000000000000e+00  -1.5433906028463062e+01 -7.2303625876224640e+00 0.0000000000000000e+00  -1.6040786271783162e+01 -7.0123589023376454e+00 0.0000000000000000e+00  -1.6663232805421789e+01 -6.8632060995332234e+00 0.0000000000000000e+00  -1.7240149944783507e+01 -6.3460496126629922e+00 0.0000000000000000e+00  -1.7720565466995886e+01 -6.0596842265642001e+00 0.0000000000000000e+00  -1.8071042449832376e+01 -4.7706724457473717e+00 0.0000000000000000e+00  -1.8281862282732668e+01 -4.0919616376470476e+00 0.0000000000000000e+00  -1.8364089908034977e+01 -1.9379967627217276e+00 0.0000000000000000e+00  -1.8344000326184450e+01 -1.1338165177320922e+00 0.0000000000000000e+00  -1.8273554432906554e+01 1.3149670620986154e+00 0.0000000000000000e+00  -1.8192022550501324e+01 1.4683239673005681e+00 0.0000000000000000e+00  -1.8174