<?xml version="1.0"?>
<VTKFile type="UnstructuredGrid"  version="0.1"  >
<UnstructuredGrid>
<Piece  NumberOfPoints="1933" NumberOfCells="3640">
<Points>
<DataArray  type="Float64"  NumberOfComponents="3"  format="ascii">-0.4754188873000512 -0.001436598324472943 0  4.524581165881383 -0.001412229945089461 0  4.524544624857397 7.498587910143291 0  -0.4754554581189431 7.498563491744718 0  9.524581247477588 -0.001387975683442418 0  9.524544767349335 7.498612177937574 0  14.52458141830602 -0.001363858099490457 0  14.52454499705856 7.498636296429678 0  19.52458173717363 -0.001339854743129696 0  19.52454533914923 7.498660296877927 0  24.52458225426805 -0.001315918034655596 0  24.52454581647189 7.498684230246274 0  29.5245830106407 -0.001291985369705148 0  29.52454644883952 7.498708160395385 0  34.52458403960173 -0.001267984154601226 0  34.52454725249487 7.498732160314089 0  39.52458536847931 -0.001243833949718356 0  39.52454823983238 7.498756310496265 0  44.52458702019536 -0.001219446838118395 0  44.52454941922656 7.498780698789806 0  49.52458901448905 -0.001194726604035743 0  49.52455079480204 7.498805421305142 0  54.52459136875732 -0.001169567004731142 0  54.52455236601231 7.498830584170319 0  59.52459409850818 -0.001143849230919196 0  59.52455412690261 7.498856306065356 0  64.5245972174157 -0.001117438516464263 0  64.52455606492353 7.498882721582486 0  69.52460073691394 -0.001090179742456412 0  69.52455815913295 7.498909985560545 0  74.52460466520969 -0.001061891759002298 0  74.52456037756184 7.498938278648133 0  79.52460900547781 -0.00103235999674826 0  79.52456267342298 7.498967814477148 0  84.52461375283828 -0.001001326732105649 0  84.52456497971789 7.498998848990198 0  89.52461888941079 -0.0009684780683760506 0  89.52456720159603 7.499031692678079 0  94.5246243762446 -0.0009334262462155117 0  94.52456920557874 7.499066726756074 0  99.52463013999535 -0.0008956852241353266 0  99.52457080447272 7.499104424631641 0  104.5246360505797 -0.0008546364679940174 0  104.5245717365112 7.499145380330988 0  109.524641882956 -0.0008094804341031599 0  109.5245716372481 7.499190345653814 0  114.524647250485 -0.0007591672419124636 0  114.5245700035216 7.499240277185987 0  119.5246514865327 -0.0007022976843625507 0  119.5245661518106 7.499296391620821 0  124.5246534305818 -0.0006369841297364173 0  124.5245591817618 7.499360220165105 0  129.524651036267 -0.0005606642219515886 0  129.5245479766938 7.499433633742894 0  134.5246406444652 -0.0004698830945580171 0  134.5245313221714 7.499518767750226 0  139.5246156203865 -0.0003601545208138418 0  139.524508335737 7.499617690001727 0  144.5245637600384 -0.0002263897240207185 0  144.5244796558844 7.49973153938445 0  149.5244621862409 -6.601414012426405e-05 0  149.5244504581008 7.499859026575611 0  159.5244717418528 1.130758511959552e-18 0  164.5243954551898 -0.0001429269309671898 0  164.5244602023615 7.499830426858296 0  159.52447633651 7.499938064140956 0  169.5243678134207 -0.0002457319102411565 0  169.5244435199731 7.499741070863031 0  174.5243635507734 -0.0003202527452014134 0  174.5244321710275 7.499672745876436 0  179.5243703974706 -0.0003737724169323583 0  179.5244263791465 7.499622385752591 0  184.5243821959325 -0.0004115034829527372 0  184.5244249630598 7.4995863501762 0  189.524395823462 -0.0004372724900092614 0  189.5244266146769 7.499561518988251 0  194.5244097036444 -0.0004538931440248039 0  194.5244302517613 7.499545429455297 0  199.5244230585759 -0.0004634409176356053 0  199.5244350689676 7.499536189194994 0  204.5244355257015 -0.0004674588715029062 0  204.5244404983414 7.499532353221484 0  209.5244469588881 -0.0004671074512313579 0  209.5244461525198 7.499532814641882 0  214.5244573240527 -0.0004632711669132826 0  214.5244517740529 7.499536718725004 0  219.5244666438898 -0.0004566338725343862 0  219.524457196213 7.499543398504812 0  224.5244749683963 -0.0004477319133449704 0  224.5244623145563 7.499552327426422 0  229.5244823591175 -0.0004369919112945898 0  229.5244670669611 7.499563084685079 0  234.5244888807939 -0.0004247579273623975 0  234.5244714198766 7.499575329773109 0  239.5244945970584 -0.0004113112483716926 0  239.5244753589513 7.499588783644231 0  244.5244995683956 -0.0003968850054215319 0  244.5244788827125 7.499603214636069 0  249.5245038513888 -0.0003816751220467474 0  249.5244819983455 7.499618427838032 0  254.5245074987376 -0.0003658486101190824 0  254.5244847189347 7.499634256986989 0  259.5245105597558 -0.0003495499032021275 0  259.524487061714 7.499650558255285 0  264.5245130812218 -0.0003329056858255243 0  264.5244890470301 7.499667205501337 0  269.5245151085046 -0.0003160285036602737 0  269.5244906978093 7.499684086710261 0  274.5245166869599 -0.0002990192938844218 0  274.5244920393615 7.499701101482414 0  279.5245178635988 -0.000281968830190724 0  279.5244930994025 7.499718159551244 0  284.5245186890186 -0.0002649579036645071 0  284.5244939081736 7.499735180444591 0  289.5245192194988 -0.0002480558203127041 0  289.5244944985151 7.499752094560504 0  294.5245195189956 -0.0002313164339928721 0  294.5244949058089 7.499768846118725 0  299.5245196602422 -0.0002147703804611407 0  299.5244951677341 7.49978539866798 0  304.5245197231749 -0.0001984114087635186 0  304.5244953242076 7.499801744050688 0  309.5245197864484 -0.0001821741274666974 0  309.5244954189352 7.499817916020918 0  4.524507771484277 14.9985882137151 0  -0.4754923142296198 14.998563708446 0  9.524507899519589 14.99861249109233 0  14.52450809028967 14.99863659041158 0  19.52450835511151 14.99866056418117 0  24.52450870110952 14.99868447191716 0  29.524509132729 14.99870838032256 0  34.52450965183296 14.99873236273871 0  39.524510257253 14.99875649896349 0  44.52451094411729 14.99878087570733 0  49.52451170303453 14.99880558770915 0  54.52451251910898 14.99883073949271 0  59.52451337071711 14.99885644777254 0  64.52451422795703 14.99888284456691 0  69.524515050665 14.99891008113142 0  74.52451578589073 14.99893833288467 0  79.52451636471781 14.99896780555571 0  84.52451669834907 14.9989987428321 0  89.52451667345008 14.99903143581075 0  94.52451614695005 14.99906623449965 0  99.52451494089559 14.99910356139037 0  104.5245128387921 14.99914392650588 0  109.5245095863829 14.99918794191853 0  114.5245049025808 14.99923633073452 0  119.5244985109072 14.99928991948604 0  124.5244902091171 14.99934959114318 0  129.5244800048007 14.99941615414429 0  134.5244683551147 14.99949004403488 0  139.5244565480633 14.99957070798925 0  144.524447214097 14.9996554057623 0  149.5244447465186 14.9997368778893 0  164.5244773756228 14.99975658552134 0  159.5244759721054 14.99981469845048 0  169.5244715402036 14.99969886395874 0  174.5244634590348 14.99964881191617 0  179.5244559636177 14.99960878530783 0  184.5244501865557 14.99957859588083 0  189.5244463495077 14.99955709759845 0  194.5244442662954 14.99954292821723 0  199.5244436091743 14.99953480687804 0  204.5244440352317 14.99953163005015 0  209.5244452388337 14.9995324832034 0  214.524446967742 14.99953662126159 0  219.5244490228349 14.99954344066019 0  224.52445125145 14.99955245210385 0  229.524453539082 14.9995632570863 0  234.5244558015075 14.99957552871816 0  239.5244579780587 14.999588996466 0  244.5244600261967 14.99960343414152 0  249.5244619172748 14.99961865048697 0  254.5244636332912 14.99963448180121 0  259.524465164444 14.99965078617214 0  264.5244665072889 14.99966743899173 0  269.524467663365 14.9996843295294 0  274.5244686381508 14.99970135842337 0  279.5244694402548 14.99971843602174 0  284.524470080797 14.99973548156295 0  289.5244705729521 14.99975242321505 0  294.5244709318164 14.99976919895659 0  299.5244711748916 14.99978575809763 0  304.5244713239471 14.99980206270453 0  309.5244714096152 14.99981808685739 0  4.524470683192296 22.49858878291123 0  -0.4755293983857473 22.49856424626971 0  9.524470782636401 22.49861303314227 0  14.52447091055746 22.49863707928271 0  19.52447107016019 22.49866099286774 0  24.52447125996125 22.49868484265365 0  29.52447147532008 22.49870869870714 0  34.52447170892374 22.49873263448738 0  39.52447195061633 22.49875672815837 0  44.52447218685666 22.49878106377632 0  49.52447239996236 22.49880573265841 0  54.52447256720742 22.49883083507896 0  59.52447265979942 22.49885648237105 0  64.52447264174488 22.49888279949194 0  69.52447246862361 22.49890992810334 0  74.52447208633157 22.49893803020992 0  79.52447142992224 22.49896729236869 0  84.524470422804 22.49899793040785 0  89.52446897675942 22.49903019443252 0  94.52446699359093 22.49906437357912 0  99.52446436971621 22.49910079938709 0  104.5244610058138 22.49913984559264 0  109.5244568247002 22.49918192028982 0  114.5244518019674 22.49922744328061 0  119.5244460152252 22.49927679640983 0  124.5244397182004 22.49933022711376 0  129.5244334432264 22.49938767525197 0  134.5244281252424 22.49944848289416 0  139.524425213703 22.49951094572426 0  144.5244266824369 22.49957170396694 0  149.5244347493062 22.49962515124087 0  164.5244700212925 22.49967302105432 0  159.5244618843225 22.49969851557457 0  169.5244714233966 22.49964201506559 0  174.5244685323096 22.49961141783224 0  179.5244635734268 22.49958463719777 0  184.5244580956295 22.49956316551897 0  189.5244529933288 22.49954731322617 0  194.5244486910846 22.49953677684707 0  199.5244453228644 22.49953099022137 0  204.5244428622366 22.49952931566556 0  209.5244412054801 22.49953113738664 0  214.5244402203389 22.49953590074962 0  219.524439772487 22.49954312365276 0  224.5244397385143 22.49955239464186 0  229.52444001121 22.49956336549556 0  234.5244405007005 22.49957574215457 0  239.5244411335236 22.49958927580732 0  244.5244418508179 22.49960375487995 0  249.5244426062475 22.49961899815959 0  254.5244433639878 22.49963484903995 0  259.5244440968901 22.49965117078601 0  264.5244447848909 22.49966784268925 0  269.5244454136435 22.49968475699159 0  274.5244459733661 22.49970181647134 0  279.5244464579008 22.49971893259351 0  284.5244468639903 22.49973602411218 0  289.5244471908533 22.4997530159533 0  294.52444744021
[...]
<PointData  Vectors="v"> 
<DataArray  type="Float64"  Name="v"  NumberOfComponents="3" format="ascii">-3.3626174525635415e+00 -6.6673959762542960e+00 0.0000000000000000e+00  -3.8299167252107278e+00 -6.0337817896824024e+00 0.0000000000000000e+00  -3.3183372298263762e+00 -5.3330927693140868e+00 0.0000000000000000e+00  -2.9544267020795512e+00 -6.1213406825948935e+00 0.0000000000000000e+00  -4.3725462154131831e+00 -6.2943905610922073e+00 0.0000000000000000e+00  -3.7851824058328440e+00 -5.4811786996594138e+00 0.0000000000000000e+00  -4.8048495102736188e+00 -6.8639811654487302e+00 0.0000000000000000e+00  -4.3267620535927103e+00 -6.2167811458724191e+00 0.0000000000000000e+00  -5.1270076853561797e+00 -6.7360237314099622e+00 0.0000000000000000e+00  -4.7573914729238478e+00 -6.2544534346462459e+00 0.0000000000000000e+00  -5.5571050121441878e+00 -7.0897034360273690e+00 0.0000000000000000e+00  -5.0773051742532855e+00 -6.4466295622696874e+00 0.0000000000000000e+00  -5.8515623225368278e+00 -6.9763150674685308e+00 0.0000000000000000e+00  -5.5047319386528910e+00 -6.5371080337843601e+00 0.0000000000000000e+00  -5.8242792706966293e+00 -6.4525649015007138e+00 0.0000000000000000e+00  -5.7960261115174641e+00 -6.4961697191764527e+00 0.0000000000000000e+00  -6.5993888353733778e+00 -7.0148213960275916e+00 0.0000000000000000e+00  -5.7652495078428299e+00 -5.8551326367151777e+00 0.0000000000000000e+00  -4.6646757587180305e+00 -3.5375624465965312e+00 0.0000000000000000e+00  -6.5366473685635844e+00 -6.4427822167819331e+00 0.0000000000000000e+00  -1.3083650984860965e+01 -1.5375226367986487e+01 0.0000000000000000e+00  -4.5980393160744644e+00 -2.7501701362666986e+00 0.0000000000000000e+00  -1.3613402970763003e+01 -1.5025034387149644e+01 0.0000000000000000e+00  -1.3012539310466709e+01 -1.4234191413936978e+01 0.0000000000000000e+00  -1.3868144730899385e+01 -1.4118858816467549e+01 0.0000000000000000e+00  -1.3537790046349267e+01 -1.3740089327409326e+01 0.0000000000000000e+00  -1.4191641566857458e+01 -1.3261914945586387e+01 0.0000000000000000e+00  -1.3788282892285451e+01 -1.2780122004009094e+01 0.0000000000000000e+00  -1.4643957752533083e+01 -1.2620246109374117e+01 0.0000000000000000e+00  -1.4107434753837062e+01 -1.1945088528329785e+01 0.0000000000000000e+00  -1.5240473546179839e+01 -1.2190749431702333e+01 0.0000000000000000e+00  -1.4555574858833610e+01 -1.1299472063724455e+01 0.0000000000000000e+00  -1.5922142509016140e+01 -1.1854508818659550e+01 0.0000000000000000e+00  -1.5147770556401019e+01 -1.0835079768142855e+01 0.0000000000000000e+00  -1.6625945295999994e+01 -1.1696806715688826e+01 0.0000000000000000e+00  -1.5825250206127185e+01 -1.0643926314555081e+01 0.0000000000000000e+00  -1.7289119909572168e+01 -1.1405632461457248e+01 0.0000000000000000e+00  -1.6525475932692775e+01 -1.0413297189551821e+01 0.0000000000000000e+00  -1.7856998040000256e+01 -1.1018364116132345e+01 0.0000000000000000e+00  -1.7185386711188279e+01 -1.0167924373198643e+01 0.0000000000000000e+00  -1.8290934313923270e+01 -1.0424305133485419e+01 0.0000000000000000e+00  -1.7751016558899607e+01 -9.7740350578929451e+00 0.0000000000000000e+00  -1.8576833074819959e+01 -9.6503571077441030e+00 0.0000000000000000e+00  -1.8183810502984660e+01 -9.2207283747241853e+00 0.0000000000000000e+00  -1.8717409243390065e+01 -8.3576835811320418e+00 0.0000000000000000e+00  -1.8470271757539678e+01 -8.1447928528001086e+00 0.0000000000000000e+00  -1.8731465730816936e+01 -7.2594054110070037e+00 0.0000000000000000e+00  -1.8612475453606891e+01 -7.2338597258883288e+00 0.0000000000000000e+00  -1.8658510886367665e+01 -5.2348966258554421e+00 0.0000000000000000e+00  -1.8631723296603447e+01 -5.3392993578393053e+00 0.0000000000000000e+00  -1.8531863416864738e+01 -3.9823866406792834e+00 0.0000000000000000e+00  -1.8564089548316680e+01 -4.1626513885001764e+00 0.0000000000000000e+00  -1.8399521987465668e+01 -1.4641424803494938e+00 0.0000000000000000e+00  -1.8448948321265181e+01 -1.6543423756596596e+00 0.0000000000000000e+00  -1.8282139686835979e+01 -5.4874277111569814e-01 0.0000000000000000e+00  -1.8326228172354430e+01 -7.0828937520500235e-01 0.0000000000000000e+00  -1.8210801361506231e+01 1.8403315420816948e+00 0.0000000000000000e+00  -1.8228519681887466e+01 1.7447345885590195e+00 0.0000000000000000e+00  -1.8172580168093130e+01 1.7002668777850789e+00 0.0000000000000000e+00  -1.8171281321189571e+01 1.6680418173387279e+00 0.0000000000000000e+00  -1.8163571102834098e+01 -5.4630655932250393e-05 0.0000000000000000e+00  -1.8164444431496616e+01 -9.6813958180523465e-04 0.0000000000000000e+00  -1.8163563200213687e+01 5.9729579948160308e-19 0.0000000000000000e+00  -1.1541748918668347e+01 -4.5636393639920989e-02 0.0000000000000000e+00  -1.8177127310188673e+01 -9.9745580397744789e+00 0.0000000000000000e+00  -1.8164414097584320e+01 8.2215321172734589e-04 0.0000000000000000e+00  -1.2946115786443761e+01 9.4388579571599185e-01 0.0000000000000000e+00  -1.1557822846185470e+01 3.0476954105968588e+00 0.0000000000000000e+00  -1.1085112665166868e+01 5.9981924211539486e+00 0.0000000000000000e+00  -1.2963507344870642e+01 3.2148090515943983e+00 0.0000000000000000e+00  -1.0977525634741971e+01 6.9747263464936369e+00 0.0000000000000000e+00  -1.1107015939319508e+01 6.8184532410808210e+00 0.0000000000000000e+00  -1.0053591507063228e+01 1.0029134253541415e+01 0.0000000000000000e+00  -1.1006665550835278e+01 8.6516509374433266e+00 0.0000000000000000e+00  -9.4659950677198115e+00 1.1183040431754245e+01 0.0000000000000000e+00  -1.0091503680795459e+01 1.0310458164044537e+01 0.0000000000000000e+00  -8.7573617240215018e+00 1.2365243592516963e+01 0.0000000000000000e+00  -9.5136538937799884e+00 1.1312798382545610e+01 0.0000000000000000e+00  -8.1681499864800315e+00 1.2555681567665053e+01 0.0000000000000000e+00  -8.8163821088945689e+00 1.1682546721726426e+01 0.0000000000000000e+00  -7.3891839721339503e+00 1.2508289099476302e+01 0.0000000000000000e+00  -8.2393238869702721e+00 1.1351730576056415e+01 0.0000000000000000e+00  -6.8720492543906788e+00 1.1740351479391050e+01 0.0000000000000000e+00  -7.4732223698818521e+00 1.0977019392814533e+01 0.0000000000000000e+00  -6.4791941422835642e+00 1.0820641329514192e+01 0.0000000000000000e+00  -6.9698017105860153e+00 1.0244216438764704e+01 0.0000000000000000e+00  -6.0307924236372434e+00 9.8777813832707952e+00 0.0000000000000000e+00  -6.5912168590879299e+00 9.2185416420718287e+00 0.0000000000000000e+00  -5.5917012124927874e+00 8.9327777127075283e+00 0.0000000000000000e+00  -6.1575032566728378e+00 8.2879260721677372e+00 0.0000000000000000e+00  -5.1659226928837674e+00 8.0867657735166478e+00 0.0000000000000000e+00  -5.7336116547452187e+00 7.4620946737218699e+00 0.0000000000000000e+00  -4.7181218385107249e+00 7.3127410655690097e+00 0.0000000000000000e+00  -5.3233501785102169e+00 6.6553226756150883e+00 0.0000000000000000e+00  -4.2973172363576984e+00 6.5683945958294752e+00 0.0000000000000000e+00  -4.8912619274021001e+00 5.9516423541544983e+00 0.0000000000000000e+00  -3.9143826671091957e+00 5.8983758958256889e+00 0.0000000000000000e+00  -4.4863971530579709e+00 5.3384822096089435e+00 0.0000000000000000e+00  -3.5414042980056712e+00 5.2678031520470858e+00 0.0000000000000000e+00  -4.1194868340896695e+00 4.7229318862853011e+00 0.0000000000000000e+00  -3.2016821438163179e+00 4.6531131579469873e+00 0.0000000000000000e+00  -3.7625704732824565e+00 4.1581149152261183e+00 0.0000000000000000e+00  -2.9072856540819911e+00 4.0974005383412484e+00 0.0000000000000000e+00  -3.4388863733475921e+00 3.6703756932762368e+00 0.0000000000000000e+00  -2.6263787097161138e+00 3.5284876623583381e+00 0.0000000000000000e+00  -3.1605425984228122e+00 3.1215706294053862e+00 0.0000000000000000e+00  -2.3777561872401685e+00 3.0390899487080549e+00 0.0000000000000000e+00  -2.8954649880555676e+00 2.6806349131980567e+00 0.0000000000000000e+00  -2.1567690086513580e+00 2.5054533958783289e+00 0.0000000000000000e+00  -2.6627640277283469e+00 2.1881108609716242e+00 0.0000000000000000e+00  -1.9503273137856896e+00 2.1563961569791421e+00 0.0000000000000000e+00  -2.4571962261704012e+00 1.8611202936536533e+00 0.0000000000000000e+00  -1.7497537701108083e+00 1.6071252488808911e+00 0.0000000000000000e+00  -2.2666215861252819e+00 1.3198582411236650e+00 0.0000000000000000e+00  -1.5505517333247720e+00 1.5747066869229420e+00 0.0000000000000000e+00  -2.0806890810024972e+00 1.2904654243233076e+00 0.0000000000000000e+00  -1.3345582587091913e+00 9.2164940482750424e-01 0.0000000000000000e+00  -1.8976907955571514e+00 6.1020892863855836e-01 0.0000000000000000e+00  -1.0167401206422371e+00 1.4629716354514479e+00 0.0000000000000000e+00  -1.6948171607678149e+00 1.0017835083709794e+00 0.0000000000000000e+00  -5.0545245912000958e-01 1.2344971302124945e+00 0.0000000000000000e+00  -1.3951614511766299e+00 4.7751116227445189e-01 0.0000000000000000e+00  6.9830734713689102e-01 1.8348164266910286e-01 0.0000000000000000e+00  -8.9116222965339542e-01 -1.6014604154577312e+00 0.0000000000000000e+00  -3.0482206265992056e+00 -4.7874732330018865e+00 0.0000000000000000e+00  -2.6408776263265672e+00 -5.5098819638725534e+00 0.0000000000000000e+00  -3.4114283349467174e+00 -4.7818204684676111e+00 0.0000000000000000e+00  -3.8763715233643254e+00 -5.4060164791136360e+00 0.0000000000000000e+00  -4.4148412113292705e+00 -5.6108444282119372e+00 0.0000000000000000e+00  -4.8411283861007037e+00 -5.9699094768819529e+00 0.0000000000000000e+00  -5.1554000671641838e+00 -5.8997117205602798e+00 0.0000000000000000e+00  -5.5760923463484415e+00 -6.0635771614481984e+00 0.0000000000000000e+00  -5.8597231668015963e+00 -5.9062278197890219e+00 0.0000000000000000e+00  -5.8205097004990591e+00 -5.2906693921499777e+00 0.0000000000000000e+00  -6.5835344020796978e+00 -5.6627067720891437e+00 0.0000000000000000e+00  -4.6364209340804612e+00 -1.6188648283348344e+00 0.0000000000000000e+00  -1.3039732890239522e+01 -1.2959077956485784e+01 0.0000000000000000e+00  -1.3554073471406729e+01 -1.2409653166620243e+01 0.0000000000000000e+00  -1.3795395741543928e+01 -1.1472188782324341e+01 0.0000000000000000e+00  -1.4104934495241258e+01 -1.0632703830137062e+01 0.0000000000000000e+00  -1.4543324960900270e+01 -9.9529589247001606e+00 0.0000000000000000e+00  -1.5124894009673666e+01 -9.6344321408593885e+00 0.0000000000000000e+00  -1.5790963848870200e+01 -9.3695689695097411e+00 0.0000000000000000e+00  -1.6479610133182174e+01 -9.1848079582172453e+00 0.0000000000000000e+00  -1.7127938939934893e+01 -8.9325622903209432e+00 0.0000000000000000e+00  -1.7682162476826239e+01 -8.5771468866770668e+00 0.0000000000000000e+00  -1.8105123464817275e+01 -7.7204225727131366e+00 0.0000000000000000e+00  -1.8383243138804417e+01 -7.0239633075667989e+00 0.0000000000000000e+00  -1.8519970219964730e+01 -5.3125378252606783e+00 0.0000000000000000e+00  -1.8537015462853713e+01 -4.2619395206419339e+00 0.0000000000000000e+00  -1.8472873965774099e+01 -1.8253628292327448e+00 0.0000000000000000e+00  -1.8364771246232500e+01 -8.7987170684422034e-01 0.0000000000000000e+00  -1.8260639289199297e+01 1.6035899559916200e+00 0.0000000000000000e+00  -1.8182407181762372e+01 1.6118266635744014e+00 0.0000000000000000e+00  -1.8166536119779245e+01 -1.8422327386271181e-03 0.0000000000000000e+00  -1.8181350210377182e+01 -9.9159171747518435e+00 0.0000000000000000e+00  -1.8166494995794643e+01 1.6137871837927445e-03 0.0000000000000000e+00  -1.8237750209746103e+01 -6.8797297450475554e+00 0.0000000000000000e+00  -1.1609101982061480e+01 5.3147708700278962e+00 0.0000000000000000e+00  -1.3005923524026368e+01 4.0330927039175029e+00 0.0000000000000000e+00  -1.1149877189366752e+01 8.5027763822218230e+00 0.0000000000000000e+00  -1.1053283808270873e+01 8.9423983950150916e+00 0.0000000000000000e+00  -1.0145707420845765e+01 1.0449998461304965e+01 0.0000000000000000e+00  -9.5759529321048831e+00 1.0642807568793909e+01 0.0000000000000000e+00  -8.8888460423707425e+00 1.0492511534175474e+01 0.0000000000000000e+00  -8.3226399420223416e+00 9.8344904000959161e+00 0.0000000000000000e+00  -7.5680556113421584e+00 9.4963482152820902e+00 0.0000000000000000e+00  -7.0768958788949448e+00 8.6583768967441497e+00 0.0000000000000000e+00  -6.7112461461733171e+00 7.6451351196756407e+00 0.0000000000000000e+00  -6.2908685160376034e+00 6.8345607569188642e+00 0.0000000000000000e+00  -5.8809414901636714e+00 6.0485332191549182e+00 0.0000000000000000e+00  -5.4850984883532297e+00 5.3121872068171818e+00 0.0000000000000000e+00  -5.0676591955821824e+00 4.7400719504361746e+00 0.0000000000000000e+00  -4.6776670535207767e+00 4.1815607652112545e+00 0.0000000000000000e+00  -4.3257342915450687e+00 3.6316321647444889e+00 0.0000000000000000e+00  -3.9837039709109923e+00 3.1937686475231679e+00 0.0000000000000000e+00  -3.6748274891945245e+00 2.7128287783147393e+00 0.0000000000000000e+00  -3.4110714319771618e+00 2.2917089954228094e+00 0.0000000000000000e+00  -3.1603450634037342e+00 1.8474224207505086e+00 0.0000000000000000e+00  -2.9415951140825469e+00 1.5612201013936873e+00 0.0000000000000000e+00  -2.7497669328510312e+00 1.0417135845454566e+00 0.0000000000000000e+00  -2.5722634993161217e+00 1.0199307056713256e+00 0.0000000000000000e+00  -2.3994802967495699e+00 3.4225642659963784e-01 0.0000000000000000e+00  -2.2283477088109684e+00 7.0651973153710257e-01 0.0000000000000000e+00  -2.0383745687258279e+00 3.2602709778626719e-02 0.0000000000000000e+00  -1.7495078894100635e+00 -2.3477327009020699e+00 0.0000000000000000e+00  -2.9523616270468240e+00 -4.1770127780095292e+00 0.0000000000000000e+00  -2.5809367947340274e+00 -4.9520764358885554e+00 0.0000000000000000e+00  -3.3586406780057416e+00 -4.2384901888053284e+00 0.0000000000000000e+00  -3.7192654763374193e+00 -4.7113785597103712e+00 0.0000000000000000e+00  -4.1797850337425135e+00 -4.8076522898761080e+00 0.0000000000000000e+00  -4.7113725365947490e+00 -5.3367051271196999e+00 0.0000000000000000e+00  -5.1282886791846156e+00 -5.4362623112721842e+00 0.0000000000000000e+00  -5.4307842311730274e+00 -5.4422227158125756e+00 0.0000000000000000e+00  -5.8373493531853438e+00 -5.4917669552698118e+00 0.0000000000000000e+00  -6.1051221532700790e+00 -5.3612265233066037e+00 0.0000000000000000e+00  -6.0494101401777787e+00 -4.5297628854766279e+00 0.0000000000000000e+00  -6.7965493578698952e+00 -4.5511454652649963e+00 0.0000000000000000e+00  -4.8318316678376156e+00 -3.6965504163191976e-01 0.0000000000000000e+00  -1.3212817158787846e+01 -1.1653947483934170e+01 0.0000000000000000e+00  -1.3706474042113697e+01 -1.1122312934301803e+01 0.0000000000000000e+00  -1.3930761176381093e+01 -1.0180950714100149e+01 0.0000000000000000e+00  -1.4222843038052357e+01 -9.3087599316240617e+00 0.0000000000000000e+00  -1.4641993140463626e+01 -8.7769385511885041e+00 0.0000000000000000e+00  -1.5201816936930651e+01 -8.3868017168688276e+00 0.0000000000000000e+00  -1.5843978419691508e+01 -8.1695760757165807e+00 0.0000000000000000e+00  -1.6506485019809134e+01 -7.9784474328571635e+00 0.0000000000000000e+00  -1.7127292343764044e+01 -7.7641325493271758e+00 0.0000000000000000e+00  -1.7654108749190801e+01 -7.1041145878731671e+00 0.0000000000000000e+00  -1.8050112167359291e+01 -6.6219539116959094e+00 0.0000000000000000e+00  -1.8304687949678428e+01 -5.1209955995304055e+00 0.0000000000000000e+00  -1.8421655988084499e+01 -4.2427896158909162e+00 0.0000000000000000e+00  -1.8427781029900512e+01 -1.9253870979689136e+00 0.0000000000000000e+00  -1.8360039732740429e+01 -1.0295455306252683e+00 0.0000000000000000e+00  -1.8266889392130128e+01 1.4566236550173697e+00 0.0000000000000000e+00  -1.8185167260170910e+01 1.5433961715087927e+00 0.0000000000000000e+00  -1.8169800997174502e+01 -2.6338124723135135e-03 0.0000000000000000e+00  -1.8175846606997045e+01 -9.8638545991135214e+00 0.0000000000000000e+00  -1.8169764232077206e+01 2.3072230884108951e-03 0.0000000000000000e+00  -1.8231392643074191e+01 -6.7859033005078091e+00 0.0000000000000000e+00  -1.8284411756437969e+01 -4.6417548220899372e+00 0.0000000000000000e+00  -1.1637007412018182e+01 6.1163855554594839e+00 0.0000000000000000e+00  -1.3020643057521649e+01 5.7201746655192016e+00 0.0000000000000000e+00  -1.1166844953305903e+01 8.8019020133965125e+00 0.0000000000000000e+00  -1.1078545004343388e+01 9.0984249341580608e+00 0.0000000000000000e+00  -1.0183328749066037e+01 9.7981649974384073e+00 0.0000000000000000e+00  -9.6272691043546246e+00 9.4735447899418936e+00 0.0000000000000000e+00  -8.9554786801498363e+00 8.9973986114297748e+00 0.0000000000000000e+00  -8.4049076694538964e+00 8.3774312349736313e+00 0.0000000000000000e+00  -7.6668418572114998e+00 7.9350069454544467e+00 0.0000000000000000e+00  -7.1928561382101854e+00 7.1107424203197436e+00 0.0000000000000000e+00  -6.8449959787607364e+00 6.2186050291341202e+00 0.0000000000000000e+00  -6.4432274323282952e+00 5.4488662118834146e+00 0.0000000000000000e+00  -6.0527728042474758e+00 4.7342204286169123e+00 0.0000000000000000e+00  -5.6770078752443522e+00 4.1300587397912141e+00 0.0000000000000000e+00  -5.2801087711821353e+00 3.6129103671158838e+00 0.0000000000000000e+00  -4.9109176445855072e+00 3.1201463659337003e+00 0.0000000000000000e+00  -4.5797583107616955e+00 2.6970658977177826e+00 0.0000000000000000e+00  -4.2583504755240567e+00 2.2655668865749088e+00 0.0000000000000000e+00  -3.9697061082418514e+00 1.9119373324062026e+00 0.0000000000000000e+00  -3.7257644739662195e+00 1.4865776431850375e+00 0.0000000000000000e+00  -3.4940567933213891e+00 1.2481692334459129e+00 0.0000000000000000e+00  -3.2938864948756317e+00 7.6795815964769365e-01 0.0000000000000000e+00  -3.1193843915253536e+00 7.6802540181445933e-01 0.0000000000000000e+00  -2.9591214425134278e+00 9.5127263517973348e-02 0.0000000000000000e+00  -2.8013410835536003e+00 4.6431526501894799e-01 0.0000000000000000e+00  -2.6471794001203808e+00 -2.4336456082933433e-01 0.0000000000000000e+00  -2.4677361740221309e+00 -2.7659599737997094e+00 0.0000000000000000e+00  -3.1273955125034316e+00 -3.6205480080578716e+00 0.0000000000000000e+00  -2.7816417264651632e+00 -4.4325391285723219e+00 0.0000000000000000e+00  -3.4976547281166921e+00 -3.6306113714571779e+00 0.0000000000000000e+00  -3.9013934575521807e+00 -4.1731378151662133e+00 0.0000000000000000e+00  -4.2578199419519986e+00 -4.1212661526948615e+00 0.0000000000000000e+00  -4.7115185208065009e+00 -4.5459444579629160e+00 0.0000000000000000e+00  -5.2331227364814854e+00 -4.8200545802497512e+00 0.0000000000000000e+00  -5.6364511328817999e+00 -5.0001074446950247e+00 0.0000000000000000e+00  -5.9218597695432891e+00 -4.8958228473022665e+00 0.0000000000000000e+00  -6.3084091816689529e+00 -4.9751038544227049e+00 0.0000000000000000e+00  -6.5545058358482668e+00 -4.6288156985646687e+00 0.0000000000000000e+00  -6.4771854646863360e+00 -3.4455136978003313e+00 0.0000000000000000e+00  -7.2035947208190505e+00 -3.3329624182016535e+00 0.0000000000000000e+00  -5.2148181743373208e+00 8.9644280119208586e-01 0.0000000000000000e+00  -1.3566277822499991e+01 -1.0401686166460889e+01 0.0000000000000000e+00  -1.4034769587326249e+01 -9.8590803443034805e+00 0.0000000000000000e+00  -1.4239109702481985e+01 -8.8859205061898923e+00 0.0000000000000000e+00  -1.4509806941755087e+01 -8.1654174544774598e+00 0.0000000000000000e+00  -1.4904253190529499e+01 -7.5680767622983351e+00 0.0000000000000000e+00  -1.5433906488409781e+01 -7.2305145865879039e+00 0.0000000000000000e+00  -1.6040786675664311e+01 -7.0125135596283084e+00 0.0000000000000000e+00  -1.6663233153373781e+01 -6.8633629302795294e+00 0.0000000000000000e+00  -1.7240150224488769e+01 -6.3462125072445943e+00 0.0000000000000000e+00  -1.7720565698959479e+01 -6.0598564090105000e+00 0.0000000000000000e+00  -1.8071042607731918e+01 -4.7708651008043521e+00 0.0000000000000000e+00  -1.8281862406693559e+01 -4.0921690236704000e+00 0.0000000000000000e+00  -1.8364089971090646e+01 -1.9382469724233202e+00 0.0000000000000000e+00  -1.8344000375144702e+01 -1.1340889099554239e+00 0.0000000000000000e+00  -1.8273554459421497e+01 1.3146285338334947e+00 0.0000000000000000e+00  -1.8192022567364148e+01 1.4679134752030216e+00 0.0000000000000000e+00  -1.8174