<?xml version="1.0"?>
<VTKFile type="UnstructuredGrid"  version="0.1"  >
<UnstructuredGrid>
<Piece  NumberOfPoints="1933" NumberOfCells="3640">
<Points>
<DataArray  type="Float64"  NumberOfComponents="3"  format="ascii">0.294027827488538 -0.001322064803960585 0  5.294027855548339 -0.001288706591036184 0  5.293977809825982 7.498711359966721 0  0.2939777715751592 7.498677985520022 0  10.29402790336093 -0.001255398678587203 0  10.29397787299936 7.498744670148892 0  15.2940279977553 -0.001222137138135855 0  15.2939779709129 7.498777929764797 0  20.29402816132189 -0.001188900727755926 0  20.29397811146401 7.498811163381619 0  25.29402841095976 -0.001155659332644766 0  25.29397830064038 7.498844402216517 0  30.29402875839688 -0.001122377901182537 0  30.2939785422078 7.498877681613616 0  35.29402921111274 -0.00108901816772029 0  35.2939788374735 7.498911039836617 0  40.29402977315475 -0.001055539192430689 0  40.29397918511528 7.498944517723658 0  45.29403044570665 -0.001021897221086468 0  45.29397958099836 7.49897815889843 0  50.29403122739078 -0.0009880451127266573 0  50.29398001790754 7.499012010362974 0  55.29403211431254 -0.0009539314467681551 0  55.29398048513405 7.499046123388711 0  60.29403309985266 -0.0009194993406130243 0  60.29398096786149 7.499080554684131 0  65.29403417419155 -0.0008846849541093439 0  65.29398144628519 7.49911536786354 0  70.29403532351773 -0.0008494156115380975 0  70.29398189438402 7.49915063528054 0  75.29403652883401 -0.0008136074239452621 0  75.29398227823002 7.499186440329774 0  80.29403776420594 -0.0007771622348203651 0  80.29398255367748 7.499222880367691 0  85.29403899420386 -0.0007399636295122438 0  85.29398266320844 7.499260070461232 0  90.29404017011633 -0.0007018716293450386 0  90.29398253162607 7.49929814824634 0  95.29404122424111 -0.0006627155158638635 0  95.29398206017986 7.499337280263333 0  100.2940420610577 -0.0006222839736511774 0  100.2939811185926 7.499377670216741 0  105.2940425432101 -0.0005803113731887489 0  105.2939795343799 7.499419569633083 0  110.294042468626 -0.0005364585215962086 0  110.2939770789416 7.499463291223183 0  115.2940415321608 -0.0004902856351104716 0  115.2939734504864 7.499509224574028 0  120.2940392597027 -0.0004412148923109728 0  120.2939682556486 7.499557851848492 0  125.294034892521 -0.0003884806113518726 0  125.2939609963542 7.499609756317026 0  130.2940271806514 -0.0003310696323393915 0  130.2939510796354 7.499665605308088 0  135.2940140085888 -0.0002676713404591985 0  135.2939378932868 7.49972606473604 0  140.2939917095765 -0.0001967133451109272 0  140.2939210453816 7.499791553910395 0  145.293953794308 -0.0001167548605442631 0  145.2939009854344 7.499861674019139 0  150.2938885349345 -2.826385535874373e-05 0  150.2938804966703 7.499934147383156 0  160.2938926261463 1.471478320274593e-18 0  165.2938781912306 -4.536776342019083e-05 0  165.2938903952337 7.499944042651808 0  160.2938903990514 7.499974846360872 0  170.2938799832559 -7.047759559806086e-05 0  170.2938900780837 7.499924448505489 0  175.293888562885 -8.170311915943519e-05 0  175.293891428005 7.499915712649758 0  180.2938995887267 -8.289942405197543e-05 0  180.2938943878645 7.499915752604022 0  185.2939110391175 -7.671232065633901e-05 0  185.2938984578402 7.499922583810234 0  190.2939219986995 -6.502011975346636e-05 0  190.2939031457253 7.499934620780636 0  195.2939320880205 -4.917261492896151e-05 0  195.2939080744103 7.49995065626046 0  200.2939411862151 -3.015003998143846e-05 0  200.2939129847713 7.499969782786441 0  205.2939492942587 -8.67318120701874e-06 0  205.2939177113256 7.499991317724958 0  210.2939564672921 1.472041060246161e-05 0  210.2939221557791 7.500014743912055 0  215.2939627812919 3.962383116846004e-05 0  215.2939262654767 7.500039665527971 0  220.2939683169268 6.572444747730247e-05 0  220.2939300176519 7.500065776077156 0  225.2939731520346 9.277854097728734e-05 0  225.2939334085059 7.500092835308199 0  230.2939773584231 0.0001205934244184306 0  230.2939364458786 7.500120652537356 0  235.2939810008262 0.0001490146521771838 0  235.2939391444394 7.500149074507636 0  240.2939841369148 0.0001779167358165142 0  240.2939415225992 7.500177976459292 0  245.2939868178189 0.0002071963045130483 0  245.2939436005747 7.500207255488736 0  250.2939890888763 0.000236766999526752 0  250.2939453992273 7.500236825557142 0  255.2939909904873 0.0002665556244653173 0  255.2939469394207 7.500266613708805 0  260.2939925590089 0.0002964992306412985 0  260.2939482417188 7.500296557198767 0  265.2939938276842 0.0003265429276205335 0  265.2939493263189 7.500326601329824 0  270.2939948275931 0.0003566382926153154 0  270.2939502131404 7.500356697875596 0  275.2939955886597 0.0003867423232525165 0  275.2939509219967 7.500386804030297 0  280.2939961407042 0.0004168169490597099 0  280.2939514728172 7.500416881885733 0  285.2939965145476 0.0004468292007625148 0  285.2939518858503 7.500446898499672 0  290.293996743086 0.0004767522489481793 0  290.2939521818012 7.500476826692336 0  295.2939968621655 0.0005065676831795083 0  295.2939523818519 7.500506646790077 0  300.2939969107932 0.0005362696209285365 0  300.2939525075648 7.500536349621068 0  305.2939969296745 0.0005658714607331555 0  305.2939525808567 7.500565941142463 0  310.2939969558419 0.0005954159199040598 0  310.2939526247684 7.500595449207313 0  5.293927646666982 14.99871149955396 0  0.2939276090083904 14.99867810759167 0  10.2939276974658 14.99874480065218 0  15.29392776701319 14.99877804344524 0  20.2939278570138 14.99881125975402 0  25.29392796713444 14.99884448309039 0  30.29392809543581 14.998877749071 0  35.29392823825118 14.99891109545739 0  40.29392838986578 14.99894456231241 0  45.2939285421111 14.99897819238423 0  50.29392868389207 14.99901203172412 0  55.29392880062596 14.99904613052799 0  60.29392887355836 14.99908054420433 0  65.29392887891714 14.9991153346897 0  70.29392878686083 14.99915057205224 0  75.29392856018285 14.99918633644127 0  80.29392815273609 14.99922272045458 0  85.29392750757148 14.99925983199848 0  90.29392655483683 14.99929779769677 0  95.29392520960582 14.99933676683488 0  100.2939233700402 14.99937691564706 0  105.2939209167446 14.99941845135826 0  110.2939177149751 14.99946161456328 0  115.2939136227702 14.99950667687137 0  120.2939085103562 14.99955392756274 0  125.2939022996083 14.99960363710612 0  130.2938950367433 14.99965597495517 0  135.2938870149815 14.99971084173148 0  140.2938789601639 14.99976754981326 0  145.2938722621342 14.99982425116783 0  150.2938691248258 14.99987695253068 0  165.2938834229756 14.99991540899133 0  160.2938811320737 14.99992480226827 0  170.2938831583527 14.99990879081747 0  175.2938822480211 14.99990728577481 0  180.2938816683478 14.99991127889018 0  185.2938817437917 14.99992026638106 0  190.2938824775774 14.99993348116964 0  195.293883746357 14.99995016005248 0  200.293885396257 14.9999696363071 0  205.2938872843762 14.99999135849094 0  210.2938892931091 15.00001488149407 0  215.2938913320786 15.0000398494479 0  220.2938933351074 15.0000659782456 0  225.2938952557366 15.00009304032762 0  230.2938970628155 15.00012085229344 0  235.2938987367343 15.00014926512202 0  240.2939002664089 15.00017815655832 0  245.2939016469704 15.0002074252159 0  250.2939028780402 15.00023698601262 0  255.2939039624672 15.000266766637 0  260.2939049054169 15.00029670481933 0  265.2939057137206 15.00032674624436 0  270.2939063954151 15.00035684299561 0  275.2939069594097 15.00038695246546 0  280.2939074152408 15.00041703670054 0  285.2939077729029 15.00044706218103 0  290.2939080427453 15.0004770000449 0  295.2939082355348 15.00050682675078 0  300.2939083628424 15.00053652508921 0  305.2939084381485 15.00056608522715 0  310.2939084793578 15.00059550495651 0  5.293877437710593 22.4987117468189 0  0.2938774028666629 22.49867837624569 0  10.29387747401847 22.4987450128146 0  15.29387751261051 22.49877821641639 0  20.29387755182925 22.49881139461341 0  25.29387758824488 22.4988445827233 0  30.29387761701921 22.49887781623785 0  35.29387763191537 22.49891113180177 0  40.2938776250903 22.49894456785625 0  45.29387758677096 22.49897816521464 0  50.29387750486971 22.49901196769141 0  55.29387736455926 22.49904602283556 0  60.29387714781765 22.49908038279213 0  65.29387683295295 22.4991151053033 0  70.29387639412789 22.49915025485301 0  75.29387580093294 22.4991859039475 0  80.29387501809438 22.49922213449752 0  85.29387400547927 22.49925903921575 0  90.29387271866727 22.49929672284378 0  95.2938711105357 22.49933530284108 0  100.2938691345651 22.49937490884653 0  105.2938667509453 22.49941567966918 0  110.2938639370625 22.49945775563517 0  115.29386070452 22.49950126261912 0  120.293857125305 22.49954628179408 0  125.2938533695516 22.49959279592433 0  130.2938497554188 22.49964059928455 0  135.293846805634 22.49968915601041 0  140.2938452914175 22.49973739717109 0  145.2938462177937 22.49978347753497 0  150.2938506635725 22.49982461751762 0  165.2938633498734 22.49988265287903 0  160.2938609163308 22.49987723117348 0  170.2938634676447 22.49988747161806 0  175.2938622626244 22.49989393706588 0  180.2938605675427 22.49990315854219 0  185.2938589147053 22.49991546474623 0  190.2938575755907 22.49993074715961 0  195.2938566478857 22.49994869857164 0  200.2938561302284 22.49996894970612 0  205.2938559728071 22.49999113761228 0  210.2938561076427 22.50001493499347 0  215.2938564650301 22.50004005922377 0  220.2938569814921 22.50006627171749 0  225.2938576028975 22.50009337329194 0  230.2938582850096 22.50012119833053 0  235.2938589927997 22.50014960903939 0  240.2938596992609 22.50017849032097 0  245.2938603841086 22.50020774541426 0  250.2938610325515 22.50023729228516 0  255.2938616342133 22.50026706068659 0  260.293862182213 22.50029698979317 0  265.2938626724055 22.50032702632129 0  270.2938631027563 22.50035712306037 0  275.2938634728364 22.50038723775365 0  280.2938637834296 22.50041733227562 0  285.2938640362598 22.50044737204726 0  290.2938642338848 22.50047732560193 0  295.2938643798462 22.50050716
[...]
<PointData  Vectors="v"> 
<DataArray  type="Float64"  Name="v"  NumberOfComponents="3" format="ascii">1.0989044274941573e+00 7.6634604485825681e+00 0.0000000000000000e+00  1.6563034414567543e+00 7.1772125270949747e+00 0.0000000000000000e+00  1.5259450173440925e+00 6.3413870002213901e+00 0.0000000000000000e+00  1.0959098213019030e+00 7.0186925322182727e+00 0.0000000000000000e+00  2.3504464429447012e+00 7.7574211273315576e+00 0.0000000000000000e+00  2.0829133830194060e+00 6.7171781434679891e+00 0.0000000000000000e+00  2.9719326727707744e+00 8.7788167846850289e+00 0.0000000000000000e+00  2.7758098610187036e+00 7.8481233372086869e+00 0.0000000000000000e+00  3.5158108901902172e+00 9.0916806598033713e+00 0.0000000000000000e+00  3.3953080764070718e+00 8.2781664627256504e+00 0.0000000000000000e+00  4.1973207271682345e+00 9.9655382135470685e+00 0.0000000000000000e+00  3.9364059347233873e+00 8.9462762791029373e+00 0.0000000000000000e+00  4.7366670797557235e+00 1.0320060579721064e+01 0.0000000000000000e+00  4.6142148536360734e+00 9.5146691003953787e+00 0.0000000000000000e+00  4.8156636258214505e+00 1.0056516241555176e+01 0.0000000000000000e+00  5.1490346646729925e+00 9.9424318201587756e+00 0.0000000000000000e+00  5.8997746415396302e+00 1.1152828951342311e+01 0.0000000000000000e+00  5.2227545891996021e+00 9.5317515570444673e+00 0.0000000000000000e+00  2.7949083810477129e+00 5.9900066776323593e+00 0.0000000000000000e+00  6.3006468316239745e+00 1.0653150108746841e+01 0.0000000000000000e+00  1.3914125826007798e+01 2.1871232110237667e+01 0.0000000000000000e+00  3.1888277274067414e+00 5.1983655644811497e+00 0.0000000000000000e+00  1.3594643616531409e+01 2.0097802416019505e+01 0.0000000000000000e+00  1.4300593354832383e+01 2.0584271321265966e+01 0.0000000000000000e+00  1.3672018620763017e+01 1.8778740916716472e+01 0.0000000000000000e+00  1.3972580752529366e+01 1.8670912664797569e+01 0.0000000000000000e+00  1.4203239777366127e+01 1.8111997320317833e+01 0.0000000000000000e+00  1.4040130147138361e+01 1.7324720302207574e+01 0.0000000000000000e+00  1.5143468412036775e+01 1.8079412044404503e+01 0.0000000000000000e+00  1.4560156754815749e+01 1.6679973380424173e+01 0.0000000000000000e+00  1.6393696516724344e+01 1.8471004066884312e+01 0.0000000000000000e+00  1.5487345758608374e+01 1.6607601238959074e+01 0.0000000000000000e+00  1.7860293445474355e+01 1.9079750726239141e+01 0.0000000000000000e+00  1.6723057084285866e+01 1.6893224642571344e+01 0.0000000000000000e+00  1.9452677447349949e+01 1.9966763796579279e+01 0.0000000000000000e+00  1.8173805480104733e+01 1.7592809463801075e+01 0.0000000000000000e+00  2.1080395260771148e+01 2.0705799906963524e+01 0.0000000000000000e+00  1.9748487087574940e+01 1.8279670424677299e+01 0.0000000000000000e+00  2.2666730921035462e+01 2.1330286613460334e+01 0.0000000000000000e+00  2.1357352251828598e+01 1.8967654095766804e+01 0.0000000000000000e+00  2.4148113414910991e+01 2.1678368516746019e+01 0.0000000000000000e+00  2.2923502569716543e+01 1.9473965817866670e+01 0.0000000000000000e+00  2.5469112941793774e+01 2.1713673490401344e+01 0.0000000000000000e+00  2.4383450706988825e+01 1.9750797660616378e+01 0.0000000000000000e+00  2.6593980798352188e+01 2.0984776860007052e+01 0.0000000000000000e+00  2.5681602229491133e+01 1.9316593254021441e+01 0.0000000000000000e+00  2.7509075340636965e+01 2.0265974565406346e+01 0.0000000000000000e+00  2.6783625951403430e+01 1.8913943898803083e+01 0.0000000000000000e+00  2.8208741204317754e+01 1.8118748524964339e+01 0.0000000000000000e+00  2.7673471111828814e+01 1.7088716454898698e+01 0.0000000000000000e+00  2.8714938232265183e+01 1.6448746232945432e+01 0.0000000000000000e+00  2.8349627298730564e+01 1.5711889492249348e+01 0.0000000000000000e+00  2.9046458338972410e+01 1.2768888515625198e+01 0.0000000000000000e+00  2.8828543221259451e+01 1.2290455517057788e+01 0.0000000000000000e+00  2.9247308962002290e+01 1.0109357255119093e+01 0.0000000000000000e+00  2.9137336485618466e+01 9.8325831277076823e+00 0.0000000000000000e+00  2.9342349974865101e+01 5.2235301506818566e+00 0.0000000000000000e+00  2.9308827323420875e+01 5.0977116845132695e+00 0.0000000000000000e+00  2.9381791908153247e+01 1.2656633033098490e+00 0.0000000000000000e+00  2.9383384511785362e+01 1.2335873333366854e+00 0.0000000000000000e+00  2.9389262612242465e+01 -2.0104427641416282e-09 0.0000000000000000e+00  2.9389916198878712e+01 6.8475165919979842e-04 0.0000000000000000e+00  2.9389262614622996e+01 -3.6184092369540006e-19 0.0000000000000000e+00  2.0124673048937261e+01 -7.1105393199411449e+00 0.0000000000000000e+00  2.9383846838332879e+01 6.7607265316051555e+00 0.0000000000000000e+00  2.9389904732830594e+01 -6.5390825449089692e-04 0.0000000000000000e+00  2.0749638441153589e+01 -1.3369072078851110e+01 0.0000000000000000e+00  2.0152800625429677e+01 -1.4346461269317681e+01 0.0000000000000000e+00  1.7730596085541517e+01 -2.0810414519030839e+01 0.0000000000000000e+00  2.0815305566312624e+01 -1.6312279678394628e+01 0.0000000000000000e+00  1.6953747294416097e+01 -2.2286529791586599e+01 0.0000000000000000e+00  1.7834514862746712e+01 -2.1156001443117159e+01 0.0000000000000000e+00  1.5274009661825971e+01 -2.5064171713050598e+01 0.0000000000000000e+00  1.7095230918033593e+01 -2.2577413782153847e+01 0.0000000000000000e+00  1.4062621068304281e+01 -2.5277121518861414e+01 0.0000000000000000e+00  1.5452471417785850e+01 -2.3493717835788598e+01 0.0000000000000000e+00  1.2768061187751858e+01 -2.5356498239215330e+01 0.0000000000000000e+00  1.4278359493076684e+01 -2.3447072192890545e+01 0.0000000000000000e+00  1.1652612460695526e+01 -2.4304615518523281e+01 0.0000000000000000e+00  1.3020255561751577e+01 -2.2664403936657664e+01 0.0000000000000000e+00  1.0324947914178379e+01 -2.3137077907563047e+01 0.0000000000000000e+00  1.1940889941000627e+01 -2.1177853186923656e+01 0.0000000000000000e+00  9.3694576546638331e+00 -2.1296226758450732e+01 0.0000000000000000e+00  1.0649127806257152e+01 -1.9895068146125578e+01 0.0000000000000000e+00  8.5861214696500170e+00 -1.9441682675842095e+01 0.0000000000000000e+00  9.7290801461861633e+00 -1.8298549425667918e+01 0.0000000000000000e+00  7.7342352695300010e+00 -1.7749217329601294e+01 0.0000000000000000e+00  8.9808085750291156e+00 -1.6502985403061434e+01 0.0000000000000000e+00  6.9274340912762211e+00 -1.6150481593837132e+01 0.0000000000000000e+00  8.1637851940882324e+00 -1.4971495436888631e+01 0.0000000000000000e+00  6.1695837082650433e+00 -1.4735234798890886e+01 0.0000000000000000e+00  7.3914336552001654e+00 -1.3629480247321085e+01 0.0000000000000000e+00  5.4241160233129468e+00 -1.3440280989860325e+01 0.0000000000000000e+00  6.6676642935921064e+00 -1.2352751155923421e+01 0.0000000000000000e+00  4.7458997343763318e+00 -1.2199967890597092e+01 0.0000000000000000e+00  5.9559723173952541e+00 -1.1212981380204772e+01 0.0000000000000000e+00  4.1426868431461807e+00 -1.1062002391924766e+01 0.0000000000000000e+00  5.3111438026269191e+00 -1.0187234218374018e+01 0.0000000000000000e+00  3.5769898278913765e+00 -9.9738296697068183e+00 0.0000000000000000e+00  4.7409059861076726e+00 -9.1550415658416959e+00 0.0000000000000000e+00  3.0741279165363897e+00 -8.9114903333539299e+00 0.0000000000000000e+00  4.2079030157628985e+00 -8.1865743763207472e+00 0.0000000000000000e+00  2.6431169134292971e+00 -7.9141652801508435e+00 0.0000000000000000e+00  3.7372705800465797e+00 -7.2968375498000926e+00 0.0000000000000000e+00  2.2479018717422639e+00 -6.9104543320361351e+00 0.0000000000000000e+00  3.3382614199654221e+00 -6.3463711783552705e+00 0.0000000000000000e+00  1.9068960055324258e+00 -5.9758758788958177e+00 0.0000000000000000e+00  2.9744878884714696e+00 -5.4930558166507186e+00 0.0000000000000000e+00  1.6196588785915340e+00 -5.0232825322161725e+00 0.0000000000000000e+00  2.6649744361814869e+00 -4.6204225520494902e+00 0.0000000000000000e+00  1.3668825080395735e+00 -4.2086721065864943e+00 0.0000000000000000e+00  2.4081883533035886e+00 -3.8579720242776743e+00 0.0000000000000000e+00  1.1485732050147912e+00 -3.2702662368681414e+00 0.0000000000000000e+00  2.1867800441622243e+00 -2.9697029926053835e+00 0.0000000000000000e+00  9.5749918824102187e-01 -2.7328064167297250e+00 0.0000000000000000e+00  1.9974351331580740e+00 -2.4750728149378332e+00 0.0000000000000000e+00  7.8113060522181588e-01 -1.7830321520280841e+00 0.0000000000000000e+00  1.8384836880664250e+00 -1.5434069432247297e+00 0.0000000000000000e+00  5.4326202781814348e-01 -1.7264632536507558e+00 0.0000000000000000e+00  1.6881887200739565e+00 -1.4005792766805540e+00 0.0000000000000000e+00  1.8249984913962927e-01 -1.2022989930484387e+00 0.0000000000000000e+00  1.4864962642055572e+00 -6.8096661575922657e-01 0.0000000000000000e+00  -6.6134882413144747e-01 -7.3651244463354059e-03 0.0000000000000000e+00  1.1401978019127805e+00 1.2170292422051860e+00 0.0000000000000000e+00  1.8034466679211831e+00 5.6959774091224800e+00 0.0000000000000000e+00  1.3295315143520881e+00 6.3087959383273686e+00 0.0000000000000000e+00  2.2338017843335130e+00 5.8818008516430877e+00 0.0000000000000000e+00  2.7902416786757045e+00 6.8096155134411056e+00 0.0000000000000000e+00  3.4813897502363895e+00 7.3505649743447998e+00 0.0000000000000000e+00  4.0977085968691052e+00 8.1370429347368436e+00 0.0000000000000000e+00  4.6341758071559331e+00 8.5014014889284848e+00 0.0000000000000000e+00  5.3057163856519551e+00 9.1447246151019037e+00 0.0000000000000000e+00  5.8325073941842414e+00 9.4264464176705047e+00 0.0000000000000000e+00  5.8967280100840584e+00 9.0426151472667815e+00 0.0000000000000000e+00  6.9636258545270699e+00 9.8733885648718367e+00 0.0000000000000000e+00  3.8400612213733161e+00 3.9225145001566251e+00 0.0000000000000000e+00  1.4941106539152464e+01 1.9169402300733136e+01 0.0000000000000000e+00  1.4601943547241914e+01 1.7231278925955664e+01 0.0000000000000000e+00  1.4655876697308301e+01 1.5908932583866765e+01 0.0000000000000000e+00  1.5159629569637483e+01 1.5228243792489168e+01 0.0000000000000000e+00  1.6066923240967217e+01 1.5053126175137590e+01 0.0000000000000000e+00  1.7279212052584018e+01 1.5431597762388169e+01 0.0000000000000000e+00  1.8703518323726048e+01 1.5934998011601044e+01 0.0000000000000000e+00  2.0248179936019518e+01 1.6573784681946396e+01 0.0000000000000000e+00  2.1823594100533690e+01 1.7145216170343843e+01 0.0000000000000000e+00  2.3353661542726318e+01 1.7584082131271483e+01 0.0000000000000000e+00  2.4773991745628315e+01 1.7393776226568708e+01 0.0000000000000000e+00  2.6029880824084060e+01 1.7287112500699550e+01 0.0000000000000000e+00  2.7087026084541996e+01 1.5780724725847296e+01 0.0000000000000000e+00  2.7930263879938703e+01 1.4727765545561203e+01 0.0000000000000000e+00  2.8556789360849791e+01 1.1598428538742562e+01 0.0000000000000000e+00  2.8987859872042662e+01 9.4037165221607903e+00 0.0000000000000000e+00  2.9243722906488387e+01 4.8619305380584290e+00 0.0000000000000000e+00  2.9371273406278242e+01 1.1620047075594147e+00 0.0000000000000000e+00  2.9391483906947244e+01 1.3052727095706059e-03 0.0000000000000000e+00  2.9362805521829969e+01 6.8230826805019991e+00 0.0000000000000000e+00  2.9391462861119706e+01 -1.2860167535239258e-03 0.0000000000000000e+00  2.9301263988915295e+01 -5.1243100898975635e-01 0.0000000000000000e+00  2.0104456894844894e+01 -1.7333000988263368e+01 0.0000000000000000e+00  2.0811425713157121e+01 -1.6710267758463878e+01 0.0000000000000000e+00  1.7873124454788847e+01 -2.1494855510696457e+01 0.0000000000000000e+00  1.7176830270176129e+01 -2.1052557349361713e+01 0.0000000000000000e+00  1.5573602621289298e+01 -2.1710307863856396e+01 0.0000000000000000e+00  1.4438874487754056e+01 -2.0799573142012949e+01 0.0000000000000000e+00  1.3217893595410725e+01 -1.9580344658323511e+01 0.0000000000000000e+00  1.2174357843194917e+01 -1.7978618427687049e+01 0.0000000000000000e+00  1.0917501265265576e+01 -1.6939106482120390e+01 0.0000000000000000e+00  1.0031561283673810e+01 -1.5400535599361518e+01 0.0000000000000000e+00  9.3165751379112862e+00 -1.3765908356527705e+01 0.0000000000000000e+00  8.5324910537880232e+00 -1.2490486050241307e+01 0.0000000000000000e+00  7.7925120829998482e+00 -1.1286193925382467e+01 0.0000000000000000e+00  7.1004995769282688e+00 -1.0164358992476764e+01 0.0000000000000000e+00  6.4200807099782660e+00 -9.2385058258304582e+00 0.0000000000000000e+00  5.8059124057525828e+00 -8.3177847840731385e+00 0.0000000000000000e+00  5.2656861927886380e+00 -7.4048576620888076e+00 0.0000000000000000e+00  4.7621092646000251e+00 -6.6083515251744851e+00 0.0000000000000000e+00  4.3203084111120171e+00 -5.7647987920799775e+00 0.0000000000000000e+00  3.9494284451370287e+00 -4.9642303088340460e+00 0.0000000000000000e+00  3.6133100708780468e+00 -4.1722720928049384e+00 0.0000000000000000e+00  3.3306623996894591e+00 -3.4891060264728853e+00 0.0000000000000000e+00  3.1004163926005370e+00 -2.6525994830456150e+00 0.0000000000000000e+00  2.9044493822864479e+00 -2.2074370808675066e+00 0.0000000000000000e+00  2.7408741362585705e+00 -1.3178536906317284e+00 0.0000000000000000e+00  2.6053613466236261e+00 -1.1930937576167870e+00 0.0000000000000000e+00  2.4806967382542791e+00 -3.8753656212399062e-01 0.0000000000000000e+00  2.3004746501878435e+00 1.7170013722539392e+00 0.0000000000000000e+00  2.5165400846193973e+00 4.9842915655049405e+00 0.0000000000000000e+00  2.0883605487257508e+00 5.6680113328031050e+00 0.0000000000000000e+00  2.9916704540389825e+00 5.2354010772467747e+00 0.0000000000000000e+00  3.4232960567086157e+00 5.9752694474970189e+00 0.0000000000000000e+00  3.9792079759151244e+00 6.3156046619125306e+00 0.0000000000000000e+00  4.6678181204707627e+00 7.2160487166865028e+00 0.0000000000000000e+00  5.2791679495884010e+00 7.7023842449392070e+00 0.0000000000000000e+00  5.8075685696326804e+00 8.1451523568673156e+00 0.0000000000000000e+00  6.4680316609547566e+00 8.6463213776133045e+00 0.0000000000000000e+00  6.9806260004519096e+00 8.9587385968842295e+00 0.0000000000000000e+00  7.0274736746904569e+00 8.2870516364012428e+00 0.0000000000000000e+00  8.0752108423101383e+00 8.6223167426567997e+00 0.0000000000000000e+00  4.9337860452881523e+00 2.5294251800132166e+00 0.0000000000000000e+00  1.6020436391803699e+01 1.7751100290743018e+01 0.0000000000000000e+00  1.5667238314773014e+01 1.5842155978781378e+01 0.0000000000000000e+00  1.5702881204469257e+01 1.4490943467771217e+01 0.0000000000000000e+00  1.6181919629403772e+01 1.3715068127276327e+01 0.0000000000000000e+00  1.7057755422734676e+01 1.3641158006523920e+01 0.0000000000000000e+00  1.8231684795251066e+01 1.3831480078932589e+01 0.0000000000000000e+00  1.9610280540329814e+01 1.4294400751822069e+01 0.0000000000000000e+00  2.1102358714008979e+01 1.4824577890762949e+01 0.0000000000000000e+00  2.2618554938631654e+01 1.5336595235953261e+01 0.0000000000000000e+00  2.4081926234924701e+01 1.5314643030339020e+01 0.0000000000000000e+00  2.5429483286401513e+01 1.5460436155231230e+01 0.0000000000000000e+00  2.6605557129565948e+01 1.4254332236842203e+01 0.0000000000000000e+00  2.7578269788729163e+01 1.3528479675021256e+01 0.0000000000000000e+00  2.8330330077579287e+01 1.0721829489262690e+01 0.0000000000000000e+00  2.8865875734373109e+01 8.8308891982546527e+00 0.0000000000000000e+00  2.9198554920080866e+01 4.5346601733634273e+00 0.0000000000000000e+00  2.9368628344982497e+01 1.0547459175354812e+00 0.0000000000000000e+00  2.9393932799772109e+01 1.8678413772551085e-03 0.0000000000000000e+00  2.9344487941385488e+01 6.9842149635080943e+00 0.0000000000000000e+00  2.9393914051620197e+01 -1.8402792929770604e-03 0.0000000000000000e+00  2.9151844473879290e+01 -3.9007562754707792e-01 0.0000000000000000e+00  2.9080580106971354e+01 -3.5789038930335901e+00 0.0000000000000000e+00  1.9941440770140513e+01 -1.7825939351206877e+01 0.0000000000000000e+00  2.0720908011863944e+01 -1.7138080540699516e+01 0.0000000000000000e+00  1.7851688884296554e+01 -2.0060151154820417e+01 0.0000000000000000e+00  1.7221355795256006e+01 -1.9351716423903682e+01 0.0000000000000000e+00  1.5678763575496147e+01 -1.9142441879298246e+01 0.0000000000000000e+00  1.4601405020917634e+01 -1.7790729707945882e+01 0.0000000000000000e+00  1.3433462313175186e+01 -1.6453237447810896e+01 0.0000000000000000e+00  1.2440442762161174e+01 -1.5091967848743176e+01 0.0000000000000000e+00  1.1231883917254889e+01 -1.4108890584171538e+01 0.0000000000000000e+00  1.0392719141278102e+01 -1.2729701901823057e+01 0.0000000000000000e+00  9.7235238956994170e+00 -1.1350065384532561e+01 0.0000000000000000e+00  8.9844767717247134e+00 -1.0211376454565997e+01 0.0000000000000000e+00  8.2886771437295828e+00 -9.1608196362907144e+00 0.0000000000000000e+00  7.6400491837859361e+00 -8.2516404349435462e+00 0.0000000000000000e+00  7.0020637750807762e+00 -7.4296283903466405e+00 0.0000000000000000e+00  6.4293103374897882e+00 -6.6267601541428203e+00 0.0000000000000000e+00  5.9294201036653291e+00 -5.8844998067582646e+00 0.0000000000000000e+00  5.4651405521628975e+00 -5.1326989849390445e+00 0.0000000000000000e+00  5.0613993445320471e+00 -4.4379051195202273e+00 0.0000000000000000e+00  4.7276597919217087e+00 -3.6968922308202510e+00 0.0000000000000000e+00  4.4272227739128223e+00 -3.0937731558663351e+00 0.0000000000000000e+00  4.1796494019529504e+00 -2.3339370821092098e+00 0.0000000000000000e+00  3.9824360833519190e+00 -1.9412593765758626e+00 0.0000000000000000e+00  3.8198140481491092e+00 -1.0960067769454738e+00 0.0000000000000000e+00  3.6855869303390838e+00 -1.0184779302860152e+00 0.0000000000000000e+00  3.5836817869844380e+00 -2.1843476495357977e-01 0.0000000000000000e+00  3.4799394962652888e+00 1.9571702913691413e+00 0.0000000000000000e+00  3.4363822795267214e+00 4.3407449927359645e+00 0.0000000000000000e+00  3.0463364429798547e+00 5.0849822874255661e+00 0.0000000000000000e+00  3.8665665172666297e+00 4.5206722128448895e+00 0.0000000000000000e+00  4.3450083833582474e+00 5.3257554818228154e+00 0.0000000000000000e+00  4.7794901649015502e+00 5.4807263454729611e+00 0.0000000000000000e+00  5.3367042810646099e+00 6.1839375890885906e+00 0.0000000000000000e+00  6.0239024482454910e+00 6.7883625739762019e+00 0.0000000000000000e+00  6.6304709593925946e+00 7.3584192850572627e+00 0.0000000000000000e+00  7.1501042825820242e+00 7.6645932820547085e+00 0.0000000000000000e+00  7.7973082039885151e+00 8.2018568893753301e+00 0.0000000000000000e+00  8.2923075347616475e+00 8.2316459118703857e+00 0.0000000000000000e+00  8.3185004182073659e+00 7.0663695358643439e+00 0.0000000000000000e+00  9.3455472674642532e+00 7.2544784992988101e+00 0.0000000000000000e+00  6.1890792649437003e+00 1.1277348087295525e+00 0.0000000000000000e+00  1.7268647363877061e+01 1.6376985540465650e+01 0.0000000000000000e+00  1.6909225437063895e+01 1.4446252483579888e+01 0.0000000000000000e+00  1.6932494350276951e+01 1.3011473064212366e+01 0.0000000000000000e+00  1.7390199742668276e+01 1.2349739241260634e+01 0.0000000000000000e+00  1.8233921833725308e+01 1.2099939057379416e+01 0.0000000000000000e+00  1.9365361183983271e+01 1.2263696819712889e+01 0.0000000000000000e+00  2.0690778839716838e+01 1.2631020620527131e+01 0.0000000000000000e+00  2.2118661989470059e+01 1.3114475800622419e+01 0.0000000000000000e+00  2.3559664432591180e+01 1.3179092348996512e+01 0.0000000000000000e+00  2.4937411424094776e+01 1.3507321903395598e+01 0.0000000000000000e+00  2.6187316292579247e+01 1.2563473641900831e+01 0.0000000000000000e+00  2.7257106232332358e+01 1.2152969849475662e+01 0.0000000000000000e+00  2.8111953293432688e+01 9.6765353259870590e+00 0.0000000000000000e+00  2.8743435484653411e+01 8.1243664827582585e+00 0.0000000000000000e+00  2.9147086564934543e+01 4.1134915489026911e+00 0.0000000000000000e+00  2.9361997196540564e+01 9.1036682385773826e-01 0.0000000000000000e+00  2.9397169087646752e+01 2.3696165706257903e-03 0.0000000000000000e+00  2.9330404860891541e+01 7.2334231106996043e+00 0.0000000000000000e+00  2.9397151659148836e+01 -2.3316850184932304e-03 0.0000000000000000e+00  2.9032350145624083e+01 6.1123683936547277e-03 0.0000000000000000e+00  2.8736581968625913e+01 -3.44907064123