<?xml version="1.0"?>
<VTKFile type="UnstructuredGrid"  version="0.1"  >
<UnstructuredGrid>
<Piece  NumberOfPoints="1933" NumberOfCells="3640">
<Points>
<DataArray  type="Float64"  NumberOfComponents="3"  format="ascii">-0.2939955894298268 0.0004417867259891152 0  4.706004436415578 0.0004117761251203325 0  4.706049489908582 7.500411863017759 0  -0.2939505637898644 7.500441824917494 0  9.70600446707479 0.0003816832150699927 0  9.706049589352574 7.500381787885847 0  14.70600454638992 0.0003514616519452007 0  14.70604975971372 7.500351571974776 0  19.70600472400059 0.0003211031415177822 0  19.7060500260325 7.500321214541146 0  24.70600504734857 0.0002906224144741511 0  24.70605041353604 7.500290733598087 0  29.70600555962157 0.0002600487948063064 0  29.70605094706931 7.500260159939941 0  34.70600630003298 0.0002294214513872978 0  34.70605165068368 7.500229533397953 0  39.70600730494657 0.0001987869206467607 0  39.70605254751244 7.500198900811868 0  44.70600860922716 0.0001681981180700695 0  44.70605365984923 7.500168315251885 0  49.7060102475762 0.0001377143935144934 0  49.7060550093165 7.500137836174813 0  54.70601225577162 0.0001074023917886081 0  54.7060566170256 7.500107530333255 0  59.70601467179701 7.733761843595644e-05 0  59.70605850364709 7.500077473363588 0  64.70601753686711 4.760671431599302e-05 0  64.70606068930898 7.500047752067071 0  69.70602089634721 1.831053302845461e-05 0  69.70606319323171 7.500018467479751 0  74.70602480055216 -1.043179053440723e-05 0  74.70606603297649 7.49998973891204 0  79.70602930536074 -3.847747717991643e-05 0  79.70606922313044 7.499961709241783 0  84.7060344725199 -6.565298625053667e-05 0  84.70607277317423 7.499934551877693 0  89.70604036937543 -9.174445790045941e-05 0  89.70607668415562 7.499908479990697 0  94.70604706754352 -0.000116484687846712 0  94.70608094362282 7.499883758857966 0  99.70605463959116 -0.0001395350856669803 0  99.70608551805724 7.499860722496048 0  104.7060631519851 -0.0001604602608318242 0  104.7060903417787 7.499839796180542 0  109.7060726509909 -0.0001786916344568858 0  109.7060953010979 7.499821526911846 0  114.7060831351979 -0.000193474577112796 0  114.7061002126035 7.49980662420766 0  119.7060945024834 -0.0002037907870987345 0  119.7061047955927 7.499796013243126 0  124.7061064478258 -0.0002082438790769665 0  124.7061086425087 7.499790899969862 0  129.7061182659988 -0.0002048923222583448 0  129.7061112018073 7.499792840309979 0  134.7061284690137 -0.000191014885106918 0  134.70611181418 7.499803786495695 0  139.7061340392327 -0.0001628222875643343 0  139.706109906968 7.499826043932499 0  144.7061289502518 -0.0001152919665429301 0  144.7061056063679 7.49986202150225 0  149.7061011284414 -4.31456609133468e-05 0  149.7061014289012 7.499913796331048 0  159.7061073738541 1.010938398430417e-18 0  164.7060147205089 -0.0001336852570188089 0  164.7060916218418 7.499845395834509 0  159.7061176175075 7.499950408935875 0  169.7059660403104 -0.000244893249750103 0  169.7060650665795 7.49974461474725 0  174.7059405394105 -0.0003400398640942707 0  174.706043550247 7.499654216608918 0  179.705927727498 -0.0004227985389556717 0  179.7060276008459 7.499573909284141 0  184.7059220277288 -0.0004959260685244587 0  184.7060163824362 7.499502128746064 0  189.7059203773102 -0.0005615552712576891 0  189.7060088342328 7.499437267189434 0  194.7059210489391 -0.0006213154204528398 0  194.7060040138583 7.499377957243378 0  199.7059230432812 -0.0006764409220511853 0  199.7060011730942 7.499323103173313 0  204.7059257671794 -0.0007278678368607748 0  204.7059997459211 7.49927184461918 0  209.705928859662 -0.0007763113730770839 0  209.7059993135466 7.49922350857181 0  214.7059320959604 -0.0008223243286506052 0  214.70599956895 7.499177566217681 0  219.7059353333935 -0.0008663397877524392 0  219.7060002875768 7.499133598392072 0  224.7059384801112 -0.000908701920571329 0  224.7060013049852 7.499091269192946 0  229.7059414765745 -0.0009496881805152198 0  229.7060025004297 7.499050306205942 0  234.70594428429 -0.000989525403542948 0  234.7060037850201 7.499010485753271 0  239.7059468787822 -0.00102840161175581 0  239.7060050932383 7.498971621853348 0  244.7059492451218 -0.001066474784119243 0  244.7060063768772 7.498933557891512 0  249.7059513750357 -0.001103879469309479 0  249.7060076007047 7.498896160269229 0  254.705953265051 -0.001140731844586028 0  254.7060087393715 7.498859313506704 0  259.7059549153295 -0.001177133636061255 0  259.7060097752049 7.498822916427001 0  264.7059563290181 -0.001213175182256555 0  264.7060106966616 7.498786879164554 0  269.7059575119886 -0.001248937823169893 0  269.7060114972625 7.498751120828687 0  274.7059584729374 -0.001284495713977157 0  274.7060121748846 7.498715567726935 0  279.705959223813 -0.001319917079415539 0  279.7060127313195 7.498680152123772 0  284.7059597805956 -0.001355264821975247 0  284.7060131720083 7.498644811590562 0  289.7059601643995 -0.001390596244293531 0  289.7060135058624 7.498609489103351 0  294.7059604028586 -0.001425961393088269 0  294.7060137451057 7.498574134180584 0  299.7059605314953 -0.001461399087718969 0  299.7060139050708 7.498538705529226 0  304.7059605942829 -0.00149692890196623 0  304.7060140041351 7.49850317587369 0  309.7059606413075 -0.001532536002219357 0  309.7060140645997 7.498467539847022 0  4.706094274324354 15.00041206570879 0  -0.2939057852651475 15.0004419197673 0  9.706094376473306 15.00038202632125 0  14.70609454333384 15.00035181448849 0  19.70609479023888 15.00032144936774 0  24.70609512985843 15.00029095834594 0  29.7060955737897 15.0002603763991 0  34.70609613297438 15.00022974503587 0  39.70609681763658 15.00019911159713 0  44.70609763703408 15.00016852912083 0  49.70609859911877 15.00013805679297 0  54.70609971011186 15.00010776096801 0  59.70610097395453 15.00007771676058 0  64.70610239157567 15.00004801024944 0  69.70610395989685 15.0000187413826 0  74.70610567048705 14.99999002772764 0  79.70610750776 14.99996200927322 0  84.70610944660645 14.99993485455535 0  89.70611144936525 14.99990876845249 0  94.70611346210598 14.99988400204519 0  99.70611541035721 14.99986086492792 0  104.7061171948067 14.99983974018748 0  109.7061186882505 14.99982110171094 0  114.7061197365537 14.99980553211029 0  119.7061201690143 14.99979373647315 0  124.7061198279751 14.99978654067327 0  129.706118634312 14.99978484990928 0  134.7061167139564 14.99978951751509 0  139.7061146159167 14.99980102390498 0  144.7061136345239 14.99981875927141 0  149.7061161374774 14.99983941304775 0  164.7061324561052 14.99978820294203 0  159.7061356973242 14.99986082741253 0  169.7061232711275 14.99971033102562 0  174.7061119000662 14.99963379513213 0  179.7061008027149 14.99956161631062 0  184.7060911112486 14.99949460365218 0  189.7060831749393 14.99943257091153 0  194.7060769549793 14.99937496766969 0  199.7060722491346 14.99932116405468 0  204.7060688070821 14.99927056636781 0  209.7060663844286 14.99922265568198 0  214.7060647646306 14.99917699340502 0  219.706063765095 14.99913321407466 0  224.7060632360917 14.99909101436917 0  229.7060630568537 14.99905014206531 0  234.7060631309809 14.99901038629325 0  239.7060633820665 14.99897156940511 0  244.7060637498999 14.99893354036426 0  249.7060641873267 14.99889616943132 0  254.706064657712 14.99885934390655 0  259.7060651329317 14.99882296471976 0  264.7060655917854 14.99878694370093 0  269.7060660187511 14.99875120141037 0  274.7060664029999 14.99871566544899 0  279.7060667375937 14.99868026920776 0  284.706067018844 14.99864495104899 0  289.7060672457714 14.99860965393033 0  294.7060674197475 14.99857432546102 0  299.7060675444498 14.99853891825375 0  304.7060676265302 14.99850339003406 0  309.7060676777492 14.99846770186485 0  4.706138763674486 22.50041248048675 0  -0.2938612951437647 22.50044223512982 0  9.70613884955457 22.5003824716017 0  14.70613897872902 22.50035225496686 0  19.70613916035605 22.50032187047061 0  24.70613939954654 22.50029135711356 0  29.70613969914706 22.50026075580661 0  34.70614006054205 22.50023011068547 0  39.70614048383224 22.50019946985971 0  44.70614096764468 22.50016888609087 0  49.70614150872416 22.50013841764926 0  54.70614210137295 22.5001081294748 0  59.70614273676289 22.50007809471838 0  64.70614340211739 22.50004839672772 0  69.7061440797539 22.50001913154493 0  74.70614474598797 22.49999041099454 0  79.70614536992433 22.49996236644414 0  84.70614591221791 22.49993515330721 0  89.70614632399028 22.49990895630496 0  94.7061465462599 22.49988399537376 0  99.70614651053224 22.49986053182468 0  104.7061461416479 22.49983887381454 0  109.7061453646621 22.49981937915863 0  114.7061441184546 22.49980245166941 0  119.7061423798576 22.49978852401484 0  124.7061402029703 22.49977801483612 0  129.7061377778622 22.49977123977073 0  134.7061355084325 22.49976824495034 0  139.7061340952226 22.49976852033844 0  144.7061345751352 22.49977055315707 0  149.7061382014826 22.49977125944794 0  164.7061621691455 22.49972440097254 0  159.7061550792004 22.49977677820136 0  169.7061636107808 22.49966469952638 0  174.7061611227807 22.49960225650995 0  179.7061564463584 22.49954012971954 0  184.7061509077544 22.49948000566414 0  189.7061453511583 22.49942261500835 0  194.7061402417799 22.49936812729108 0  199.7061357915852 22.49931642170878 0  204.7061320594598 22.49926724801848 0  209.7061290196611 22.49922031409627 0  214.7061266048316 22.49917532992822 0  219.7061247314123 22.49913202739562 0  224.7061233137845 22.49909016730241 0  229.7061222715412 22.4990495400632 0  234.706121532755 22.49900996350832 0  239.7061210350045 22.49897127959877 0  244.7061207252213 22.49893335093574 0  249.7061205589655 22.49889605746926 0  254.7061204994781 22.4988592935653 0  259.706120516679 22.49882296547182 0  264.7061205862159 22.49878698917009 0  269.7061206885867 22.49875128857871 0  274.7061208083537 22.49871579407166 0  279.7061209334508 22.49868044126956 0  284.7061210545889 22.49864517005009 0  289.7061211647911 22.49860992368402 0  294.7061212591345 22.4985746479
[...]
<PointData  Vectors="v"> 
<DataArray  type="Float64"  Name="v"  NumberOfComponents="3" format="ascii">-1.1007848865536221e+00 -7.6634877319670709e+00 0.0000000000000000e+00  -1.6580316890688087e+00 -7.1722940304752631e+00 0.0000000000000000e+00  -1.5278707567279481e+00 -6.3366793089065805e+00 0.0000000000000000e+00  -1.0977903244028098e+00 -7.0186225326859049e+00 0.0000000000000000e+00  -2.3517665021900478e+00 -7.7507098993097019e+00 0.0000000000000000e+00  -2.0847120160482238e+00 -6.7111121165817949e+00 0.0000000000000000e+00  -2.9728743803617879e+00 -8.7725797488078356e+00 0.0000000000000000e+00  -2.7772164218152700e+00 -7.8425039289321408e+00 0.0000000000000000e+00  -3.5164520224349656e+00 -9.0842958624957095e+00 0.0000000000000000e+00  -3.3963192360934640e+00 -8.2712495338279162e+00 0.0000000000000000e+00  -4.1975270015411095e+00 -9.9579206413409089e+00 0.0000000000000000e+00  -3.9371270682837149e+00 -8.9393566238358630e+00 0.0000000000000000e+00  -4.7365727025181048e+00 -1.0311772550509806e+01 0.0000000000000000e+00  -4.6144924744569931e+00 -9.5068509650796145e+00 0.0000000000000000e+00  -4.8156534235645285e+00 -1.0048702926136908e+01 0.0000000000000000e+00  -5.1490140535369937e+00 -9.9344707838139321e+00 0.0000000000000000e+00  -5.8995100673973484e+00 -1.1144554395745310e+01 0.0000000000000000e+00  -5.2228141059796958e+00 -9.5239264707836355e+00 0.0000000000000000e+00  -2.7937347325088213e+00 -5.9809784167309541e+00 0.0000000000000000e+00  -6.3004531624391138e+00 -1.0645154505669092e+01 0.0000000000000000e+00  -1.3915342270517376e+01 -2.1864918893363079e+01 0.0000000000000000e+00  -3.1877161750435614e+00 -5.1894858375485056e+00 0.0000000000000000e+00  -1.3595558639491443e+01 -2.0090895959191229e+01 0.0000000000000000e+00  -1.4301859885058745e+01 -2.0577717539051417e+01 0.0000000000000000e+00  -1.3672720945215589e+01 -1.8771363932830258e+01 0.0000000000000000e+00  -1.3973542124744309e+01 -1.8663787434402018e+01 0.0000000000000000e+00  -1.4203806665939355e+01 -1.8104386900563288e+01 0.0000000000000000e+00  -1.4040878433599334e+01 -1.7317288675948088e+01 0.0000000000000000e+00  -1.5143959317508459e+01 -1.8071530754863776e+01 0.0000000000000000e+00  -1.4560770735146342e+01 -1.6672222811251277e+01 0.0000000000000000e+00  -1.6394147461732661e+01 -1.8463053355541028e+01 0.0000000000000000e+00  -1.5487883073538498e+01 -1.6599756249310143e+01 0.0000000000000000e+00  -1.7860725382846073e+01 -1.9071890456789717e+01 0.0000000000000000e+00  -1.6723551862640672e+01 -1.6885455986521460e+01 0.0000000000000000e+00  -1.9453107729660346e+01 -1.9958927007374754e+01 0.0000000000000000e+00  -1.8174284494413712e+01 -1.7585055568280346e+01 0.0000000000000000e+00  -2.1080824610829008e+01 -2.0698039393673199e+01 0.0000000000000000e+00  -1.9748959086155516e+01 -1.8271987532028451e+01 0.0000000000000000e+00  -2.2667159295320115e+01 -2.1322747071215414e+01 0.0000000000000000e+00  -2.1357822297145390e+01 -1.8960187244955375e+01 0.0000000000000000e+00  -2.4148535739275403e+01 -2.1670702090586289e+01 0.0000000000000000e+00  -2.2923968594678350e+01 -1.9466365638766025e+01 0.0000000000000000e+00  -2.5469522741670563e+01 -2.1706035793126919e+01 0.0000000000000000e+00  -2.4383908822475071e+01 -1.9743218575559339e+01 0.0000000000000000e+00  -2.6594359101127097e+01 -2.0976827608448339e+01 0.0000000000000000e+00  -2.5682034430760712e+01 -1.9308693761052652e+01 0.0000000000000000e+00  -2.7509428655955805e+01 -2.0257808961383411e+01 0.0000000000000000e+00  -2.6784035673210667e+01 -1.8905813609136814e+01 0.0000000000000000e+00  -2.8209035721793928e+01 -1.8109351678054516e+01 0.0000000000000000e+00  -2.7673824885862334e+01 -1.7079343080220042e+01 0.0000000000000000e+00  -2.8715198699016497e+01 -1.6439100623023979e+01 0.0000000000000000e+00  -2.8349942176650867e+01 -1.5702246640117091e+01 0.0000000000000000e+00  -2.9046641782861727e+01 -1.2756676124389957e+01 0.0000000000000000e+00  -2.8828778443755315e+01 -1.2278237682712497e+01 0.0000000000000000e+00  -2.9247457290523286e+01 -1.0096269068486723e+01 0.0000000000000000e+00  -2.9137522695358513e+01 -9.8194691233389388e+00 0.0000000000000000e+00  -2.9342423895758795e+01 -5.2080327953723193e+00 0.0000000000000000e+00  -2.9308933212389245e+01 -5.0822013831272432e+00 0.0000000000000000e+00  -2.9381811677673397e+01 -1.2428305968197915e+00 0.0000000000000000e+00  -2.9383432817735457e+01 -1.2107681524233407e+00 0.0000000000000000e+00  -2.9389262610863312e+01 3.1789670780875510e-09 0.0000000000000000e+00  -2.9389940982957668e+01 -7.0929530255312814e-04 0.0000000000000000e+00  -2.9389262614635353e+01 4.1363459156190782e-19 0.0000000000000000e+00  -2.0123728170825757e+01 7.0822476053322783e+00 0.0000000000000000e+00  -2.9383910283115917e+01 -6.7903642592453162e+00 0.0000000000000000e+00  -2.9389929050534555e+01 6.7739294273793315e-04 0.0000000000000000e+00  -2.0748227023016224e+01 1.3371654081082402e+01 0.0000000000000000e+00  -2.0151509490510179e+01 1.4348561531483083e+01 0.0000000000000000e+00  -1.7729889014832978e+01 2.0812242007608265e+01 0.0000000000000000e+00  -2.0813655146341123e+01 1.6315498984415047e+01 0.0000000000000000e+00  -1.6952327184470832e+01 2.2296564161995146e+01 0.0000000000000000e+00  -1.7833618623850537e+01 2.1165047283098072e+01 0.0000000000000000e+00  -1.5272587780205001e+01 2.5074798919590361e+01 0.0000000000000000e+00  -1.7093620929128345e+01 2.2588201955969321e+01 0.0000000000000000e+00  -1.4060949224382425e+01 2.5289397819221950e+01 0.0000000000000000e+00  -1.5450911289622359e+01 2.3505663672925742e+01 0.0000000000000000e+00  -1.2766249078226840e+01 2.5369370569924254e+01 0.0000000000000000e+00  -1.4276556096419041e+01 2.3459777934865635e+01 0.0000000000000000e+00  -1.1650561909465768e+01 2.4317496049224850e+01 0.0000000000000000e+00  -1.3018337645578294e+01 2.2676916798957919e+01 0.0000000000000000e+00  -1.0322686467083461e+01 2.3149508636614637e+01 0.0000000000000000e+00  -1.1938746973529408e+01 2.1189960098755076e+01 0.0000000000000000e+00  -9.3671207891448578e+00 2.1308185637495487e+01 0.0000000000000000e+00  -1.0646777762972006e+01 1.9906867201065868e+01 0.0000000000000000e+00  -8.5840210048615404e+00 1.9452575933018942e+01 0.0000000000000000e+00  -9.7266478691899358e+00 1.8309746733573498e+01 0.0000000000000000e+00  -7.7322882214856801e+00 1.7759208684932901e+01 0.0000000000000000e+00  -8.9786116969191880e+00 1.6513167241416539e+01 0.0000000000000000e+00  -6.9256161910828409e+00 1.6159649618921090e+01 0.0000000000000000e+00  -8.1617377010719672e+00 1.4980821961357931e+01 0.0000000000000000e+00  -6.1678586266779023e+00 1.4743750813959791e+01 0.0000000000000000e+00  -7.3895084518640015e+00 1.3638108532547918e+01 0.0000000000000000e+00  -5.4224773544260865e+00 1.3448108829122033e+01 0.0000000000000000e+00  -6.6658286877433284e+00 1.2360688016171778e+01 0.0000000000000000e+00  -4.7443248508014344e+00 1.2207206937551492e+01 0.0000000000000000e+00  -5.9542194345105202e+00 1.1220297193865099e+01 0.0000000000000000e+00  -4.1411778683519955e+00 1.1068756380051157e+01 0.0000000000000000e+00  -5.3094492592722817e+00 1.0194071689052437e+01 0.0000000000000000e+00  -3.5755534457709413e+00 9.9800450317681815e+00 0.0000000000000000e+00  -4.7392751905073478e+00 9.1613526504585749e+00 0.0000000000000000e+00  -3.0727706595970137e+00 8.9172167977053487e+00 0.0000000000000000e+00  -4.2063422444148362e+00 8.1924067030482508e+00 0.0000000000000000e+00  -2.6418533531467387e+00 7.9194630411705447e+00 0.0000000000000000e+00  -3.7357847921407514e+00 7.3022648162279866e+00 0.0000000000000000e+00  -2.2467443376407426e+00 6.9152642930125241e+00 0.0000000000000000e+00  -3.3368689372258280e+00 6.3513287739455917e+00 0.0000000000000000e+00  -1.9058643034823748e+00 5.9802409464623851e+00 0.0000000000000000e+00  -2.9731979543086888e+00 5.4976006548710092e+00 0.0000000000000000e+00  -1.6187578758702188e+00 5.0272098230623250e+00 0.0000000000000000e+00  -2.6638094887500503e+00 4.6245354505644229e+00 0.0000000000000000e+00  -1.3661449767327580e+00 4.2121582693260997e+00 0.0000000000000000e+00  -2.4071494397783244e+00 3.8616989640482013e+00 0.0000000000000000e+00  -1.1479870528001141e+00 3.2732738315612511e+00 0.0000000000000000e+00  -2.1859077545236434e+00 2.9729276101938424e+00 0.0000000000000000e+00  -9.5711304924895291e-01 2.7354496379198228e+00 0.0000000000000000e+00  -1.9967020493462584e+00 2.4780238097729086e+00 0.0000000000000000e+00  -7.8091577606458673e-01 1.7850694231348274e+00 0.0000000000000000e+00  -1.8379632079141637e+00 1.5456911196762921e+00 0.0000000000000000e+00  -5.4324019904000853e-01 1.7283385106944955e+00 0.0000000000000000e+00  -1.6878166228549960e+00 1.4027760807053056e+00 0.0000000000000000e+00  -1.8288550468720299e-01 1.2030766663666779e+00 0.0000000000000000e+00  -1.4863377409175993e+00 6.8237126190506880e-01 0.0000000000000000e+00  6.6168653756765716e-01 7.4670998330291539e-03 0.0000000000000000e+00  -1.1404875664351217e+00 -1.2180108654091724e+00 0.0000000000000000e+00  -1.8053810167184636e+00 -5.6911642144041927e+00 0.0000000000000000e+00  -1.3314309117409697e+00 -6.3086401678770114e+00 0.0000000000000000e+00  -2.2358065712939896e+00 -5.8759372656847138e+00 0.0000000000000000e+00  -2.7921356683712339e+00 -6.8046327658958976e+00 0.0000000000000000e+00  -3.4828749444502676e+00 -7.3442570687038513e+00 0.0000000000000000e+00  -4.0988092390605120e+00 -8.1305823895829690e+00 0.0000000000000000e+00  -4.6349781906166125e+00 -8.4942724658816875e+00 0.0000000000000000e+00  -5.3060781181659111e+00 -9.1372246693786821e+00 0.0000000000000000e+00  -5.8325673590659255e+00 -9.4184649357695669e+00 0.0000000000000000e+00  -5.8968696262652065e+00 -9.0350599348726739e+00 0.0000000000000000e+00  -6.9635067297357960e+00 -9.8655350088432172e+00 0.0000000000000000e+00  -3.8390104426782821e+00 -3.9133775738988308e+00 0.0000000000000000e+00  -1.4942432383755110e+01 -1.9162621622396447e+01 0.0000000000000000e+00  -1.4602965263201822e+01 -1.7224090940397545e+01 0.0000000000000000e+00  -1.4656687604401931e+01 -1.5901352294514345e+01 0.0000000000000000e+00  -1.5160306664758835e+01 -1.5220520813392280e+01 0.0000000000000000e+00  -1.6067522079529887e+01 -1.5045454291780043e+01 0.0000000000000000e+00  -1.7279772253833624e+01 -1.5423925901051021e+01 0.0000000000000000e+00  -1.8704058355299168e+01 -1.5927388603698676e+01 0.0000000000000000e+00  -2.0248712579197544e+01 -1.6566386098437192e+01 0.0000000000000000e+00  -2.1824122289695058e+01 -1.7137679629227691e+01 0.0000000000000000e+00  -2.3354184435721905e+01 -1.7576561230300513e+01 0.0000000000000000e+00  -2.4774494341709083e+01 -1.7385930071469655e+01 0.0000000000000000e+00  -2.6030365989764416e+01 -1.7279027334452479e+01 0.0000000000000000e+00  -2.7087460306345331e+01 -1.5771390260584326e+01 0.0000000000000000e+00  -2.7930660138522434e+01 -1.4718149806284595e+01 0.0000000000000000e+00  -2.8557105763838354e+01 -1.1586233608914156e+01 0.0000000000000000e+00  -2.8988121167929535e+01 -9.3906142214491997e+00 0.0000000000000000e+00  -2.9243895679056429e+01 -4.8464342049955391e+00 0.0000000000000000e+00  -2.9371380943951539e+01 -1.1392043727399519e+00 0.0000000000000000e+00  -2.9391565349873442e+01 -1.3511240867543346e-03 0.0000000000000000e+00  -2.9362955003039595e+01 -6.8527957865867037e+00 0.0000000000000000e+00  -2.9391543586585232e+01 1.3313508121545522e-03 0.0000000000000000e+00  -2.9301266753393946e+01 5.1325152277647135e-01 0.0000000000000000e+00  -2.0103124840736335e+01 1.7335728112571246e+01 0.0000000000000000e+00  -2.0809791914400385e+01 1.6720686753467120e+01 0.0000000000000000e+00  -1.7872235288868534e+01 2.1504646825124045e+01 0.0000000000000000e+00  -1.7175272766544722e+01 2.1064659092318394e+01 0.0000000000000000e+00  -1.5572098393726485e+01 2.1722681278015607e+01 0.0000000000000000e+00  -1.4437148986061407e+01 2.0811919841326663e+01 0.0000000000000000e+00  -1.3216064406587227e+01 1.9592085630993129e+01 0.0000000000000000e+00  -1.2172305892277526e+01 1.7990094353810626e+01 0.0000000000000000e+00  -1.0915234289778258e+01 1.6950144730659400e+01 0.0000000000000000e+00  -1.0029209958268224e+01 1.5411022069657843e+01 0.0000000000000000e+00  -9.3144542974642750e+00 1.3775425147733332e+01 0.0000000000000000e+00  -8.5305119771858067e+00 1.2499272112841929e+01 0.0000000000000000e+00  -7.7906513022071548e+00 1.1294242011166874e+01 0.0000000000000000e+00  -7.0987239788624779e+00 1.0171782439588673e+01 0.0000000000000000e+00  -6.4183817386392246e+00 9.2454184383344593e+00 0.0000000000000000e+00  -5.8042689776633836e+00 8.3241775751099709e+00 0.0000000000000000e+00  -5.2641033481566941e+00 7.4107837519354947e+00 0.0000000000000000e+00  -4.7605917691398565e+00 6.6138825441853104e+00 0.0000000000000000e+00  -4.3188649966990633e+00 5.7698836781613760e+00 0.0000000000000000e+00  -3.9480744089515691e+00 4.9689204109987593e+00 0.0000000000000000e+00  -3.6120573142365213e+00 4.1765622743453346e+00 0.0000000000000000e+00  -3.3295296204822553e+00 3.4930159439872521e+00 0.0000000000000000e+00  -3.0994124411408897e+00 2.6560621210991253e+00 0.0000000000000000e+00  -2.9035996495886041e+00 2.2106021831789264e+00 0.0000000000000000e+00  -2.7401759005073876e+00 1.3204425705285610e+00 0.0000000000000000e+00  -2.6048526567083448e+00 1.1955342758676137e+00 0.0000000000000000e+00  -2.4803566379872972e+00 3.8925929954786204e-01 0.0000000000000000e+00  -2.3003894352184013e+00 -1.7173595846095850e+00 0.0000000000000000e+00  -2.5184760368221926e+00 -4.9793784649776764e+00 0.0000000000000000e+00  -2.0902114427222087e+00 -5.6676765224027044e+00 0.0000000000000000e+00  -2.9936666461394075e+00 -5.2294175814017390e+00 0.0000000000000000e+00  -3.4253792608244398e+00 -5.9704743046560900e+00 0.0000000000000000e+00  -3.9811640966083832e+00 -6.3099182571846848e+00 0.0000000000000000e+00  -4.6693768345249067e+00 -7.2101817215450561e+00 0.0000000000000000e+00  -5.2803346022503961e+00 -7.6956987213362114e+00 0.0000000000000000e+00  -5.8084405363812053e+00 -8.1383256583865879e+00 0.0000000000000000e+00  -6.4684603052298018e+00 -8.6387851386259094e+00 0.0000000000000000e+00  -6.9807552912670978e+00 -8.9510114089403778e+00 0.0000000000000000e+00  -7.0276778395114503e+00 -8.2796223600009178e+00 0.0000000000000000e+00  -8.0751417157195409e+00 -8.6141929041624490e+00 0.0000000000000000e+00  -4.9327837426465040e+00 -2.5200343686015199e+00 0.0000000000000000e+00  -1.6021813442338139e+01 -1.7744240206031453e+01 0.0000000000000000e+00  -1.5668316367066160e+01 -1.5834802830107897e+01 0.0000000000000000e+00  -1.5703751519543200e+01 -1.4483374181395767e+01 0.0000000000000000e+00  -1.6182656876423525e+01 -1.3707501474037771e+01 0.0000000000000000e+00  -1.7058420346395025e+01 -1.3633565745106264e+01 0.0000000000000000e+00  -1.8232308686848544e+01 -1.3823935542142337e+01 0.0000000000000000e+00  -1.9610885673670129e+01 -1.4287058404188340e+01 0.0000000000000000e+00  -2.1102955791112372e+01 -1.4817092836984086e+01 0.0000000000000000e+00  -2.2619147985495736e+01 -1.5329121979724475e+01 0.0000000000000000e+00  -2.4082503568014751e+01 -1.5306841326957560e+01 0.0000000000000000e+00  -2.5430050034273247e+01 -1.5452391629065980e+01 0.0000000000000000e+00  -2.6606080475797498e+01 -1.4245036172341155e+01 0.0000000000000000e+00  -2.7578760793640722e+01 -1.3518896627175005e+01 0.0000000000000000e+00  -2.8330744762867948e+01 -1.0709665192401980e+01 0.0000000000000000e+00  -2.8866235789684989e+01 -8.8178117559597649e+00 0.0000000000000000e+00  -2.9198820779014156e+01 -4.5191852722409980e+00 0.0000000000000000e+00  -2.9368823082342395e+01 -1.0319639790969539e+00 0.0000000000000000e+00  -2.9394100437176188e+01 -1.9321140926177808e-03 0.0000000000000000e+00  -2.9344750171028679e+01 -7.0139756143856014e+00 0.0000000000000000e+00  -2.9394081128947249e+01 1.9039582750064903e-03 0.0000000000000000e+00  -2.9151965641306028e+01 3.9086333451125044e-01 0.0000000000000000e+00  -2.9080625258701151e+01 3.5803955082672396e+00 0.0000000000000000e+00  -1.9940173516229056e+01 1.7835858170229479e+01 0.0000000000000000e+00  -2.0719339938995414e+01 1.7149240123297922e+01 0.0000000000000000e+00  -1.7850901752762685e+01 2.0071252053087591e+01 0.0000000000000000e+00  -1.7219903956403044e+01 1.9364242284909647e+01 0.0000000000000000e+00  -1.5677383853698712e+01 1.9154455092249332e+01 0.0000000000000000e+00  -1.4599813118174541e+01 1.7802304487662500e+01 0.0000000000000000e+00  -1.3431767544356937e+01 1.6464348316300473e+01 0.0000000000000000e+00  -1.2438516532364304e+01 1.5102683720767166e+01 0.0000000000000000e+00  -1.1229739325135302e+01 1.4119219559090647e+01 0.0000000000000000e+00  -1.0390484360217666e+01 1.2739525363499190e+01 0.0000000000000000e+00  -9.7215112955743574e+00 1.1359043851245422e+01 0.0000000000000000e+00  -8.9826012447596213e+00 1.0219584772931903e+01 0.0000000000000000e+00  -8.2869149002642075e+00 9.1683570836872352e+00 0.0000000000000000e+00  -7.6383655303602804e+00 8.2586637098140852e+00 0.0000000000000000e+00  -7.0004534652022663e+00 7.4360997131607283e+00 0.0000000000000000e+00  -6.4277519930185454e+00 6.6327717037299259e+00 0.0000000000000000e+00  -5.9279173243908421e+00 5.8901286622848206e+00 0.0000000000000000e+00  -5.4637019131820495e+00 5.1378920655848637e+00 0.0000000000000000e+00  -5.0600306262236918e+00 4.4427272999697527e+00 0.0000000000000000e+00  -4.7263790207797243e+00 3.7013327907470321e+00 0.0000000000000000e+00  -4.4260381517410670e+00 3.0978657939461556e+00 0.0000000000000000e+00  -4.1785875331618234e+00 2.3375884423537610e+00 0.0000000000000000e+00  -3.9814906153845899e+00 1.9446685339601459e+00 0.0000000000000000e+00  -3.8190352539109553e+00 1.0988160218192946e+00 0.0000000000000000e+00  -3.6849365313174256e+00 1.0212297396980619e+00 0.0000000000000000e+00  -3.5832416587678186e+00 2.2040780079221903e-01 0.0000000000000000e+00  -3.4797087532934796e+00 -1.9572032985903958e+00 0.0000000000000000e+00  -3.4382462058256738e+00 -4.3356478077726308e+00 0.0000000000000000e+00  -3.0481692957424782e+00 -5.0845412295895960e+00 0.0000000000000000e+00  -3.8685407998197232e+00 -4.5145833964798818e+00 0.0000000000000000e+00  -4.3470596086977453e+00 -5.3208344089137753e+00 0.0000000000000000e+00  -4.7816125095535140e+00 -5.4752210495980762e+00 0.0000000000000000e+00  -5.3387113819893459e+00 -6.1786849525272096e+00 0.0000000000000000e+00  -6.0255052697615925e+00 -6.7822630367164187e+00 0.0000000000000000e+00  -6.6316860445435886e+00 -7.3520281906228009e+00 0.0000000000000000e+00  -7.1510228286731170e+00 -7.6577220974950109e+00 0.0000000000000000e+00  -7.7977866217137901e+00 -8.1945666362516629e+00 0.0000000000000000e+00  -8.2924806506524682e+00 -8.2240367209476162e+00 0.0000000000000000e+00  -8.3187365674613165e+00 -7.0586610745326652e+00 0.0000000000000000e+00  -9.3455087178748588e+00 -7.2460938231395566e+00 0.0000000000000000e+00  -6.1881115654183398e+00 -1.1182409918135852e+00 0.0000000000000000e+00  -1.7270064428348313e+01 -1.6369947719585120e+01 0.0000000000000000e+00  -1.6910350021261145e+01 -1.4438897842087224e+01 0.0000000000000000e+00  -1.6933415202372398e+01 -1.3004047521069017e+01 0.0000000000000000e+00  -1.7390996313887289e+01 -1.2342239081961669e+01 0.0000000000000000e+00  -1.8234646189928011e+01 -1.2092460418816284e+01 0.0000000000000000e+00  -1.9366048329937954e+01 -1.2256405186641340e+01 0.0000000000000000e+00  -2.0691448873057741e+01 -1.2623577364349174e+01 0.0000000000000000e+00  -2.2119326555392814e+01 -1.3107039509467265e+01 0.0000000000000000e+00  -2.3560316958583613e+01 -1.3171325019639102e+01 0.0000000000000000e+00  -2.4938060095828249e+01 -1.3499309039807979e+01 0.0000000000000000e+00  -2.6187930627648701e+01 -1.2554208632611855e+01 0.0000000000000000e+00  -2.7257697917445697e+01 -1.2143416461010117e+01 0.0000000000000000e+00  -2.8112475498127157e+01 -9.6643993397333894e+00 0.0000000000000000e+00  -2.8743909279716743e+01 -8.1113152712074861e+00 0.0000000000000000e+00  -2.9147464714450749e+01 -4.0980379738524588e+00 0.0000000000000000e+00  -2.9362302171535422e+01 -8.8760085026958624e-01 0.0000000000000000e+00  -2