<?xml version="1.0"?>
<VTKFile type="UnstructuredGrid"  version="0.1"  >
<UnstructuredGrid>
<Piece  NumberOfPoints="297" NumberOfCells="512">
<Points>
<DataArray  type="Float64"  NumberOfComponents="3"  format="ascii">0 0 0  0.0625 0 0  0.0625 0.0625 0  0 0.0625 0  0.125 0 0  0.125 0.0625 0  0.1875 0 0  0.1875 0.0625 0  0.25 0 0  0.25 0.0625 0  0.3125 0 0  0.3125 0.0625 0  0.375 0 0  0.375 0.0625 0  0.4375 0 0  0.4375 0.0625 0  0.5 0 0  0.5 0.0625 0  0.5625 0 0  0.5625 0.0625 0  0.625 0 0  0.625 0.0625 0  0.6875 0 0  0.6875 0.0625 0  0.75 0 0  0.75 0.0625 0  0.8125 0 0  0.8125 0.0625 0  0.875 0 0  0.875 0.0625 0  0.9375 0 0  0.9375 0.0625 0  1 0 0  1 0.0625 0  1.0625 0 0  1.0625 0.0625 0  1.125 0 0  1.125 0.0625 0  1.1875 0 0  1.1875 0.0625 0  1.25 0 0  1.25 0.0625 0  1.3125 0 0  1.3125 0.0625 0  1.375 0 0  1.375 0.0625 0  1.4375 0 0  1.4375 0.0625 0  1.5 0 0  1.5 0.0625 0  1.5625 0 0  1.5625 0.0625 0  1.625 0 0  1.625 0.0625 0  1.6875 0 0  1.6875 0.0625 0  1.75 0 0  1.75 0.0625 0  1.8125 0 0  1.8125 0.0625 0  1.875 0 0  1.875 0.0625 0  1.9375 0 0  1.9375 0.0625 0  2 0 0  2 0.0625 0  0.0625 0.125 0  0 0.125 0  0.125 0.125 0  0.1875 0.125 0  0.25 0.125 0  0.3125 0.125 0  0.375 0.125 0  0.4375 0.125 0  0.5 0.125 0  0.5625 0.125 0  0.625 0.125 0  0.6875 0.125 0  0.75 0.125 0  0.8125 0.125 0  0.875 0.125 0  0.9375 0.125 0  1 0.125 0  1.0625 0.125 0  1.125 0.125 0  1.1875 0.125 0  1.25 0.125 0  1.3125 0.125 0  1.375 0.125 0  1.4375 0.125 0  1.5 0.125 0  1.5625 0.125 0  1.625 0.125 0  1.6875 0.125 0  1.75 0.125 0  1.8125 0.125 0  1.875 0.125 0  1.9375 0.125 0  2 0.125 0  0.0625 0.1875 0  0 0.1875 0  0.125 0.1875 0  0.1875 0.1875 0  0.25 0.1875 0  0.3125 0.1875 0  0.375 0.1875 0  0.4375 0.1875 0  0.5 0.1875 0  0.5625 0.1875 0  0.625 0.1875 0  0.6875 0.1875 0  0.75 0.1875 0  0.8125 0.1875 0  0.875 0.1875 0  0.9375 0.1875 0  1 0.1875 0  1.0625 0.1875 0  1.125 0.1875 0  1.1875 0.1875 0  1.25 0.1875 0  1.3125 0.1875 0  1.375 0.1875 0  1.4375 0.1875 0  1.5 0.1875 0  1.5625 0.1875 0  1.625 0.1875 0  1.6875 0.1875 0  1.75 0.1875 0  1.8125 0.1875 0  1.875 0.1875 0  1.9375 0.1875 0  2 0.1875 0  0.0625 0.25 0  0 0.25 0  0.125 0.25 0  0.1875 0.25 0  0.25 0.25 0  0.3125 0.25 0  0.375 0.25 0  0.4375 0.25 0  0.5 0.25 0  0.5625 0.25 0  0.625 0.25 0  0.6875 0.25 0  0.75 0.25 0  0.8125 0.25 0  0.875 0.25 0  0.9375 0.25 0  1 0.25 0  1.0625 0.25 0  1.125 0.25 0  1.1875 0.25 0  1.25 0.25 0  1.3125 0.25 0  1.375 0.25 0  1.4375 0.25 0  1.5 0.25 0  1.5625 0.25 0  1.625 0.25 0  1.6875 0.25 0  1.75 0.25 0  1.8125 0.25 0  1.875 0.25 0  1.9375 0.25 0  2 0.25 0  0.0625 0.3125 0  0 0.3125 0  0.125 0.3125 0  0.1875 0.3125 0  0.25 0.3125 0  0.3125 0.3125 0  0.375 0.3125 0  0.4375 0.3125 0  0.5 0.3125 0  0.5625 0.3125 0  0.625 0.3125 0  0.6875 0.3125 0  0.75 0.3125 0  0.8125 0.3125 0  0.875 0.3125 0  0.9375 0.3125 0  1 0.3125 0  1.0625 0.3125 0  1.125 0.3125 0  1.1875 0.3125 0  1.25 0.3125 0  1.3125 0.3125 0  1.375 0.3125 0  1.4375 0.3125 0  1.5 0.3125 0  1.5625 0.3125 0  1.625 0.3125 0  1.6875 0.3125 0  1.75 0.3125 0  1.8125 0.3125 0  1.875 0.3125 0  1.9375 0.3125 0  2 0.3125 0  0.0625 0.375 0  0 0.375 0  0.125 0.375 0  0.1875 0.375 0  0.25 0.375 0  0.3125 0.375 0  0.375 0.375 0  0.4375 0.375 0  0.5 0.375 0  0.5625 0.375 0  0.625 0.375 0  0.6875 0.375 0  0.75 0.375 0  0.8125 0.375 0  0.875 0.375 0  0.9375 0.375 0  1 0.375 0  1.0625 0.375 0  1.125 0.375 0  1.1875 0.375 0  1.25 0.375 0  1.3125 0.375 0  1.375 0.375 0  1.4375 0.375 0  1.5 0.375 0  1.5625 0.375 0  1.625 0.375 0  1.6875 0.375 0  1.75 0.375 0  1.8125 0.375 0  1.875 0.375 0  1.9375 0.375 0  2 0.375 0  0.0625 0.4375 0  0 0.4375 0  0.125 0.4375 0  0.1875 0.4375 0  0.25 0.4375 0  0.3125 0.4375 0  0.375 0.4375 0  0.4375 0.4375 0  0.5 0.4375 0  0.5625 0.4375 0  0.625 0.4375 0  0.6875 0.4375 0  0.75 0.4375 0  0.8125 0.4375 0  0.875 0.4375 0  0.9375 0.4375 0  1 0.4375 0  1.0625 0.4375 0  1.125 0.4375 0  1.1875 0.4375 0  1.25 0.4375 0  1.3125 0.4375 0  1.375 0.4375 0  1.4375 0.4375 0  1.5 0.4375 0  1.5625 0.4375 0  1.625 0.4375 0  1.6875 0.4375 0  1.75 0.4375 0  1.8125 0.4375 0  1.875 0.4375 0  1.9375 0.4375 0  2 0.4375 0  0.0625 0.5 0  0 0.5 0  0.125 0.5 0  0.1875 0.5 0  0.25 0.5 0  0.3125 0.5 0  0.375 0.5 0  0.4375 0.5 0  0.5 0.5 0  0.5625 0.5 0  0.625 0.5 0  0.6875 0.5 0  0.75 0.5 0  0.8125 0.5 0  0.875 0.5 0  0.9375 0.5 0  1 0.5 0  1.0625 0.5 0  1.125 0.5 0  1.1875 0.5 0  1.25 0.5 0  1.3125 0.5 0  1.375 0.5 0  1.4375 0.5 0  1.5 0.5 0  1.5625 0.5 0  1.625 0.5 0  1.6875 0.5 0  1.75 0.5 0  1.8125 0.5 0  1.875 0.5 0  1.9375 0.5 0  2 0.5 0  </DataArray>
</Points>
<Cells>
<DataArray  type="UInt32"  Name="connectivity"  format="ascii">0 1 2  0 2 3  1 4 5  1 2 5  4 6 7  4 5 7  6 8 9  6 7 9  8 10 11  8 9 11  10 12 13  10 11 13  12 14 15  12 13 15  14 16 17  14 15 17  16 18 19  16 17 19  18 20 21  18 19 21  20 22 23  20 21 23  22 24 25  22 23 25  24 26 27  24 25 27  26 28 29  26 27 29  28 30 31  28 29 31  30 32 33  30 31 33  32 34 35  32 33 35  34 36 37  34 35 37  36 38 39  36 37 39  38 40 41  38 39 41  40 42 43  40 41 43  42 44 45  42 43 45  44 46 47  44 45 47  46 48 49  46 47 49  48 50 51  48 49 51  50 52 53  50 51 53  52 54 55  52 53 55  54 56 57  54 55 57  56 58 59  56 57 59  58 60 61  58 59 61  60 62 63  60 61 63  62 64 65  62 63 65  2 3 66  3 66 67  2 5 68  2 66 68  5 7 69  5 68 69  7 9 70  7 69 70  9 11 71  9 70 71  11 13 72  11 71 72  13 15 73  13 72 73  15 17 74  15 73 74  17 19 75  17 74 75  19 21 76  19 75 76  21 23 77  21 76 77  23 25 78  23 77 78  25 27 79  25 78 79  27 29 80  27 79 80  29 31 81  29 80 81  31 33 82  31 81 82  33 35 83  33 82 83  35 37 84  35 83 84  37 39 85  37 84 85  39 41 86  39 85 86  41 43 87  41 86 87  43 45 88  43 87 88  45 47 89  45 88 89  47 49 90  47 89 90  49 51 91  49 90 91  51 53 92  51 91 92  53 55 93  53 92 93  55 57 94  55 93 94  57 59 95  57 94 95  59 61 96  59 95 96  61 63 97  61 96 97  63 65 98  63 97 98  66 67 99  67 99 100  66 68 101  66 99 101  68 69 102  68 101 102  69 70 103  69 102 103  70 71 104  70 103 104  71 72 105  71 104 105  72 73 106  72 105 106  73 74 107  73 106 107  74 75 108  74 107 108  75 76 109  75 108 109  76 77 110  76 109 110  77 78 111  77 110 111  78 79 112  78 111 112  79 80 113  79 112 113  80 81 114  80 113 114  81 82 115  81 114 115  82 83 116  82 115 116  83 84 117  83 116 117  84 85 118  84 117 118  85 86 119  85 118 119  86 87 120  86 119 120  87 88 121  87 120 121  88 89 122  88 121 122  89 90 123  89 122 123  90 91 124  90 123 124  91 92 125  91 124 125  92 93 126  92 125 126  93 94 127  93 126 127  94 95 128  94 127 128  95 96 129  95 128 129  96 97 130  96 129 130  97 98 131  97 130 131  99 100 132  100 132 133  99 101 134  99 132 134  101 102 135  101 134 135  102 103 136  102 135 136  103 104 137  103 136 137  104 105 138  104 137 138  105 106 139  105 138 139  106 107 140  106 139 140  107 108 141  107 140 141  108 109 142  108 141 142  109 110 143  109 142 143  110 111 144  110 143 144  111 112 145  111 144 145  112 113 146  112 145 146  113 114 147  113 146 147  114 115 148  114 147 148  115 116 149  115 148 149  116 117 150  116 149 150  117 118 151  117 150 151  118 119 152  118 151 152  119 120 153  119 152 153  120 121 154  120 153 154  121 122 155  121 154 155  122 123 156  122 155 156  123 124 157  123 156 157  124 125 158  124 157 158  125 126 159  125 158 159  126 127 160  126 159 160  127 128 161  127 160 161  128 129 162  128 161 162  129 130 163  129 162 163  130 131 164  130 163 164  132 133 165  133 165 166  132 134 167  132 165 167  134 135 168  134 167 168  135 136 169  135 168 169  136 137 170  136 169 170  137 138 171  137 170 171  138 139 172  138 171 172  139 140 173  139 172 173  140 141 174  140 173 174  141 142 175  141 174 175  142 143 176  142 175 176  143 144 177  143 176 177  144 145 178  144 177 178  145 146 179  145 178 179  146 147 180  146 179 180  147 148 181  147 180 181  148 149 182  148 181 182  149 150 183  149 182 183  150 151 184  150 183 184  151 152 185  151 184 185  152 153 186  152 185 186  153 154 187  153 186 187  154 155 188  154 187 188  155 156 189  155 188 189  156 157 190  156 189 190  157 158 191  157 190 191  158 159 192  158 191 192  159 160 193  159 192 193  160 161 194  160 193 194  161 162 195  161 194 195  162 163 196  162 195 196  163 164 197  163 196 197  165 166 198  166 198 199  165 167 200  165 198 200  167 168 201  167 200 201  168 169 202  168 201 202  169 170 203  169 202 203  170 171 204  170 203 204  171 172 205  171 204 205  172 173 206  172 205 206  173 174 207  173 206 207  174 175 208  174 207 208  175 176 209  175 208 209  176 177 210  176 209 210  177 178 211  177 210 211  178 179 212  178 211 212  179 180 213  179 212 213  180 181 214  180 213 214  181 182 215  181 214 215  182 183 216  182 215 216  183 184 217  183 216 217  184 185 218  184 217 218  185 186 219  185 218 219  186 187 220  186 219 220  187 188 221  187 220 221  188 189 222  188 221 222  189 190 223  189 222 223  190 191 224  190 223 224  191 192 225  191 224 225  192 193 226  192 225 226  193 194 227  193 226 227  194 195 228  194 227 228  195 196 229  195 228 229  196 197 230  196 229 230  198 199 231  199 231 232  198 200 233  198 231 233  200 201 234  200 233 234  201 202 235  201 234 235  202 203 236  202 235 236  203 204 237  203 236 237  204 205 238  204 237 238  205 206 239  205 238 239  206 207 240  206 239 240  207 208 241  207 240 241  208 209 242  208 241 242  209 210 243  209 242 243  210 211 244  210 243 244  211 212 245  211 244 245  212 213 246  212 245 246  213 214 247  213 246 247  214 215 248  214 247 248  215 216 249  215 248 249  216 217 250  216 249 250  217 218 251  217 250 251  218 219 252  218 251 252  219 220 253  219 252 253  220 221 254  220 253 254  221 222 255  221 254 255  222 223 256  222 255 256  223 224 257  223 256 257  224 225 258  224 257 258  225 226 259  225 258 259  226 227 260  226 259 260  227 228 261  227 260 261  228 229 262  228 261 262  229 230 263  229 262 263  231 232 264  232 264 265  231 233 266  231 264 266  233 234 267  233 266 267  234 235 268  234 267 268  235 236 269  235 268 269  236 237 270  236 269 270  237 238 271  237 270 271  238 239 272  238 271 272  239 240 273  239 272 273  240 241 274  240 273 274  241 242 275  241 274 275  242 243 276  242 275 276  243 244 277  243 276 277  244 245 278  244 277 278  245 246 279  245 278 279  246 247 280  246 279 280  247 248 281  247 280 281  248 249 282  248 281 282  249 250 283  249 282 283  250 251 284  250 283 284  251 252 285  251 284 285  252 253 286  252 285 286  253 254 287  253 286 287  254 255 288  254 287 288  255 256 289  255 288 289  256 257 290  256 289 290  257 258 291  257 290 291  258 259 292  258 291 292  259 260 293  259 292 293  260 261 294  260 293 294  261 262 295  261 294 295  262 263 296  262 295 296  </DataArray>
<DataArray  type="UInt32"  Name="offsets"  format="ascii">3 6 9 12 15 18 21 24 27 30 33 36 39 42 45 48 51 54 57 60 63 66 69 72 75 78 81 84 87 90 93 96 99 102 105 108 111 114 117 120 123 126 129 132 135 138 141 144 147 150 153 156 159 162 165 168 171 174 177 180 183 186 189 192 195 198 201 204 207 210 213 216 219 222 225 228 231 234 237 240 243 246 249 252 255 258 261 264 267 270 273 276 279 282 285 288 291 294 297 300 303 306 309 312 315 318 321 324 327 330 333 336 339 342 345 348 351 354 357 360 363 366 369 372 375 378 381 384 387 390 393 396 399 402 405 408 411 414 417 420 423 426 429 432 435 438 441 444 447 450 453 456 459 462 465 468 471 474 477 480 483 486 489 492 495 498 501 504 507 510 513 516 519 522 525 528 531 534 537 540 543 546 549 552 555 558 561 564 567 570 573 576 579 582 585 588 591 594 597 600 603 606 609 612 615 618 621 624 627 630 633 636 639 642 645 648 651 654 657 660 663 666 669 672 675 678 681 684 687 690 693 696 699 702 705 708 711 714 717 720 723 726 729 732 735 738 741 744 747 750 753 756 759 762 765 768 771 774 777 780 783 786 789 792 795 798 801 804 807 810 813 816 819 822 825 828 831 834 837 840 843 846 849 852 855 858 861 864 867 870 873 876 879 882 885 888 891 894 897 900 903 906 909 912 915 918 921 924 927 930 933 936 939 942 945 948 951 954 957 960 963 966 969 972 975 978 981 984 987 990 993 996 999 1002 1005 1008 1011 1014 1017 1020 1023 1026 1029 1032 1035 1038 1041 1044 1047 1050 1053 1056 1059 1062 1065 1068 1071 1074 1077 1080 1083 1086 1089 1092 1095 1098 1101 1104 1107 1110 1113 1116 1119 1122 1125 1128 1131 1134 1137 1140 1143 1146 1149 1152 1155 1158 1161 1164 1167 1170 1173 1176 1179 1182 1185 1188 1191 1194 1197 1200 1203 1206 1209 1212 1215 1218 1221 1224 1227 1230 1233 1236 1239 1242 1245 1248 1251 1254 1257 1260 1263 1266 1269 1272 1275 1278 1281 1284 1287 1290 1293 1296 1299 1302 1305 1308 1311 1314 1317 1320 1323 1326 1329 1332 1335 1338 1341 1344 1347 1350 1353 1356 1359 1362 1365 1368 1371 1374 1377 1380 1383 1386 1389 1392 1395 1398 1401 1404 1407 1410 1413 1416 1419 1422 1425 1428 1431 1434 1437 1440 1443 1446 1449 1452 1455 1458 1461 1464 1467 1470 1473 1476 1479 1482 1485 1488 1491 1494 1497 1500 1503 1506 1509 1512 1515 1518 1521 1524 1527 1530 1533 1536 </DataArray>
<DataArray  type="UInt8"  Name="types"  format="ascii">5 5 5 5 5 5 5 5 5 5 5 5 5 5 5 5 5 5 5 5 5 5 5 5 5 5 5 5 5 5 5 5 5 5 5 5 5 5 5 5 5 5 5 5 5 5 5 5 5 5 5 5 5 5 5 5 5 5 5 5 5 5 5 5 5 5 5 5 5 5 5 5 5 5 5 5 5 5 5 5 5 5 5 5 5 5 5 5 5 5 5 5 5 5 5 5 5 5 5 5 5 5 5 5 5 5 5 5 5 5 5 5 5 5 5 5 5 5 5 5 5 5 5 5 5 5 5 5 5 5 5 5 5 5 5 5 5 5 5 5 5 5 5 5 5 5 5 5 5 5 5 5 5 5 5 5 5 5 5 5 5 5 5 5 5 5 5 5 5 5 5 5 5 5 5 5 5 5 5 5 5 5 5 5 5 5 5 5 5 5 5 5 5 5 5 5 5 5 5 5 5 5 5 5 5 5 5 5 5 5 5 5 5 5 5 5 5 5 5 5 5 5 5 5 5 5 5 5 5 5 5 5 5 5 5 5 5 5 5 5 5 5 5 5 5 5 5 5 5 5 5 5 5 5 5 5 5 5 5 5 5 5 5 5 5 5 5 5 5 5 5 5 5 5 5 5 5 5 5 5 5 5 5 5 5 5 5 5 5 5 5 5 5 5 5 5 5 5 5 5 5 5 5 5 5 5 5 5 5 5 5 5 5 5 5 5 5 5 5 5 5 5 5 5 5 5 5 5 5 5 5 5 5 5 5 5 5 5 5 5 5 5 5 5 5 5 5 5 5 5 5 5 5 5 5 5 5 5 5 5 5 5 5 5 5 5 5 5 5 5 5 5 5 5 5 5 5 5 5 5 5 5 5 5 5 5 5 5 5 5 5 5 5 5 5 5 5 5 5 5 5 5 5 5 5 5 5 5 5 5 5 5 5 5 5 5 5 5 5 5 5 5 5 5 5 5 5 5 5 5 5 5 5 5 5 5 5 5 5 5 5 5 5 5 5 5 5 5 5 5 5 5 5 5 5 5 5 5 5 5 5 5 5 5 5 5 5 5 5 5 5 5 5 5 5 5 5 5 5 5 5 5 5 5 5 5 5 5 5 5 5 5 5 5 5 5 5 5 5 5 5 5 5 5 5 5 5 5 5 5 5 5 </DataArray>
</Cells>
<PointData  Vectors="d"> 
<DataArray  type="Float64"  Name="d"  NumberOfComponents="3" format="ascii">0.0000000000000000e+00 0.0000000000000000e+00 0.0000000000000000e+00  0.0000000000000000e+00 0.0000000000000000e+00 0.0000000000000000e+00  -2.6026488701419935e-10 2.8310699995722504e-10 0.0000000000000000e+00  0.0000000000000000e+00 0.0000000000000000e+00 0.0000000000000000e+00  0.0000000000000000e+00 0.0000000000000000e+00 0.0000000000000000e+00  -8.2806869764268902e-10 2.9796480142127347e-10 0.0000000000000000e+00  0.0000000000000000e+00 0.0000000000000000e+00 0.0000000000000000e+00  -1.4307058232491223e-09 3.1321802279817169e-10 0.0000000000000000e+00  0.0000000000000000e+00 0.0000000000000000e+00 0.0000000000000000e+00  -2.0384006298024499e-09 2.9571804090192408e-10 0.0000000000000000e+00  0.0000000000000000e+00 0.0000000000000000e+00 0.0000000000000000e+00  -2.5883128478554456e-09 2.4984807369359160e-10 0.0000000000000000e+00  0.0000000000000000e+00 0.0000000000000000e+00 0.0000000000000000e+00  -3.0510442760836798e-09 2.2548312130114675e-10 0.0000000000000000e+00  0.0000000000000000e+00 0.0000000000000000e+00 0.0000000000000000e+00  -3.4678145322346929e-09 1.8669154413342141e-10 0.0000000000000000e+00  0.0000000000000000e+00 0.0000000000000000e+00 0.0000000000000000e+00  -3.8083908908793715e-09 1.4847202431517139e-10 0.0000000000000000e+00  0.0000000000000000e+00 0.0000000000000000e+00 0.0000000000000000e+00  -4.0718205817434240e-09 1.1402862683427150e-10 0.0000000000000000e+00  0.0000000000000000e+00 0.0000000000000000e+00 0.0000000000000000e+00  -4.2716531704481798e-09 7.2086605459417849e-11 0.0000000000000000e+00  0.0000000000000000e+00 0.0000000000000000e+00 0.0000000000000000e+00  -4.3885651861157230e-09 3.0180160200327513e-11 0.0000000000000000e+00  0.0000000000000000e+00 0.0000000000000000e+00 0.0000000000000000e+00  -4.4261575815939724e-09 -2.0699052411283063e-12 0.0000000000000000e+00  0.0000000000000000e+00 0.0000000000000000e+00 0.0000000000000000e+00  -4.4017447166741662e-09 -4.3202233233999430e-11 0.0000000000000000e+00  0.0000000000000000e+00 0.0000000000000000e+00 0.0000000000000000e+00  -4.2836388940503905e-09 -9.5233860719902133e-11 0.0000000000000000e+00  0.0000000000000000e+00 0.0000000000000000e+00 0.0000000000000000e+00  -4.0791264736130661e-09 -1.2275835098802427e-10 0.0000000000000000e+00  0.0000000000000000e+00 0.0000000000000000e+00 0.0000000000000000e+00  -3.8158142988723431e-09 -1.6296202041311432e-10 0.0000000000000000e+00  0.0000000000000000e+00 0.0000000000000000e+00 0.0000000000000000e+00  -3.4721032015230656e-09 -1.9964675964413508e-10 0.0000000000000000e+00  0.0000000000000000e+00 0.0000000000000000e+00 0.0000000000000000e+00  -3.0696336048406347e-09 -2.1143829198776974e-10 0.0000000000000000e+00  0.0000000000000000e+00 0.0000000000000000e+00 0.0000000000000000e+00  -2.6407993839224784e-09 -2.3020980617838091e-10 0.0000000000000000e+00  0.0000000000000000e+00 0.0000000000000000e+00 0.0000000000000000e+00  -2.1740862921304273e-09 -2.3993831548601565e-10 0.0000000000000000e+00  0.0000000000000000e+00 0.0000000000000000e+00 0.0000000000000000e+00  -1.7025641229175302e-09 -2.1782293934753544e-10 0.0000000000000000e+00  0.0000000000000000e+00 0.0000000000000000e+00 0.0000000000000000e+00  -1.2720443941457517e-09 -1.9484569677137787e-10 0.0000000000000000e+00  0.0000000000000000e+00 0.0000000000000000e+00 0.0000000000000000e+00  -8.8648143960627209e-10 -1.4653463240565477e-10 0.0000000000000000e+00  0.0000000000000000e+00 0.0000000000000000e+00 0.0000000000000000e+00  -6.1155392132399864e-10 -4.6462130070944504e-11 0.0000000000000000e+00  0.0000000000000000e+00 0.0000000000000000e+00 0.0000000000000000e+00  -5.3236032028903478e-10 -7.0695002906912173e-11 0.0000000000000000e+00  0.0000000000000000e+00 0.0000000000000000e+00 0.0000000000000000e+00  -4.0230322527902647e-10 -6.6239956980278880e-11 0.0000000000000000e+00  0.0000000000000000e+00 0.0000000000000000e+00 0.0000000000000000e+00  -2.9358972124012149e-10 -4.9859968071922608e-11 0.0000000000000000e+00  0.0000000000000000e+00 0.0000000000000000e+00 0.0000000000000000e+00  -2.1066888587714729e-10 -4.0638511462837733e-11 0.0000000000000000e+00  0.0000000000000000e+00 0.0000000000000000e+00 0.0000000000000000e+00  -1.4203254882050521e-10 -3.7190059995539272e-11 0.0000000000000000e+00  0.0000000000000000e+00 0.0000000000000000e+00 0.0000000000000000e+00  -8.5618405991554468e-11 -3.0910068514784190e-11 0.0000000000000000e+00  0.0000000000000000e+00 0.0000000000000000e+00 0.0000000000000000e+00  -2.4796863171433724e-11 -5.1476435958680380e-11 0.0000000000000000e+00  0.0000000000000000e+00 0.0000000000000000e+00 0.0000000000000000e+00  0.0000000000000000e+00 0.0000000000000000e+00 0.0000000000000000e+00  -2.3352281472018999e-10 8.0178351321568905e-10 0.0000000000000000e+00  0.0000000000000000e+00 0.0000000000000000e+00 0.0000000000000000e+00  -1.0122002900511784e-09 1.1486124625109823e-09 0.0000000000000000e+00  -2.1524072832110799e-09 1.2186657509103484e-09 0.0000000000000000e+00  -3.3419324242318381e-09 1.1960177801215891e-09 0.0000000000000000e+00  -4.4933215195337254e-09 1.0520711931313098e-09 0.0000000000000000e+00  -5.5108990680419926e-09 8.9920353101362709e-10 0.0000000000000000e+00  -6.3614187042457602e-09 7.9284538158041614e-10 0.0000000000000000e+00  -7.1241554278110485e-09 6.4102027256368283e-10 0.0000000000000000e+00  -7.7351662172635285e-09 4.9049485774777152e-10 0.0000000000000000e+00  -8.1964479955060683e-09 3.5579524935413219e-10 0.0000000000000000e+00  -8.5367745253543777e-09 1.8998346347039431e-10 0.0000000000000000e+00  -8.7167031891431247e-09 4.0996015206928375e-11 0.0000000000000000e+00  -8.7449700884598745e-09 -9.1899606108533508e-11 0.0000000000000000e+00  -8.6402866142750979e-09 -2.9018701989128455e-10 0.0000000000000000e+00  -8.3544403125663042e-09 -4.3849327768760691e-10 0.0000000000000000e+00  -7.9096844232558964e-09 -5.6876999334662764e-10 0.0000000000000000e+00  -7.3435901713985391e-09 -7.2604605953188186e-10 0.0000000000000000e+00  -6.6313222240810450e-09 -8.1866494324711737e-10 0.0000000000000000e+00  -5.8133750624716272e-09 -8.7836745938297247e-10 0.0000000000000000e+00  -4.9395946213067917e-09 -9.4507508022609556e-10 0.0000000000000000e+00  -4.0043823930318687e-09 -9.2284092235055660e-10 0.0000000000000000e+00  -3.0709877448965939e-09 -8.3996492481629320e-10 0.0000000000000000e+00  -2.2153913036558820e-09 -7.2470934823984359e-10 0.0000000000000000e+00  -1.4627410869853563e-09 -4.5166905730273691e-10 0.0000000000000000e+00  -9.4097847311241595e-10 -1.8450034536624727e-10 0.0000000000000000e+00  -8.0389410940433712e-10 -2.5754190910847487e-10 0.0000000000000000e+00  -5.7511209196505140e-10 -2.0292949047417249e-10 0.0000000000000000e+00  -3.9448405672101532e-10 -1.5850249667514387e-10 0.0000000000000000e+00  -2.5431639175490979e-10 -1.3570669912166367e-10 0.0000000000000000e+00  -1.4388459791494955e-10 -1.0843099554091653e-10 0.0000000000000000e+00  -4.6254404104771683e-11 -1.4409264213464565e-10 0.0000000000000000e+00  0.0000000000000000e+00 0.0000000000000000e+00 0.0000000000000000e+00  -1.9290895479942081e-10 1.2687559552016081e-09 0.0000000000000000e+00  0.0000000000000000e+00 0.0000000000000000e+00 0.0000000000000000e+00  -8.9491306024256704e-10 2.1872253827624418e-09 0.0000000000000000e+00  -2.2001756094777908e-09 2.6483674408643130e-09 0.0000000000000000e+00  -3.9006449902230418e-09 2.6695467063879804e-09 0.0000000000000000e+00  -5.6166685913800147e-09 2.4544647382556583e-09 0.0000000000000000e+00  -7.2331185780408461e-09 2.1320374137820466e-09 0.0000000000000000e+00  -8.6470277349534798e-09 1.8200531176718573e-09 0.0000000000000000e+00  -9.8181282509928063e-09 1.5602187379108143e-09 0.0000000000000000e+00  -1.0860285236825688e-08 1.2198358993931147e-09 0.0000000000000000e+00  -1.1679740835138781e-08 9.0175040387946739e-10 0.0000000000000000e+00  -1.2283114498737769e-08 5.8677757469285746e-10 0.0000000000000000e+00  -1.2713613888965013e-08 2.4089164810739503e-10 0.0000000000000000e+00  -1.2913206425487801e-08 -7.8596542956136182e-11 0.0000000000000000e+00  -1.2879844002121690e-08 -4.5102583691802691e-10 0.0000000000000000e+00  -1.2648805226719519e-08 -8.1540624069513744e-10 0.0000000000000000e+00  -1.2163026514795647e-08 -1.1427223897590233e-09 0.0000000000000000e+00  -1.1442084270442135e-08 -1.4526015932793313e-09 0.0000000000000000e+00  -1.0551885010667978e-08 -1.7169753733260209e-09 0.0000000000000000e+00  -9.4615649084502795e-09 -1.9072053148251646e-09 0.0000000000000000e+00  -8.2155313734844956e-09 -2.0446424606091113e-09 0.0000000000000000e+00  -6.8985208305457556e-09 -2.0882863040992926e-09 0.0000000000000000e+00  -5.5079556596175019e-09 -2.0018853640928665e-09 0.0000000000000000e+00  -4.1216247504442960e-09 -1.7909218239580994e-09 0.0000000000000000e+00  -2.8629277622447942e-09 -1.3789237982695919e-09 0.0000000000000000e+00  -1.7747846100609856e-09 -8.2293648036922663e-10 0.0000000000000000e+00  -1.0309952159476377e-09 -4.1801143970128057e-10 0.0000000000000000e+00  -8.7090760873794557e-10 -4.6930154751585048e-10 0.0000000000000000e+00  -5.8374124843311527e-10 -3.6679811113772600e-10 0.0000000000000000e+00  -3.6041590951478817e-10 -2.9828645952695258e-10 0.0000000000000000e+00  -1.9338833913258916e-10 -2.3088602487985273e-10 0.0000000000000000e+00  -5.9906061544979297e-11 -2.6194010239002889e-10 0.0000000000000000e+00  0.0000000000000000e+00 0.0000000000000000e+00 0.0000000000000000e+00  -1.3575391779094212e-10 1.6565867240044116e-09 0.0000000000000000e+00  0.0000000000000000e+00 0.0000000000000000e+00 0.0000000000000000e+00  -7.2008235941870909e-10 3.1262811107299768e-09 0.0000000000000000e+00  -1.9028958869969516e-09 4.2223074772747522e-09 0.0000000000000000e+00  -3.7267821152193574e-09 4.6428123764132331e-09 0.0000000000000000e+00  -5.9313387060350691e-09 4.4150012903640744e-09 0.0000000000000000e+00  -8.0994466473398512e-09 3.9645490457283901e-09 0.0000000000000000e+00  -1.0113847588354291e-08 3.4170274944125680e-09 0.0000000000000000e+00  -1.1861100781156546e-08 2.8771866877311722e-09 0.0000000000000000e+00  -1.3290437486789415e-08 2.3869148244499802e-09 0.0000000000000000e+00  -1.4554229240381243e-08 1.8132707577688089e-09 0.0000000000000000e+00  -1.5530564767893050e-08 1.2495080466133654e-09 0.0000000000000000e+00  -1.6229893130983103e-08 7.0702496662465572e-10 0.0000000000000000e+00  -1.6711394508743463e-08 1.2261126918617528e-10 0.0000000000000000e+00  -1.6882517875425688e-08 -5.2914403909691885e-10 0.0000000000000000e+00  -1.6745600577375259e-08 -1.1147415292762081e-09 0.0000000000000000e+00  -1.6360171329327562e-08 -1.7354699043156692e-09 0.0000000000000000e+00  -1.5642661624853973e-08 -2.3186409221304559e-09 0.0000000000000000e+00  -1.4628341401998918e-08 -2.7689265750088380e-09 0.0000000000000000e+00  -1.3408669890247977e-08 -3.1876439240533790e-09 0.0000000000000000e+00  -1.1931804899865656e-08 -3.5059784415845745e-09 0.0000000000000000e+00  -1.0263506349603859e-08 -3.6208414913847441e-09 0.0000000000000000e+00  -8.5205164649476115e-09 -3.6156660574883533e-09 0.0000000000000000e+00  -6.6876307985576400e-09 -3.3997506217393489e-09 0.0000000000000000e+00  -4.8744306804464821e-09 -2.8281814084386018e-09 0.0000000000000000e+00  -3.2483230906272164e-09 -2.0700328994395076e-09 0.0000000000000000e+00  -1.8535827175009236e-09 -1.2652047675698725e-09 0.0000000000000000e+00  -9.2673605744936126e-10 -6.2704094308175100e-10 0.0000000000000000e+00  -7.8814438091155800e-10 -6.7279776190877659e-10 0.0000000000000000e+00  -4.7594739961720211e-10 -5.3467936315687453e-10 0.0000000000000000e+00  -2.4445014221327881e-10 -4.0039828923612074e-10 0.0000000000000000e+00  -7.3447052229022756e-11 -4.0448603020974029e-10 0.0000000000000000e+00  0.0000000000000000e+00 0.0000000000000000e+00 0.0000000000000000e+00  -6.7005842742360776e-11 1.9325129776753731e-09 0.0000000000000000e+00  0.0000000000000000e+00 0.0000000000000000e+00 0.0000000000000000e+00  -4.8467599421159128e-10 3.9115319600783779e-09 0.0000000000000000e+00  -1.4775478175794581e-09 5.6533113098921117e-09 0.0000000000000000e+00  -3.1379988917276308e-09 6.7210847707717004e-09 0.0000000000000000e+00  -5.4291442237715477e-09 6.8552882982685092e-09 0.0000000000000000e+00  -8.0682237360602423e-09 6.3446555800074385e-09 0.0000000000000000e+00  -1.0626162969474156e-08 5.6177297961809511e-09 0.0000000000000000e+00  -1.2980388989426742e-08 4.7791131232404324e-09 0.0000000000000000e+00  -1.5003499081275471e-08 3.9329968130000551e-09 0.0000000000000000e+00  -1.6638121473305628e-08 3.1781391648260425e-09 0.0000000000000000e+00  -1.8076823607247016e-08 2.2950070286050609e-09 0.0000000000000000e+00  -1.9168732919697861e-08 1.4472854185599275e-09 0.0000000000000000e+00  -1.9929662900476483e-08 6.2380344287932852e-10 0.0000000000000000e+00  -2.0418849477540510e-08 -3.8379520103794755e-10 0.0000000000000000e+00  -2.0524384625193618e-08 -1.3061591413503859e-09 0.0000000000000000e+00  -2.0260670267605507e-08 -2.2027024845164075e-09 0.0000000000000000e+00  -1.9693843285269563e-08 -3.1566312384392945e-09 0.0000000000000000e+00  -1.8732190820947204e-08 -3.9272525383402048e-09 0.0000000000000000e+00  -1.7423889622366413e-08 -4.5707631154307993e-09 0.0000000000000000e+00  -1.5871014779690660e-08 -5.1749999270581159e-09 0.0000000000000000e+00  -1.4018176579084901e-08 -5.4918322845694304e-09 0.0000000000000000e+00  -1.1949600290513153e-08 -5.5648157980457872e-09 0.0000000000000000e+00  -9.7983994388287970e-09 -5.4474617089749674e-09 0.0000000000000000e+00  -7.5539882872222025e-09 -4.8414651967686813e-09 0.0000000000000000e+00  -5.3543260187260406e-09 -3.8686905145729797e-09 0.0000000000000000e+00  -3.3944204053994596e-09 -2.8032767274852162e-09 0.0000000000000000e+00  -1.7367551269715947e-09 -1.6292114775761259e-09 0.0000000000000000e+00  -6.7603821593602878e-10 -7.8789004637753629e-10 0.0000000000000000e+00  -5.9708667555460747e-10 -8.4872907058199954e-10 0.0000000000000000e+00  -2.9914627907230001e-10 -6.2265405935721160e-10 0.0000000000000000e+00  -8.7123128085926813e-11 -5.7263316126228282e-10 0.0000000000000000e+00  0.0000000000000000e+00 0.0000000000000000e+00 0.0000000000000000e+00  -5.0492319710305743e-11 2.0727061358945382e-09 0.0000000000000000e+00  0.0000000000000000e+00 0.0000000000000000e+00 0.0000000000000000e+00  -2.6544305864223157e-10 4.4771332939509817e-09 0.0000000000000000e+00  -9.8566757720519571e-10 6.8599999334658001e-09 0.0000000000000000e+00  -2.3874170088403190e-09 8.6171876152766451e-09 0.0000000000000000e+00  -4.4776423446707679e-09 9.3655179065862828e-09 0.0000000000000000e+00  -7.1700100352266946e-09 9.1887375168599454e-09 0.0000000000000000e+00  -1.0184932008150750e-08 8.3596979760923691e-09 0.0000000000000000e+00  -1.3078157602124749e-08 7.2930424289466708e-09 0.0000000000000000e+00  -1.5718309236535203e-08 6.0834506112541515e-09 0.0000000000000000e+00  -1.7967911866124081e-08 4.9074420313064246e-09 0.0000000000000000e+00  -1.9764655660318316e-08 3.8136692655102088e-09 0.0000000000000000e+00  -2.1340532146706224e-08 2.5917140671688946e-09 0.0000000000000000e+00  -2.2517223729037457e-08 1.4114961529750270e-09 0.0000000000000000e+00  -2.3299984213360166e-08 9.9465976850949877e-11 0.0000000000000000e+00  -2.3763286882720805e-08 -1.2343724443807184e-09 0.0000000000000000e+00  -2.3783532849833747e-08 -2.5326614305178823e-09 0.0000000000000000e+00  -2.3369539383111260e-08 -3.8170102355416384e-09 0.0000000000000000e+00  -2.2612432007900547e-08 -5.0065358451715390e-09 0.0000000000000000e+00  -2.1409551291688445e-08 -6.0230164434248867e-09 0.0000000000000000e+00  -1.9807037420837853e-08 -6.8916112628985970e-09 0.0000000000000000e+00  -1.7935032804353847e-08 -7.5224724182338643e-09 0.0000000000000000e+00  -1.5731698622555271e-08 -7.8249635714585372e-09 0.0000000000000000e+00  -1.328408631