<?xml version="1.0"?>
<VTKFile type="UnstructuredGrid"  version="0.1"  >
<UnstructuredGrid>
<Piece  NumberOfPoints="1701" NumberOfCells="3218">
<Points>
<DataArray  type="Float64"  NumberOfComponents="3"  format="ascii">1.349337129967278 0.1156129898701288 0  1.317067503934767 0.1261613597747648 0  1.332926572601617 0.1419383845557097 0  1.329803303911282 0.2888650343346901 0  1.350544154727116 0.2989747365197159 0  1.321731630900764 0.3118311262462239 0  0.8456505032433984 0.2551624569743484 0  0.8501196053104771 0.2796879760406218 0  0.8689015118769784 0.2585576033829018 0  0.625 0.25 0  0.649715505416683 0.2444855079991332 0  0.6334302607745635 0.2722155172227962 0  0.5089285714285714 0.4040178571428572 0  0.4899553571428572 0.4252232142857143 0  0.5140016233766234 0.4248173701298701 0  1.125 0.25 0  1.097245387876356 0.2765687672048388 0  1.125183624511319 0.277972896288998 0  1.319736481710608 0.1600062032454506 0  1.302766174855312 0.1890740556438294 0  1.325904660232248 0.1941202629406378 0  1.510416666666667 0.1510416666666667 0  1.508296495003334 0.1122064073504281 0  1.485515373415507 0.1283098055867655 0  1.751090796934566 0.1968258697321005 0  1.751988757728051 0.2299459691961952 0  1.783959132438779 0.2064107404490309 0  1.8125 0.08333333333333333 0  1.837209522892287 0.06775617074612417 0  1.800647591514966 0.057600288358097 0  1.90932849702381 0.3734840029761905 0  1.9246388376855 0.3522609340551704 0  1.931843646624255 0.3735924706835996 0  1.882856307151484 0.3107784912727168 0  1.8912650886644 0.2849265609910005 0  1.858822182411852 0.3031105067770383 0  1.394552423079643 0.4400068025091393 0  1.375229216245661 0.4668919336392749 0  1.366321040207667 0.4408011704622879 0  1.687623076481186 0.1975217914625604 0  1.669245184031206 0.2171635737874532 0  1.66842361808394 0.1841526650769467 0  0.1808505742799916 0.3521453997981588 0  0.2053562608397504 0.3454414033396282 0  0.1983678110735748 0.3764967737237619 0  0.65625 0.04510932017723006 0  0.6420134043001833 0.07862332134639832 0  0.6688966740779343 0.07373413863194234 0  0.9870976086145522 0.1564771592592606 0  0.9572501077147122 0.1508341865856857 0  0.9924380862187274 0.1331879747460845 0  0.8573463244303035 0.135985456628183 0  0.8655194836658697 0.1674361418280499 0  0.8387841562629739 0.1688305628975556 0  1.523917270182406 0.3118604071123428 0  1.50196468830353 0.29372741126184 0  1.521932721461721 0.2919081207096479 0  0.84375 0.5 0  0.8513364785252533 0.4634136870921036 0  0.8230370511929169 0.4722794363455418 0  0.6734246007600514 0.2355891813398439 0  0.6998992375981081 0.2139614359606641 0  0.7011939037417247 0.2347726032020921 0  0.9375 0.4240993923611112 0  0.9683209410957492 0.4310912991735994 0  0.9583638245121668 0.4035564811464027 0  0.4153573921048497 0.1790203510902782 0  0.4184594227349816 0.1498588065709976 0  0.4411832975325767 0.1682080962766363 0  0.5178571428571429 0.3080357142857143 0  0.5205150758262636 0.3304453065920148 0  0.4973179447104316 0.309568286359873 0  0.07291666666666667 0.3020833333333334 0  0.1004464285714286 0.3101187716430108 0  0.108622151564371 0.2869523536939647 0  0.25 0.25 0  0.2666893518235155 0.2775262051038507 0  0.2432165429829339 0.2692582096496006 0  0.1458333333333333 0.3541666666666667 0  0.1239415180415287 0.3325695407531085 0  0.1122308519427705 0.3544219989661829 0  0.08072916666666666 0.4192708333333334 0  0.07297991488955177 0.4460453379254702 0  0.09619174669037697 0.4410072911152849 0  0.2563393349051698 0.3273940484803678 0  0.264306179735477 0.3030395694091947 0  0.2431654891225727 0.3096043179921319 0  0.299496115081647 0.09227867708557172 0  0.3183206937142319 0.0751743814873634 0  0.2816142082011905 0.07643246160233823 0  0.1458333333333333 0.1458333333333333 0  0.1141183035714285 0.1640625 0  0.1379743303571428 0.1740606398809524 0  0.1250979453779423 0.05361072332959581 0  0.1343988558690589 0.02678827967476095 0  0.1116771880513586 0.01971736914348331 0  0.08072916666666664 0.08072916666666666 0  0.05395466207452983 0.07297991488955177 0  0.05607825551300381 0.0935834270429356 0  1.840214719702354 0.3201457487694716 0  1.827061449261752 0.3508637858787559 0  1.846564525530855 0.3424148760071797 0  1.09375 0.4666414847606032 0  1.11038507363782 0.4452635608377495 0  1.085495782703807 0.4430573347066655 0  0.8952806157438461 0.1760963056400437 0  0.9239288704191539 0.1935807516738278 0  0.9014895253802093 0.198135308149001 0  1.264745942758393 0.4564218603914674 0  1.242075458300035 0.4730345675919727 0  1.262219517363185 0.4817618156271511 0  1.637889908995185 0.3982463778524153 0  1.607722033177738 0.4175111180417616 0  1.617245079502948 0.3926053321677125 0  1.654647876899616 0.3590854091999719 0  1.68385331474407 0.3682599311546543 0  1.645431863647987 0.3783077075410836 0  1.729721654136977 0.4403174545058492 0  1.735912300163774 0.4176633791109187 0  1.714851875656419 0.4198305788612993 0  0.706915790505787 0.08138404866190521 0  0.688036266289791 0.05423310503055324 0  0.7082638872383247 0.06030719328534782 0  0.5625 0.125 0  0.5297862788804675 0.1392925544422085 0  0.5539060468345584 0.1499145207217007 0  0.6068781043273712 0.06906405216368559 0  0.621303744801294 0.03593968168919185 0  0.598466293442354 0.0456973508594274 0  1.152884669730843 0.2337868491958584 0  1.11452290288853 0.2249789420633667 0  0.9685709188151598 0.3283294935412227 0  0.9948813312675486 0.312114529150088 0  0.9696835113534295 0.3006816580342835 0  0.1045607359742393 0.3779982359742393 0  0.1034508975726142 0.4048740900372699 0  0.1270108841845078 0.407311111970162 0  0.2872285233086943 0.3144928411028981 0  0.303754499651295 0.3431216201037749 0  0.3095749285769864 0.3206775713621675 0  0.05973307291666668 0.36181640625 0  0.0835960487531472 0.3658928336373314 0  0.07598685232186186 0.3473739963294439 0  0 0.25 0  0 0.28125 0  0.02752976190476189 0.258353399017804 0  0.196803557884716 0.4508768463844072 0  0.1920441524396524 0.4182135540543238 0  0.1752721454491318 0.4349334171591435 0  0.09367011059074576 0.3379851954176215 0  0.4882898825738902 0.123888589146585 0  0.473380920736607 0.1474800158750442 0  0.5072065335420578 0.1365245356400288 0  0.5692718578079495 0.0803818835870394 0  0.5475111158540829 0.09990212793885463 0  0.5492481997058549 0.07994926902488239 0  0.9365481728487767 0.4023029689109208 0  0.65625 0.464215158045977 0  0.6251446566174537 0.468588985554667 0  0.640625 0.4843661172351536 0  0.7395833333333334 0.3489583333333334 0  0.7192164417746287 0.3682252896111382 0  0.7409414843690793 0.3766568251135748 0  1.028854579057546 0.397506592335068 0  1.03064384169533 0.4295327881931258 0  1.048546862075502 0.414631612620304 0  1.09375 0.06168358960866626 0  1.12036837731769 0.0364112346400709 0  1.116930617334956 0.05944459962398681 0  1.011498015138602 0.1187787441663906 0  1.013007184533704 0.1405854650614138 0  1.17625081088693 0.1508657281039161 0  1.171913831209384 0.1211002884571855 0  1.156813601758721 0.1408897427567468 0  1.103420541405344 0.1117290331638712 0  1.136065161152144 0.1340466736546552 0  1.128523338972534 0.1068782889998056 0  1.5732154364496 0.1359866298309177 0  1.572110110607304 0.1101746821310445 0  1.592668001963262 0.1156238778094229 0  1.62004637492211 0.3053292650231501 0  1.61786763329454 0.344745805273776 0  1.597291537789512 0.3238399806941809 0  1.749235382971519 0.311841874381833 0  1.742642468561517 0.2829164614149797 0  1.732707991641445 0.3003948695705289 0  1.896510748246434 0.09390938848291262 0  1.875083568485313 0.09539231393865834 0  1.877508689825059 0.07528870969361713 0  1.914162687396518 0.175528239533017 0  1.936731305026254 0.1918652290226968 0  1.935343185444109 0.1700257142330728 0  0.8797615543108414 0.4391623363010196 0  0.8676154740925075 0.4111689135035043 0  0.889207848503456 0.4184319331801725 0  1.463329298069059 0.05090528794780053 0  1.453125 0.02407741429185462 0  1.43478964903453 0.05056812636477328 0  1.021760630904696 0.2485531241505394 0  1.049245551210131 0.2338574482398986 0  1.038608673641399 0.2608437291672629 0  1.147325965435148 0.2950677312741365 0  1.147957225317702 0.2638363510556511 0  0.6026009716593371 0.3512056112489824 0  0.5992529797347399 0.3906423842787269 0  0.6254906523941429 0.3730093355058219 0  0.6875 0.428430316091954 0  0.6694071798560449 0.409838471795681 0  0.668949115424351 0.4437676358586121 0  0.7628676470588236 0.1626838235294118 0  0.7896098608425136 0.1783616864777567 0  0.7876644668766283 0.1510335644995086 0  0.8265229864580599 0.08657286022400004 0  0.8265120024105416 0.05882700192371819 0  0.8042829393096608 0.06421394860432761 0  1.916973081221354 0.2937656234138067 0  1.911883787000009 0.3176400821945521 0  1.939122426674171 0.2937157515047023 0  0.4992897727272727 0.1578513198757764 0  0.159054130100361 0.04086193847977117 0  0.1480916707592448 0.06325887332411825 0  1.53125 0.03189141717092678 0  1.563295820745874 0.03203626503700831 0  1.536673115100462 0.05686615760129592 0  0.34375 0.07465277777777778 0  0.361038995238027 0.05364851392609399 0  0.3298735108892221 0.05251485580992454 0  0.8251981860765354 0.2790580378514107 0  0.796130545477744 0.2956621807791584 0  0.8182016944562891 0.3043196556574865 0  0.9143832939101072 0.2218279671980177 0  1.702816195967411 0.4024127532331765 0  1.722615380565352 0.3857560784404797 0  0.5719347164021257 0.2251478465608 0  0.5953481058916196 0.2408146187502469 0  0.5701707674743777 0.2517422583363096 0  0.5519492608403385 0.2711935037846283 0  0.5704008236751053 0.2882677468493508 0  1.358320986922844 0.2695488879556134 0  1.37296566492269 0.3044212814230857 0  1.386493812195474 0.2790432470316862 0  1.429668726437658 0.3549948954861668 0  1.439992999943504 0.3883087482296668 0  1.448474763755201 0.3653154519164717 0  0.8094745710784315 0.3263633578431372 0  0.8255562730601085 0.3594392643217021 0  0.8013529092363828 0.3507596207200396 0  0.7967903765552095 0.2733513046412518 0  1.51828852229434 0.07461875133602254 0  1.49836670
[...]
<PointData  Vectors="d"> 
<DataArray  type="Float64"  Name="d"  NumberOfComponents="3" format="ascii">0.0000000000000000e+00 0.0000000000000000e+00 0.0000000000000000e+00  0.0000000000000000e+00 0.0000000000000000e+00 0.0000000000000000e+00  0.0000000000000000e+00 0.0000000000000000e+00 0.0000000000000000e+00  0.0000000000000000e+00 0.0000000000000000e+00 0.0000000000000000e+00  0.0000000000000000e+00 0.0000000000000000e+00 0.0000000000000000e+00  0.0000000000000000e+00 0.0000000000000000e+00 0.0000000000000000e+00  0.0000000000000000e+00 0.0000000000000000e+00 0.0000000000000000e+00  0.0000000000000000e+00 0.0000000000000000e+00 0.0000000000000000e+00  0.0000000000000000e+00 0.0000000000000000e+00 0.0000000000000000e+00  0.0000000000000000e+00 0.0000000000000000e+00 0.0000000000000000e+00  0.0000000000000000e+00 0.0000000000000000e+00 0.0000000000000000e+00  0.0000000000000000e+00 0.0000000000000000e+00 0.0000000000000000e+00  0.0000000000000000e+00 0.0000000000000000e+00 0.0000000000000000e+00  0.0000000000000000e+00 0.0000000000000000e+00 0.0000000000000000e+00  0.0000000000000000e+00 0.0000000000000000e+00 0.0000000000000000e+00  0.0000000000000000e+00 0.0000000000000000e+00 0.0000000000000000e+00  0.0000000000000000e+00 0.0000000000000000e+00 0.0000000000000000e+00  0.0000000000000000e+00 0.0000000000000000e+00 0.0000000000000000e+00  0.0000000000000000e+00 0.0000000000000000e+00 0.0000000000000000e+00  0.0000000000000000e+00 0.0000000000000000e+00 0.0000000000000000e+00  0.0000000000000000e+00 0.0000000000000000e+00 0.0000000000000000e+00  0.0000000000000000e+00 0.0000000000000000e+00 0.0000000000000000e+00  0.0000000000000000e+00 0.0000000000000000e+00 0.0000000000000000e+00  0.0000000000000000e+00 0.0000000000000000e+00 0.0000000000000000e+00  0.0000000000000000e+00 0.0000000000000000e+00 0.0000000000000000e+00  0.0000000000000000e+00 0.0000000000000000e+00 0.0000000000000000e+00  0.0000000000000000e+00 0.0000000000000000e+00 0.0000000000000000e+00  0.0000000000000000e+00 0.0000000000000000e+00 0.0000000000000000e+00  0.0000000000000000e+00 0.0000000000000000e+00 0.0000000000000000e+00  0.0000000000000000e+00 0.0000000000000000e+00 0.0000000000000000e+00  0.0000000000000000e+00 0.0000000000000000e+00 0.0000000000000000e+00  0.0000000000000000e+00 0.0000000000000000e+00 0.0000000000000000e+00  0.0000000000000000e+00 0.0000000000000000e+00 0.0000000000000000e+00  0.0000000000000000e+00 0.0000000000000000e+00 0.0000000000000000e+00  0.0000000000000000e+00 0.0000000000000000e+00 0.0000000000000000e+00  0.0000000000000000e+00 0.0000000000000000e+00 0.0000000000000000e+00  0.0000000000000000e+00 0.0000000000000000e+00 0.0000000000000000e+00  0.0000000000000000e+00 0.0000000000000000e+00 0.0000000000000000e+00  0.0000000000000000e+00 0.0000000000000000e+00 0.0000000000000000e+00  0.0000000000000000e+00 0.0000000000000000e+00 0.0000000000000000e+00  0.0000000000000000e+00 0.0000000000000000e+00 0.0000000000000000e+00  0.0000000000000000e+00 0.0000000000000000e+00 0.0000000000000000e+00  0.0000000000000000e+00 0.0000000000000000e+00 0.0000000000000000e+00  0.0000000000000000e+00 0.0000000000000000e+00 0.0000000000000000e+00  0.0000000000000000e+00 0.0000000000000000e+00 0.0000000000000000e+00  0.0000000000000000e+00 0.0000000000000000e+00 0.0000000000000000e+00  0.0000000000000000e+00 0.0000000000000000e+00 0.0000000000000000e+00  0.0000000000000000e+00 0.0000000000000000e+00 0.0000000000000000e+00  0.0000000000000000e+00 0.0000000000000000e+00 0.0000000000000000e+00  0.0000000000000000e+00 0.0000000000000000e+00 0.0000000000000000e+00  0.0000000000000000e+00 0.0000000000000000e+00 0.0000000000000000e+00  0.0000000000000000e+00 0.0000000000000000e+00 0.0000000000000000e+00  0.0000000000000000e+00 0.0000000000000000e+00 0.0000000000000000e+00  0.0000000000000000e+00 0.0000000000000000e+00 0.0000000000000000e+00  0.0000000000000000e+00 0.0000000000000000e+00 0.0000000000000000e+00  0.0000000000000000e+00 0.0000000000000000e+00 0.0000000000000000e+00  0.0000000000000000e+00 0.0000000000000000e+00 0.0000000000000000e+00  0.0000000000000000e+00 0.0000000000000000e+00 0.0000000000000000e+00  0.0000000000000000e+00 0.0000000000000000e+00 0.0000000000000000e+00  0.0000000000000000e+00 0.0000000000000000e+00 0.0000000000000000e+00  0.0000000000000000e+00 0.0000000000000000e+00 0.0000000000000000e+00  0.0000000000000000e+00 0.0000000000000000e+00 0.0000000000000000e+00  0.0000000000000000e+00 0.0000000000000000e+00 0.0000000000000000e+00  0.0000000000000000e+00 0.0000000000000000e+00 0.0000000000000000e+00  0.0000000000000000e+00 0.0000000000000000e+00 0.0000000000000000e+00  0.0000000000000000e+00 0.0000000000000000e+00 0.0000000000000000e+00  0.0000000000000000e+00 0.0000000000000000e+00 0.0000000000000000e+00  0.0000000000000000e+00 0.0000000000000000e+00 0.0000000000000000e+00  0.0000000000000000e+00 0.0000000000000000e+00 0.0000000000000000e+00  0.0000000000000000e+00 0.0000000000000000e+00 0.0000000000000000e+00  0.0000000000000000e+00 0.0000000000000000e+00 0.0000000000000000e+00  0.0000000000000000e+00 0.0000000000000000e+00 0.0000000000000000e+00  0.0000000000000000e+00 0.0000000000000000e+00 0.0000000000000000e+00  0.0000000000000000e+00 0.0000000000000000e+00 0.0000000000000000e+00  0.0000000000000000e+00 0.0000000000000000e+00 0.0000000000000000e+00  0.0000000000000000e+00 0.0000000000000000e+00 0.0000000000000000e+00  0.0000000000000000e+00 0.0000000000000000e+00 0.0000000000000000e+00  0.0000000000000000e+00 0.0000000000000000e+00 0.0000000000000000e+00  0.0000000000000000e+00 0.0000000000000000e+00 0.0000000000000000e+00  0.0000000000000000e+00 0.0000000000000000e+00 0.0000000000000000e+00  0.0000000000000000e+00 0.0000000000000000e+00 0.0000000000000000e+00  0.0000000000000000e+00 0.0000000000000000e+00 0.0000000000000000e+00  0.0000000000000000e+00 0.0000000000000000e+00 0.0000000000000000e+00  0.0000000000000000e+00 0.0000000000000000e+00 0.0000000000000000e+00  0.0000000000000000e+00 0.0000000000000000e+00 0.0000000000000000e+00  0.0000000000000000e+00 0.0000000000000000e+00 0.0000000000000000e+00  0.0000000000000000e+00 0.0000000000000000e+00 0.0000000000000000e+00  0.0000000000000000e+00 0.0000000000000000e+00 0.0000000000000000e+00  0.0000000000000000e+00 0.0000000000000000e+00 0.0000000000000000e+00  0.0000000000000000e+00 0.0000000000000000e+00 0.0000000000000000e+00  0.0000000000000000e+00 0.0000000000000000e+00 0.0000000000000000e+00  0.0000000000000000e+00 0.0000000000000000e+00 0.0000000000000000e+00  0.0000000000000000e+00 0.0000000000000000e+00 0.0000000000000000e+00  0.0000000000000000e+00 0.0000000000000000e+00 0.0000000000000000e+00  0.0000000000000000e+00 0.0000000000000000e+00 0.0000000000000000e+00  0.0000000000000000e+00 0.0000000000000000e+00 0.0000000000000000e+00  0.0000000000000000e+00 0.0000000000000000e+00 0.0000000000000000e+00  0.0000000000000000e+00 0.0000000000000000e+00 0.0000000000000000e+00  0.0000000000000000e+00 0.0000000000000000e+00 0.0000000000000000e+00  0.0000000000000000e+00 0.0000000000000000e+00 0.0000000000000000e+00  0.0000000000000000e+00 0.0000000000000000e+00 0.0000000000000000e+00  0.0000000000000000e+00 0.0000000000000000e+00 0.0000000000000000e+00  0.0000000000000000e+00 0.0000000000000000e+00 0.0000000000000000e+00  0.0000000000000000e+00 0.0000000000000000e+00 0.0000000000000000e+00  0.0000000000000000e+00 0.0000000000000000e+00 0.0000000000000000e+00  0.0000000000000000e+00 0.0000000000000000e+00 0.0000000000000000e+00  0.0000000000000000e+00 0.0000000000000000e+00 0.0000000000000000e+00  0.0000000000000000e+00 0.0000000000000000e+00 0.0000000000000000e+00  0.0000000000000000e+00 0.0000000000000000e+00 0.0000000000000000e+00  0.0000000000000000e+00 0.0000000000000000e+00 0.0000000000000000e+00  0.0000000000000000e+00 0.0000000000000000e+00 0.0000000000000000e+00  0.0000000000000000e+00 0.0000000000000000e+00 0.0000000000000000e+00  0.0000000000000000e+00 0.0000000000000000e+00 0.0000000000000000e+00  0.0000000000000000e+00 0.0000000000000000e+00 0.0000000000000000e+00  0.0000000000000000e+00 0.0000000000000000e+00 0.0000000000000000e+00  0.0000000000000000e+00 0.0000000000000000e+00 0.0000000000000000e+00  0.0000000000000000e+00 0.0000000000000000e+00 0.0000000000000000e+00  0.0000000000000000e+00 0.0000000000000000e+00 0.0000000000000000e+00  0.0000000000000000e+00 0.0000000000000000e+00 0.0000000000000000e+00  0.0000000000000000e+00 0.0000000000000000e+00 0.0000000000000000e+00  0.0000000000000000e+00 0.0000000000000000e+00 0.0000000000000000e+00  0.0000000000000000e+00 0.0000000000000000e+00 0.0000000000000000e+00  0.0000000000000000e+00 0.0000000000000000e+00 0.0000000000000000e+00  0.0000000000000000e+00 0.0000000000000000e+00 0.0000000000000000e+00  0.0000000000000000e+00 0.0000000000000000e+00 0.0000000000000000e+00  0.0000000000000000e+00 0.0000000000000000e+00 0.0000000000000000e+00  0.0000000000000000e+00 0.0000000000000000e+00 0.0000000000000000e+00  0.0000000000000000e+00 0.0000000000000000e+00 0.0000000000000000e+00  0.0000000000000000e+00 0.0000000000000000e+00 0.0000000000000000e+00  0.0000000000000000e+00 0.0000000000000000e+00 0.0000000000000000e+00  0.0000000000000000e+00 0.0000000000000000e+00 0.0000000000000000e+00  0.0000000000000000e+00 0.0000000000000000e+00 0.0000000000000000e+00  0.0000000000000000e+00 0.0000000000000000e+00 0.0000000000000000e+00  0.0000000000000000e+00 0.0000000000000000e+00 0.0000000000000000e+00  0.0000000000000000e+00 0.0000000000000000e+00 0.0000000000000000e+00  0.0000000000000000e+00 0.0000000000000000e+00 0.0000000000000000e+00  0.0000000000000000e+00 0.0000000000000000e+00 0.0000000000000000e+00  0.0000000000000000e+00 0.0000000000000000e+00 0.0000000000000000e+00  0.0000000000000000e+00 0.0000000000000000e+00 0.0000000000000000e+00  0.0000000000000000e+00 0.0000000000000000e+00 0.0000000000000000e+00  0.0000000000000000e+00 0.0000000000000000e+00 0.0000000000000000e+00  0.0000000000000000e+00 0.0000000000000000e+00 0.0000000000000000e+00  0.0000000000000000e+00 0.0000000000000000e+00 0.0000000000000000e+00  0.0000000000000000e+00 0.0000000000000000e+00 0.0000000000000000e+00  0.0000000000000000e+00 0.0000000000000000e+00 0.0000000000000000e+00  0.0000000000000000e+00 0.0000000000000000e+00 0.0000000000000000e+00  0.0000000000000000e+00 0.0000000000000000e+00 0.0000000000000000e+00  0.0000000000000000e+00 0.0000000000000000e+00 0.0000000000000000e+00  0.0000000000000000e+00 0.0000000000000000e+00 0.0000000000000000e+00  0.0000000000000000e+00 0.0000000000000000e+00 0.0000000000000000e+00  0.0000000000000000e+00 0.0000000000000000e+00 0.0000000000000000e+00  0.0000000000000000e+00 0.0000000000000000e+00 0.0000000000000000e+00  0.0000000000000000e+00 0.0000000000000000e+00 0.0000000000000000e+00  0.0000000000000000e+00 0.0000000000000000e+00 0.0000000000000000e+00  0.0000000000000000e+00 0.0000000000000000e+00 0.0000000000000000e+00  0.0000000000000000e+00 0.0000000000000000e+00 0.0000000000000000e+00  0.0000000000000000e+00 0.0000000000000000e+00 0.0000000000000000e+00  0.0000000000000000e+00 0.0000000000000000e+00 0.0000000000000000e+00  0.0000000000000000e+00 0.0000000000000000e+00 0.0000000000000000e+00  0.0000000000000000e+00 0.0000000000000000e+00 0.0000000000000000e+00  0.0000000000000000e+00 0.0000000000000000e+00 0.0000000000000000e+00  0.0000000000000000e+00 0.0000000000000000e+00 0.0000000000000000e+00  0.0000000000000000e+00 0.0000000000000000e+00 0.0000000000000000e+00  0.0000000000000000e+00 0.0000000000000000e+00 0.0000000000000000e+00  0.0000000000000000e+00 0.0000000000000000e+00 0.0000000000000000e+00  0.0000000000000000e+00 0.0000000000000000e+00 0.0000000000000000e+00  0.0000000000000000e+00 0.0000000000000000e+00 0.0000000000000000e+00  0.0000000000000000e+00 0.0000000000000000e+00 0.0000000000000000e+00  0.0000000000000000e+00 0.0000000000000000e+00 0.0000000000000000e+00  0.0000000000000000e+00 0.0000000000000000e+00 0.0000000000000000e+00  0.0000000000000000e+00 0.0000000000000000e+00 0.0000000000000000e+00  0.0000000000000000e+00 0.0000000000000000e+00 0.0000000000000000e+00  0.0000000000000000e+00 0.0000000000000000e+00 0.0000000000000000e+00  0.0000000000000000e+00 0.0000000000000000e+00 0.0000000000000000e+00  0.0000000000000000e+00 0.0000000000000000e+00 0.0000000000000000e+00  0.0000000000000000e+00 0.0000000000000000e+00 0.0000000000000000e+00  0.0000000000000000e+00 0.0000000000000000e+00 0.0000000000000000e+00  0.0000000000000000e+00 0.0000000000000000e+00 0.0000000000000000e+00  0.0000000000000000e+00 0.0000000000000000e+00 0.0000000000000000e+00  0.0000000000000000e+00 0.0000000000000000e+00 0.0000000000000000e+00  0.0000000000000000e+00 0.0000000000000000e+00 0.0000000000000000e+00  0.0000000000000000e+00 0.0000000000000000e+00 0.0000000000000000e+00  0.0000000000000000e+00 0.0000000000000000e+00 0.0000000000000000e+00  0.0000000000000000e+00 0.0000000000000000e+00 0.0000000000000000e+00  0.0000000000000000e+00 0.0000000000000000e+00 0.0000000000000000e+00  0.0000000000000000e+00 0.0000000000000000e+00 0.0000000000000000e+00  0.0000000000000000e+00 0.0000000000000000e+00 0.0000000000000000e+00  0.0000000000000000e+00 0.0000000000000000e+00 0.0000000000000000e+00  0.0000000000000000e+00 0.0000000000000000e+00 0.0000000000000000e+00  0.0000000000000000e+00 0.0000000000000000e+00 0.0000000000000000e+00  0.0000000000000000e+00 0.0000000000000000e+00 0.0000000000000000e+00  0.0000000000000000e+00 0.0000000000000000e+00 0.0000000000000000e+00  0.0000000000000000e+00 0.0000000000000000e+00 0.0000000000000000e+00  0.0000000000000000e+00 0.0000000000000000e+00 0.0000000000000000e+00  0.0000000000000000e+00 0.0000000000000000e+00 0.0000000000000000e+00  0.0000000000000000e+00 0.0000000000000000e+00 0.0000000000000000e+00  0.0000000000000000e+00 0.0000000000000000e+00 0.0000000000000000e+00  0.0000000000000000e+00 0.0000000000000000e+00 0.0000000000000000e+00  0.0000000000000000e+00 0.0000000000000000e+00 0.0000000000000000e+00  0.0000000000000000e+00 0.0000000000000000e+00 0.0000000000000000e+00  0.0000000000000000e+00 0.0000000000000000e+00 0.0000000000000000e+00  0.0000000000000000e+00 0.0000000000000000e+00 0.0000000000000000e+00  0.0000000000000000e+00 0.0000000000000000e+00 0.0000000000000000e+00  0.0000000000000000e+00 0.0000000000000000e+00 0.0000000000000000e+00  0.0000000000000000e+00 0.0000000000000000e+00 0.0000000000000000e+00  0.0000000000000000e+00 0.0000000000000000e+00 0.0000000000000000e+00  0.0000000000000000e+00 0.0000000000000000e+00 0.0000000000000000e+00  0.0000000000000000e+00 0.0000000000000000e+00 0.0000000000000000e+00  0.0000000000000000e+00 0.0000000000000000e+00 0.0000000000000000e+00  0.0000000000000000e+00 0.0000000000000000e+00 0.0000000000000000e+00  0.0000000000000000e+00 0.0000000000000000e+00 0.0000000000000000e+00  0.0000000000000000e+00 0.0000000000000000e+00 0.0000000000000000e+00  0.0000000000000000e+00 0.0000000000000000e+00 0.0000000000000000e+00  0.0000000000000000e+00 0.0000000000000000e+00 0.0000000000000000e+00  0.0000000000000000e+00 0.0000000000000000e+00 0.0000000000000000e+00  0.0000000000000000e+00 0.0000000000000000e+00 0.0000000000000000e+00  0.0000000000000000e+00 0.0000000000000000e+00 0.0000000000000000e+00  0.0000000000000000e+00 0.0000000000000000e+00 0.0000000000000000e+00  0.0000000000000000e+00 0.0000000000000000e+00 0.0000000000000000e+00  0.0000000000000000e+00 0.0000000000000000e+00 0.0000000000000000e+00  0.0000000000000000e+00 0.0000000000000000e+00 0.0000000000000000e+00  0.0000000000000000e+00 0.0000000000000000e+00 0.0000000000000000e+00  0.0000000000000000e+00 0.0000000000000000e+00 0.0000000000000000e+00  0.0000000000000000e+00 0.0000000000000000e+00 0.0000000000000000e+00  0.0000000000000000e+00 0.0000000000000000e+00 0.0000000000000000e+00  0.0000000000000000e+00 0.0000000000000000e+00 0.0000000000000000e+00  0.0000000000000000e+00 0.0000000000000000e+00 0.0000000000000000e+00  0.0000000000000000e+00 0.0000000000000000e+00 0.0000000000000000e+00  0.0000000000000000e+00 0.0000000000000000e+00 0.0000000000000000e+00  0.0000000000000000e+00 0.0000000000000000e+00 0.0000000000000000e+00  0.0000000000000000e+00 0.0000000000000000e+00 0.0000000000000000e+00  0.0000000000000000e+00 0.0000000000000000e+00 0.0000000000000000e+00  0.0000000000000000e+00 0.0000000000000000e+00 0.0000000000000000e+00  0.0000000000000000e+00 0.0000000000000000e+00 0.0000000000000000e+00  0.0000000000000000e+00 0.0000000000000000e+00 0.0000000000000000e+00  0.0000000000000000e+00 0.0000000000000000e+00 0.0000000000000000e+00  0.0000000000000000e+00 0.0000000000000000e+00 0.0000000000000000e+00  0.0000000000000000e+00 0.0000000000000000e+00 0.0000000000000000e+00  0.0000000000000000e+00 0.0000000000000000e+00 0.0000000000000000e+00  0.0000000000000000e+00 0.0000000000000000e+00 0.0000000000000000e+00  0.0000000000000000e+00 0.0000000000000000e+00 0.0000000000000000e+00  0.0000000000000000e+00 0.0000000000000000e+00 0.0000000000000000e+00  0.0000000000000000e+00 0.0000000000000000e+00 0.0000000000000000e+00  0.0000000000000000e+00 0.0000000000000000e+00 0.0000000000000000e+00  0.0000000000000000e+00 0.0000000000000000e+00 0.0000000000000000e+00  0.0000000000000000e+00 0.0000000000000000e+00 0.0000000000000000e+00  0.0000000000000000e+00 0.0000000000000000e+00 0.0000000000000000e+00  0.0000000000000000e+00 0.0000000000000000e+00 0.0000000000000000e+00  0.0000000000000000e+00 0.0000000000000000e+00 0.0000000000000000e+00  0.0000000000000000e+00 0.0000000000000000e+00 0.0000000000000000e+00  0.0000000000000000e+00 0.0000000000000000e+00 0.0000000000000000e+00  0.0000000000000000e+00 0.0000000000000000e+00 0.0000000000000000e+00  0.0000000000000000e+00 0.0000000000000000e+00 0.0000000000000000e+00  0.0000000000000000e+00 0.0000000000000000e+00 0.0000000000000000e+00  0.0000000000000000e+00 0.0000000000000000e+00 0.0000000000000000e+00  0.0000000000000000e+00 0.0000000000000000e+00 0.0000000000000000e+00  0.0000000000000000e+00 0.0000000000000000e+00 0.0000000000000000e+00  0.0000000000000000e+00 0.0000000000000000e+00 0.0000000000000000e+00  0.0000000000000000e+00 0.0000000000000000e+00 0.0000000000000000e+00  0.0000000000000000e+00 0.0000000000000000e+00 0.0000000000000000e+00  0.0000000000000000e+00 0.0000000000000000e+00 0.0000000000000000e+00  0.0000000000000000e+00 0.0000000000000000e+00 0.0000000000000000e+00  0.0000000000000000e+00 0.0000000000000000e+00 0.0000000000000000e+00  0.0000000000000000e+00 0.0000000000000000e+00 0.0000000000000000e+00  0.0000000000000000e+00 0.0000000000000000e+00 0.0000000000000000e+00  0.0000000000000000e+00 0.0000000000000000e+00 0.0000000000000000e+00  0.0000000000000000e+00 0.0000000000000000e+00 0.0000000000000000e+00  0.0000000000000000e+00 0.0000000000000000e+00 0.0000000000000000e+00  0.0000000000000000e+00 0.0000000000000000e+00 0.0000000000000000e+00  0.0000000000000000e+00 0.0000000000000000e+00 0.0000000000000000e+00  0.0000000000000000e+00 0.0000000000000000e+00 0.0000000000000000e+00  0.0000000000000000e+00 0.0000000000000000e+00 0.0000000000000000e+00  0.0000000000000000e+00 0.0000000000000000e+00 0.0000000000000000e+00  0.0000000000000000e+00 0.0000000000000000e+00 0.0000000000000000e+00  0.0000000000000000e+00 0.0000000000000000e+00 0.0000000000000000e+00  0.0000000000000000e+00 0.0000000000000000e+00 0.0000000000000000e+00  0.0000000000000000e+00 0.0000000000000000e+00 0.0000000000000000e+00  0.0000000000000000e+00 0.0000000000000000e+00 0.0000000000000000e+00  0.0000000000000000e+00 0.0000000000000000e+00 0.0000000000000000e+00  0.0000000000000000e+00 0.0000000000000000e+00 0.0000000000000000e+00  0.0000000000000000e+00 0.0000000000000000e+00 0.0000000000000000e+00  0.0000000000000000e+00 0.0000000000000000e+00 0.0000000000000000e+00  0.0000000000000000e+00 0.0000000000000000e+00 0.0000000000000000e+00  0.0000000000000000e+00 0.0000000000000000e+00 0.0000000000000000e+00  0.0000000000000000