<?xml version="1.0"?>
<VTKFile type="UnstructuredGrid"  version="0.1"  >
<UnstructuredGrid>
<Piece  NumberOfPoints="825" NumberOfCells="1536">
<Points>
<DataArray  type="Float64"  NumberOfComponents="3"  format="ascii">-1.058209022210403e-21 0.5 0  0.06249999952742262 0.5000000150409679 0  0.06249998020635166 0.5625000180375771 0  -2.068490109338379e-08 0.5625000023483425 0  0.1249999975545982 0.5000000286512069 0  0.1249999791125739 0.5625000302140625 0  0.1874999938465488 0.5000000409955125 0  0.1874999762460959 0.5625000406865962 0  0.2499999883974506 0.5000000523448738 0  0.2499999717962684 0.5625000494213857 0  0.3124999801684429 0.5000000596293148 0  0.3124999656505857 0.5625000552534816 0  0.3749999685972666 0.5000000616379059 0  0.3749999574813057 0.5625000574293787 0  0.4374999538906174 0.5000000592987985 0  0.4374999475384385 0.5625000561215305 0  0.4999999370334751 0.5000000531223959 0  0.4999999363416517 0.5625000515258849 0  0.5624999195953136 0.5000000439091027 0  0.5624999246122435 0.5625000445878208 0  0.6249999046608113 0.5000000353074994 0  0.6249999134461388 0.5625000369327352 0  0.6874998921545158 0.5000000272103945 0  0.6874999035057421 0.562500028726561 0  0.7499998806348083 0.5000000171454241 0  0.7499998947673563 0.5625000198576598 0  0.8124998719554841 0.500000008398367 0  0.812499887657917 0.5625000112807254 0  0.8749998659431167 0.5000000003955176 0  0.8749998823132141 0.5625000028452176 0  0.9374998613139971 0.4999999914979889 0  0.9374998785361843 0.5624999945793322 0  0.9999998600067556 0.4999999852746758 0  0.9999998766423325 0.5624999871323955 0  1.06249986014126 0.4999999779160684 0  1.062499876432881 0.5624999795174808 0  1.124999860960388 0.4999999689303217 0  1.12499987743542 0.562499971702377 0  1.187499864673247 0.4999999626132603 0  1.187499879954898 0.5624999647508967 0  1.24999987007541 0.4999999561306108 0  1.249999883908413 0.5624999581564292 0  1.312499876070123 0.4999999488319107 0  1.312499888866917 0.5624999520696117 0  1.374999884713606 0.4999999449463687 0  1.37499989506125 0.5624999476073149 0  1.437499894678826 0.4999999417754638 0  1.437499902325477 0.5624999444589147 0  1.499999905245181 0.499999939580308 0  1.499999910186539 0.5624999431118586 0  1.56249991789039 0.4999999425180364 0  1.562499918821161 0.5624999446476343 0  1.624999931289671 0.4999999476597825 0  1.624999928072267 0.562499948491083 0  1.68749994489332 0.499999954473132 0  1.687499937424393 0.5624999544147852 0  1.749999959216103 0.4999999647644526 0  1.749999946734641 0.5624999625007875 0  1.812499972653687 0.4999999753174798 0  1.81249995552476 0.5624999717919899 0  1.874999984593113 0.4999999858363829 0  1.874999963055013 0.5624999819049059 0  1.937499994387109 0.4999999953247956 0  1.937499968793785 0.5624999933001558 0  2 0.5 0  1.999999972897169 0.5625000111801337 0  0.06249996511272388 0.6250000209698621 0  -3.566771534235216e-08 0.6250000084691922 0  0.1249999647118995 0.6250000314272567 0  0.1874999629353093 0.6250000402277236 0  0.2499999598771759 0.625000047269732 0  0.3124999555780992 0.6250000519998861 0  0.3749999499908506 0.6250000539562567 0  0.4374999432305315 0.6250000530516659 0  0.4999999355770559 0.6250000494902829 0  0.5624999274188406 0.6250000438850396 0  0.6249999193197934 0.6250000370416525 0  0.6874999117989834 0.6250000294114089 0  0.7499999051048769 0.6250000212733122 0  0.8124998994615762 0.6250000129905099 0  0.8749998950449963 0.6250000047503037 0  0.9374998918897869 0.6249999966994119 0  0.9999998900832608 0.6249999889508122 0  1.062499889598214 0.6249999813505285 0  1.124999890243253 0.6249999739245892 0  1.187499891981038 0.6249999669547767 0  1.249999894758414 0.624999960544101 0  1.31249989838347 0.6249999549086754 0  1.374999902781359 0.6249999504491391 0  1.437499907837409 0.6249999474035615 0  1.499999913329886 0.6249999461130354 0  1.562499919187951 0.6249999469456805 0  1.624999925305883 0.624999949886997 0  1.687499931427822 0.6249999548069579 0  1.749999937325622 0.624999961535331 0  1.812499942663269 0.6249999697188305 0  1.87499994695938 0.6249999792193257 0  1.937499949830311 0.6249999905613645 0  1.999999951459431 0.6250000046163707 0  0.06249995424447329 0.6875000240408551 0  -4.62082189872089e-08 0.6875000147942029 0  0.1249999541442099 0.6875000324635336 0  0.1874999531648218 0.6875000396527199 0  0.2499999512559165 0.6875000453228778 0  0.3124999484372799 0.6875000491018173 0  0.3749999447276984 0.6875000506775514 0  0.4374999401981872 0.6875000499414234 0  0.4999999349986196 0.6875000470278108 0  0.5624999293633387 0.6875000423115927 0  0.624999923619533 0.6875000362798593 0  0.6874999181037292 0.6875000293444888 0  0.7499999130696537 0.687500021828509 0  0.8124999087162837 0.6875000140138486 0  0.8749999051950038 0.6875000061164134 0  0.9374999025968712 0.6874999982933689 0  0.9999999009813274 0.687499990638891 0  1.062499900340436 0.6874999831830044 0  1.124999900594172 0.6874999760001598 0  1.187499901669418 0.6874999692448064 0  1.249999903483392 0.687499963084356 0  1.312499905916374 0.6874999577299677 0  1.374999908860282 0.6874999534444918 0  1.437499912199788 0.6874999504822195 0  1.499999915804123 0.687499949096221 0  1.562499919577537 0.6874999494876938 0  1.624999923418253 0.6874999517084397 0  1.68749992717568 0.6874999556870666 0  1.749999930671311 0.6874999612659881 0  1.812499933677862 0.6874999682256917 0  1.874999935941724 0.6874999763971692 0  1.937499937333881 0.6874999856696919 0  1.999999937989856 0.6874999954541863 0  0.0624999468479218 0.7500000271186543 0  -5.338798443873016e-08 0.7500000206509685 0  0.1249999468539965 0.7500000335101206 0  0.1874999463669119 0.7500000391427394 0  0.2499999452736522 0.75000004359202 0  0.3124999435456506 0.7500000465180143 0  0.3749999411878414 0.7500000476719011 0  0.437499938237886 0.750000046950574 0  0.4999999347797471 0.750000044425374 0  0.5624999309549549 0.7500000403271097 0  0.6249999269611271 0.7500000349763353 0  0.6874999230170179 0.7500000286975474 0  0.7499999193209343 0.750000021781064 0  0.8124999160389338 0.750000014478454 0  0.8749999133016432 0.7500000069969718 0  0.9374999112006669 0.7499999994981915 0  0.9999999097886145 0.7499999921001855 0  1.062499909070092 0.7499999848944028 0  1.124999909005206 0.7499999779847482 0  1.187499909532455 0.7499999715076411 0  1.249999910574941 0.749999965625766 0  1.312499912040646 0.7499999605286551 0  1.374999913834489 0.7499999564264903 0  1.437499915861069 0.7499999535291184 0  1.499999918028403 0.7499999520257756 0  1.562499920257085 0.7499999520505053 0  1.624999922468432 0.7499999536448344 0  1.687499924568364 0.7499999567511105 0  1.749999926445968 0.7499999612225198 0  1.812499927977995 0.7499999668367272 0  1.874999929060706 0.7499999732987589 0  1.937499929676876 0.749999980147051 0  1.999999929919705 0.7499999864687046 0  0.06249994212630975 0.8125000300523696 0  -5.798853379475001e-08 0.8125000258361703 0  0.1249999421689357 0.8125000346094324 0  0.1874999419678269 0.8125000387914315 0  0.2499999414091561 0.8125000421213473 0  0.3124999404358896 0.8125000442593555 0  0.3749999390273378 0.8125000449774816 0  0.4374999371920088 0.8125000441702194 0  0.4999999349719657 0.8125000418626386 0  0.5624999324489989 0.8125000381959627 0  0.624999929742751 0.8125000333877487 0  0.6874999269946517 0.8125000276841563 0  0.7499999243465367 0.8125000213268458 0  0.812499921926273 0.8125000145366952 0  0.8749999198395514 0.8125000075059027 0  0.9374999181644273 0.8125000003955101 0  0.999999916947212 0.8124999933387015 0  1.062499916199061 0.8124999864527956 0  1.124999915898726 0.8124999798574079 0  1.187499916001766 0.8124999736867108 0  1.249999916447962 0.8124999680919777 0  1.312499917167028 0.8124999632395132 0  1.374999918085564 0.8124999593029913 0  1.437499919132413 0.8124999564491365 0  1.499999920243059 0.8124999548186026 0  1.562499921362036 0.8124999545019833 0  1.624999922438775 0.8124999555174465 0  1.687499923421504 0.8124999577984767 0  1.749999924256325 0.8124999611890853 0  1.812499924894441 0.8124999654368312 0  1.874999925311153 0.8124999701653375 0  1.937499925527418 0.8124999747986298 0  1.999999925600947 0.8124999784299818 0  0.06249993943391564 0.8750000327465729 0  -6.061957075443668e-08 0.8750000303051895 0  0.1249999394891209 0.875000035734577 0  0.1874999394494203 0.8750000386175061 0  0.2499999392242828 0.8750000409279171 0  0.3124999387499351 0.8750000423330926 0  0.3749999379888517 0.8750000426127962 0  0.437499936927762 0.8750000416542734 0  0.4999999355795345 0.8750000394489699 0  0.5624999339859815 0.8750000360793595 0  0.624999932216485 0.8750000316937669 0  0.6874999303598246 0.8750000264764598 0  0.749999928512125 0.8750000206225057 0  0.8124999267657332 0.875000014321107 0  0.8749999252007253 0.875000007746195 0  0.9374999238786648 0.8750000010527526 0  0.9999999228381281 0.8749999943784135 0  1.06249992209243 0.8749999878501408 0  1.124999921631059 0.8749999815934827 0  1.187499921424504 0.8749999757396487 0  1.249999921430088 0.8749999704278524 0  1.312499921597779 0.8749999658030253 0  1.374999921875962 0.8749999620088538 0  1.437499922216476 0.874999959176222 0  1.499999922578346 0.8749999574078313 0  1.562499922929372 0.8749999567604748 0  1.624999923244891 0.8749999572281679 0  1.687499923505605 0.87499995872883 0  1.749999923697603 0.8749999610930937 0  1.812499923816254 0.8749999640495557 0  1.874999923872655 0.8749999671978916 0  1.93749992389454 0.8749999699652267 0  1.999999923909118 0.8749999715524325 0  0.06249993826925924 0.9375000351540098 0  -6.175724212182485e-08 0.9375000340888182 0  0.1249999383292642 0.9375000368424359 0  0.1874999383781769 0.9375000385987627 0  0.2499999383528329 0.9375000399983198 0  0.3124999381953843 0.9375000407288916 0  0.3749999378620232 0.9375000405786359 0  0.4374999373261864 0.9375000394288453 0  0.4999999365810794 0.9375000372471068 0  0.5624999356415399 0.9375000340757886 0  0.6249999345433144 0.9375000300146168 0  0.6874999333385967 0.9375000
[...]
<PointData  Scalars="p"> 
<DataArray  type="Float64"  Name="p"  format="ascii">0.0000000000000000e+00  -5.5773713557224609e-05  -5.9250944511468999e-05  0.0000000000000000e+00  -9.5641636437918874e-05  -9.8080025868127230e-05  -1.2179478972469340e-04  -1.2270534078681202e-04  -1.3708657293955571e-04  -1.3678365627216562e-04  -1.4399491348650700e-04  -1.4287929254738367e-04  -1.4446856784228681e-04  -1.4287352807543151e-04  -1.3999652534289650e-04  -1.3817008498685001e-04  -1.3171716664015431e-04  -1.2982992617270323e-04  -1.2046354827051184e-04  -1.1864774602241445e-04  -1.0690222530133965e-04  -1.0524765528148041e-04  -9.1611713614555957e-05  -9.0147563007110756e-05  -7.4941631154631366e-05  -7.3716070441839113e-05  -5.7201470915659234e-05  -5.6248879713891300e-05  -3.8678997591524875e-05  -3.8019570419721843e-05  -1.9618735956727422e-05  -1.9271882726211329e-05  -2.5576060729255887e-07  -2.3839908822153053e-07  1.9149027773929928e-05  1.8835365392012137e-05  3.8339092189076163e-05  3.7699360904951377e-05  5.7057256717407104e-05  5.6100087601283623e-05  7.5017081068925651e-05  7.3762782448174370e-05  9.1905262371905013e-05  9.0384937625306221e-05  1.0737467558293221e-04  1.0562842189941905e-04  1.2100180567387340e-04  1.1909145481767230e-04  1.3227014597865295e-04  1.3028542727515911e-04  1.4054069349138485e-04  1.3860596559064380e-04  1.4497534018654746e-04  1.4327378185417732e-04  1.4447801182424519e-04  1.4326877371104648e-04  1.3761482257076941e-04  1.3724121418752885e-04  1.2248030699201531e-04  1.2335390338787707e-04  9.6604008335561528e-05  9.9019682052792996e-05  5.6953253570552469e-05  6.0300581628681024e-05  0.0000000000000000e+00  0.0000000000000000e+00  -6.5934842059875952e-05  0.0000000000000000e+00  -1.0408252832831142e-04  -1.2612330898010559e-04  -1.3769117898691468e-04  -1.4188128516253758e-04  -1.4060904446826531e-04  -1.3517066865343315e-04  -1.2649802499989883e-04  -1.1528472509957208e-04  -1.0207030096584883e-04  -8.7289407910691075e-05  -7.1280307601604529e-05  -5.4320029611460909e-05  -3.6656737368771974e-05  -1.8518663367178850e-05  -1.2564314372869183e-07  1.8298476018755443e-05  3.6524373861257543e-05  5.4315609689477301e-05  7.1420112961729967e-05  8.7563029569264302e-05  1.0243756389660378e-04  1.1568759162419831e-04  1.2688696809057902e-04  1.3551099837912482e-04  1.4088744955083462e-04  1.4212179603450520e-04  1.3796535103221310e-04  1.2653979026592567e-04  1.0472222265876858e-04  6.6653040974984080e-05  0.0000000000000000e+00  -7.3037462683923237e-05  0.0000000000000000e+00  -1.1160976706644946e-04  -1.3152331414702746e-04  -1.4048948494851317e-04  -1.4243065967725499e-04  -1.3949102561501521e-04  -1.3295245772556002e-04  -1.2365358903507694e-04  -1.1218636157640861e-04  -9.8998073951803790e-05  -8.4443863831151213e-05  -6.8810528238980877e-05  -5.2340017431546329e-05  -3.5249635839530605e-05  -1.7742545803925104e-05  -1.5887929431817466e-08  1.7732104294511462e-05  3.5298816832492399e-05  5.2474630939278985e-05  6.9038462461198566e-05  8.4752351441996291e-05  9.9354233257239043e-05  1.1254543797869846e-04  1.2397284744470485e-04  1.3320066405348393e-04  1.3965822305715374e-04  1.4254130612798360e-04  1.4061087320004390e-04  1.3175637853428832e-04  1.1203591036123910e-04  7.3563841453441051e-05  0.0000000000000000e+00  -7.9893577259576541e-05  0.0000000000000000e+00  -1.1961219154178491e-04  -1.3808037326283915e-04  -1.4479697429913718e-04  -1.4455574791355641e-04  -1.3984325641850555e-04  -1.3201934810122949e-04  -1.2188689917528106e-04  -1.0996464221741843e-04  -9.6621484273727614e-05  -8.2141801070086470e-05  -6.6756984871058604e-05  -5.0666292159835406e-05  -3.4051516306670929e-05  -1.7085267057818276e-05  6.3613898598559330e-08  1.7225800181828491e-05  3.4228729576403399e-05  5.0894582278535173e-05  6.7037711711254129e-05  8.2461615667233444e-05  9.6953304098654195e-05  1.1027329542975942e-04  1.2213822762731371e-04  1.3218918038332254e-04  1.3992734261873929e-04  1.4458135360642403e-04  1.4483015231454171e-04  1.3821753837698597e-04  1.1993428239633262e-04  8.0330823734379520e-05  0.0000000000000000e+00  -8.6363428310311886e-05  0.0000000000000000e+00  -1.2759297896488607e-04  -1.4515480065516805e-04  -1.5004096211096747e-04  -1.4784498637111036e-04  -1.4142502528378403e-04  -1.3227252259199429e-04  -1.2120150482066927e-04  -1.0868972635721641e-04  -9.5047950922735330e-05  -8.0501854662359948e-05  -6.5231237161481832e-05  -4.9391964800507771e-05  -3.3128715167099822e-05  -1.6581217717313107e-05  1.1244192516306394e-07  1.6813489961817280e-05  3.3380881760396316e-05  4.9670153234897214e-05  6.5532528757537980e-05  8.0813117451333869e-05  9.5347002158988273e-05  1.0894920052980361e-04  1.2139557450419744e-04  1.3238483575047163e-04  1.4145756924644195e-04  1.4782797036329119e-04  1.5003891215695217e-04  1.4525849277162816e-04  1.2787731507287191e-04  8.6763325915147554e-05  0.0000000000000000e+00  -9.2412569451853966e-05  0.0000000000000000e+00  -1.3528540445449582e-04  -1.5229602191839246e-04  -1.5570850065434061e-04  -1.5181786956395136e-04  -1.4383573725036691e-04  -1.3340332963326378e-04  -1.2137340630873425e-04  -1.0820746004553594e-04  -9.4176636393821132e-05  -7.9460386919520662e-05  -6.4193855179610815e-05  -4.8492647418125101e-05  -3.2465524255869668e-05  -1.6219547013914374e-05  1.3807864076999246e-07  1.6499058308328729e-05  3.2753494636414391e-05  4.8789815669478042e-05  6.4494706819352799e-05  7.9752739439517962e-05  9.4442418544857777e-05  1.0842579569576338e-04  1.2152575052068015e-04  1.3348001448609942e-04  1.4384371772273140e-04  1.5178897778635788e-04  1.5570400836366382e-04  1.5239883622414300e-04  1.3556132419968874e-04  9.2795087681002251e-05  0.0000000000000000e+00  -9.8001123693480249e-05  0.0000000000000000e+00  -1.4250029024641013e-04  -1.5916979322620566e-04  -1.6138233861394009e-04  -1.5604055339305735e-04  -1.4667161097050254e-04  -1.3506221079101431e-04  -1.2211466242111220e-04  -1.0828903626805673e-04  -9.3830583105990970e-05  -7.8883376977480235e-05  -6.3545463925795690e-05  -4.7897027963629587e-05  -3.2014000046035281e-05  -1.5972821194617659e-05  1.4855828167424250e-07  1.6270719778815995e-05  3.2313167170739979e-05  4.8194940511918468e-05  6.3835494550405823e-05  7.9154478834837390e-05  9.4068335020861958e-05  1.0847773664706905e-04  1.2224144106797038e-04  1.3512246541411103e-04  1.4667526177992193e-04  1.5601892504994228e-04  1.6139181734462483e-04  1.5928399212097291e-04  1.4277503925708379e-04  9.8368925537336717e-05  0.0000000000000000e+00  -1.0305776970178839e-04  0.0000000000000000e+00  -1.4906270841788668e-04  -1.6550129364022886e-04  -1.6672065134275125e-04  -1.6014566739122653e-04  -1.4957466654114669e-04  -1.3692330446258728e-04  -1.2314283690843095e-04  -1.0869847565929298e-04  -9.3818387236539033e-05  -7.8619699014021376e-05  -6.3170322976862939e-05  -4.7520410777724823e-05  -3.1717166913939540e-05  -1.5809721628950667e-05  1.5035985027651609e-07  1.6109748973157993e-05  3.2014370446187657e-05  4.7810661662161934e-05  6.3446724322512154e-05  7.8872686259104312e-05  9.4036350683592197e-05  1.0886982305833631e-04  1.2325887624382978e-04  1.3698252925603357e-04  1.4958810931975936e-04  1.6014227498023980e-04  1.6675020346638362e-04  1.6562755845114793e-04  1.4933195243757951e-04  1.0340446830102106e-04  0.0000000000000000e+00  -1.0747906480109020e-04  0.0000000000000000e+00  -1.5478964818128695e-04  -1.7104293683442736e-04  -1.7143252467586803e-04  -1.6382419675551216e-04  -1.5224064930385652e-04  -1.3870405213928911e-04  -1.2420705059878632e-04  -1.0922098426827244e-04  -9.3961830412162716e-05  -7.8525913389116292e-05  -6.2957043495321345e-05  -4.7280681023373011e-05  -3.1519948698768830e-05  -1.5700737106340702e-05  1.4799577113269281e-07  1.5995321977902262e-05  3.1809820503669734e-05  4.7561182347633372e-05  6.3221740539527428e-05  7.8766610882996706e-05  9.4169414975972245e-05  1.0938665070462523e-04  1.2432499711286142e-04  1.3877444117362545e-04  1.5227373382408158e-04  1.6384501370475269e-04  1.7148300307522906e-04  1.7117623190865010e-04  1.5504342439617852e-04  1.0779353239082219e-04  0.0000000000000000e+00  -1.1113691985480063e-04  0.0000000000000000e+00  -1.5948668179648084e-04  -1.7556077893473166e-04  -1.7526217540655704e-04  -1.6681392547258591e-04  -1.5441482421812430e-04  -1.4016770733618229e-04  -1.2509558360660218e-04  -1.0967341627887428e-04  -9.4107294845974932e-05  -7.8477187080020449e-05  -6.2807981352565965e-05  -4.7105628179822772e-05  -3.1374055529065607e-05  -1.5620510392888597e-05  1.4427603220290041e-07  1.5907463716945890e-05  3.1655883161262899e-05  4.7377917496059586e-05  6.3065133779992896e-05  7.8712535321249827e-05  9.4313554923946085e-05  1.0984401382802027e-04  1.2522614417171860e-04  1.4025886213304436e-04  1.5447477554449073e-04  1.6686228022937284e-04  1.7533188791214805e-04  1.7569373773934275e-04  1.5971244789024313e-04  1.1140567680037624e-04  0.0000000000000000e+00  -1.1388910206478544e-04  0.0000000000000000e+00  -1.6295399188643708e-04  -1.7883322488908797e-04  -1.7798264788105317e-04  -1.6889283654150392e-04  -1.5588722454633542e-04  -1.4112202075806682e-04  -1.2563736754237032e-04  -1.0990782480965702e-04  -9.4130307100705077e-05  -7.8371952938784833e-05  -6.2643384804966798e-05  -4.6936137994402735e-05  -3.1240019043128815e-05  -1.5548562776526695e-05  1.4092981027860055e-07  1.5828966807037123e-05  3.1515841917131788e-05  4.7203682462828432e-05  6.2898188311218025e-05  7.8608802638649111e-05  9.4343634561672103e-05  1.1009235132334740e-04  1.2578963154388269e-04  1.4124162372578818e-04  1.5597945906367698e-04  1.6897058606081682e-04  1.7806881034059189e-04  1.7895754047965356e-04  1.6313834593638258e-04  1.1409762339380221e-04  0.0000000000000000e+00  -1.1559023815763491e-04  0.0000000000000000e+00  -1.6499663987911060e-04  -1.8065584392105063e-04  -1.7939660014971455e-04  -1.6987709869814780e-04  -1.5649082469435609e-04  -1.4141787593282494e-04  -1.2570206351259283e-04  -1.0981233865439897e-04  -9.3937079418344505e-05  -7.8133618997658962e-05  -6.2403001543228048e-05  -4.6727467402323627e-05  -3.1087979734434080e-05  -1.5469527840077623e-05  1.3895948100080097e-07  1.5746332332467103e-05  3.1361318822951194e-05  4.6994634387765475e-05  6.2660780252764566e-05  7.8378265471482783e-05  9.4164399882039430e-05  1.1001819641521759e-04  1.2588285329877207e-04  1.4157197909293434e-04  1.5661911320319103e-04  1.6998527661594493e-04  1.7949600260085542e-04  1.8076334369859182e-04  1.6512629856583815e-04  1.1572403938052013e-04  0.0000000000000000e+00  -1.1610224676606546e-04  0.0000000000000000e+00  -1.6543531334410231e-04  -1.8084935823224795e-04  -1.7934014421667007e-04  -1.6962271029674115e-04  -1.5610099250554363e-04  -1.4094877903917961e-04  -1.2519892734994068e-04  -1.0931067027656530e-04  -9.3464038958029184e-05  -7.7710428925797210e-05  -6.2046015469606101e-05  -4.6449251559782142e-05  -3.0897684564241298e-05  -1.5373111135917611e-05  1.3871771788792536e-07  1.5649884453670884e-05  3.1172400612109931e-05  4.6720312907322537e-05  6.2311488719001798e-05  7.7967895650207680e-05  9.3710626499843942e-05  1.0954287726243713e-04  1.2541313768754314e-04  1.4114108582641315e-04  1.5626801591007937e-04  1.6976146974446486e-04  1.7944990065450007e-04  1.8093253801841288e-04  1.6549804650809971e-04  1.1614760704781052e-04  0.0000000000000000e+00  -1.1530307135972999e-04  0.0000000000000000e+00  -1.6411657150242770e-04  -1.7926779618919963e-04  -1.7768838627630352e-04  -1.6802771843934139e-04  -1.5463610719959752e-04  -1.3964908469643635e-04  -1.2407507853160572e-04  -1.0835922913456401e-04  -9.2675431867650138e-05  -7.7072948305618937e-05  -6.1548935711141072e-05  -4.6083681612723070e-05  -3.0657077847898465e-05  -1.5253121785000710e-05  1.4041583325612649e-07  1.5533772386006033e-05  3.0937164730924680e-05  4.6362726457818577e-05  6.1826199732397112e-05  7.7347307540054258e-05  9.2945002206245439e-05  1.0862134590155285e-04  1.2432547792597438e-04  1.3988200025006180e-04  1.5484292415643576e-04  1.6819668809441536e-04  1.7780535707850981e-04  1.7931975952808764e-04  1.6410105774707033e-04  1.1524728099086282e-04  0.0000000000000000e+00  -1.1309297277033928e-04  0.0000000000000000e+00  -1.6092049808797193e-04  -1.7580501428201246e-04  -1.7435962175717579e-04  -1.6503391370121018e-04  -1.5205636480396812e-04  -1.3749153716773762e-04  -1.2231057135887884e-04  -1.0694250632247493e-04  -9.1557595012716918e-05  -7.6209060977242788e-05  -6.0900856706823690e-05  -4.5621653738795149e-05  -3.0359373564817072e-05  -1.5105636546202140e-05  1.4478140896784391e-07  1.5395463510213319e-05  3.0650008119001524e-05  4.5913612590830072e-05  6.1194523071516924e-05  7.6504312193972468e-05  9.1853684390800897e-05  1.0723707638272366e-04  1.2259916908831809e-04  1.3776591348782169e-04  1.5230279462728963e-04  1.6523130896907179e-04  1.7447975444344810e-04  1.7581858824712782e-04  1.6081588882557114e-04  1.1292432456717037e-04  0.0000000000000000e+00  -1.0939716153288492e-04  0.0000000000000000e+00  -1.5576350526292553e-04  -1.7039639820693893e-04  -1.6931450520339951e-04  -1.6062335894987941e-04  -1.4835742307298724e-04  -1.3447831010545981e-04  -1.1990861992761370e-04  -1.0506134958519355e-04  -9.0108447280426616e-05  -7.5113449559970072e-05  -6.0094791230942193e-05  -4.5055726800573475e-05  -2.9998227522493690e-05  -1.4926486695096728e-05  1.5315821609634803e-07  1.5233396274999420e-05  3.0306954777075202e-05  4.5367581430322956e-05  6.0410930490545508e-05  7.5434742975116580e-05  9.0434740162061465e-05  1.0539095151228840e-04  1.2023633190188088e-04  1.3479362464446345e-04  1.4864144790594563e-04  1.6084540927687669e-04  1.6943223100046690e-04  1.7036353772528493e-04  1.5555912046167345e-04  1.0910484284868895e-04  0.0000000000000000e+00  -1.0416280243302519e-04  0.0000000000000000e+00  -1.4859325890465564e-04  -1.6301087198897655e-04  -1.6254423976089287e-04  -1.5480178486830306e-04  -1.4355007580235757e-04  -1.3061728158907039e-04  -1.1687009747737655e-04  -1.0270829885470522e-04  -8.8312952702539638e-05  -7.3766599049506491e-05  -5.9109389173992219e-05  -4.4366191502260991e-05  -2.9558084361918768e-05  -1.4706300208939037e-05  1.6770663352048081e-07  1.5042437174956927e-05  2.9896485497164951e-05  4.4708493577760700e-05  5.9457270239418954e-05  7.4121254417497531e-05  8.8674889124157734e-05  1.0307576824876754e-04  1.1723729833970471e-04  1.3097142738996588e-04  1.4386707268032023e-04  1.5504192573546297e-04  1.6265104147827349e-04  1.6292105505523075e-04  1.4827692288779822e-04  1.0373555411090078e-04  0.0000000000000000e+00  -9.7346946312197751e-05  0.0000000000000000e+00  -1.3936918098804963e-04  -1.5362405676235029e-04  -1.5403578137340271e-04  -1.4755592351048334e-04  -1.3761096490078479e-04  -1.2586973403141716e-04  -1.1314007996721643e-04  -9.9815812773511247e-05  -8.6096601649308943e-05  -7.2093096766605067e-05  -5.7875194902513254e-05  -4.3494756058409199e-05  -2.8996470710081703e-05  -1.4421367063097363e-05  1.9175600134512915e-07  1.4805491263657814e-05  2.9382499470093175e-05  4.3884186098150726e-05  5.8269428637745802e-05  7.2493326758760903e-05  8.6502942468713457e-05  1.0022620387479980e-04  1.1354754512383606e-04  1.2625890127010173e-04  1.3795314046335209e-04  1.4780281703560667e-04  1.5411748452744733e-04  1.5346120614322499e-04  1.3892393361574737e-04  9.6770553433252375e-05  0.0000000000000000e+00  -8.8888068033093163e-05  0.0000000000000000e+00  -1.2801413473531852e-04  -1.4215124864863293e-04  -1.4368669949849102e-04  -1.3875409735098634e-04  -1.3037392366734300e-04  -1.2003821149284496e-04  -1.0849918973169722e-04  -9.6154713823349444e-05  -8.3233956691484138e-05  -6.9884217568552418e-05  -5.6210850227717860e-05  -4.2296766599459283e-05  -2.8211867627749548e-05  -1.4017854512120253e-05  2.2931250393594764e-07  1.4476676748381807e-05  2.8671388420353116e-05  4.2757546978318979e-05  5.6673427877833443e-05  7.0348534518757053e-05  8.3699022586458853e-05  9.6616799379753646e-05  1.0894911397857365e-04  1.2045770477924962e-04  1.3072951495820518e-04  1.3898974634241146e-04  1.4372082150925126e-04  1.4189024941749375e-04  1.2741469949207427e-04  8.8142242580119577e-05  0.0000000000000000e+00  -7.8645596662413884e-05  0.0000000000000000e+00  -1.1430528510882015e-04  -1.2829332224974978e-04  -1.3111303199408702e-04  -1.2792776977132867e-04  -1.2130014384424360e-04  -1.1253790491261986e-04  -1.0234574641405098e-04  -9.1135824217395859e-05  -7.9174339956591697e-05  -6.6649736845533826e-05  -5.3704488368847159e-05  -4.0451679584600707e-05  -2.6984753823608943e-05  -1.3383122211751522e-05  2.8316648109803587e-07  1.3949004778259001e-05  2.7549271994746652e-05  4.1013894056106670e-05  5.4262976656473695e-05  6.7202337464496056e-05  7.9717254323331975e-05  9.1662123499545528e-05  1.0284252180845738e-04  1.1298238223385496e-04  1.2165359888567165e-04  1.2812722665588131e-04  1.3106734766255763e-04  1.2789818662575030e-04  1.1351618260818624e-04  7.7701652400453166e-05  0.0000000000000000e+00  -6.6272575928610526e-05  0.0000000000000000e+00  -9.7632785292736020e-05  -1.1119474177563063e-04  -1.1523390135704336e-04  -1.1381583087684029e-04  -1.0901252504827613e-04  -1.0194607818863592e-04  -9.3277288330673690e-05  -8.3433367222628485e-05  -7.2714498955527444e-05  -6.1344100709814078e-05  -4.9494116278417041e-05  -3.7299943454699832e-05  -2.4870339876890809e-05  -1.2294949577988416e-05  3.4948083399527481e-07  1.2992663105735953e-05  2.5564242450702260e-05  3.7987025090883758e-05  5.0170499531122219e-05  6.2004277506472633e-05  7.3350677327772856e-05  8.4033650607428433e-05  9.3822949269737791e-05  1.0240820113377879e-04  1.0934583658142893e-04  1.1395048648789935e-04  1.1507195852820688e-04  1.1062627160544805e-04  9.6616768529402618e-05  6.5099248973968796e-05  0.0000000000000000e+00  -5.0926478652984781e-05  0.0000000000000000e+00  -7.6444968505912163e-05  -8.8680003470663262e-05  -9.3380823041964826e-05  -9.3425363819045861e-05  -9.0367260696218096e-05  -8.5123556638324252e-05  -7.8287190307026530e-05  -7.0272350947795422e-05  -6.1384331984034264e-05  -5.1854768534688399e-05  -4.1861455819739692e-05  -3.1541824196368200e-05  -2.1003266970105818e-05  -1.0331325899586599e-05  4.0280081738735153e-07  1.1135074445839202e-05  2.1801205580063891e-05  3.2329233150022355e-05  4.2632015807201333e-05  5.2599835670067395e-05  6.2091828468447666e-05  7.0925092721402878e-05  7.8860459648226016e-05  8.5581908872736789e-05  9.0659141187627413e-05  9.3476153375818011e-05  9.3090325297440560e-05  8.7938586791157654e-05  7.5216038433656857e-05  4.9535402739005237e-05  0.0000000000000000e+00  -3.0559912307846235e-05  0.0000000000000000e+00  -4.6945872315895670e-05  -5.5566107248337147e-05  -5.9432033300638407e-05  -6.0140385442178849e-05  -5.8634879012815289e-05  -5.5526556694381758e-05  -5.1240200506736611e-05  -4.6085979055146502e-05  -4.0296775980156177e-05  -3.4049183619814570e-05  -2.7477042614138958e-05  -2.0681555785604385e-05  -1.3739398077880035e-05  -6.7096089013808566e-06  3.6031698384754180e-07  7.4284890506333011e-06  1.4452748092487361e-05  2.1384664982190966e-05  2.8163523321322950e-05  3.4710050386338973e-05  4.0919494663265731e-05  4.6652975136572510e-05  5.1726925044936361e-05  5.5899130178446325e-05  5.8846067029029868e-05  6.0124703503727552e-05  5.9104102873715116e-05  5.4832380896650097e-05  4.5768012338847459e-05  2.9208076005063180e-05  0.0000000000000000e+00  0.0000000000000000e+00  0.0000000000000000e+00  0.0000000000000000e+00  0.0000000000000000e+00  0.0000000000000000e+00  0.0000000000000000e+00  0.0000000000000000e+00  0.0000000000000000e+00  0.0000000000000000e+00  0.0000000000000000e+00  0.0000000000000000e+00  0.0000000000000000e+00  0.0000000000000000e+00  0.0000000000000000e+00  0.0000000000000000e+00  0.0000000000000000e+00  0.0000000000000000e+00  0.0000000000000000e+00  0.0000000000000000e+00  0.0000000000000000e+00  0.0000000000000000e+00  0.0000000000000000e+00  0.0000000000000000e+0