<?xml version="1.0"?>
<VTKFile type="UnstructuredGrid"  version="0.1"  >
<UnstructuredGrid>
<Piece  NumberOfPoints="759" NumberOfCells="1408">
<Points>
<DataArray  type="Float64"  NumberOfComponents="3"  format="ascii">0 0.46875 0  0.03125 0.46875 0  0.03125 0.515625 0  0 0.515625 0  0.0625 0.46875 0  0.0625 0.515625 0  0.09375 0.46875 0  0.09375 0.515625 0  0.125 0.46875 0  0.125 0.515625 0  0.15625 0.46875 0  0.15625 0.515625 0  0.1875 0.46875 0  0.1875 0.515625 0  0.21875 0.46875 0  0.21875 0.515625 0  0.25 0.46875 0  0.25 0.515625 0  0.28125 0.46875 0  0.28125 0.515625 0  0.3125 0.46875 0  0.3125 0.515625 0  0.34375 0.46875 0  0.34375 0.515625 0  0.375 0.46875 0  0.375 0.515625 0  0.40625 0.46875 0  0.40625 0.515625 0  0.4375 0.46875 0  0.4375 0.515625 0  0.46875 0.46875 0  0.46875 0.515625 0  0.5 0.46875 0  0.5 0.515625 0  0.53125 0.46875 0  0.53125 0.515625 0  0.5625 0.46875 0  0.5625 0.515625 0  0.59375 0.46875 0  0.59375 0.515625 0  0.625 0.46875 0  0.625 0.515625 0  0.65625 0.46875 0  0.65625 0.515625 0  0.6875 0.46875 0  0.6875 0.515625 0  0.71875 0.46875 0  0.71875 0.515625 0  0.75 0.46875 0  0.75 0.515625 0  0.78125 0.46875 0  0.78125 0.515625 0  0.8125 0.46875 0  0.8125 0.515625 0  0.84375 0.46875 0  0.84375 0.515625 0  0.875 0.46875 0  0.875 0.515625 0  0.90625 0.46875 0  0.90625 0.515625 0  0.9375 0.46875 0  0.9375 0.515625 0  0.96875 0.46875 0  0.96875 0.515625 0  1 0.46875 0  1 0.515625 0  0.03125 0.5625 0  0 0.5625 0  0.0625 0.5625 0  0.09375 0.5625 0  0.125 0.5625 0  0.15625 0.5625 0  0.1875 0.5625 0  0.21875 0.5625 0  0.25 0.5625 0  0.28125 0.5625 0  0.3125 0.5625 0  0.34375 0.5625 0  0.375 0.5625 0  0.40625 0.5625 0  0.4375 0.5625 0  0.46875 0.5625 0  0.5 0.5625 0  0.53125 0.5625 0  0.5625 0.5625 0  0.59375 0.5625 0  0.625 0.5625 0  0.65625 0.5625 0  0.6875 0.5625 0  0.71875 0.5625 0  0.75 0.5625 0  0.78125 0.5625 0  0.8125 0.5625 0  0.84375 0.5625 0  0.875 0.5625 0  0.90625 0.5625 0  0.9375 0.5625 0  0.96875 0.5625 0  1 0.5625 0  0.03125 0.609375 0  0 0.609375 0  0.0625 0.609375 0  0.09375 0.609375 0  0.125 0.609375 0  0.15625 0.609375 0  0.1875 0.609375 0  0.21875 0.609375 0  0.25 0.609375 0  0.28125 0.609375 0  0.3125 0.609375 0  0.34375 0.609375 0  0.375 0.609375 0  0.40625 0.609375 0  0.4375 0.609375 0  0.46875 0.609375 0  0.5 0.609375 0  0.53125 0.609375 0  0.5625 0.609375 0  0.59375 0.609375 0  0.625 0.609375 0  0.65625 0.609375 0  0.6875 0.609375 0  0.71875 0.609375 0  0.75 0.609375 0  0.78125 0.609375 0  0.8125 0.609375 0  0.84375 0.609375 0  0.875 0.609375 0  0.90625 0.609375 0  0.9375 0.609375 0  0.96875 0.609375 0  1 0.609375 0  0.03125 0.65625 0  0 0.65625 0  0.0625 0.65625 0  0.09375 0.65625 0  0.125 0.65625 0  0.15625 0.65625 0  0.1875 0.65625 0  0.21875 0.65625 0  0.25 0.65625 0  0.28125 0.65625 0  0.3125 0.65625 0  0.34375 0.65625 0  0.375 0.65625 0  0.40625 0.65625 0  0.4375 0.65625 0  0.46875 0.65625 0  0.5 0.65625 0  0.53125 0.65625 0  0.5625 0.65625 0  0.59375 0.65625 0  0.625 0.65625 0  0.65625 0.65625 0  0.6875 0.65625 0  0.71875 0.65625 0  0.75 0.65625 0  0.78125 0.65625 0  0.8125 0.65625 0  0.84375 0.65625 0  0.875 0.65625 0  0.90625 0.65625 0  0.9375 0.65625 0  0.96875 0.65625 0  1 0.65625 0  0.03125 0.703125 0  0 0.703125 0  0.0625 0.703125 0  0.09375 0.703125 0  0.125 0.703125 0  0.15625 0.703125 0  0.1875 0.703125 0  0.21875 0.703125 0  0.25 0.703125 0  0.28125 0.703125 0  0.3125 0.703125 0  0.34375 0.703125 0  0.375 0.703125 0  0.40625 0.703125 0  0.4375 0.703125 0  0.46875 0.703125 0  0.5 0.703125 0  0.53125 0.703125 0  0.5625 0.703125 0  0.59375 0.703125 0  0.625 0.703125 0  0.65625 0.703125 0  0.6875 0.703125 0  0.71875 0.703125 0  0.75 0.703125 0  0.78125 0.703125 0  0.8125 0.703125 0  0.84375 0.703125 0  0.875 0.703125 0  0.90625 0.703125 0  0.9375 0.703125 0  0.96875 0.703125 0  1 0.703125 0  0.03125 0.75 0  0 0.75 0  0.0625 0.75 0  0.09375 0.75 0  0.125 0.75 0  0.15625 0.75 0  0.1875 0.75 0  0.21875 0.75 0  0.25 0.75 0  0.28125 0.75 0  0.3125 0.75 0  0.34375 0.75 0  0.375 0.75 0  0.40625 0.75 0  0.4375 0.75 0  0.46875 0.75 0  0.5 0.75 0  0.53125 0.75 0  0.5625 0.75 0  0.59375 0.75 0  0.625 0.75 0  0.65625 0.75 0  0.6875 0.75 0  0.71875 0.75 0  0.75 0.75 0  0.78125 0.75 0  0.8125 0.75 0  0.84375 0.75 0  0.875 0.75 0  0.90625 0.75 0  0.9375 0.75 0  0.96875 0.75 0  1 0.75 0  0.03125 0.796875 0  0 0.796875 0  0.0625 0.796875 0  0.09375 0.796875 0  0.125 0.796875 0  0.15625 0.796875 0  0.1875 0.796875 0  0.21875 0.796875 0  0.25 0.796875 0  0.28125 0.796875 0  0.3125 0.796875 0  0.34375 0.796875 0  0.375 0.796875 0  0.40625 0.796875 0  0.4375 0.796875 0  0.46875 0.796875 0  0.5 0.796875 0  0.53125 0.796875 0  0.5625 0.796875 0  0.59375 0.796875 0  0.625 0.796875 0  0.65625 0.796875 0  0.6875 0.796875 0  0.71875 0.796875 0  0.75 0.796875 0  0.78125 0.796875 0  0.8125 0.796875 0  0.84375 0.796875 0  0.875 0.796875 0  0.90625 0.796875 0  0.9375 0.796875 0  0.96875 0.796875 0  1 0.796875 0  0.03125 0.84375 0  0 0.84375 0  0.0625 0.84375 0  0.09375 0.84375 0  0.125 0.84375 0  0.15625 0.84375 0  0.1875 0.84375 0  0.21875 0.84375 0  0.25 0.84375 0  0.28125 0.84375 0  0.3125 0.84375 0  0.34375 0.84375 0  0.375 0.84375 0  0.40625 0.84375 0  0.4375 0.84375 0  0.46875 0.84375 0  0.5 0.84375 0  0.53125 0.84375 0  0.5625 0.84375 0  0.59375 0.84375 0  0.625 0.84375 0  0.65625 0.84375 0  0.6875 0.84375 0  0.71875 0.84375 0  0.75 0.84375 0  0.78125 0.84375 0  0.8125 0.84375 0  0.84375 0.84375 0  0.875 0.84375 0  0.90625 0.84375 0  0.9375 0.84375 0  0.96875 0.84375 0  1 0.84375 0  0.03125 0.890625 0  0 0.890625 0  0.0625 0.890625 0  0.09375 0.890625 0  0.125 0.890625 0  0.15625 0.890625 0  0.1875 0.890625 0  0.21875 0.890625 0  0.25 0.890625 0  0.28125 0.890625 0  0.3125 0.890625 0  0.34375 0.890625 0  0.375 0.890625 0  0.40625 0.890625 0  0.4375 0.890625 0  0.46875 0.890625 0  0.5 0.890625 0  0.53125 0.890625 0  0.5625 0.890625 0  0.59375 0.890625 0  0.625 0.890625 0  0.65625 0.890625 0  0.6875 0.890625 0  0.71875 0.890625 0  0.75 0.890625 0  0.78125 0.890625 0  0.8125 0.890625 0  0.84375 0.890625 0  0.875 0.890625 0  0.90625 0.890625 0  0.9375 0.890625 0  0.96875 0.890625 0  1 0.890625 0  0.03125 0.9375 0  0 0.9375 0  0.0625 0.9375 0  0.09375 0.9375 0  0.125 0.9375 0  0.15625 0.9375 0  0.1875 0.9375 0  0.21875 0.9375 0  0.25 0.9375 0  0.28125 0.9375 0  0.3125 0.9375 0  0.34375 0.9375 0  0.375 0.9375 0  0.40625 0.9375 0  0.4375 0.9375 0  0.46875 0.9375 0  0.5 0.9375 0  0.53125 0.9375 0  0.5625 0.9375 0  0.59375 0.9375 0  0.625 0.9375 0  0.65625 0.9375 0  0.6875 0.9375 0  0.71875 0.9375 0  0.75 0.9375 0  0.78125 0.9375 0  0.8125 0.9375 0  0.84375 0.9375 0  0.875 0.9375 0  0.90625 0.9375 0  0.9375 0.9375 0  0.96875 0.9375 0  1 0.9375 0  0.03125 0.984375 0  0 0.984375 0  0.0625 0.984375 0  0.09375 0.984375 0  0.125 0.984375 0  0.15625 0.984375 0  0.1875 0.984375 0  0.21875 0.984375 0  0.25 0.984375 0  0.28125 0.984375 0  0.3125 0.984375 0  0.34375 0.984375 0  0.375 0.984375 0  0.40625 0.984375 0  0.4375 0.984375 0  0.46875 0.984375 0  0.5 0.984375 0  0.53125 0.984375 0  0.5625 0.984375 0  0.59375 0.984375 0  0.625 0.984375 0  0.65625 0.984375 0  0.6875 0.984375 0  0.71875 0.984375 0  0.75 0.984375 0  0.78125 0.984375 0  0.8125 0.984375 0  0.84375 0.984375 0  0.875 0.984375 0  0.90625 0.984375 0  0.9375 0.984375 0  0.96875 0.984375 0  1 0.984375 0  0.03125 1.03125 0  0 1.03125 0  0.0625 1.03125 0  0.09375 1.03125 0  0.125 1.03125 0  0.15625 1.03125 0  0.1875 1.03125 0  0.21875 1.03125 0  0.25 1.03125 0  0.28125 1.03125 0  0.3125 1.03125 0  0.34375 1.03125 0  0.375 1.03125 0  0.40625 1.03125 0  0.4375 1.03125 0  0.46875 1.03125 0  0.5 1.03125 0  0.53125 1.03125 0  0.5625 1.03125 0  0.59375 1.03125 0  0.625 1.03125 0  0.65625 1.03125 0  0.6875 1.03125 0  0.71875 1.03125 0  0.75 1.03125 0  0.78125 1.03125 0  0.8125 1.03125 0  0.84375 1.03125 0  0.875 1.03125 0  0.90625 1.03125 0  0.9375 1.03125 0  0.96875 1.03125 0  1 1.03125 0  0.03125 1.078125 0  0 1.078125 0  0.0625 1.078125 0  0.09375 1.078125 0  0.125 1.078125 0  0.15625 1.078125 0  0.1875 1.078125 0  0.21875 1.078125 0  0.25 1.078125 0  0.28125 1.078125 0  0.3125 1.078125 0  0.34375 1.078125 0  0.375 1.078125 0  0.40625 1.078125 0  0.4375 1.078125 0  0.46875 1.078125 0  0.5 1.078125 0  0.53125 1.078125 0  0.5625 1.078125 0  0.59375 1.078125 0  0.625 1.078125 0  0.65625 1.078125 0  0.6875 1.078125 0  0.71875 1.078125 0  0.75 1.078125 0  0.78125 1.078125 0  0.8125 1.078125 0  0.84375 1.078125 0  0.875 1.078125 0  0.90625 1.078125 0  0.9375 1.078125 0  0.96875 1.078125 0  1 1.078125 0  0.03125 1.125 0  0 1.125 0  0.0625 1.125 0  0.09375 1.125 0  0.125 1.125 0  0.15625 1.125 0  0.1875 1.125 0  0.21875 1.125 0  0.25 1.125 0  0.28125 1.125 0  0.3125 1.125 0  0.34375 1.125 0  0.375 1.125 0  0.40625 1.125 0  0.4375 1.125 0  0.46875 1.125 0  0.5 1.125 0  0.53125 1.125 0  0.5625 1.125 0  0.59375 1.125 0  0.625 1.125 0  0.65625 1.125 0  0.6875 1.125 0  0.71875 1.125 0  0.75 1.125 0  0.78125 1.125 0  0.8125 1.125 0  0.84375 1.125 0  0.875 1.125 0  0.90625 1.125 0  0.9375 1.125 0  0.96875 1.125 0  1 1.125 0  0.03125 1.171875 0  0 1.171875 0  0.0625 1.171875 0  0.09375 1.171875 0  0.125 1.171875 0  0.15625 1.171875 0  0.1875 1.171875 0  0.21875 1.171875 0  0.25 1.171875 0  0.28125 1.171875 0  0.3125 1.171875 0  0.34375 1.171875 0  0.375 1.171875 0  0.40625 1.171875 0  0.4375 1.171875 0  0.46875 1.171875 0  0.5 1.171875 0  0.53125 1.171875 0  0.5625 1.171875 0  0.59375 1.171875 0  0.625 1.171875 0  0.65625 1.171875 0  0.6875 1.171875 0  0.71875 1.171875 0  0.75 1.171875 0  0.78125 1.171875 0  0.8125 1.171875 0  0.84375 1.171875 0  0.875 1.171875 0  0.90625 1.171875 0  0.9375 1.171875 0  0.96875 1.171875 0  1 1.171875 0  0.03125 1.21875 0  0 1.21875 0  0.0625 1.21875 0  0.09375 1.21875 0  0.125 1.21875 0  0.15625 1.21875 0  0.1875 1.21875 0  0.21875 1.21875 0  0.25 1.21875 0  0.28125 1.21875 0  0.3125 1.21875 0  0.34375 1.21875 0  0.375 1.21875 0  0.40625 1.21875 0  0.4375 1.21875 0  0.46875 1.21875 0  0.5 1.21875 0  0.53125 1.21875 0  0.5
[...]
<PointData  Scalars="p"> 
<DataArray  type="Float64"  Name="p"  format="ascii">0.0000000000000000e+00  -9.4262703610669372e-03  -9.8744988923921383e-03  0.0000000000000000e+00  -1.6254148223634898e-02  -1.7002839022677935e-02  -2.0956010414320488e-02  -2.1912229387688466e-02  -2.3932014086727519e-02  -2.5027066541717661e-02  -2.5512344494632033e-02  -2.6690440185586216e-02  -2.5966248004186281e-02  -2.7179973873880676e-02  -2.5512164418505068e-02  -2.6720360620911883e-02  -2.4327014895609039e-02  -2.5493786252330421e-02  -2.2554330137825505e-02  -2.3648381386928999e-02  -2.0311012801585825e-02  -2.1305339249303435e-02  -1.7693057607976310e-02  -1.8564623832192262e-02  -1.4780252763499624e-02  -1.5509873400663390e-02  -1.1640141892771003e-02  -1.2212298075897602e-02  -8.3312973085470417e-03  -8.7341043614901481e-03  -4.9061720200410160e-03  -5.1313016469851751e-03  -1.4135343608167811e-03  -1.4562612763452745e-03  2.0993064716319601e-03  2.2400761663158796e-03  5.5844224400181455e-03  5.9060179061613286e-03  8.9911824364661830e-03  9.4870375279945893e-03  1.2264128902182651e-02  1.2923564010096429e-02  1.5340652118974811e-02  1.6148663612324372e-02  1.8148377060662566e-02  1.9085354874477496e-02  2.0602116979391974e-02  2.1643579485472249e-02  2.2600288037724139e-02  2.3716554470339640e-02  2.4020532275345154e-02  2.5176430315153840e-02  2.4714432695457287e-02  2.5868940689336924e-02  2.4500973969767300e-02  2.5606950085038500e-02  2.3158549599923271e-02  2.4162494730714187e-02  2.0415053263677947e-02  2.1257332440103912e-02  1.5935315485091608e-02  1.6551716739788863e-02  9.3041131838274387e-03  9.6320841798102318e-03  0.0000000000000000e+00  0.0000000000000000e+00  -1.0919513259027996e-02  0.0000000000000000e+00  -1.8823158643203691e-02  -2.4290536938349067e-02  -2.7785207048090715e-02  -2.9679414159954967e-02  -3.0272999765597972e-02  -2.9808542196772862e-02  -2.8483005601254153e-02  -2.6457479887571345e-02  -2.3864576917063889e-02  -2.0814879590876360e-02  -1.7401790913417117e-02  -1.3705944845033603e-02  -9.7985062453280862e-03  -5.7443874326368466e-03  -1.6047077929885098e-03  2.5606654783052593e-03  6.6909745540202408e-03  1.0722213513294550e-02  1.4584933569495733e-02  1.8201679526214772e-02  2.1484322639285142e-02  2.4330787652965813e-02  2.6621425018621827e-02  2.8214378236710459e-02  2.8940156742376905e-02  2.8594717712465918e-02  2.6931115923795396e-02  2.3649039080925260e-02  1.8382114044589105e-02  1.0682181329395857e-02  0.0000000000000000e+00  -1.2507060220238453e-02  0.0000000000000000e+00  -2.1572488645226626e-02  -2.7862711170321457e-02  -3.1905665588408648e-02  -3.4121867509738182e-02  -3.4848518442947896e-02  -3.4357528441158407e-02  -3.2870076471513958e-02  -3.0567313440776907e-02  -2.7599545102514299e-02  -2.4092713792962260e-02  -2.0154527147994563e-02  -1.5878543390102733e-02  -1.1348494692315607e-02  -6.6411240918385489e-03  -1.8294965145862925e-03  3.0147658919842659e-03  7.8186265015637631e-03  1.2505478391914501e-02  1.6992345615037961e-02  2.1187441937853473e-02  2.4986938244105368e-02  2.8271752944407522e-02  3.0903283534784342e-02  3.2718673049835452e-02  3.3524456125328644e-02  3.3089041842252968e-02  3.1132651375886475e-02  2.7314929583956711e-02  2.1218479485744637e-02  1.2327645368966413e-02  0.0000000000000000e+00  -1.4624834996528550e-02  0.0000000000000000e+00  -2.5215636392797412e-02  -3.2565251802473501e-02  -3.7295572544450963e-02  -3.9898206753016578e-02  -4.0764600469243462e-02  -4.0209487243196278e-02  -3.8487903806986697e-02  -3.5809249626695468e-02  -3.2347000948890509e-02  -2.8247591797154144e-02  -2.3636123910421043e-02  -1.8622440065843800e-02  -1.3304628773572816e-02  -7.7736501823539245e-03  -2.1157660016457211e-03  3.5836248499498862e-03  9.2378864810495707e-03  1.4755589604300070e-02  2.0038281063923861e-02  2.4976819246085590e-02  2.9448486977493565e-02  3.3312597180909696e-02  3.6406295436411364e-02  3.8538419559418495e-02  3.9482638900942932e-02  3.8967859939607712e-02  3.6666386827534835e-02  3.2177802933058643e-02  2.5008050600477370e-02  1.4540929199553170e-02  0.0000000000000000e+00  -1.7295221691840248e-02  0.0000000000000000e+00  -2.9784508981425654e-02  -3.8429462007799647e-02  -4.3979016217026594e-02  -4.7020964640818667e-02  -4.8020887184241627e-02  -4.7350902242927755e-02  -4.5311903875201336e-02  -4.2149678646549435e-02  -3.8068125508203321e-02  -3.3238324577863645e-02  -2.7807137616954542e-02  -2.1902389437492838e-02  -1.5639165223150182e-02  -9.1229727636961567e-03  -2.4550050344199939e-03  4.2656855182340121e-03  1.0937321849645068e-02  1.7453366519365823e-02  2.3697781754604838e-02  2.9542508955161861e-02  3.4842382797600192e-02  3.9431310437253411e-02  4.3115990560535652e-02  4.5669577659806428e-02  4.6822364813766573e-02  4.6250720637424622e-02  4.3561582778542621e-02  3.8272551059122632e-02  2.9784567987639718e-02  1.7345399415941286e-02  0.0000000000000000e+00  -2.0566347807046019e-02  0.0000000000000000e+00  -3.5355741628665095e-02  -4.5545803671452834e-02  -5.2049093431751840e-02  -5.5578342261221020e-02  -5.6695259670579971e-02  -5.5846914114281179e-02  -5.3392955147842563e-02  -4.9626178875210571e-02  -4.4787864766962074e-02  -3.9079980199947816e-02  -3.2674107379174450e-02  -2.5719590371807755e-02  -1.8348850220528210e-02  -1.0683962551188066e-02  -2.8399435967692839e-03  5.0691026703307690e-03  1.2927625707556017e-02  2.0612376119747582e-02  2.7990066292786799e-02  3.4910947272496620e-02  4.1205357487745259e-02  4.6676617789909343e-02  5.1095160964292168e-02  5.4189211890080281e-02  5.5634319166422176e-02  5.5038727563410376e-02  5.1924492477116675e-02  4.5701946984139846e-02  3.5635322182221804e-02  2.0796113322542466e-02  0.0000000000000000e+00  -2.4505602099199386e-02  0.0000000000000000e+00  -4.2037538489698996e-02  -5.4043327128019132e-02  -6.1641006197215513e-02  -6.5701011669328999e-02  -6.6906884958298718e-02  -6.5800729325422663e-02  -6.2816619046253144e-02  -5.8306119540500696e-02  -5.2556969102869049e-02  -4.5807943840007526e-02  -3.8260122955041873e-02  -3.0086126334019761e-02  -2.1437960278385043e-02  -1.2453227346253579e-02  -3.2619129849195618e-03  6.0092839656838530e-03  1.5229927626337507e-02  2.4262345525291416e-02  3.2953983811758611e-02  4.1133646059199599e-02  4.8603071619490720e-02  5.5131234909525810e-02  6.0444435055431608e-02  6.4216371457516658e-02  6.6053937808987301e-02  6.5479603309792730e-02  6.1907522594456192e-02  5.4611686662467886e-02  4.2682827788543667e-02  2.4969744973663353e-02  0.0000000000000000e+00  -2.9196007561987550e-02  0.0000000000000000e+00  -4.9962018912316497e-02  -6.4077776307698675e-02  -7.2915436440338377e-02  -7.7541436566717373e-02  -7.8791488103046814e-02  -7.7326578521036707e-02  -7.3673861889583053e-02  -6.8257786612849591e-02  -6.1422989512832191e-02  -5.3452310312052692e-02  -4.4580803298696174e-02  -3.5007064663003122e-02  -2.4902965498266861e-02  -1.4421866125194712e-02  -3.7063758803266181e-03  7.1045888305438162e-03  1.7869020306511125e-02  2.8434340707328479e-02  3.8631113566244872e-02  4.8264145604314995e-02  5.7105603839861414e-02  6.4883955349121766e-02  7.1274369148994793e-02  7.5883926294548903e-02  7.8235370871204399e-02  7.7744252935057739e-02  7.3689843310718192e-02  6.5175391027588070e-02  5.1074794735331837e-02  2.9959559219510712e-02  0.0000000000000000e+00  -3.4734871413134381e-02  0.0000000000000000e+00  -5.9281331686835845e-02  -7.5824080156645046e-02  -8.6047062927539844e-02  -9.1258131424574285e-02  -9.2482084006885373e-02  -9.0527326331170027e-02  -8.6037124530005782e-02  -7.9525378292251300e-02  -7.1406367437995222e-02  -6.2014803211351895e-02  -5.1624891682255702e-02  -4.0463030317797445e-02  -2.8721065448983379e-02  -1.6566392648281653e-02  -4.1516725427815718e-03  8.3753158228043034e-03  2.0863806621244107e-02  3.3149617367776045e-02  4.5047116521204529e-02  5.6338608504803461e-02  6.6763249663198021e-02  7.6005728936831995e-02  8.3680280474892135e-02  8.9315408751746886e-02  9.2330379834273529e-02  9.2009442921388476e-02  8.7464057996049061e-02  7.7585661506785517e-02  6.0979102460024887e-02  3.5873571460572136e-02  0.0000000000000000e+00  -4.1233370769646178e-02  0.0000000000000000e+00  -7.0164406834980514e-02  -8.9469208402200448e-02  -1.0121201545059232e-01  -1.0699853446766533e-01  -1.0808684905708567e-01  -1.0546970090324354e-01  -9.9933007529318801e-02  -9.2102179500080233e-02  -8.2473970626708512e-02  -7.1445611988117913e-02  -5.9333627137985713e-02  -4.6394683615052161e-02  -3.2838290782368537e-02  -1.8842949074155631e-02  -4.5670910732168420e-03  9.8384949856114672e-03  2.4218570120258069e-02  3.8403079249854276e-02  5.2193245977119877e-02  6.5350552450878160e-02  7.7581436814952220e-02  8.8520944434126891e-02  9.7715593983527110e-02  1.0459864417983662e-01  1.0846586236237550e-01  1.0843868201225937e-01  1.0342213695198912e-01  9.2044462110719885e-02  7.2578650921195031e-02  4.2832556532504493e-02  0.0000000000000000e+00  -4.8815844865111341e-02  0.0000000000000000e+00  -8.2792796549621517e-02  -1.0520121964536741e-01  -1.1857049063258757e-01  -1.2487346136475422e-01  -1.2565912100182211e-01  -1.2214887745203948e-01  -1.1530711832803879e-01  -1.0589403439553856e-01  -9.4507236617758658e-02  -8.1613624696596984e-02  -6.7578083087915311e-02  -5.2684684277381981e-02  -3.7158855106188854e-02  -2.1182962581462742e-02  -4.9148358903936852e-03  1.1499364190111203e-02  2.7908575149519176e-02  4.4143330262947887e-02  5.9999487670518187e-02  7.5221484851027975e-02  8.9484324389070974e-02  1.0237190069922882e-01  1.1335224660350388e-01  1.2174980671961541e-01  1.2670900152731746e-01  1.2715403690756860e-01  1.2173300471974251e-01  1.0874895902317011e-01  8.6063790471543042e-02  5.0967988736065187e-02  0.0000000000000000e+00  -5.7618693501720525e-02  0.0000000000000000e+00  -9.7352459502083349e-02  -1.2319132354481376e-01  -1.3823639670137608e-01  -1.4491760770543982e-01  -1.4514870816621994e-01  -1.4043810176752317e-01  -1.3197113952125608e-01  -1.2067271079566791e-01  -1.0725783848537458e-01  -9.2272640251086807e-02  -7.6130082948786565e-02  -5.9139563846992510e-02  -4.1533501454627073e-02  -2.3490648160740417e-02  -5.1559081492187232e-03  1.3338696306270067e-02  3.1858793962062606e-02  5.0245532550536924e-02  6.8299864557329684e-02  8.5757891804986858e-02  1.0226779640551360e-01  1.1736244275500173e-01  1.3042544220787983e-01  1.4065438851520998e-01  1.4701553963201858e-01  1.4819001852574631e-01  1.4250901529369617e-01  1.2786908633263483e-01  1.0162165595669494e-01  6.0418861597204290e-02  0.0000000000000000e+00  -6.7786838644106964e-02  0.0000000000000000e+00  -1.1401761612735745e-01  -1.4355929320014732e-01  -1.6022425840881796e-01  -1.6702022283348314e-01  -1.6632421609269352e-01  -1.6000689702899856e-01  -1.4952681619851590e-01  -1.3600592497723385e-01  -1.2029237157512580e-01  -1.0301566314045590e-01  -8.4632485656680759e-02  -6.5468515115099671e-02  -4.5751541578248726e-02  -2.5642173901004522e-02  -5.2597979112506696e-03  1.5295112627628702e-02  3.5916591679007973e-02  5.6474240665245555e-02  7.6785785862818007e-02  9.6593315299240437e-02  1.1552951904068437e-01  1.3308095923445931e-01  1.4854610470127844e-01  1.6098157192938276e-01  1.6914405715792033e-01  1.7142048937527332e-01  1.6574633261855001e-01  1.4950811873176356e-01  1.1941487244226089e-01  7.1325135893613043e-02  0.0000000000000000e+00  -7.9466606250738328e-02  0.0000000000000000e+00  -1.3291966271732319e-01  -1.6630994268296087e-01  -1.8435463997519089e-01  -1.9080855920209983e-01  -1.8864648300603828e-01  -1.8019768116503104e-01  -1.6725373655553372e-01  -1.5116359801404378e-01  -1.3291755790012322e-01  -1.1322152095478380e-01  -9.2563138761834821e-02  -7.1265316847926946e-02  -4.9533500282718232e-02  -2.7492303865279354e-02  -5.2165976769170180e-03  1.7239824029328579e-02  3.9819965311683220e-02  6.2436579170737562e-02  8.4945850657379293e-02  1.0711319463464035e-01  1.2857516064039454e-01  1.4878942492240779e-01  1.6697570486633612e-01  1.8204574694895861e-01  1.9251892796195930e-01  1.9642959186954020e-01  1.9122200028513300e-01  1.7363185146411816e-01  1.3954669459546512e-01  8.3818924641002976e-02  0.0000000000000000e+00  -9.2788590849299288e-02  0.0000000000000000e+00  -1.5408139280111618e-01  -1.9120776383119320e-01  -2.1007924714452786e-01  -2.1544555539769836e-01  -2.1106426198426867e-01  -1.9983949739417972e-01  -1.8395409022652803e-01  -1.6499879904053771e-01  -1.4409419902290529e-01  -1.2199878635978414e-01  -9.9200730135283965e-02  -7.5992701717429278e-02  -5.2530690410568397e-02  -2.8881352835833166e-02  -5.0571636601640787e-03  1.8953722617321176e-02  4.3159308423114356e-02  6.7536392850529939e-02  9.1999995705071655e-02  1.1636679042680174e-01  1.4030544448369733e-01  1.6327548970205411e-01  1.8444677664085241e-01  2.0260002604699046e-01  2.1600828696254085e-01  2.2229977538471138e-01  2.1831149578743456e-01  1.9994096793164462e-01  1.6199329588178407e-01  9.8006590921403153e-02  0.0000000000000000e+00  -1.0782371089736724e-01  0.0000000000000000e+00  -1.7727052913915506e-01  -2.1752025255713939e-01  -2.3614837903888825e-01  -2.3927590873382135e-01  -2.3168591020037074e-01  -2.1697578726224467e-01  -1.9774708934265636e-01  -1.7580549620409719e-01  -1.5235064570173451e-01  -1.2813756836648460e-01  -1.0360548262178045e-01  -7.8976914516333263e-02  -5.4328742988955285e-02  -2.9646614235239722e-02  -4.8644309394172656e-03  2.0107795562741802e-02  4.5356402985072673e-02  7.0938253921496525e-02  9.6849948477519349e-02  1.2298807340577804e-01  1.4909528276057030e-01  1.7468312787014334e-01  1.9893027233474336e-01  2.2054330608195427e-01  2.3758080843018023e-01  2.4724435339463341e-01  2.4564987910027544e-01  2.2761028375610490e-01  1.8645948161056344e-01  1.1392682281021148e-01  0.0000000000000000e+00  -1.2447319154729071e-01  0.0000000000000000e+00  -2.0166626693688544e-01  -2.4348398758327683e-01  -2.5998691014483105e-01  -2.5922800950194685e-01  -2.4728643222682697e-01  -2.2850555914135695e-01  -2.0583587687216401e-01  -1.8118493484944331e-01  -1.5571607948069435e-01  -1.3008639884724119e-01  -1.0461780001440624e-01  -7.9416314868503410e-02  -5.4454153882910521e-02  -2.9622592342330733e-02  -4.7696326892431662e-03  2.0273926046998486e-02  4.5675527353647473e-02  7.1577658025296281e-02  9.8072476624254959e-02  1.2516446695687489e-01  1.5271466609310300e-01  1.8035892202833226e-01  2.0738109541807423e-01  2.3253272270561812e-01  2.5378194258375258e-01  2.6798400271791717e-01  2.7049098482224321e-01  2.5475802913813550e-01  2.1206151067457654e-01  1.3145909681729956e-01  0.0000000000000000e+00  -1.4216745106497175e-01  0.0000000000000000e+00  -2.2504865264363838e-01  -2.6516568401227619e-01  -2.7654003238789854e-01  -2.6987350214045552e-01  -2.5266128367644908e-01  -2.2980562397084539e-01  -2.0432888607992733e-01  -1.7798763284724378e-01  -1.5172402779553706e-01  -1.2597519562902179e-01  -1.0087675669533917e-01  -7.6387301524980508e-02  -5.2364429880590632e-02  -2.8611426719753294e-02  -4.9048829482719603e-03  1.8988983881908322e-02  4.3301150530805549e-02  6.8247954534732938e-02  9.4012228206636059e-02  1.2071605528349702e-01  1.4837499051527403e-01  1.7681821938477552e-01  2.0556008707330645e-01  2.3359228173564089e-01  2.5905872202407754e-01  2.7876836070502137e-01  2.8752138446045000e-01  2.7730077774274159e-01  2.3655628482893373e-01  1.5007602309419313e-01  0.0000000000000000e+00  -1.5892918016822777e-01  0.0000000000000000e+00  -2.4171352783865402e-01  -2.7407187753666229e-01  -2.7634108922708212e-01  -2.6222298005146139e-01  -2.4005841292849733e-01  -2.1457603121554644e-01  -1.8828958863030776e-01  -1.6243119461300343e-01  -1.3751798047610975e-01  -1.1367770354423704e-01  -9.0834389804467827e-02  -6.8809742947477381e-02  -4.7376165392201887e-02  -2.6284507507194348e-02  -5.2779696927548079e-03  1.5901493997503419e-02  3.7511072226192002e-02  5.9802519486590669e-02  8.3016163496693204e-02  1.0736697373527739e-01  1.3301596973202712e-01  1.6001529902423842e-01  1.8820632586337147e-01  2.1703439328009830e-01  2.4521121656594871e-01  2.7012298773156657e-01  2.8682768646557533e-01  2.8648408458232372e-01  2.5431049433995317e-01  1.6809031266909841e-01  0.0000000000000000e+00  -1.6791849592056660e-01  0.0000000000000000e+00  -2.3696404468781593e-01  -2.5271123247042532e-01  -2.4322043268926150e-01  -2.2313122103645064e-01  -1.9946889995260181e-01  -1.7540379315238055e-01  -1.5224721466613339e-01  -1.3043624483459121e-01  -1.1000695277085334e-01  -9.0817811809592849e-02  -7.2655400466620737e-02  -5.5283037276000861e-02  -3.8461227792099074e-02  -2.1954933951368143e-02  -5.5347895861932225e-03  1.1025324706463325e-02  2.7950995707677558e-02  4.5470618341027627e-02  6.3816802454873298e-02  8.3225470296318438e-02  1.0392747171044354e-01  1.2612726996005247e-01  1.4995672360244311e-01  1.7537145211444366e-01  2.0193250191549106e-01  2.2834209833493985e-01  2.5143819119443356e-01  2.6404167204255624e-01  2.5058131194130784e-01  1.7977379301250843e-01  0.0000000000000000e+00  -1.4306361014942739e-01  0.0000000000000000e+00  -1.7503341762548114e-01  -1.7054133149329059e-01  -1.5539698222082335e-01  -1.3803596972863766e-01  -1.2113464012877793e-01  -1.0544729593645670e-01  -9.1076693472838643e-02  -7.7908445653952565e-02  -6.5764050524448850e-02  -5.4454734256188436e-02  -4.3800351098032667e-02  -3.3634326738168588e-02  -2.3802710657975068e-02  -1.4161597319637363e-02  -4.5737369930691149e-03  5.0949183184740626e-03  1.4978941335004084e-02  2.5216692734319972e-02  3.5954123776327167e-02  4.7347673089856213e-02  5.9566431724341375e-02  7.2792865396789960e-02  8.7218582593094701e-02  1.0302811544684840e-01  1.2035447909052792e-01  1.3915781174892605e-01  1.5887312088180722e-01  1.7732171773237160e-01  1.8699799655778485e-01  1.6120688283257553e-01  0.0000000000000000e+00  0.0000000000000000e+00  0.0000000000000000e+00  0.0000000000000000e+00  0.0000000000000000e+00  0.0000000000000000e+00  0.0000000000000000e+00  0.0000000000000000e+00  0.0000000000000000e+00  0.0000000000000000e+00  0.0000000000000000e+00  0.0000000000000000e+00  0.0000000000000000e+00  0.0000000000000000e+00  0.0000000000000000e+00  0.0000000000000000e+00  0.0000000000000000e+00  0.0000000000000000e+00  0.0000000000000000e+00  0.0000000000000000e+00  0.0000000000000000e+00  0.0000000000000000e+00  0.0000000000000000e+00  0.0000000000000000e+00  0.0000000000000000e+00  0.0000000000000000e+00  0.0000000000000000e+00  0.0000000000000000e+00  0.0000000000000000e+00  0.0000000000000000e+00  0.0000000000000000e+00  0.0000000000000000e+00  0.0000000000000000e+00  0.0000000000000000e+00  </DataArray> 
</PointData> 
</Piece>
</UnstructuredGrid>
</VTKFile>