<?xml version="1.0"?>
<VTKFile type="UnstructuredGrid"  version="0.1"  >
<UnstructuredGrid>
<Piece  NumberOfPoints="825" NumberOfCells="1536">
<Points>
<DataArray  type="Float64"  NumberOfComponents="3"  format="ascii">-1.043869785491856e-21 0.5 0  0.06249999999472595 0.5000000003402899 0  0.06249999864841928 0.5625000013537752 0  -2.724473201967445e-09 0.5625000000999301 0  0.1249999998870087 0.5000000004663328 0  0.1249999990669134 0.5625000014237274 0  0.1874999995400169 0.500000000336062 0  0.1874999989224358 0.5625000010805631 0  0.2499999990217579 0.5000000001669349 0  0.2499999984318022 0.5625000005987527 0  0.3124999982520043 0.4999999998153043 0  0.3124999976514234 0.5624999998582887 0  0.3749999966120278 0.4999999985178326 0  0.3749999964910017 0.5624999987954779 0  0.4374999948682483 0.499999997350238 0  0.4374999951885717 0.5624999977783645 0  0.4999999932243464 0.4999999963177624 0  0.4999999939503927 0.5624999967389062 0  0.562499991500148 0.4999999947709023 0  0.5624999928715825 0.5624999958140995 0  0.6249999911166174 0.499999994690791 0  0.6249999922859419 0.5624999956009552 0  0.6874999915467596 0.4999999953086079 0  0.6874999922010939 0.5624999955580917 0  0.7499999911942237 0.4999999942951713 0  0.7499999921959871 0.562499995234405 0  0.8124999916516175 0.499999994522569 0  0.8124999924617223 0.5624999952722901 0  0.8749999926177959 0.4999999950112768 0  0.8749999929541998 0.562499995206681 0  0.9374999925954407 0.4999999938129073 0  0.9374999933566845 0.5624999948215038 0  0.9999999933896477 0.4999999940418747 0  0.9999999939109349 0.5624999948092737 0  1.062499994497839 0.4999999944237191 0  1.062499994567485 0.5624999946746906 0  1.124999994501285 0.4999999931978065 0  1.124999995047133 0.5624999942374175 0  1.187499995232376 0.4999999933121571 0  1.187499995592006 0.5624999941881064 0  1.249999996320614 0.4999999937754538 0  1.249999996181872 0.562499994102304 0  1.312499996262777 0.4999999927227658 0  1.312499996541942 0.5624999937876378 0  1.374999996801358 0.4999999929684424 0  1.374999996894533 0.5624999938856932 0  1.437499997520784 0.4999999934928289 0  1.437499997219065 0.5624999940458894 0  1.499999997372536 0.4999999931162339 0  1.499999997292356 0.5624999942780862 0  1.562499997700645 0.4999999943228552 0  1.562499997372235 0.5624999951313637 0  1.624999998344641 0.4999999960106989 0  1.624999997529459 0.5624999961764192 0  1.687499998654733 0.499999996911339 0  1.687499997605153 0.5624999971944146 0  1.749999999236318 0.4999999981922643 0  1.74999999770389 0.5624999983827726 0  1.81249999988517 0.4999999992806325 0  1.812499997793543 0.5624999995179368 0  1.875000000170765 0.4999999997874212 0  1.874999997742971 0.5625000006670919 0  1.937500000261464 0.5000000001552182 0  1.937499997829527 0.5625000021171479 0  2 0.5 0  2.000000000201046 0.5625000035978701 0  0.06249999761018657 0.6250000015372863 0  -3.330411905719016e-09 0.6250000006478797 0  0.1249999981203265 0.6250000016806235 0  0.1874999981702698 0.6250000013738115 0  0.2499999978565163 0.625000000823672 0  0.312499997260892 0.6250000000724414 0  0.3749999964203697 0.6249999991722768 0  0.4374999954509914 0.6249999982474802 0  0.4999999944981262 0.624999997364721 0  0.5624999936596718 0.6249999966509975 0  0.6249999930795855 0.6249999962490033 0  0.6874999928301234 0.624999996024468 0  0.749999992799509 0.6249999958381439 0  0.8124999929557885 0.6249999957266477 0  0.8749999932855581 0.6249999956015229 0  0.9374999936799555 0.6249999954218339 0  0.9999999941337678 0.6249999952806726 0  1.062499994649551 0.6249999951134805 0  1.124999995135122 0.6249999948971744 0  1.18749999559395 0.6249999947440713 0  1.249999996039165 0.6249999946161755 0  1.312499996390205 0.624999994502745 0  1.374999996650333 0.6249999945186971 0  1.437499996829023 0.6249999946679676 0  1.499999996875257 0.6249999950012265 0  1.56249999684251 0.6249999956225242 0  1.624999996789919 0.6249999964612054 0  1.687499996700199 0.6249999974448082 0  1.749999996596337 0.6249999985739625 0  1.812499996505725 0.6249999998170457 0  1.874999996489103 0.6250000012021524 0  1.937499996876306 0.625000002680416 0  1.999999998081847 0.6250000033829473 0  0.06249999699122342 0.6875000013778075 0  -3.528810868312362e-09 0.6875000007711467 0  0.1249999973782906 0.6875000015352216 0  0.1874999974873225 0.6875000013100655 0  0.2499999973126504 0.6875000008246546 0  0.3124999968963194 0.6875000001611945 0  0.3749999962914028 0.6874999993913813 0  0.437499995578165 0.6874999985963395 0  0.4999999948508954 0.6874999978514986 0  0.5624999941971285 0.6874999972369173 0  0.6249999937063995 0.6874999968032021 0  0.6874999934298598 0.6874999965139087 0  0.7499999933491879 0.6874999963074988 0  0.8124999934367511 0.6874999961505229 0  0.8749999936628202 0.6874999960057339 0  0.9374999939782523 0.6874999958533413 0  0.9999999943540981 0.6874999957010991 0  1.0624999947676 0.6874999955405893 0  1.124999995178439 0.6874999953732721 0  1.187499995565231 0.687499995226705 0  1.249999995913157 0.6874999951120042 0  1.312499996190194 0.6874999950463662 0  1.374999996380263 0.68749999507226 0  1.437499996476254 0.6874999952253812 0  1.499999996469888 0.6874999955460314 0  1.56249999638302 0.6874999960700501 0  1.624999996248237 0.6874999967889261 0  1.68749999608666 0.6874999976762678 0  1.74999999593102 0.6874999987116905 0  1.812499995833544 0.6874999998644363 0  1.874999995886699 0.6875000010701084 0  1.937499996222664 0.6875000021221178 0  1.99999999672498 0.6875000026265837 0  0.06249999661371752 0.7500000010819442 0  -3.648504864091905e-09 0.7500000006709471 0  0.1249999968555652 0.7500000012179686 0  0.1874999969503317 0.7500000010634067 0  0.2499999968530789 0.7500000006777767 0  0.3124999965719856 0.7500000001312063 0  0.3749999961433453 0.7499999994917638 0  0.4374999956231024 0.7499999988264721 0  0.4999999950778325 0.7499999981980331 0  0.5624999945753928 0.7499999976600138 0  0.6249999941780889 0.7499999972407558 0  0.6874999939255726 0.7499999969305436 0  0.7499999938246575 0.7499999966991464 0  0.8124999938627675 0.7499999965165544 0  0.8749999940168097 0.7499999963570438 0  0.9374999942563396 0.7499999962048445 0  0.999999994553309 0.7499999960546606 0  1.062499994881353 0.7499999959044805 0  1.12499999521226 0.7499999957590122 0  1.187499995522449 0.7499999956315282 0  1.249999995791549 0.7499999955372885 0  1.312499995998525 0.7499999954965639 0  1.374999996128066 0.7499999955375728 0  1.437499996172331 0.7499999956907812 0  1.49999999613197 0.749999995985668 0  1.562499996021995 0.7499999964427488 0  1.624999995867497 0.7499999970633073 0  1.687499995697988 0.7499999978321016 0  1.749999995551299 0.7499999987205503 0  1.812499995476305 0.7499999996772054 0  1.874999995526349 0.7500000006056687 0  1.937499995712329 0.7500000013449302 0  1.999999995894246 0.7500000017604953 0  0.0624999963590479 0.8125000007552761 0  -3.76099010043948e-09 0.8125000004784242 0  0.1249999964922874 0.8125000008598579 0  0.1874999965520979 0.8125000007536248 0  0.2499999964911344 0.812500000459666 0  0.3124999963005795 0.8125000000261524 0  0.3749999959990627 0.8124999995081232 0  0.4374999956233651 0.8124999989603213 0  0.4999999952204842 0.8124999984324854 0  0.5624999948402969 0.8124999979637826 0  0.6249999945280312 0.8124999975754026 0  0.6874999943152048 0.8124999972672258 0  0.7499999942145181 0.8124999970244121 0  0.8124999942226966 0.8124999968272119 0  0.8749999943254256 0.8124999966573869 0  0.9374999945018091 0.8124999965021118 0  0.9999999947288092 0.8124999963548264 0  1.062499994982917 0.8124999962141827 0  1.124999995240695 0.8124999960843839 0  1.187499995480592 0.8124999959750789 0  1.24999999568338 0.8124999959000346 0  1.312499995832296 0.8124999958771932 0  1.374999995915209 0.8124999959283608 0  1.437499995926662 0.8124999960766928 0  1.499999995869671 0.8124999963429447 0  1.562499995757248 0.8124999967400459 0  1.624999995611099 0.8124999972679195 0  1.687499995459247 0.8124999979111768 0  1.749999995334563 0.8124999986367736 0  1.812499995270493 0.812499999388431 0  1.874999995287492 0.8125000000816563 0  1.937499995364739 0.8125000006180196 0  1.999999995419287 0.8125000009497211 0  0.06249999616895957 0.8750000004488218 0  -3.87910559637372e-09 0.8750000002623679 0  0.1249999962336736 0.8750000005232894 0  0.1874999962620103 0.8750000004469021 0  0.2499999962168113 0.8750000002246441 0  0.3124999960844139 0.8749999998863593 0  0.3749999958721432 0.8749999994725441 0  0.437499995602767 0.8749999990256957 0  0.4999999953084764 0.8749999985845709 0  0.5624999950249036 0.8749999981793978 0  0.6249999947850708 0.8749999978278961 0  0.6874999946136485 0.8749999975341869 0  0.7499999945235245 0.874999997291899 0  0.8124999945159375 0.8749999970894213 0  0.8749999945827941 0.8749999969146272 0  0.9374999947096927 0.8749999967580379 0  0.9999999948787828 0.8749999966142427 0  1.062499995070701 0.8749999964822213 0  1.124999995265911 0.8749999963654619 0  1.187499995445955 0.8749999962717407 0  1.249999995594389 0.8749999962125646 0  1.312499995697716 0.8749999962026082 0  1.374999995746799 0.8749999962586896 0  1.437499995738392 0.8749999963977305 0  1.499999995676388 0.8749999966336951 0  1.562499995572337 0.8749999969737491 0  1.624999995444567 0.8749999974145241 0  1.687499995316127 0.8749999979392539 0  1.749999995211568 0.8749999985154441 0  1.812499995151105 0.8749999990935035 0  1.874999995140803 0.8749999996103391 0  1.937499995162299 0.8750000000060313 0  1.999999995177577 0.8750000002560335 0  0.06249999601551202 0.9375000001837106 0  -4.000749788240493e-09 0.9375000000572246 0  0.1249999960422544 0.9375000002333377 0  0.18749999604965 0.9375000001744098 0  0.2499999960123148 0.9375000000043204 0  0.3124999959177189 0.9374999997404833 0  0.3749999957675203 0.9374999994110588 0  0.437499995575205 0.9374999990476536 0  0.499999995362186 0.9374999986799489 0  0.5624999951533648 0.9374999983317015 0  0.6249999949726187 0.9374999980181205 0  0.6874999948388038 0.93
[...]
<PointData  Scalars="p"> 
<DataArray  type="Float64"  Name="p"  format="ascii">0.0000000000000000e+00  -3.8816079038157289e-06  -4.1523177558217433e-06  0.0000000000000000e+00  -6.6199788055134818e-06  -6.8354169036130958e-06  -8.3699566335710908e-06  -8.4911395823325753e-06  -9.3449218763030957e-06  -9.3902042551496591e-06  -9.7304873185315278e-06  -9.7254840615185680e-06  -9.6735723408390514e-06  -9.6392431926407677e-06  -9.2867412242628258e-06  -9.2379767625887070e-06  -8.6552121253428302e-06  -8.6019098890807107e-06  -7.8435272065253783e-06  -7.7919026893446990e-06  -6.9015333885822406e-06  -6.8545260471136518e-06  -5.8636428483342736e-06  -5.8238364684655020e-06  -4.7575667280911530e-06  -4.7261152930498062e-06  -3.6059611463806648e-06  -3.5825040380799777e-06  -2.4232205841307565e-06  -2.4081066657961968e-06  -1.2214529658034491e-06  -1.2148464968518628e-06  -1.2355086885961476e-08  -1.3551545591401972e-08  1.1967300070635618e-06  1.1873114381787293e-06  2.3971520066018185e-06  2.3791346150566776e-06  3.5773966496132208e-06  3.5512842220747425e-06  4.7271422654733283e-06  4.6924614759506180e-06  5.8313728121569965e-06  5.7880316909747798e-06  6.8683554373004241e-06  6.8177404935167496e-06  7.8129441882032548e-06  7.7564036549436598e-06  8.6295780127447383e-06  8.5702550282620812e-06  9.2686839298243904e-06  9.2132941637326772e-06  9.6679878583966996e-06  9.6261363667882692e-06  9.7429099454434907e-06  9.7297085544287034e-06  9.3793541854361979e-06  9.4173664429719710e-06  8.4309974955833712e-06  8.5467072276020184e-06  6.7085778661854905e-06  6.9201522045234283e-06  3.9821779462104106e-06  4.2434434733153753e-06  0.0000000000000000e+00  0.0000000000000000e+00  -4.6757556053560562e-06  0.0000000000000000e+00  -7.3415772751207657e-06  -8.8369147526429109e-06  -9.5755068028813631e-06  -9.7888852782884966e-06  -9.6219816598119387e-06  -9.1734773763424592e-06  -8.5144468594783534e-06  -7.6978902831545615e-06  -6.7641107736789970e-06  -5.7436348741677291e-06  -4.6600886514719423e-06  -3.5321654313985001e-06  -2.3742790514788102e-06  -1.1980274767229868e-06  -1.3445575395706471e-08  1.1707105223623515e-06  2.3457070206323295e-06  3.5016892473602316e-06  4.6274350903617110e-06  5.7090157646773688e-06  6.7283707559947832e-06  7.6625558370162375e-06  8.4815926449368390e-06  9.1458530705599042e-06  9.6033682173429666e-06  9.7840953473178417e-06  9.5899248988896563e-06  8.8756566684278545e-06  7.4048618611197455e-06  4.7439678580556025e-06  0.0000000000000000e+00  -5.2384961411523399e-06  0.0000000000000000e+00  -7.9642239452928810e-06  -9.3278612308672790e-06  -9.8964412775220996e-06  -9.9617296029651037e-06  -9.6849752408175668e-06  -9.1634369470665604e-06  -8.4610959644404084e-06  -7.6231202895613619e-06  -6.6830536769328134e-06  -5.6664948264688805e-06  -4.5934139475477133e-06  -3.4797237384118760e-06  -2.3382220460404450e-06  -1.1795093685008925e-06  -1.2788413825387523e-08  1.1535699773106092e-06  2.3112341734682934e-06  3.4511426108326457e-06  4.5629623370930240e-06  5.6342522967940876e-06  6.6495327708200199e-06  7.5893128221614466e-06  8.4285140571869439e-06  9.1342287339191524e-06  9.6621396501619822e-06  9.9493052809482875e-06  9.8994165665499850e-06  9.3512601297204941e-06  8.0091468186678197e-06  5.2903226226602394e-06  0.0000000000000000e+00  -5.7834750961207963e-06  0.0000000000000000e+00  -8.6159047510740137e-06  -9.8907188487158807e-06  -1.0309466481693316e-05  -1.0227890234263912e-05  -9.8316525502810221e-06  -9.2230021290094131e-06  -8.4626948580527169e-06  -7.5900483819454999e-06  -6.6326791224501653e-06  -5.6112073184165312e-06  -4.5416742847103552e-06  -3.4370040892582428e-06  -2.3079078863207057e-06  -1.1635211252609169e-06  -1.1927702586435344e-08  1.1393609690011217e-06  2.2828634229177745e-06  3.4106019811199029e-06  4.5136259138628011e-06  5.5814803091859545e-06  6.6015322887619532e-06  7.5580888027309898e-06  8.4309784248118048e-06  9.1931679722549203e-06  9.8061369721748580e-06  1.0210219491479813e-05  1.0304337973475268e-05  9.9031980310896005e-06  8.6480544973693477e-06  5.8242921932018008e-06  0.0000000000000000e+00  -6.2939541033836732e-06  0.0000000000000000e+00  -9.2541615441614060e-06  -1.0474333912418850e-05  -1.0769587600859237e-05  -1.0554705604714183e-05  -1.0041900765722607e-05  -9.3422105966454518e-06  -8.5164622768073042e-06  -7.6004088254287455e-06  -6.6170951213201023e-06  -5.5827904334419628e-06  -4.5098379937971881e-06  -3.4082064297542851e-06  -2.2863553675978844e-06  -1.1517057437036009e-06  -1.0974801137453344e-08  1.1294959885695551e-06  2.2633879063670852e-06  3.3840534744512580e-06  4.4842048565408221e-06  5.5555562013409643e-06  6.5883508372827512e-06  7.5705051578357502e-06  8.4861277614896267e-06  9.3127200678816061e-06  1.0015305067662195e-05  1.0534155205639896e-05  1.0759492930405977e-05  1.0479700585733711e-05  9.2776460336116123e-06  6.3270036566877555e-06  0.0000000000000000e+00  -6.7626546809842476e-06  0.0000000000000000e+00  -9.8553779753559901e-06  -1.1043921811857255e-05  -1.1239639688186331e-05  -1.0908940925189969e-05  -1.0289244934706299e-05  -9.5017202115213833e-06  -8.6092967988971590e-06  -7.6459849415585704e-06  -6.6315948357671969e-06  -5.5788933667087564e-06  -4.4970121308326936e-06  -3.3932045711097875e-06  -2.2737288429950271e-06  -1.1442298114822750e-06  -9.9412464056838693e-09  1.1241237389396101e-06  2.2529648915824060e-06  3.3713968247187485e-06  4.4738598401447923e-06  5.5542283107074391e-06  6.6053982479125912e-06  7.6184462477684727e-06  8.5809299293346618e-06  9.4735335484103825e-06  1.0262989841835339e-05  1.0887438331906119e-05  1.1226948207680611e-05  1.1044795786099263e-05  9.8727293622300236e-06  6.7897331040473748e-06  0.0000000000000000e+00  -7.1836799240649945e-06  0.0000000000000000e+00  -1.0403258170874658e-05  -1.1574392246801310e-05  -1.1690387982449011e-05  -1.1261694477233744e-05  -1.0548036893059952e-05  -9.6804505172609148e-06  -8.7248519777453685e-06  -7.7146868020400352e-06  -6.6675947296371273e-06  -5.5936589869058064e-06  -4.4993707716969781e-06  -3.3896267306820156e-06  -2.2686810313235072e-06  -1.1404879541577142e-06  -8.8169691559995126e-09  1.1226622277283517e-06  2.2502884145938442e-06  3.3703191493608268e-06  4.4788622145067137e-06  5.5717495966470488e-06  6.6442105961087588e-06  7.6899159070740358e-06  8.6990563032312077e-06  9.6544380269375222e-06  1.0523289459030542e-05  1.1240678598253169e-05  1.1676737293619945e-05  1.1572447338417836e-05  1.0415931753487489e-05  7.2056996779500015e-06  0.0000000000000000e+00  -7.5506605733702589e-06  0.0000000000000000e+00  -1.0884341189042872e-05  -1.2046180267994593e-05  -1.2098690836978230e-05  -1.1589092139171711e-05  -1.0795920223001502e-05  -9.8589103999832239e-06  -8.8470476978004553e-06  -7.7938219457494964e-06  -6.7154505997377229e-06  -5.6200215334439677e-06  -4.5119366093189427e-06  -3.3941479406737661e-06  -2.2691913154887276e-06  -1.1395246986345787e-06  -7.5884013690592484e-09  1.1241875004399374e-06  2.2533764008300667e-06  3.3775548279814285e-06  4.4942990495337957e-06  5.6011412592373508e-06  6.6952132174191261e-06  7.7722578440070398e-06  8.8244100853936423e-06  9.8358235610346455e-06  1.0773603557486636e-05  1.1569624336551371e-05  1.2085186783004867e-05  1.2042452079318663e-05  1.0893127572536816e-05  7.5680058352850066e-06  0.0000000000000000e+00  -7.8566677206264057e-06  0.0000000000000000e+00  -1.1286481305971148e-05  -1.2443109394396745e-05  -1.2445905393565178e-05  -1.1871782876383385e-05  -1.1014361147721474e-05  -1.0020451223223542e-05  -8.9616762533917547e-06  -7.8717794911325513e-06  -6.7660316779486393e-06  -5.6510604851149463e-06  -4.5296776525154507e-06  -3.4033086030118297e-06  -2.2731095322142499e-06  -1.1403126684961346e-06  -6.2531247183037615e-09  1.1276781370660504e-06  2.2600917836479553e-06  3.3896591789982307e-06  4.5151696883725883e-06  5.6355032530701279e-06  6.7493053786129424e-06  7.8538602239587842e-06  8.9427320171101561e-06  1.0000942204764243e-05  1.0995218343968018e-05  1.1854658561226699e-05  1.2433323268727487e-05  1.2438234193947060e-05  1.1291769362684052e-05  7.8694057808775496e-06  0.0000000000000000e+00  -8.0946082392050865e-06  0.0000000000000000e+00  -1.1598552785531604e-05  -1.2751488078118407e-05  -1.2716921840955231e-05  -1.2094319033229210e-05  -1.1188552720606016e-05  -1.0151619190441101e-05  -9.0570751516806598e-06  -7.9388579033911486e-06  -6.8115679421427252e-06  -5.6807836435557349e-06  -4.5481636891970866e-06  -3.4140198113311423e-06  -2.2784955163746360e-06  -1.1419211320253331e-06  -4.8171964223421698e-09  1.1321925061534306e-06  2.2684837568574632e-06  3.4035380900717924e-06  4.5370328861042452e-06  5.6688460667528470e-06  6.7986984477597146e-06  7.9250094879032164e-06  9.0423160653449855e-06  1.0136248111890018e-05  1.1173200116967908e-05  1.2080155965434254e-05  1.2705811619828048e-05  1.2745858370699081e-05  1.1600478554212012e-05  8.1026215545944157e-06  0.0000000000000000e+00  -8.2577108506556712e-06  0.0000000000000000e+00  -1.1810629251917564e-05  -1.2959874002665985e-05  -1.2899687792730994e-05  -1.2244750764881239e-05  -1.1307197154711245e-05  -1.0242207227510687e-05  -9.1243832167685913e-06  -7.9876551761017920e-06  -6.8460947099015833e-06  -5.7045588998444983e-06  -4.5639461055472048e-06  -3.4238597123447843e-06  -2.2838174834695828e-06  -1.1436084453081031e-06  -3.2766321743246285e-09  1.1369959642804842e-06  2.2770269837913754e-06  3.4167712326255998e-06  4.5564406479593892e-06  5.6965197843444987e-06  6.8374179429918121e-06  7.9782578910102916e-06  9.1142587623708745e-06  1.0231453614441905e-05  1.1296137547439953e-05  1.2234024342331492e-05  1.2890435613942545e-05  1.2953701321671738e-05  1.1809170246364618e-05  8.2607726510370574e-06  0.0000000000000000e+00  -8.3399583290619220e-06  0.0000000000000000e+00  -1.1914316284518195e-05  -1.3059107567267683e-05  -1.2985076494079378e-05  -1.2314406629083660e-05  -1.1362384453212249e-05  -1.0285228241316625e-05  -9.1576492086866506e-06  -8.0132540618263688e-06  -6.8656878216926518e-06  -5.7193575170291242e-06  -4.5747818689847077e-06  -3.4312586285853581e-06  -2.2880835836193196e-06  -1.1448916264645687e-06  -1.6219183446347192e-09  1.1416239892708317e-06  2.2847439598162228e-06  3.4277972537932499e-06  4.5711434844702692e-06  5.7154784007776391e-06  6.8614860021979280e-06  8.0086364908908685e-06  9.1525051729942817e-06  1.0279485242460917e-05  1.1355996221423007e-05  1.2307478174882358e-05  1.2977941685362291e-05  1.3052494473977975e-05  1.1909355698334740e-05  8.3377967988807021e-06  0.0000000000000000e+00  -8.3364125688054362e-06  0.0000000000000000e+00  -1.1903022624380520e-05  -1.3042450733383453e-05  -1.2966849029258551e-05  -1.2297816011840150e-05  -1.1349462384321389e-05  -1.0276859945902413e-05  -9.1537901429419595e-06  -8.0132568391569872e-06  -6.8685190011279767e-06  -5.7238377612832142e-06  -4.5797195132168679e-06  -3.4355793025296877e-06  -2.2909065668238736e-06  -1.1455898419709092e-06  1.4371904556293051e-10  1.1458876885401264e-06  2.2912358991207802e-06  3.4359587755826095e-06  4.5801597443244088e-06  5.7243258989301380e-06  6.8690092101703036e-06  8.0136352853851270e-06  9.1538808446173779e-06  1.0276377934839392e-05  1.1348031750734224e-05  1.2294931908822840e-05  1.2962021610692061e-05  1.3035435070911048e-05  1.1894409987478286e-05  8.3287449719267550e-06  0.0000000000000000e+00  -8.2433702984387243e-06  0.0000000000000000e+00  -1.1772111211217193e-05  -1.2905641431366544e-05  -1.2841624364257864e-05  -1.2192560550168697e-05  -1.1266869351218055e-05  -1.0216193906153018e-05  -9.1123980776579954e-06  -7.9875549235965471e-06  -6.8546852061054790e-06  -5.7181820008530567e-06  -4.5789717919689290e-06  -3.4370117032796933e-06  -2.2924251245005659e-06  -1.1457707691433502e-06  2.0311950799470445e-09  1.1498750551810038e-06  2.2966553531397483e-06  3.4414512352064607e-06  4.5836901712774828e-06  5.7232221137537405e-06  6.8600255660487300e-06  7.9930919996328124e-06  9.1178661486701776e-06  1.0221145452385665e-05  1.1270552826280956e-05  1.2193874335554397e-05  1.2839187129177354e-05  1.2898184860234702e-05  1.1759635891291956e-05  8.2298898369653700e-06  0.0000000000000000e+00  -8.0583200063546768e-06  0.0000000000000000e+00  -1.1518827994144856e-05  -1.2646773351625528e-05  -1.2608690123136067e-05  -1.1999004284433048e-05  -1.1115756960565089e-05  -1.0104836451219117e-05  -9.0352285630457828e-06  -7.9378784702862843e-06  -6.8257132673420731e-06  -5.7036758029825542e-06  -4.5735318792578127e-06  -3.4362670467549661e-06  -2.2930746591548565e-06  -1.1456101302172421e-06  4.1150495338902697e-09  1.1539064435605743e-06  2.3015720529754401e-06  3.4450991640506549e-06  4.5828223883344796e-06  5.7135054090068085e-06  6.8361035118305448e-06  7.9487097408179501e-06  9.0461899744975448e-06  1.0115288936202430e-05  1.1124594058354350e-05  1.2004505881485386e-05  1.2608557165232254e-05  1.2638681622182953e-05  1.1502155908617027e-05  8.0386559487874066e-06  0.0000000000000000e+00  -7.7796389451882109e-06  0.0000000000000000e+00  -1.1141874921698527e-05  -1.2265809696881909e-05  -1.2269404981760152e-05  -1.1719593000165866e-05  -1.0899152731916205e-05  -9.9459524431249218e-06  -8.9252300641394550e-06  -7.8667332099170030e-06  -6.7836171745709396e-06  -5.6818000547846582e-06  -4.5644307877782969e-06  -3.4339834067450568e-06  -2.2931851432042234e-06  -1.1451860684979166e-06  6.5320682977124523e-09  1.1583287914692100e-06  2.3065657066715963e-06  3.4477665611770349e-06  4.5787655435586582e-06  5.6968052889320962e-06  6.7993221802051021e-06  7.8830339677177146e-06  8.9417404508256177e-06  9.9618648765085149e-06  1.0913012402166320e-05  1.1729054288857678e-05  1.2271266463039867e-05  1.2256668811210028e-05  1.1120493934396492e-05  7.7533072329406588e-06  0.0000000000000000e+00  -7.4059000688194073e-06  0.0000000000000000e+00  -1.0640419909822188e-05  -1.1763368451013556e-05  -1.1825740746464296e-05  -1.1357088837685599e-05  -1.0619963898457072e-05  -9.7420527088997610e-06  -8.7842394328444101e-06  -7.7751850740229973e-06  -6.7287371562600909e-06  -5.6523715593165508e-06  -4.5511314757039016e-06  -3.4294989374652780e-06  -2.2921325287159134e-06  -1.1440467672181901e-06  9.4947821815335701e-09  1.1631067767988674e-06  2.3114106598501308e-06  3.4491473538188550e-06  4.5713003401264084e-06  5.6731661228901714e-06  6.7501989348480925e-06  7.7971776022702013e-06  8.8063152401631090e-06  9.7632414404481426e-06  1.0638466345608848e-05  1.1369982794979339e-05  1.1828934692817867e-05  1.1752396612690298e-05  1.0613475354952415e-05  7.3721596720111043e-06  0.0000000000000000e+00  -6.9345377116217031e-06  0.0000000000000000e+00  -1.0012042920171422e-05  -1.1138059876172977e-05  -1.1276994548995405e-05  -1.0910672530183767e-05  -1.0276566610767816e-05  -9.4903440203746287e-06  -8.6082448713963799e-06  -7.6582730404568553e-06  -6.6555791939149858e-06  -5.6098135056269884e-06  -4.5284791080667953e-06  -3.4184675968942438e-06  -2.2867254824710651e-06  -1.1403753782798844e-06  1.3322092992028174e-08  1.1670560345716494e-06  2.3135198502538852e-06  3.4454669231305319e-06  4.5557640911010857e-06  5.6374430709602755e-06  6.6835270790687394e-06  7.6863501011734011e-06  8.6359049338976794e-06  9.5164367905331860e-06  1.0298997860106842e-05  1.0925982793260766e-05  1.1280259945531921e-05  1.1123828961118892e-05  9.9780408400117872e-06  6.8921556124427790e-06  0.0000000000000000e+00  -6.3593138492947014e-06  0.0000000000000000e+00  -9.2484901746308149e-06  -1.0380661553638433e-05  -1.0612444284365556e-05  -1.0367370990855750e-05  -9.8534043955889762e-06  -9.1729660349986734e-06  -8.3778248140279971e-06  -7.4959764377734502e-06  -6.5446025071475496e-06  -5.5361066991683741e-06  -4.4808509659724231e-06  -3.3884312513593076e-06  -2.2682129134144662e-06  -1.1295138611331230e-06  1.8393518592988739e-08  1.1662673162473694e-06  2.3048745490670054e-06  3.4249488567932796e-06  4.5171727125847761e-06  5.5721394873926906e-06  6.5801898095125616e-06  7.5307752144080090e-06  8.4111162079918559e-06  9.2034028397482127e-06  9.8785945246804315e-06  1.0383386094819512e-05  1.0613658998658607e-05  1.0360779933041266e-05  9.2049805037857349e-06  6.3062906999963076e-06  0.0000000000000000e+00  -5.6653876222889841e-06  0.0000000000000000e+00  -8.3267231885204459e-06  -9.4613852368603203e-06  -9.7953287361685597e-06  -9.6836531435721251e-06  -9.3013677078620054e-06  -8.7371888954203113e-06  -8.0389963020300290e-06  -7.2354907959435059e-06  -6.3463963029832641e-06  -5.3871622693734967e-06  -4.3710949938037482e-06  -3.3103962980814316e-06  -2.2166897626975251e-06  -1.1012305215824851e-06  2.4966437438405732e-08  1.1510245166556131e-06  2.2660686962482909e-06  3.3590902786452530e-06  4.4188111356096437e-06  5.4335703193825908e-06  6.3910714409827372e-06  7.2778164678621302e-06  8.0779706471939590e-06  8.7711593807546551e-06  9.3276213819549210e-06  9.6978637327829677e-06  9.7913311346952932e-06  9.4322989208388673e-06  8.2701104081545177e-06  5.5987538164235375e-06  0.0000000000000000e+00  -4.8192836315582068e-06  0.0000000000000000e+00  -7.1896284662251374e-06  -8.3021562879485891e-06  -8.7286787168513759e-06  -8.7473315181087136e-06  -8.4981774402376695e-06  -8.0563445951643222e-06  -7.4662116195180213e-06  -6.7572982403259095e-06  -5.9516530086282663e-06  -5.0672756767731319e-06  -4.1197669538153435e-06  -3.1232239509635905e-06  -2.0907547879540839e-06  -1.0348018224070553e-06  3.2642510565980724e-08  1.0998120571275763e-06  2.1549417125013762e-06  3.1860231507856002e-06  4.1805779190422817e-06  5.1254169580167831e-06  6.0063276993231992e-06  6.8074793921815609e-06  7.5104619498638765e-06  8.0925937135706755e-06  8.5233101737562909e-06  8.7566412381950997e-06  8.7156654831921804e-06  8.2597255571965228e-06  7.1158214753063970e-06  4.7355543081162975e-06  0.0000000000000000e+00  -3.7464870951855298e-06  0.0000000000000000e+00  -5.7022666455343072e-06  -6.7153791725967444e-06  -7.1825875527604613e-06  -7.2993201721511256e-06  -7.1693594534533910e-06  -6.8533749814056340e-06  -6.3908806430122636e-06  -5.8103849829542074e-06  -5.1342073590834658e-06  -4.3808391460221372e-06  -3.5661996065734344e-06  -2.7044229731841400e-06  -1.8083996947623333e-06  -8.9014743891880839e-07  3.8878714766361922e-08  9.6750676144066329e-07  1.8845551481984842e-06  2.7785394486413493e-06  3.6373684247526018e-06  4.4480420463110033e-06  5.1962552471913986e-06  5.8658180993785157e-06  6.4378145920380547e-06  6.8892941063540969e-06  7.1907616267996272e-06  7.3012557210181067e-06  7.1585216051222943e-06  6.6583875455305964e-06  5.6109191976607509e-06  3.6452383831986757e-06  0.0000000000000000e+00  -2.2770705699206270e-06  0.0000000000000000e+00  -3.5501737707436418e-06  -4.2696264525330450e-06  -4.6425080645846184e-06  -4.7762004499342252e-06  -4.7330405279613582e-06  -4.5531334104987520e-06  -4.2646973315388288e-06  -3.8890687779524092e-06  -3.4432582708805303e-06  -2.9413355737306369e-06  -2.3952735153909272e-06  -1.8155342924804990e-06  -1.2114993940331233e-06  -5.9180076176192466e-07  3.5413162190918049e-08  6.6222697929704992e-07  1.2807151370790625e-06  1.8826890732589588e-06  2.4594409038217579e-06  3.0014645861090005e-06  3.4981236361651382e-06  3.9371838854226593e-06  4.3041950972669870e-06  4.5816180295610826e-06  4.7473242593151431e-06  4.7719796263082546e-06  4.6142720735383240e-06  4.2115240538628286e-06  3.4605684290724655e-06  2.1766851106997202e-06  0.0000000000000000e+00  0.0000000000000000e+00  0.0000000000000000e+00  0.0000000000000000e+00  0.0000000000000000e+00  0.0000000000000000e+00  0.0000000000000000e+00  0.0000000000000000e+00  0.0000000000000000e+00  0.0000000000000000e+00  0.0000000000000000e+00  0.0000000000000000e+00  0.0000000000000000e+00  0.0000000000000000e+00  0.0000000000000000e+00  0.0000000000000000e+00  0.0000000000000000e+00  0.0000000000000000e+00  0.0000000000000000e+00  0.0000000000000000e+00  0.0000000000000000e+00  0.0000000000000000e+00  0.0000000000000000e+00  0.0000000000