<?xml version="1.0"?>
<VTKFile type="UnstructuredGrid"  version="0.1"  >
<UnstructuredGrid>
<Piece  NumberOfPoints="759" NumberOfCells="1408">
<Points>
<DataArray  type="Float64"  NumberOfComponents="3"  format="ascii">0 0.46875 0  0.03125 0.46875 0  0.03125 0.515625 0  0 0.515625 0  0.0625 0.46875 0  0.0625 0.515625 0  0.09375 0.46875 0  0.09375 0.515625 0  0.125 0.46875 0  0.125 0.515625 0  0.15625 0.46875 0  0.15625 0.515625 0  0.1875 0.46875 0  0.1875 0.515625 0  0.21875 0.46875 0  0.21875 0.515625 0  0.25 0.46875 0  0.25 0.515625 0  0.28125 0.46875 0  0.28125 0.515625 0  0.3125 0.46875 0  0.3125 0.515625 0  0.34375 0.46875 0  0.34375 0.515625 0  0.375 0.46875 0  0.375 0.515625 0  0.40625 0.46875 0  0.40625 0.515625 0  0.4375 0.46875 0  0.4375 0.515625 0  0.46875 0.46875 0  0.46875 0.515625 0  0.5 0.46875 0  0.5 0.515625 0  0.53125 0.46875 0  0.53125 0.515625 0  0.5625 0.46875 0  0.5625 0.515625 0  0.59375 0.46875 0  0.59375 0.515625 0  0.625 0.46875 0  0.625 0.515625 0  0.65625 0.46875 0  0.65625 0.515625 0  0.6875 0.46875 0  0.6875 0.515625 0  0.71875 0.46875 0  0.71875 0.515625 0  0.75 0.46875 0  0.75 0.515625 0  0.78125 0.46875 0  0.78125 0.515625 0  0.8125 0.46875 0  0.8125 0.515625 0  0.84375 0.46875 0  0.84375 0.515625 0  0.875 0.46875 0  0.875 0.515625 0  0.90625 0.46875 0  0.90625 0.515625 0  0.9375 0.46875 0  0.9375 0.515625 0  0.96875 0.46875 0  0.96875 0.515625 0  1 0.46875 0  1 0.515625 0  0.03125 0.5625 0  0 0.5625 0  0.0625 0.5625 0  0.09375 0.5625 0  0.125 0.5625 0  0.15625 0.5625 0  0.1875 0.5625 0  0.21875 0.5625 0  0.25 0.5625 0  0.28125 0.5625 0  0.3125 0.5625 0  0.34375 0.5625 0  0.375 0.5625 0  0.40625 0.5625 0  0.4375 0.5625 0  0.46875 0.5625 0  0.5 0.5625 0  0.53125 0.5625 0  0.5625 0.5625 0  0.59375 0.5625 0  0.625 0.5625 0  0.65625 0.5625 0  0.6875 0.5625 0  0.71875 0.5625 0  0.75 0.5625 0  0.78125 0.5625 0  0.8125 0.5625 0  0.84375 0.5625 0  0.875 0.5625 0  0.90625 0.5625 0  0.9375 0.5625 0  0.96875 0.5625 0  1 0.5625 0  0.03125 0.609375 0  0 0.609375 0  0.0625 0.609375 0  0.09375 0.609375 0  0.125 0.609375 0  0.15625 0.609375 0  0.1875 0.609375 0  0.21875 0.609375 0  0.25 0.609375 0  0.28125 0.609375 0  0.3125 0.609375 0  0.34375 0.609375 0  0.375 0.609375 0  0.40625 0.609375 0  0.4375 0.609375 0  0.46875 0.609375 0  0.5 0.609375 0  0.53125 0.609375 0  0.5625 0.609375 0  0.59375 0.609375 0  0.625 0.609375 0  0.65625 0.609375 0  0.6875 0.609375 0  0.71875 0.609375 0  0.75 0.609375 0  0.78125 0.609375 0  0.8125 0.609375 0  0.84375 0.609375 0  0.875 0.609375 0  0.90625 0.609375 0  0.9375 0.609375 0  0.96875 0.609375 0  1 0.609375 0  0.03125 0.65625 0  0 0.65625 0  0.0625 0.65625 0  0.09375 0.65625 0  0.125 0.65625 0  0.15625 0.65625 0  0.1875 0.65625 0  0.21875 0.65625 0  0.25 0.65625 0  0.28125 0.65625 0  0.3125 0.65625 0  0.34375 0.65625 0  0.375 0.65625 0  0.40625 0.65625 0  0.4375 0.65625 0  0.46875 0.65625 0  0.5 0.65625 0  0.53125 0.65625 0  0.5625 0.65625 0  0.59375 0.65625 0  0.625 0.65625 0  0.65625 0.65625 0  0.6875 0.65625 0  0.71875 0.65625 0  0.75 0.65625 0  0.78125 0.65625 0  0.8125 0.65625 0  0.84375 0.65625 0  0.875 0.65625 0  0.90625 0.65625 0  0.9375 0.65625 0  0.96875 0.65625 0  1 0.65625 0  0.03125 0.703125 0  0 0.703125 0  0.0625 0.703125 0  0.09375 0.703125 0  0.125 0.703125 0  0.15625 0.703125 0  0.1875 0.703125 0  0.21875 0.703125 0  0.25 0.703125 0  0.28125 0.703125 0  0.3125 0.703125 0  0.34375 0.703125 0  0.375 0.703125 0  0.40625 0.703125 0  0.4375 0.703125 0  0.46875 0.703125 0  0.5 0.703125 0  0.53125 0.703125 0  0.5625 0.703125 0  0.59375 0.703125 0  0.625 0.703125 0  0.65625 0.703125 0  0.6875 0.703125 0  0.71875 0.703125 0  0.75 0.703125 0  0.78125 0.703125 0  0.8125 0.703125 0  0.84375 0.703125 0  0.875 0.703125 0  0.90625 0.703125 0  0.9375 0.703125 0  0.96875 0.703125 0  1 0.703125 0  0.03125 0.75 0  0 0.75 0  0.0625 0.75 0  0.09375 0.75 0  0.125 0.75 0  0.15625 0.75 0  0.1875 0.75 0  0.21875 0.75 0  0.25 0.75 0  0.28125 0.75 0  0.3125 0.75 0  0.34375 0.75 0  0.375 0.75 0  0.40625 0.75 0  0.4375 0.75 0  0.46875 0.75 0  0.5 0.75 0  0.53125 0.75 0  0.5625 0.75 0  0.59375 0.75 0  0.625 0.75 0  0.65625 0.75 0  0.6875 0.75 0  0.71875 0.75 0  0.75 0.75 0  0.78125 0.75 0  0.8125 0.75 0  0.84375 0.75 0  0.875 0.75 0  0.90625 0.75 0  0.9375 0.75 0  0.96875 0.75 0  1 0.75 0  0.03125 0.796875 0  0 0.796875 0  0.0625 0.796875 0  0.09375 0.796875 0  0.125 0.796875 0  0.15625 0.796875 0  0.1875 0.796875 0  0.21875 0.796875 0  0.25 0.796875 0  0.28125 0.796875 0  0.3125 0.796875 0  0.34375 0.796875 0  0.375 0.796875 0  0.40625 0.796875 0  0.4375 0.796875 0  0.46875 0.796875 0  0.5 0.796875 0  0.53125 0.796875 0  0.5625 0.796875 0  0.59375 0.796875 0  0.625 0.796875 0  0.65625 0.796875 0  0.6875 0.796875 0  0.71875 0.796875 0  0.75 0.796875 0  0.78125 0.796875 0  0.8125 0.796875 0  0.84375 0.796875 0  0.875 0.796875 0  0.90625 0.796875 0  0.9375 0.796875 0  0.96875 0.796875 0  1 0.796875 0  0.03125 0.84375 0  0 0.84375 0  0.0625 0.84375 0  0.09375 0.84375 0  0.125 0.84375 0  0.15625 0.84375 0  0.1875 0.84375 0  0.21875 0.84375 0  0.25 0.84375 0  0.28125 0.84375 0  0.3125 0.84375 0  0.34375 0.84375 0  0.375 0.84375 0  0.40625 0.84375 0  0.4375 0.84375 0  0.46875 0.84375 0  0.5 0.84375 0  0.53125 0.84375 0  0.5625 0.84375 0  0.59375 0.84375 0  0.625 0.84375 0  0.65625 0.84375 0  0.6875 0.84375 0  0.71875 0.84375 0  0.75 0.84375 0  0.78125 0.84375 0  0.8125 0.84375 0  0.84375 0.84375 0  0.875 0.84375 0  0.90625 0.84375 0  0.9375 0.84375 0  0.96875 0.84375 0  1 0.84375 0  0.03125 0.890625 0  0 0.890625 0  0.0625 0.890625 0  0.09375 0.890625 0  0.125 0.890625 0  0.15625 0.890625 0  0.1875 0.890625 0  0.21875 0.890625 0  0.25 0.890625 0  0.28125 0.890625 0  0.3125 0.890625 0  0.34375 0.890625 0  0.375 0.890625 0  0.40625 0.890625 0  0.4375 0.890625 0  0.46875 0.890625 0  0.5 0.890625 0  0.53125 0.890625 0  0.5625 0.890625 0  0.59375 0.890625 0  0.625 0.890625 0  0.65625 0.890625 0  0.6875 0.890625 0  0.71875 0.890625 0  0.75 0.890625 0  0.78125 0.890625 0  0.8125 0.890625 0  0.84375 0.890625 0  0.875 0.890625 0  0.90625 0.890625 0  0.9375 0.890625 0  0.96875 0.890625 0  1 0.890625 0  0.03125 0.9375 0  0 0.9375 0  0.0625 0.9375 0  0.09375 0.9375 0  0.125 0.9375 0  0.15625 0.9375 0  0.1875 0.9375 0  0.21875 0.9375 0  0.25 0.9375 0  0.28125 0.9375 0  0.3125 0.9375 0  0.34375 0.9375 0  0.375 0.9375 0  0.40625 0.9375 0  0.4375 0.9375 0  0.46875 0.9375 0  0.5 0.9375 0  0.53125 0.9375 0  0.5625 0.9375 0  0.59375 0.9375 0  0.625 0.9375 0  0.65625 0.9375 0  0.6875 0.9375 0  0.71875 0.9375 0  0.75 0.9375 0  0.78125 0.9375 0  0.8125 0.9375 0  0.84375 0.9375 0  0.875 0.9375 0  0.90625 0.9375 0  0.9375 0.9375 0  0.96875 0.9375 0  1 0.9375 0  0.03125 0.984375 0  0 0.984375 0  0.0625 0.984375 0  0.09375 0.984375 0  0.125 0.984375 0  0.15625 0.984375 0  0.1875 0.984375 0  0.21875 0.984375 0  0.25 0.984375 0  0.28125 0.984375 0  0.3125 0.984375 0  0.34375 0.984375 0  0.375 0.984375 0  0.40625 0.984375 0  0.4375 0.984375 0  0.46875 0.984375 0  0.5 0.984375 0  0.53125 0.984375 0  0.5625 0.984375 0  0.59375 0.984375 0  0.625 0.984375 0  0.65625 0.984375 0  0.6875 0.984375 0  0.71875 0.984375 0  0.75 0.984375 0  0.78125 0.984375 0  0.8125 0.984375 0  0.84375 0.984375 0  0.875 0.984375 0  0.90625 0.984375 0  0.9375 0.984375 0  0.96875 0.984375 0  1 0.984375 0  0.03125 1.03125 0  0 1.03125 0  0.0625 1.03125 0  0.09375 1.03125 0  0.125 1.03125 0  0.15625 1.03125 0  0.1875 1.03125 0  0.21875 1.03125 0  0.25 1.03125 0  0.28125 1.03125 0  0.3125 1.03125 0  0.34375 1.03125 0  0.375 1.03125 0  0.40625 1.03125 0  0.4375 1.03125 0  0.46875 1.03125 0  0.5 1.03125 0  0.53125 1.03125 0  0.5625 1.03125 0  0.59375 1.03125 0  0.625 1.03125 0  0.65625 1.03125 0  0.6875 1.03125 0  0.71875 1.03125 0  0.75 1.03125 0  0.78125 1.03125 0  0.8125 1.03125 0  0.84375 1.03125 0  0.875 1.03125 0  0.90625 1.03125 0  0.9375 1.03125 0  0.96875 1.03125 0  1 1.03125 0  0.03125 1.078125 0  0 1.078125 0  0.0625 1.078125 0  0.09375 1.078125 0  0.125 1.078125 0  0.15625 1.078125 0  0.1875 1.078125 0  0.21875 1.078125 0  0.25 1.078125 0  0.28125 1.078125 0  0.3125 1.078125 0  0.34375 1.078125 0  0.375 1.078125 0  0.40625 1.078125 0  0.4375 1.078125 0  0.46875 1.078125 0  0.5 1.078125 0  0.53125 1.078125 0  0.5625 1.078125 0  0.59375 1.078125 0  0.625 1.078125 0  0.65625 1.078125 0  0.6875 1.078125 0  0.71875 1.078125 0  0.75 1.078125 0  0.78125 1.078125 0  0.8125 1.078125 0  0.84375 1.078125 0  0.875 1.078125 0  0.90625 1.078125 0  0.9375 1.078125 0  0.96875 1.078125 0  1 1.078125 0  0.03125 1.125 0  0 1.125 0  0.0625 1.125 0  0.09375 1.125 0  0.125 1.125 0  0.15625 1.125 0  0.1875 1.125 0  0.21875 1.125 0  0.25 1.125 0  0.28125 1.125 0  0.3125 1.125 0  0.34375 1.125 0  0.375 1.125 0  0.40625 1.125 0  0.4375 1.125 0  0.46875 1.125 0  0.5 1.125 0  0.53125 1.125 0  0.5625 1.125 0  0.59375 1.125 0  0.625 1.125 0  0.65625 1.125 0  0.6875 1.125 0  0.71875 1.125 0  0.75 1.125 0  0.78125 1.125 0  0.8125 1.125 0  0.84375 1.125 0  0.875 1.125 0  0.90625 1.125 0  0.9375 1.125 0  0.96875 1.125 0  1 1.125 0  0.03125 1.171875 0  0 1.171875 0  0.0625 1.171875 0  0.09375 1.171875 0  0.125 1.171875 0  0.15625 1.171875 0  0.1875 1.171875 0  0.21875 1.171875 0  0.25 1.171875 0  0.28125 1.171875 0  0.3125 1.171875 0  0.34375 1.171875 0  0.375 1.171875 0  0.40625 1.171875 0  0.4375 1.171875 0  0.46875 1.171875 0  0.5 1.171875 0  0.53125 1.171875 0  0.5625 1.171875 0  0.59375 1.171875 0  0.625 1.171875 0  0.65625 1.171875 0  0.6875 1.171875 0  0.71875 1.171875 0  0.75 1.171875 0  0.78125 1.171875 0  0.8125 1.171875 0  0.84375 1.171875 0  0.875 1.171875 0  0.90625 1.171875 0  0.9375 1.171875 0  0.96875 1.171875 0  1 1.171875 0  0.03125 1.21875 0  0 1.21875 0  0.0625 1.21875 0  0.09375 1.21875 0  0.125 1.21875 0  0.15625 1.21875 0  0.1875 1.21875 0  0.21875 1.21875 0  0.25 1.21875 0  0.28125 1.21875 0  0.3125 1.21875 0  0.34375 1.21875 0  0.375 1.21875 0  0.40625 1.21875 0  0.4375 1.21875 0  0.46875 1.21875 0  0.5 1.21875 0  0.53125 1.21875 0  0.5
[...]
<PointData  Scalars="p"> 
<DataArray  type="Float64"  Name="p"  format="ascii">0.0000000000000000e+00  -9.4263684088997206e-03  -9.8746006530538201e-03  0.0000000000000000e+00  -1.6254317975171104e-02  -1.7003014918268396e-02  -2.0956231367936697e-02  -2.1912458247171539e-02  -2.3932270556800753e-02  -2.5027332269296588e-02  -2.5512624668403622e-02  -2.6690730682379399e-02  -2.5966543145420178e-02  -2.7180280183816234e-02  -2.5512468218137560e-02  -2.6720676253629748e-02  -2.4327322950789397e-02  -2.5494106647389558e-02  -2.2554639537279205e-02  -2.3648703490607898e-02  -2.0311321796183040e-02  -2.1305661180118177e-02  -1.7693365348739817e-02  -1.8564944615893531e-02  -1.4780559092316516e-02  -1.5510192759361103e-02  -1.1640447173401526e-02  -1.2212616258359347e-02  -8.3316022879153916e-03  -8.7344220043989035e-03  -4.9064777116481079e-03  -5.1316196587326444e-03  -1.4138419429977111e-03  -1.4565807359916535e-03  2.0989957491524716e-03  2.2397541016392912e-03  5.5841073473502081e-03  5.9056920915514493e-03  8.9908618589895229e-03  9.4867069253118576e-03  1.2263801947504590e-02  1.2923227794174630e-02  1.5340318244153408e-02  1.6148321297658499e-02  1.8148036230924248e-02  1.9085006473696275e-02  2.0601769872819226e-02  2.1643225714268525e-02  2.2599936315753300e-02  2.3716197018518539e-02  2.4020178945983267e-02  2.5176072210904472e-02  2.4714082605178225e-02  2.5868586792366709e-02  2.4500634474473863e-02  2.5606607757963792e-02  2.3158231484083476e-02  2.4162174755552105e-02  2.0414772004772219e-02  2.1257050269127099e-02  1.5935093005399897e-02  1.6551494199945838e-02  9.3039803079458527e-03  9.6319517795236727e-03  0.0000000000000000e+00  0.0000000000000000e+00  -1.0919622834273590e-02  0.0000000000000000e+00  -1.8823348216048169e-02  -2.4290783947458140e-02  -2.7785494391848832e-02  -2.9679728987131674e-02  -3.0273332533600268e-02  -2.9808885937517515e-02  -2.8483355348195724e-02  -2.6457832228494075e-02  -2.3864929644071185e-02  -2.0815231425795194e-02  -1.7402141291224967e-02  -1.3706293741327178e-02  -9.7988540366450282e-03  -5.7447347807652906e-03  -1.6050555452850467e-03  2.5603163795100757e-03  6.6906231594706413e-03  1.0721858958930582e-02  1.4584575180407693e-02  1.8201316941246205e-02  2.1483955967719157e-02  2.4330417678108660e-02  2.6621053467815702e-02  2.8214008144817108e-02  2.8939792944310427e-02  2.8594367513261790e-02  2.6930790012442890e-02  2.3648752775564073e-02  1.8381888987978073e-02  1.0682047791600860e-02  0.0000000000000000e+00  -1.2507180712286020e-02  0.0000000000000000e+00  -2.1572697193403566e-02  -2.7862983194213906e-02  -3.1905982533077304e-02  -3.4122215449574909e-02  -3.4848887013444400e-02  -3.4357910019475406e-02  -3.2870465546530149e-02  -3.0567706128074086e-02  -2.7599938769969995e-02  -2.4093106770636238e-02  -2.0154918502655488e-02  -1.5878932747928318e-02  -1.1348882097764985e-02  -6.6415098923688952e-03  -1.8298812629399114e-03  3.0143815256942277e-03  7.8182418146698004e-03  1.2505092738058454e-02  1.6991958504777360e-02  2.1187053160328807e-02  2.4986548020961983e-02  2.8271362131125327e-02  3.0902893888794278e-02  3.2718287592569527e-02  3.3524079633684145e-02  3.3088681518238412e-02  3.1132317761244890e-02  2.7314637809192778e-02  2.1218250976953835e-02  1.2327510179826083e-02  0.0000000000000000e+00  -1.4624968684445669e-02  0.0000000000000000e+00  -2.5215867680512948e-02  -3.2565553550318746e-02  -3.7295924378776456e-02  -3.9898593428218006e-02  -4.0765010633900103e-02  -4.0209912508018177e-02  -3.8488338038524014e-02  -3.5809688411812812e-02  -3.2347441187059921e-02  -2.8248031389771049e-02  -2.3636561522910927e-02  -1.8622874944316074e-02  -1.3305060601283746e-02  -7.7740789652005421e-03  -2.1161919725827517e-03  3.5832013152353676e-03  9.2374649452329274e-03  1.4755169653120331e-02  2.0037862402983421e-02  2.4976401818775664e-02  2.9448071115865466e-02  3.3312183804113805e-02  3.6405886316574071e-02  3.8538017681742184e-02  3.9482248954046735e-02  3.8967488984736016e-02  3.6666045214934183e-02  3.2177505556572256e-02  2.5007818617543063e-02  1.4540792389603985e-02  0.0000000000000000e+00  -1.7295370205377941e-02  0.0000000000000000e+00  -2.9784765640787376e-02  -3.8429796682753599e-02  -4.3979406426615041e-02  -4.7021393631424435e-02  -4.8021342498579540e-02  -4.7351374651896254e-02  -4.5312386579064938e-02  -4.2150166677033717e-02  -3.8068615280227140e-02  -3.3238813552921812e-02  -2.7807624050442941e-02  -2.1902872187280494e-02  -1.5639643603696771e-02  -9.1234464318468780e-03  -2.4554738969720315e-03  4.2652213852586449e-03  1.0936862277197174e-02  1.7452911325800301e-02  2.3697330837811038e-02  2.9542062406751671e-02  3.4841941050031827e-02  3.9430874459434058e-02  4.3115562120856779e-02  4.5669159683974461e-02  4.6821961872975874e-02  4.6250339616137663e-02  4.3561233790302190e-02  3.8272248703163120e-02  2.9784333075037431e-02  1.7345261341272070e-02  0.0000000000000000e+00  -2.0566512236421308e-02  0.0000000000000000e+00  -3.5356025382770252e-02  -4.5546173314794228e-02  -5.2049524167015387e-02  -5.5578815693747459e-02  -5.6695762156823523e-02  -5.5847435540240978e-02  -5.3393488024612849e-02  -4.9626717669861015e-02  -4.4788405407169787e-02  -3.9080519707945058e-02  -3.2674643601420042e-02  -2.5720121779067961e-02  -1.8349375758608830e-02  -1.0684481528082657e-02  -2.8404555930132674e-03  5.0685978772474251e-03  1.2927128214827666e-02  2.0611885973990086e-02  2.7989583577898894e-02  3.4910472219137088e-02  4.1204890617115915e-02  4.6676160105688515e-02  5.1094714212866751e-02  5.4188778915022065e-02  5.5633904393279802e-02  5.5038337663388587e-02  5.1924137278379537e-02  4.5701640723525193e-02  3.5635085226675856e-02  2.0795974536493605e-02  0.0000000000000000e+00  -2.4505783051717907e-02  0.0000000000000000e+00  -4.2037850263470497e-02  -5.4043732787113455e-02  -6.1641478502214797e-02  -6.5701530508394820e-02  -6.6907435459670789e-02  -6.5801300470586549e-02  -6.2817202651079651e-02  -5.8306709508550283e-02  -5.2557560878793382e-02  -4.5808534011218489e-02  -3.8260708962693887e-02  -3.0086706263601156e-02  -2.1438532707874432e-02  -1.2453791234277750e-02  -3.2624675855668383e-03  6.0087391737011584e-03  1.5229393004882885e-02  2.4261821346567077e-02  3.2953470340317079e-02  4.1133143657498566e-02  4.8602580887215689e-02  5.5130756872358189e-02  6.0443971421339976e-02  6.4215924967300456e-02  6.6053512715570833e-02  6.5479206034724444e-02  6.1907162629365936e-02  5.4611377807617524e-02  4.2682589856751878e-02  2.4969606134067710e-02  0.0000000000000000e+00  -2.9196205180686684e-02  0.0000000000000000e+00  -4.9962358870742109e-02  -6.4078218097148643e-02  -7.2915950340843819e-02  -7.7542000733646504e-02  -7.8792086435275091e-02  -7.7327199102412411e-02  -7.3674495850937341e-02  -6.8258427304398100e-02  -6.1423631904368781e-02  -5.3452950561304800e-02  -4.4581438443340261e-02  -3.5007692402254077e-02  -2.4903584038785294e-02  -1.4422474071639456e-02  -3.7069721548706755e-03  7.1040050525539101e-03  1.7868449655554421e-02  2.8433783682690492e-02  3.8630570612985568e-02  4.8263617213377893e-02  5.7105090683776415e-02  6.4883458466402547e-02  7.1273890196608999e-02  7.5883467892912268e-02  7.8234937076215039e-02  7.7743849883752797e-02  7.3689480107269459e-02  6.5175080959890191e-02  5.1074556948207700e-02  2.9959421015424832e-02  0.0000000000000000e+00  -3.4735085368003536e-02  0.0000000000000000e+00  -5.9281699223912396e-02  -7.5824557250751948e-02  -8.6047617432448001e-02  -9.1258739812383777e-02  -9.2482728990421828e-02  -9.0527995132312453e-02  -8.6037807622228499e-02  -7.9526068491739113e-02  -7.1407059251335225e-02  -6.2015492371136023e-02  -5.1625574821441200e-02  -4.0463704743342786e-02  -2.8721728986977040e-02  -1.6567043538006920e-02  -4.1523093622596778e-03  8.3746942137351808e-03  2.0863201132561862e-02  3.3149028735090375e-02  4.5046545376452987e-02  5.6338055471316865e-02  6.6762715486474000e-02  7.6005214665163662e-02  8.3679787706507094e-02  8.9314939973861085e-02  9.2329938885267707e-02  9.2009035622595089e-02  8.7463693016491623e-02  7.7585351549569387e-02  6.0978865892176840e-02  3.5873434552668261e-02  0.0000000000000000e+00  -4.1233600227439181e-02  0.0000000000000000e+00  -7.0164800525765181e-02  -8.9469718978725396e-02  -1.0121260849457782e-01  -1.0699918488860090e-01  -1.0808753847346711e-01  -1.0547041574268483e-01  -9.9933737654584590e-02  -9.2102917223214176e-02  -8.2474710006356589e-02  -7.1446348336231064e-02  -5.9334356678081908e-02  -4.6395403250970940e-02  -3.2838997943893632e-02  -1.8843641616602409e-02  -4.5677672103824262e-03  9.8378367300439532e-03  2.4217930955408376e-02  3.8402460165992768e-02  5.2192647808805920e-02  6.5349975966339929e-02  7.7580882841769186e-02  8.8520414034584133e-02  9.7715088696935681e-02  1.0459816635325120e-01  1.0846541560229375e-01  1.0843827179849833e-01  1.0342177147709448e-01  9.2044153428163925e-02  7.2578416521380112e-02  4.2832421505412548e-02  0.0000000000000000e+00  -4.8816088440620478e-02  0.0000000000000000e+00  -8.2793214071544260e-02  -1.0520176078993904e-01  -1.1857111897345819e-01  -1.2487415044685779e-01  -1.2565985149446404e-01  -1.2214963509054248e-01  -1.1530789243273695e-01  -1.0589481681525247e-01  -9.4508020984121352e-02  -8.1614405905496817e-02  -6.7578856947195134e-02  -5.2685447272388587e-02  -3.7159604249646448e-02  -2.1183695319405931e-02  -4.9155500446262587e-03  1.1498670461173722e-02  2.7907903383838129e-02  4.4142681734032796e-02  5.9998863442771416e-02  7.5220885861663173e-02  8.9483751567729114e-02  1.0237135513759982e-01  1.1335172979058850e-01  1.2174932086460181e-01  1.2670854999758258e-01  1.2715362482372120e-01  1.2173263976470421e-01  1.0874865254714425e-01  8.6063559005046739e-02  5.0967856063870276e-02  0.0000000000000000e+00  -5.7618949191565724e-02  0.0000000000000000e+00  -9.7352897527311841e-02  -1.2319189111926204e-01  -1.3823705577567844e-01  -1.4491833074304006e-01  -1.4514947508966417e-01  -1.4043889775931534e-01  -1.3197195345006490e-01  -1.2067353410148894e-01  -1.0725866439975872e-01  -9.2273463261613314e-02  -7.6130898440735548e-02  -5.9140367870799501e-02  -4.1534290581565228e-02  -2.3491419398198876e-02  -5.1566588928208066e-03  1.3337968300337438e-02  3.1858090600140429e-02  5.0244855429697914e-02  6.8299215011887376e-02  8.5757270979430186e-02  1.0226720536600872e-01  1.1736188265154442e-01  1.3042491450131552e-01  1.4065389528982564e-01  1.4701508401969854e-01  1.4818960527909919e-01  1.4250865156333783e-01  1.2786878272415594e-01  1.0162142797545985e-01  6.0418731625479803e-02  0.0000000000000000e+00  -6.7787103741332108e-02  0.0000000000000000e+00  -1.1401807018313879e-01  -1.4355988166965927e-01  -1.6022494213889898e-01  -1.6702097358144630e-01  -1.6632501329804425e-01  -1.6000772550006981e-01  -1.4952766446741619e-01  -1.3600678414400605e-01  -1.2029323450713315e-01  -1.0301652392984240e-01  -8.4633339262953494e-02  -6.5469357139095449e-02  -4.5752368126604603e-02  -2.5642981511795639e-02  -5.2605835174739804e-03  1.5294351715131240e-02  3.5915857782187900e-02  5.6473535756966245e-02  7.6785111601021028e-02  9.6592673089914483e-02  1.1552891013858291e-01  1.3308038489436175e-01  1.4854556639478730e-01  1.6098107164449033e-01  1.6914359780723454e-01  1.7142007534650266e-01  1.6574597051780190e-01  1.4950781839128471e-01  1.1941464829350314e-01  7.1325008844637050e-02  0.0000000000000000e+00  -7.9466877235422770e-02  0.0000000000000000e+00  -1.3292012700436204e-01  -1.6631054488628896e-01  -1.8435534050503083e-01  -1.9080932958398353e-01  -1.8864730252424891e-01  -1.8019853447284684e-01  -1.6725461198909192e-01  -1.5116448641890512e-01  -1.3291845182768319e-01  -1.1322241412444750e-01  -9.2564025713392992e-02  -7.1266192725988733e-02  -4.9534360713152474e-02  -2.7493144892046694e-02  -5.2174157363214764e-03  1.7239032114050961e-02  3.9819202330325154e-02  6.2435847531274256e-02  8.4945152408253122e-02  1.0711253151358520e-01  1.2857453416164055e-01  1.4878883651351640e-01  1.6697515606923641e-01  1.8204523970380104e-01  1.9251846499577088e-01  1.9642917722215261e-01  1.9122164001798350e-01  1.7363155461730193e-01  1.3954647448928789e-01  8.3818800653963396e-02  0.0000000000000000e+00  -9.2788863246073203e-02  0.0000000000000000e+00  -1.5408185995121912e-01  -1.9120837066399995e-01  -2.1007995446162808e-01  -2.1544633507085753e-01  -2.1106509353562519e-01  -1.9984036558199789e-01  -1.8395498335889485e-01  -1.6499970781459955e-01  -1.4409511573990097e-01  -1.2199970440707496e-01  -9.9201643656524910e-02  -7.5993605413052168e-02  -5.2531579426893675e-02  -2.8882222713505976e-02  -5.0580103187093280e-03  1.8952902875471141e-02  4.3158518901668122e-02  6.7535636452829312e-02  9.1999274942234949e-02  1.1636610745112309e-01  1.4030480115736771e-01  1.6327488771447504e-01  1.8444621768855388e-01  2.0259951209450899e-01  2.1600782060701582e-01  2.2229936035282444e-01  2.1831113760715620e-01  1.9994067483872557e-01  1.6199308004981283e-01  9.8006470144462801e-02  0.0000000000000000e+00  -1.0782397908282876e-01  0.0000000000000000e+00  -1.7727098987739798e-01  -2.1752085251350473e-01  -2.3614908040361871e-01  -2.3927668440757299e-01  -2.3168674040024101e-01  -2.1697665715338205e-01  -1.9774798740455429e-01  -1.7580641312003314e-01  -1.5235157361760102e-01  -1.2813850040834815e-01  -1.0360641259308416e-01  -7.8977836718209987e-02  -5.4329652123167073e-02  -2.9647505362350383e-02  -4.8652994717714752e-03  2.0106953849569769e-02  4.5355591932963554e-02  7.0937476972860139e-02  9.6849208669834999e-02  1.2298737338723793e-01  1.4909462483770575e-01  1.7468251409925564e-01  1.9892970467305951e-01  2.2054278661661186e-01  2.3758033970826734e-01  2.4724393888353030e-01  2.4564952381736480e-01  2.2760999512198693e-01  1.8645927060767423e-01  1.1392670557103382e-01  0.0000000000000000e+00  -1.2447344847794727e-01  0.0000000000000000e+00  -2.0166670958490443e-01  -2.4348456605099342e-01  -2.5998758917723164e-01  -2.5922876381067556e-01  -2.4728724324424686e-01  -2.2850641278910611e-01  -2.0583676204392445e-01  -1.8118584239439811e-01  -1.5571700153274742e-01  -1.3008732839405024e-01  -1.0461873062986321e-01  -7.9417240555393162e-02  -5.4455068990213580e-02  -2.9623491531131703e-02  -4.7705109302818372e-03  2.0273073457165204e-02  4.5674704768841973e-02  7.1576869425051981e-02  9.8071725596966641e-02  1.2516375669874222e-01  1.5271399943250041e-01  1.8035830148804510e-01  2.0738052332884011e-01  2.3253220139166755e-01  2.5378147464469891e-01  2.6798359143724310e-01  2.7049063474241869e-01  2.5475774685231550e-01  2.1206130590824454e-01  1.3145898391519645e-01  0.0000000000000000e+00  -1.4216768788021911e-01  0.0000000000000000e+00  -2.2504906235734987e-01  -2.6516622213692964e-01  -2.7654066754120310e-01  -2.6987421172052062e-01  -2.5266205092261756e-01  -2.2980643597895622e-01  -2.0432973247299377e-01  -1.7798850489730755e-01  -1.5172491785114833e-01  -1.2597609674935015e-01  -1.0087766242489317e-01  -7.6388205761387870e-02  -5.2365326804657927e-02  -2.8612310767472698e-02  -4.9057488100901214e-03  1.8988141245240359e-02  4.3300335863128897e-02  6.8247172257228858e-02  9.4011482393603477e-02  1.2071534964845738e-01  1.4837432841531142e-01  1.7681760385208536e-01  2.0555952088806193e-01  2.3359176755867808e-01  2.5905826261383075e-01  2.7876795925151326e-01  2.8752104507979898e-01  2.7730050618537649e-01  2.3655608946759771e-01  1.5007591628513164e-01  0.0000000000000000e+00  -1.5892938558520509e-01  0.0000000000000000e+00  -2.4171388537462180e-01  -2.7407235030454591e-01  -2.7634165116176862e-01  -2.6222361221847307e-01  -2.4005910107376247e-01  -2.1457676414313162e-01  -1.8829035713378389e-01  -1.6243199077834605e-01  -1.3751879723158067e-01  -1.1367853437304420e-01  -9.0835228566621545e-02  -6.8810583774420578e-02  -4.7377002629986703e-02  -2.6285335692490898e-02  -5.2787835511203295e-03  1.5900699538684494e-02  3.7510302016507131e-02  5.9801778127007488e-02  8.3015455314570399e-02  1.0736630276444198e-01  1.3301533970337487e-01  1.6001471337413925e-01  1.8820578776988992e-01  2.1703390574200507e-01  2.4521078254466902e-01  2.7012261038775237e-01  2.8682736953510918e-01  2.8648383295069335e-01  2.5431031488975014e-01  1.6809021547785158e-01  0.0000000000000000e+00  -1.6791865524799565e-01  0.0000000000000000e+00  -2.3696432426874969e-01  -2.5271160534805559e-01  -2.4322087970453829e-01  -2.2313172806823961e-01  -1.9946945613674713e-01  -1.7540438973577258e-01  -1.5224784426834750e-01  -1.3043690097053284e-01  -1.1000762954210376e-01  -9.0818503705656570e-02  -7.2656102239294973e-02  -5.5283743862905882e-02  -3.8461934273692149e-02  -2.1955635531137340e-02  -5.5354815871107516e-03  1.1024646834450322e-02  2.7950336372729749e-02  4.5469981790584944e-02  6.3816192755448656e-02  8.3224891315233390e-02  1.0392692710280775e-01  1.2612676316548146e-01  1.4995625785807831e-01  1.7537103049261413e-01  2.0193212739988645e-01  2.2834177395679114e-01  2.5143792026125350e-01  2.6404145851290733e-01  2.5058116102873146e-01  1.7977371212175597e-01  0.0000000000000000e+00  -1.4306370353800762e-01  0.0000000000000000e+00  -1.7503358319688575e-01  -1.7054155469596879e-01  -1.5539725258606088e-01  -1.3803627933066609e-01  -1.2113498266712612e-01  -1.0544766617310436e-01  -9.1077086873053423e-02  -7.7908858151130675e-02  -6.5764478364092729e-02  -5.4455173892082986e-02  -4.3800799124218491e-02  -3.3634779845695066e-02  -2.3803165609035809e-02  -1.4162050934266136e-02  -4.5741861449613633e-03  5.0944766994698324e-03  1.4978510255919375e-02  2.5216275129147959e-02  3.5953722494918794e-02  4.7347290887113737e-02  5.9566071251662210e-02  7.2792529198194345e-02  8.7218273108930142e-02  1.0302783502938988e-01  1.2035423003793819e-01  1.3915759636699951e-01  1.5887294158752316e-01  1.7732157722278141e-01  1.8699789808186207e-01  1.6120683063007318e-01  0.0000000000000000e+00  0.0000000000000000e+00  0.0000000000000000e+00  0.0000000000000000e+00  0.0000000000000000e+00  0.0000000000000000e+00  0.0000000000000000e+00  0.0000000000000000e+00  0.0000000000000000e+00  0.0000000000000000e+00  0.0000000000000000e+00  0.0000000000000000e+00  0.0000000000000000e+00  0.0000000000000000e+00  0.0000000000000000e+00  0.0000000000000000e+00  0.0000000000000000e+00  0.0000000000000000e+00  0.0000000000000000e+00  0.0000000000000000e+00  0.0000000000000000e+00  0.0000000000000000e+00  0.0000000000000000e+00  0.0000000000000000e+00  0.0000000000000000e+00  0.0000000000000000e+00  0.0000000000000000e+00  0.0000000000000000e+00  0.0000000000000000e+00  0.0000000000000000e+00  0.0000000000000000e+00  0.0000000000000000e+00  0.0000000000000000e+00  0.0000000000000000e+00  </DataArray> 
</PointData> 
</Piece>
</UnstructuredGrid>
</VTKFile>