<?xml version="1.0"?>
<VTKFile type="UnstructuredGrid"  version="0.1"  >
<UnstructuredGrid>
<Piece  NumberOfPoints="825" NumberOfCells="1536">
<Points>
<DataArray  type="Float64"  NumberOfComponents="3"  format="ascii">-2.304632907861813e-22 0.5 0  0.06249999810173821 0.5000000648077807 0  0.06249991178160129 0.5625000763201313 0  -8.703692236896297e-08 0.5625000071144668 0  0.1249999896625116 0.5000001263005749 0  0.1249999046160834 0.5625001327929213 0  0.1874999737708078 0.50000018536011 0  0.1874998912630604 0.5625001834565236 0  0.2499999480457858 0.5000002349741861 0  0.2499998713217665 0.5625002275483006 0  0.3124999141338871 0.5000002790038356 0  0.3124998445126388 0.5625002636220925 0  0.3749998702344348 0.5000003103591038 0  0.374999810672598 0.5625002881638338 0  0.4374998103440383 0.500000318053474 0  0.4374997694236674 0.5625002966677163 0  0.4999997374520515 0.5000003036542833 0  0.4999997211771671 0.5625002877263154 0  0.5624996581311391 0.5000002721141186 0  0.5624996683270181 0.5625002640506757 0  0.6249995830658116 0.5000002339200665 0  0.6249996147107877 0.5625002304748175 0  0.6874995134308816 0.500000189016053 0  0.6874995635745093 0.562500189490577 0  0.7499994503367561 0.5000001380063306 0  0.7499995168516873 0.5625001430223523 0  0.8124993980530841 0.5000000863904652 0  0.8124994766653054 0.5625000938618212 0  0.8749993570489571 0.5000000338090042 0  0.8749994444159376 0.5625000432168169 0  0.937499327911902 0.4999999811502428 0  0.937499420787942 0.5624999925187696 0  0.9999993126012692 0.4999999318245508 0  0.9999994065440299 0.5624999435912041 0  1.062499308099551 0.4999998837575065 0  1.062499401627677 0.5624998967116783 0  1.124999316178224 0.4999998399104455 0  1.124999405657606 0.562499852984178 0  1.18749933451505 0.4999997989904329 0  1.187499418502479 0.5624998135786059 0  1.249999364230807 0.4999997647124642 0  1.24999943949694 0.562499779592434 0  1.31249940463137 0.4999997381654223 0  1.312499467945274 0.5624997525065322 0  1.374999453046112 0.499999718740981 0  1.374999503066774 0.5624997335585676 0  1.437499509653531 0.4999997101782166 0  1.437499543562975 0.5624997240415457 0  1.499999573350713 0.499999714862245 0  1.499999588202944 0.562499725590167 0  1.562499640147641 0.4999997316985083 0  1.562499635797734 0.5624997386632709 0  1.624999709666113 0.499999762146802 0  1.624999684753246 0.5624997626705399 0  1.687499780197099 0.499999804303779 0  1.687499733389141 0.5624997962367081 0  1.749999845935761 0.4999998513663172 0  1.749999779669925 0.5624998365104737 0  1.812499905326833 0.4999999021008272 0  1.812499821221215 0.5624998807263147 0  1.874999955870474 0.4999999525432905 0  1.874999855889235 0.5624999263910873 0  1.937499989746459 0.4999999888609569 0  1.937499880741655 0.5624999729109326 0  2 0.5 0  1.99999989084473 0.5625000465626342 0  0.06249984249578749 0.6250000903820857 0  -1.575769074603877e-07 0.6250000333469926 0  0.1249998382842269 0.6250001396674069 0  0.1874998290409979 0.6250001831912013 0  0.2499998147486643 0.6250002206972284 0  0.3124997955329231 0.6250002505770669 0  0.3749997716216203 0.6250002703711679 0  0.4374997431375874 0.6250002774860007 0  0.4999997103620842 0.6250002708072184 0  0.5624996743024996 0.6250002515393697 0  0.6249996368464941 0.6250002222505826 0  0.6874996001264434 0.6250001853451695 0  0.7499995658966709 0.6250001429006128 0  0.8124995357033344 0.6250000969311086 0  0.8749995107761039 0.6250000490803626 0  0.9374994919146847 0.625000000833528 0  0.9999994796980731 0.6249999535532533 0  1.062499474351414 0.6249999082426239 0  1.124999475769216 0.6249998659106888 0  1.187499483700551 0.6249998276589999 0  1.249999497681323 0.6249997946090901 0  1.312499517116521 0.6249997679980867 0  1.374999541267363 0.6249997489821744 0  1.437499569209306 0.624999738659478 0  1.499999600005013 0.6249997380057893 0  1.562499632702732 0.6249997473532369 0  1.62499966619282 0.6249997662519423 0  1.687499699232547 0.6249997935596362 0  1.749999730330978 0.6249998274543171 0  1.81249975768223 0.6249998660452523 0  1.874999779174264 0.6249999083891601 0  1.937499792079875 0.6249999571907415 0  1.999999795566871 0.6250000228182712 0  0.06249979117018979 0.6875001066682932 0  -2.089681521560937e-07 0.6875000635379791 0  0.1249997889144421 0.687500146996164 0  0.1874997832049183 0.6875001832036366 0  0.249999773862126 0.6875002142222185 0  0.3124997610368874 0.6875002384866834 0  0.3749997449562881 0.6875002541051171 0  0.4374997257958599 0.6875002593615458 0  0.4999997037673586 0.6875002534518468 0  0.5624996793960879 0.6875002368827702 0  0.6249996536763688 0.6875002111384998 0  0.6874996278871781 0.6875001780362586 0  0.7499996033017522 0.6875001393955156 0  0.8124995810813913 0.6875000969583308 0  0.8749995621986044 0.6875000523154011 0  0.9374995473837825 0.687500006910537 0  0.999999537147269 0.6874999620402032 0  1.062499531752177 0.6874999188397813 0  1.124999531214949 0.6874998783731242 0  1.187499535363002 0.6874998417054861 0  1.249999543858109 0.6874998099130517 0  1.312499556233314 0.6874997840731967 0  1.374999571913177 0.6874997651991172 0  1.437499590231226 0.6874997541809877 0  1.499999610490159 0.6874997516673352 0  1.562499631966385 0.6874997578565786 0  1.62499965384974 0.6874997723864049 0  1.687499675201079 0.6874997943564992 0  1.74999969488628 0.6874998224725931 0  1.812499711528764 0.6874998554480297 0  1.874999723579727 0.6874998926959998 0  1.937499729835266 0.6874999351171442 0  1.999999731248408 0.6874999836213213 0  0.06249975552929665 0.7500001237502495 0  -2.4456373145257e-07 0.750000093080804 0  0.1249997543946689 0.7500001548252924 0  0.1874997511932009 0.750000183645377 0  0.2499997456171049 0.7500002084249838 0  0.3124997376749723 0.7500002275221639 0  0.3749997274787103 0.7500002393532029 0  0.4374997151357715 0.7500002426311547 0  0.4999997007779221 0.750000236712193 0  0.5624996846936375 0.7500002217858293 0  0.6249996674262214 0.7500001987544176 0  0.6874996497322419 0.750000168932811 0  0.7499996324557532 0.7500001337984609 0  0.8124996164233524 0.750000094850712 0  0.8749996023690942 0.7500000535332878 0  0.9374995908862972 0.7500000111990121 0  0.9999995824061965 0.7499999690940193 0  1.062499577180331 0.7499999283602964 0  1.124999575278414 0.7499998900679702 0  1.187499576609433 0.7499998552488305 0  1.249999580947486 0.7499998249061682 0  1.312499587960629 0.7499997999973107 0  1.37499959723636 0.7499997813889502 0  1.43749960830639 0.7499997697924465 0  1.499999620672648 0.7499997656697112 0  1.562499633807405 0.7499997691231974 0  1.624999647123152 0.7499997798299047 0  1.687499659936362 0.7499997970563433 0  1.749999671438479 0.7499998197706664 0  1.81249968071903 0.7499998468608622 0  1.874999686943716 0.7499998773622381 0  1.937499689847121 0.7499999102839937 0  1.999999690432556 0.7499999430222414 0  0.0624997325140192 0.8125001403802148 0  -2.675513238632446e-07 0.8125001201415869 0  0.1249997320356651 0.8125001628699192 0  0.1874997304780365 0.8125001846185397 0  0.2499997275316793 0.8125002035099241 0  0.3124997230903704 0.8125002178405553 0  0.3749997171442103 0.8125002261837969 0  0.4374997097088158 0.8125002274664155 0  0.4999997008300307 0.8125002211202712 0  0.562499690646192 0.8125002071692916 0  0.6249996794448305 0.8125001861769217 0  0.6874996676614206 0.8125001590917168 0  0.7499996558263031 0.8125001270815301 0  0.8124996444975254 0.8125000914073935 0  0.8749996342014245 0.8125000533410194 0  0.9374996253882414 0.8125000141157893 0  0.9999996184027793 0.8124999749006914 0  1.062499613465949 0.8124999367930069 0  1.124999610669255 0.8124999008259314 0  1.187499609983498 0.8124998679784531 0  1.249999611276523 0.8124998391742672 0  1.312499614335285 0.812499815262807 0  1.374999618888009 0.8124997969814264 0  1.437499624624315 0.8124997849007495 0  1.499999631209314 0.8124997793563421 0  1.562499638283249 0.8124997803807925 0  1.624999645446745 0.8124997876622649 0  1.687499652244386 0.8124998005491404 0  1.749999658167192 0.8124998181028953 0  1.812499662710026 0.8124998391673901 0  1.874999665531019 0.8124998623425942 0  1.9374996667143 0.812499885628938 0  1.999999666930681 0.8124999054612856 0  0.06249971937066641 0.8750001557930625 0  -2.806850984997442e-07 0.8750001439892684 0  0.1249997192769053 0.8750001707740981 0  0.1874997187471356 0.875000186075063 0  0.2499997175332329 0.8750001995487495 0  0.31249971547829 0.8750002095099186 0  0.3749997124880916 0.8750002146324418 0  0.4374997084994661 0.8750002139578592 0  0.4999997034814179 0.8750002069524004 0  0.5624996974659687 0.8750001935402256 0  0.624999690580782 0.8750001740716402 0  0.6874996830569461 0.8750001492341538 0  0.7499996752072416 0.8750001199431374 0  0.8124996673876584 0.8750000872432498 0  0.8749996599560629 0.8750000522331529 0  0.9374996532363543 0.8750000160136472 0  0.9999996474912753 0.8749999796551552 0  1.062499642904565 0.8749999441804867 0  1.124999639573433 0.8749999105577866 0  1.187499637511376 0.8749998796959352 0  1.249999636659022 0.8749998524344836 0  1.312499636899553 0.8749998295228526 0  1.374999638075204 0.8749998115871819 0  1.437499640001764 0.8749997990862884 0  1.499999642477719 0.8749997922613482 0  1.562499645285342 0.8749997910888404 0  1.624999648185794 0.8749997952490879 0  1.687499650917287 0.8749998041174899 0  1.749999653211322 0.8749998167709264 0  1.812499654844969 0.8749998319755271 0  1.874999655735108 0.8749998480849779 0  1.937499656032296 0.8749998627621304 0  1.999999656087436 0.8749998724839478 0  0.06249971381294296 0.9375001696007532 0  -2.862429333486093e-07 0.9375001644701598 0  0.1249997139377648 0.9375001782473095 0  0.1874997140211144 0.9375001878808531 0  0.2499997138912553 0.9375001964968095 0  0.3124997133869877 0.9375002025047227 0  0.3749997123710409 0.9375002046728138 0  0.4374997107270585 0.9375002021196054 0  0.4999997083656812 0.9375001943303313 0  0.5624997052432914 0.9375001811639367 0  0.6249997013823336 0.9375001628281441 0  0.6874996968800092 0.93750
[...]
<PointData  Scalars="p"> 
<DataArray  type="Float64"  Name="p"  format="ascii">0.0000000000000000e+00  -2.9280599373433125e-04  -3.0820449056386434e-04  0.0000000000000000e+00  -5.0906980389068114e-04  -5.1877404105153506e-04  -6.5860602718831567e-04  -6.6044201164841489e-04  -7.5373908303658955e-04  -7.4925624764064975e-04  -8.0492360220512792e-04  -7.9611763628021476e-04  -8.2040748018432372e-04  -8.0899602669230991e-04  -8.0669761990254996e-04  -7.9400551231013905e-04  -7.6894940148644793e-04  -7.5599047725764205e-04  -7.1139846653556259e-04  -6.9893207345902346e-04  -6.3765257294373342e-04  -6.2622003057740186e-04  -5.5075489746847170e-04  -5.4076577997340782e-04  -4.5336539188653023e-04  -4.4512280235465808e-04  -3.4788250145023744e-04  -3.4159478650478146e-04  -2.3646307324248479e-04  -2.3228106765679687e-04  -1.2112211640200122e-04  -1.1914436171122740e-04  -3.7969531487909129e-06  -4.0751674267718772e-06  1.1359531492759834e-04  1.1105896344595826e-04  2.2909248223946391e-04  2.2437108672122662e-04  3.4080600645506356e-04  3.3398568066985763e-04  4.4671757393654847e-04  4.3794218829846919e-04  5.4459085141226411e-04  5.3411079361932268e-04  6.3212209455319908e-04  6.2023217392642488e-04  7.0669571168978601e-04  6.9379857860213043e-04  7.6523391522060745e-04  7.5191459533042700e-04  8.0426423550336785e-04  7.9126741556365739e-04  8.1958154320759165e-04  8.0791432211634853e-04  8.0594500454280761e-04  7.9698561919661255e-04  7.5687854170159883e-04  7.5235758316994034e-04  6.6397569244307805e-04  6.6590672489147938e-04  5.1631647059160004e-04  5.2618289014363744e-04  3.0045446849938173e-04  3.1545762286154511e-04  0.0000000000000000e+00  0.0000000000000000e+00  -3.3696651372124345e-04  0.0000000000000000e+00  -5.4253379307959851e-04  -6.7054008726757160e-04  -7.4618799434936689e-04  -7.8293445429416934e-04  -7.8901297397511981e-04  -7.7009915285773591e-04  -7.3048220907894097e-04  -6.7363314069222640e-04  -6.0250033920361426e-04  -5.1965720150198554e-04  -4.2739785399817642e-04  -3.2781103038245931e-04  -2.2282977492347455e-04  -1.1428048585209103e-04  -3.9289939563303976e-06  1.0648173508212798e-04  2.1520368933062700e-04  3.2047300298984556e-04  4.2046224017761057e-04  5.1323162228602453e-04  5.9671299559276969e-04  6.6864320112766489e-04  7.2647603187664660e-04  7.6730371085707394e-04  7.8768123242256322e-04  7.8331719038619244e-04  7.4850864993974975e-04  6.7486980417765993e-04  5.4842962896865138e-04  3.4255151675336175e-04  0.0000000000000000e+00  -3.6672348731621294e-04  0.0000000000000000e+00  -5.7212567509030868e-04  -6.8835581339370502e-04  -7.5015740344011139e-04  -7.7493889126941588e-04  -7.7213620642522412e-04  -7.4745819513861577e-04  -7.0481143575295408e-04  -6.4718254059557801e-04  -5.7705185010728576e-04  -4.9659179791092657e-04  -4.0776570586111113e-04  -3.1238672603896002e-04  -2.1216035645675965e-04  -1.0871939598817584e-04  -3.6533211526785334e-06  1.0146690034788283e-04  2.0506846930092341e-04  3.0556087170686741e-04  4.0130923569928044e-04  4.9060690769568097e-04  5.7165056427533505e-04  6.4249557339775211e-04  7.0099076444870873e-04  7.4467940692272928e-04  7.7059507042643454e-04  7.7484182538866591e-04  7.5169419756316897e-04  6.9159472874269522e-04  5.7671328801872309e-04  3.7115172872938213e-04  0.0000000000000000e+00  -3.9547102055130328e-04  0.0000000000000000e+00  -6.0417747408697217e-04  -7.1184970054048995e-04  -7.6141899025667227e-04  -7.7447018737085817e-04  -7.6219192726015674e-04  -7.3077697545102793e-04  -6.8402934094513839e-04  -6.2460121820860377e-04  -5.5457650521285244e-04  -4.7574648391971927e-04  -3.8973488369994930e-04  -2.9805968399030546e-04  -2.0217162385229677e-04  -1.0347923795727388e-04  -3.3657237771559561e-06  9.6797129831926407e-05  1.9563664559499905e-04  2.9176767956208929e-04  3.8377969432769788e-04  4.7022052882121358e-04  5.4957613234840673e-04  6.2023328604934663e-04  6.8041533816560595e-04  7.2805570611065987e-04  7.6052332109508437e-04  7.7403677156685801e-04  7.6240520340857825e-04  7.1435232779173768e-04  6.0794327843297546e-04  3.9924029519169420e-04  0.0000000000000000e+00  -4.2351210566454538e-04  0.0000000000000000e+00  -6.3764083607766270e-04  -7.3941202514812984e-04  -7.7871967905027172e-04  -7.8104814520999800e-04  -7.5949932841887279e-04  -7.2101285189029815e-04  -6.6951725365597633e-04  -6.0749071846229327e-04  -5.3672209937764739e-04  -4.5867747080204405e-04  -3.7466665983781395e-04  -2.8592021847543338e-04  -1.9363030421894103e-04  -9.8970863146703074e-05  -3.1061276960300712e-06  9.2804034445422061e-05  1.8759876151578695e-04  2.8011193036685006e-04  3.6916683891273109e-04  4.5356931631173231e-04  5.3208897799541946e-04  6.0342146122805307e-04  6.6611185893386744e-04  7.1838732909067400e-04  7.5779413588429329e-04  7.8043638663543278e-04  7.7939293356469143e-04  7.4149991306871694e-04  6.4096555643317814e-04  4.2695492424278648e-04  0.0000000000000000e+00  -4.5136126948574075e-04  0.0000000000000000e+00  -6.7215161001082859e-04  -7.6983867714323494e-04  -8.0052578774465039e-04  -7.9324428051588322e-04  -7.6296090739525911e-04  -7.1745755076742549e-04  -6.6091962442981042e-04  -5.9577078454238551e-04  -5.2359567821457680e-04  -4.4559737194030949e-04  -3.6281089347275111e-04  -2.7620186293462399e-04  -1.8671497131379129e-04  -9.5293358109416914e-05  -2.8823776436532772e-06  8.9570964414055260e-05  1.8111886833340455e-04  2.7081352218532716e-04  3.5770905071389722e-04  4.4085738871141512e-04  5.1929143559242190e-04  5.9197886214038648e-04  6.5772548392806099e-04  7.1496334119106877e-04  7.6129696071987796e-04  7.9258050283714386e-04  8.0106221404262505e-04  7.7173178534697983e-04  6.7527561703817623e-04  4.5467412085556651e-04  0.0000000000000000e+00  -4.7922471065335630e-04  0.0000000000000000e+00  -7.0731986556991791e-04  -8.0203729247791886e-04  -8.2529486647166380e-04  -8.0937731657525387e-04  -7.7098762743085878e-04  -7.1874078911571770e-04  -6.5712956439577025e-04  -5.8859131151875455e-04  -5.1457135865403010e-04  -4.3606270781394653e-04  -3.5386543090971939e-04  -2.6870861168905666e-04  -1.8130862300700642e-04  -9.2390767255266118e-05  -2.6908260892297833e-06  8.7049473014162181e-05  1.7608732267765541e-04  2.6368452184591655e-04  3.4911206871812050e-04  4.3165016214272644e-04  5.1056663981113479e-04  5.8506260097905614e-04  6.5415290792992880e-04  7.1640886216005372e-04  7.6942358209842782e-04  8.0874891203610991e-04  8.2580751942513888e-04  8.0386547889200251e-04  7.1037310311046964e-04  4.8250524250954396e-04  0.0000000000000000e+00  -5.0690201718144371e-04  0.0000000000000000e+00  -7.4246982139833926e-04  -8.3482188425143869e-04  -8.5147301310949640e-04  -8.2772713482882573e-04  -7.8187124518279188e-04  -7.2328820153222222e-04  -6.5677210057966647e-04  -5.8480013502130329e-04  -5.0871621749264421e-04  -4.2934241978017160e-04  -3.4727875844797989e-04  -2.6304645164602761e-04  -1.7715661628511602e-04  -9.0135142563917909e-05  -2.5237702452395636e-06  8.5126752862931649e-05  1.7226468174042858e-04  2.5834528448608540e-04  3.4283890937382769e-04  4.2522967472071203e-04  5.0499327704075928e-04  5.8152940277050565e-04  6.5402230971224791e-04  7.2114462528311061e-04  7.8045003947530337e-04  8.2719055390638224e-04  8.5202665099114346e-04  8.3664898527119151e-04  7.4550275932075611e-04  5.1017558276674672e-04  0.0000000000000000e+00  -5.3380568105874558e-04  0.0000000000000000e+00  -7.7657391259710641e-04  -8.6681561961661198e-04  -8.7744918275179913e-04  -8.4658029065904099e-04  -7.9391734111129285e-04  -7.2951519133257622e-04  -6.5842998619193333e-04  -5.8317509410274525e-04  -5.0501053447941317e-04  -4.2461386267158256e-04  -3.4241349956867410e-04  -2.5874997485180585e-04  -1.7395346220631835e-04  -8.8372204473420062e-05  -2.3737098445771038e-06  8.3663522414550464e-05  1.6935981273618077e-04  2.5434458662851138e-04  3.3826489011166256e-04  4.2078574375397748e-04  5.0156181984811635e-04  5.8016423304487906e-04  6.5592001510054749e-04  7.2758342213039430e-04  7.9267097659745610e-04  8.4617189172880251e-04  8.7807542856497872e-04  8.6865901015780247e-04  7.7957932364828490e-04  5.3704350243658926e-04  0.0000000000000000e+00  -5.5901893214114172e-04  0.0000000000000000e+00  -8.0827401401238272e-04  -8.9643383949230800e-04  -9.0153497744138830e-04  -8.6423817253713988e-04  -8.0549114112599531e-04  -7.3590821722802394e-04  -6.6074736986158021e-04  -5.8253848110101955e-04  -5.0246142571524566e-04  -4.2106689169048062e-04  -3.3863528505325081e-04  -2.5535182855270129e-04  -1.7139077763788079e-04  -8.6946531929085134e-05  -2.2350697353038227e-06  8.2515266401500989e-05  1.6707498255012535e-04  2.5122473542263303e-04  3.3476523114763364e-04  4.1751603850178053e-04  4.9928708035174994e-04  5.7979483697062010e-04  6.5849232789288385e-04  7.3421050386060255e-04  8.0444533478878457e-04  8.6398039713102704e-04  9.0224374517853894e-04  8.9827736733331259e-04  8.1120200455076657e-04  5.6215041381251277e-04  0.0000000000000000e+00  -5.8136903275178944e-04  0.0000000000000000e+00  -8.3594809791965067e-04  -9.2192116986878128e-04  -9.2198421491056541e-04  -8.7903312980919690e-04  -8.1504580080124479e-04  -7.4106539413055519e-04  -6.6248353906351502e-04  -5.8181685655478909e-04  -5.0016372055123963e-04  -4.1796064665767260e-04  -3.3536162095290200e-04  -2.5242130548369158e-04  -1.6918385492286389e-04  -8.5715243683693993e-05  -2.1046922078943924e-06  8.1545331292145660e-05  1.6513118743728027e-04  2.4856032195406475e-04  3.3176140140656025e-04  4.1468378087428635e-04  4.9726579120907004e-04  5.7934975207009907e-04  6.6049806046232344e-04  7.3962098303290884e-04  8.1422004188177750e-04  8.7893844954860744e-04  9.2276875656704656e-04  9.2372530712534547e-04  8.3871695455695441e-04  5.8429222425556598e-04  0.0000000000000000e+00  -5.9951023305106145e-04  0.0000000000000000e+00  -8.5780169612525200e-04  -9.4142466318429725e-04  -9.3704163118135339e-04  -8.8936519490992721e-04  -8.2115090814425834e-04  -7.4372766570159792e-04  -6.6254402037199808e-04  -5.8007472012650040e-04  -4.9733224153499889e-04  -4.1465356778079337e-04  -3.3208755893038928e-04  -2.4958461942809097e-04  -1.6708570519982473e-04  -8.4555291325180904e-05  -1.9820825941496104e-06  8.0631489784401141e-05  1.6328189719840678e-04  2.4597711627850330e-04  3.2874735297195895e-04  4.1164425217117193e-04  4.9470977657422525e-04  5.7788745994058173e-04  6.6083777296785092e-04  7.4254835895501143e-04  8.2055702062879628e-04  8.8943621392830049e-04  9.3788327249766043e-04  9.4313311295517882e-04  8.6030818985875345e-04  6.0210090434807911e-04  0.0000000000000000e+00  -6.1201329086813113e-04  0.0000000000000000e+00  -8.7197613930728815e-04  -9.5308718271691249e-04  -9.4501557682379576e-04  -8.9375214532907640e-04  -8.2253030643891670e-04  -7.4280406404552139e-04  -6.6000301167830789e-04  -5.7653058928597723e-04  -4.9331709487165617e-04  -4.1061537175624235e-04  -3.2839590665002067e-04  -2.4653250049027324e-04  -1.6489217833229544e-04  -8.3365907309423189e-05  -1.8691742557955718e-06  7.9668995153107377e-05  1.6131851911787700e-04  2.4316081481523213e-04  3.2529942360153300e-04  4.0786002754981759e-04  4.9095913880588466e-04  5.7461770241803327e-04  6.5857357433382049e-04  7.4189244548846943e-04  8.2216924885637386e-04  8.9398206889541680e-04  9.4588535920685061e-04  9.5463199721218907e-04  8.7410276052180360e-04  6.1413285291897187e-04  0.0000000000000000e+00  -6.1745925916628815e-04  0.0000000000000000e+00  -8.7666512872602918e-04  -9.5515528302771212e-04  -9.4436434872555391e-04  -8.9089374450304181e-04  -8.1810475048074976e-04  -7.3740103573717792e-04  -6.5411772122127710e-04  -5.7056757454552922e-04  -4.8760612968238318e-04  -4.0542884263420134e-04  -3.2395629966803477e-04  -2.4301900091554187e-04  -1.6244023936042140e-04  -8.2066929847992125e-05  -1.7687477683727823e-06  7.8571972443404302e-05  1.5907200128594936e-04  2.3985862388109711e-04  3.2107992557426241e-04  4.0290456328862559e-04  4.8549280065627215e-04  5.6891126228747035e-04  6.5295261547633639e-04  7.3674665021890501e-04  8.1796662914277135e-04  8.9126432272614172e-04  9.4522313815495430e-04  9.5645941491405353e-04  8.7828560932472666e-04  6.1896225485808432e-04  0.0000000000000000e+00  -6.1453138650439205e-04  0.0000000000000000e+00  -8.7023040808897867e-04  -9.4608833325236525e-04  -9.3378412844137418e-04  -8.7973638917085157e-04  -8.0703333578829731e-04  -7.2684395581713022e-04  -6.4433783197149369e-04  -5.6172847795684039e-04  -4.7981837632165132e-04  -3.9877687881169669e-04  -3.1851381467493345e-04  -2.3885023680666865e-04  -1.5959947484467558e-04  -8.0593159608331928e-05  -1.6822414395109415e-06  7.7272256850324268e-05  1.5640839735958358e-04  2.3587272215091020e-04  3.1582841748248000e-04  3.9645532463585719e-04  4.7792120907762318e-04  5.6030315539911410e-04  6.4341294189549432e-04  7.2642484229718787e-04  8.0709500718405237e-04  8.8021683715844051e-04  9.3458260215822822e-04  9.4706817320687627e-04  8.7121656584974105e-04  6.1527383305546007e-04  0.0000000000000000e+00  -6.0209473624246908e-04  0.0000000000000000e+00  -8.5130071691983495e-04  -9.2464694168975319e-04  -9.1227489919408781e-04  -8.5950983130080808e-04  -7.8872537078897916e-04  -7.1066567164921831e-04  -6.3027780860806586e-04  -5.4968121911651931e-04  -4.6966059072032069e-04  -3.9040391959360005e-04  -3.1185130883691831e-04  -2.3385508522835762e-04  -1.5625029448874169e-04  -7.8882255773841825e-05  -1.6073264786653566e-06  7.5711856214419766e-05  1.5321210007403070e-04  2.3103452095353901e-04  3.0932985195645146e-04  3.8825554722842029e-04  4.6794961532205389e-04  5.4845503807938415e-04  6.2956066988972890e-04  7.1044839909184618e-04  7.8895009953388088e-04  8.6005655987537078e-04  9.1295365690494622e-04  9.2521446894480751e-04  8.5152762692147538e-04  6.0194096017934903e-04  0.0000000000000000e+00  -5.7925083786564504e-04  0.0000000000000000e+00  -8.1883295325538253e-04  -8.8993617072389338e-04  -8.7915270950001908e-04  -8.2970492446586856e-04  -7.6278457892587639e-04  -6.8852821801164931e-04  -6.1162124261410623e-04  -5.3411683600822679e-04  -4.5683098475994799e-04  -3.8002364354572870e-04  -3.0371427661589698e-04  -2.2782395902947881e-04  -1.5224232195213015e-04  -7.6851923674700176e-05  -1.5351867213596177e-06  7.3826090014806597e-05  1.4934936607716130e-04  2.2515055837954556e-04  3.0134283971207707e-04  3.7803101261075291e-04  4.5528272207667726e-04  5.3306078984720145e-04  6.1107665283885687e-04  6.8847039438612190e-04  7.6312350984077506e-04  8.3026021099448402e-04  8.7963989706680906e-04  8.8999749118499720e-04  8.1817892762390816e-04  5.7807634309096174e-04  0.0000000000000000e+00  -5.4534528920071235e-04  0.0000000000000000e+00  -7.7210033992633129e-04  -8.4135456545790521e-04  -8.3394842484268115e-04  -7.8992379765003087e-04  -7.2881956170628827e-04  -6.6000739861153397e-04  -5.8790014649385918e-04  -5.1453303246344487e-04  -4.4081864951847453e-04  -3.6714758842720980e-04  -2.9366572878964829e-04  -2.2040015416009692e-04  -1.4731902540198025e-04  -7.4361162289758606e-05  -1.4473031679990972e-06  7.1510582639861079e-05  1.4460024414370579e-04  2.1789883540823533e-04  2.9146447618405645e-04  3.6532240548848096e-04  4.3943514430104085e-04  5.1363617657748098e-04  5.8750147126588432e-04  6.6006678822263208e-04  7.2921427624050112e-04  7.9041359090657672e-04  8.3415466623475794e-04  8.4080243844990125e-04  7.7044123432189562e-04  5.4303368757540325e-04  0.0000000000000000e+00  -4.9987971767681658e-04  0.0000000000000000e+00  -7.1051934462922669e-04  -7.7832727919337891e-04  -7.7604673600605923e-04  -7.3944119981240216e-04  -6.8595932479638411e-04  -6.2409343330928932e-04  -5.5800781302931977e-04  -4.8978669594317871e-04  -4.2050718776290991e-04  -3.5074671873544402e-04  -2.8081680038304541e-04  -2.1087438883745960e-04  -1.4098202379623641e-04  -7.1140971714341397e-05  -1.3140759639697197e-06  6.8555845590046913e-05  1.3852512696779708e-04  2.0862913486498642e-04  2.7886208626552185e-04  3.4915522209402207e-04  4.1933865127836268e-04  4.8907771304030809e-04  5.5775776705826075e-04  6.2424194684986597e-04  6.8634999175360345e-04  7.3977681424906578e-04  7.7585955659482757e-04  7.7703265771877602e-04  7.0771978771139545e-04  4.9631516997023406e-04  0.0000000000000000e+00  -4.4224691134631269e-04  0.0000000000000000e+00  -6.3315402274232205e-04  -6.9959048047821021e-04  -7.0378891655164155e-04  -6.7618899804798213e-04  -6.3179161688401819e-04  -5.7815118960232587e-04  -5.1922860302698419e-04  -4.5722107928880540e-04  -3.9342180517130666e-04  -3.2862620078324023e-04  -2.6332708800550696e-04  -1.9781607627076926e-04  -1.3224588764139275e-04  -6.6674294334805273e-05  -1.0967143815834772e-06  6.4522061401587960e-05  1.3021650602469854e-04  1.9598771835713919e-04  2.6177251969038872e-04  3.2740851779485984e-04  3.9258843085423345e-04  4.5679188910709585e-04  5.1918067751416375e-04  5.7839630571294835e-04  6.3213508773234844e-04  6.7627814291667610e-04  7.0307824181787735e-04  6.9740486428598902e-04  6.2906701867446375e-04  4.3730981073104923e-04  0.0000000000000000e+00  -3.7109929469943467e-04  0.0000000000000000e+00  -5.3752427836906429e-04  -6.0151617016004921e-04  -6.1246086042798093e-04  -5.9458678579065545e-04  -5.6019332129116463e-04  -5.1586401411040685e-04  -4.6537075194747504e-04  -4.1102890940157067e-04  -3.5433520044723168e-04  -2.9627907733934282e-04  -2.3750451731120367e-04  -1.7840731790739705e-04  -1.1920410667083123e-04  -5.9984974837769420e-05  -7.5859988820521633e-07  5.8506676165855781e-05  1.1784073271848796e-04  1.7723012972875016e-04  2.3657557281498174e-04  2.9564713617448159e-04  3.5402730173443841e-04  4.1103808016061216e-04  4.6564151324632465e-04  5.1626854188422571e-04  5.6048991643550719e-04  5.9436855643316599e-04  6.1112086360459229e-04  5.9831842117175613e-04  5.3204088999093241e-04  3.6470120624286284e-04  0.0000000000000000e+00  -2.8283798851958707e-04  0.0000000000000000e+00  -4.1675522938266964e-04  -4.7426222998592113e-04  -4.8989886259368605e-04  -4.8101713438197769e-04  -4.5697458382726287e-04  -4.2322830767944875e-04  -3.8320331530226480e-04  -3.3917052850763519e-04  -2.9267715352493184e-04  -2.4477457221194879e-04  -1.9615328444598756e-04  -1.4723517920473987e-04  -9.8244974813555157e-05  -4.9268810906747251e-05  -3.0364365838865505e-07  4.8696365164271938e-05  9.7774991600344183e-05  1.4692816695051179e-04  1.9605778851527952e-04  2.4492054026112716e-04  2.9306713867087040e-04  3.3976703533192374e-04  3.8391379913706858e-04  4.2388277983830081e-04  4.5728708996173973e-04  4.8054006615291784e-04  4.8799475169351169e-04  4.7017919832553301e-04  4.1008099205496688e-04  2.7516086806755923e-04  0.0000000000000000e+00  -1.6783258681940018e-04  0.0000000000000000e+00  -2.5278695901149192e-04  -2.9317932860777816e-04  -3.0724419809841644e-04  -3.0473255533898627e-04  -2.9140347926798839e-04  -2.7092941236200489e-04  -2.4577948258294274e-04  -2.1766181265326804e-04  -1.8776265925391091e-04  -1.5688905269781194e-04  -1.2556381237046276e-04  -9.4096721574017038e-05  -6.2641583034203353e-05  -3.1242931541731343e-05  1.2379707653843787e-07  3.1516168421307778e-05  6.2989496331352783e-05  9.4561636797029283e-05  1.2617590983706004e-04  1.5766040083121970e-04  1.8867875679873307e-04  2.1867077384635201e-04  2.4677967327525247e-04  2.7175076542709699e-04  2.9177832332629214e-04  3.0426249069123289e-04  3.0537998188749020e-04  2.8927614348544378e-04  2.4645569059618736e-04  1.6039592773705553e-04  0.0000000000000000e+00  0.0000000000000000e+00  0.0000000000000000e+00  0.0000000000000000e+00  0.0000000000000000e+00  0.0000000000000000e+00  0.0000000000000000e+00  0.0000000000000000e+00  0.0000000000000000e+00  0.0000000000000000e+00  0.0000000000000000e+00  0.0000000000000000e+00  0.0000000000000000e+00  0.0000000000000000e+00  0.0000000000000000e+00  0.0000000000000000e+00  0.0000000000000000e+00  0.0000000000000000e+00  0.0000000000000000e+00  0.0000000000000000e+00  0.0000000000000000e+00  0.0000000000000000e+00  0.0000000000000000e+00  0.