<?xml version="1.0"?>
<VTKFile type="UnstructuredGrid"  version="0.1"  >
<UnstructuredGrid>
<Piece  NumberOfPoints="825" NumberOfCells="1536">
<Points>
<DataArray  type="Float64"  NumberOfComponents="3"  format="ascii">-1.047189252987818e-21 0.5 0  0.06250000003343628 0.5000000006459739 0  0.062499998292144 0.5625000017474139 0  -3.074624197073326e-09 0.562500000169137 0  0.1249999999379236 0.5000000010214054 0  0.1249999986866875 0.5625000021119368 0  0.1874999996185249 0.5000000013285306 0  0.1874999984948492 0.5625000021046427 0  0.2499999990523174 0.5000000015992225 0  0.2499999979288622 0.5625000019651951 0  0.3124999980776085 0.5000000015360004 0  0.3124999970245244 0.5625000015131699 0  0.3749999962083206 0.5000000005214322 0  0.3749999956868945 0.5625000006891968 0  0.4374999942095366 0.4999999996311923 0  0.4374999941667881 0.5624999998480033 0  0.4999999921321676 0.4999999986159621 0  0.4999999926656702 0.5624999988558963 0  0.562499989911395 0.4999999969303283 0  0.5624999912771155 0.5624999978527326 0  0.6249999890996405 0.49999999674179 0  0.6249999903657334 0.5624999974696346 0  0.6874999890009893 0.4999999969692647 0  0.6874999899534867 0.5624999971330884 0  0.74999998815547 0.4999999954855373 0  0.7499999896256145 0.5624999964282444 0  0.8124999882584195 0.4999999953217665 0  0.8124999896062844 0.562499996057153 0  0.8749999888888441 0.4999999953150412 0  0.8749999898687524 0.5624999955452165 0  0.9374999886006838 0.4999999935644527 0  0.9374999900964583 0.5624999946933311 0  0.9999999893164949 0.4999999933927853 0  0.999999990548978 0.5624999942445433 0  1.062499990393364 0.4999999933214715 0  1.062499991183627 0.5624999936905095 0  1.124999990447731 0.4999999916343261 0  1.1249999917098 0.5624999928629083 0  1.187499991415026 0.4999999914824489 0  1.187499992376164 0.5624999924994983 0  1.24999999277369 0.499999991671303 0  1.249999993158964 0.5624999921617934 0  1.312499993045398 0.4999999903846146 0  1.312499993763127 0.5624999916708258 0  1.374999994069952 0.4999999906493963 0  1.374999994410214 0.5624999917182614 0  1.437499995274202 0.4999999912621859 0  1.437499995072514 0.5624999919361664 0  1.499999995621393 0.4999999910528866 0  1.499999995503483 0.5624999923228629 0  1.56249999653883 0.499999992646244 0  1.562499995951936 0.5624999934377062 0  1.624999997694762 0.4999999947092453 0  1.62499999646884 0.5624999948010433 0  1.687499998434848 0.4999999959741892 0  1.687499996860475 0.5624999961642874 0  1.749999999426081 0.4999999977440839 0  1.749999997216694 0.5624999977201625 0  1.812500000276603 0.4999999991772968 0  1.812499997485819 0.562499999171743 0  1.875000000507809 0.4999999998184176 0  1.874999997513514 0.5625000005278038 0  1.937500000197311 0.5000000001055018 0  1.937499997611578 0.5625000020858721 0  2 0.5 0  1.999999999973336 0.5625000037609221 0  0.06249999689809047 0.6250000020482617 0  -4.037028832880438e-09 0.6250000008630777 0  0.1249999973822042 0.6250000024641086 0  0.1874999973842847 0.6250000024368347 0  0.2499999970028668 0.625000002163044 0  0.3124999963133025 0.6250000016566359 0  0.3749999953483221 0.6250000009528427 0  0.4374999942285186 0.6250000001579503 0  0.4999999931003304 0.6249999993119976 0  0.5624999920614014 0.6249999985330987 0  0.6249999912666954 0.6249999979701628 0  0.6874999907986723 0.6249999974918843 0  0.7499999905523053 0.6249999969765092 0  0.8124999905113673 0.6249999964891384 0  0.8749999906761776 0.6249999959568587 0  0.9374999909436303 0.6249999953556173 0  0.9999999913172471 0.6249999948015565 0  1.06249999180538 0.6249999942422888 0  1.124999992313211 0.6249999936680758 0  1.187499992844469 0.6249999932113387 0  1.249999993410068 0.6249999928443168 0  1.312499993919924 0.6249999925683905 0  1.374999994372621 0.6249999925162303 0  1.437499994773003 0.6249999926937716 0  1.499999995058571 0.6249999931451742 0  1.562499995273394 0.6249999939662757 0  1.62499999546486 0.624999995063905 0  1.68749999559845 0.6249999963404776 0  1.74999999568661 0.6249999977730236 0  1.812499995749067 0.6249999992931076 0  1.874999995837209 0.6250000008999572 0  1.937499996276763 0.6250000025692233 0  1.999999997491262 0.6250000035489938 0  0.06249999599803218 0.687500002015044 0  -4.518852716222013e-09 0.6875000011719655 0  0.12499999636738 0.6875000024029437 0  0.1874999964417074 0.6875000024079622 0  0.2499999962169045 0.6875000021447929 0  0.3124999957344692 0.6875000016785046 0  0.3749999950466382 0.6875000010634849 0  0.4374999942349508 0.6875000003639489 0  0.4999999933945382 0.6874999996393001 0  0.5624999926136699 0.6874999989611521 0  0.6249999919857631 0.6874999983802802 0  0.6874999915671295 0.6874999978658969 0  0.7499999913449804 0.6874999973692424 0  0.8124999912999675 0.6874999968746415 0  0.8749999914108402 0.6874999963615747 0  0.9374999916346616 0.6874999958268149 0  0.9999999919480546 0.6874999952951787 0  1.062499992332052 0.6874999947729871 0  1.124999992746943 0.6874999942758038 0  1.187499993171014 0.6874999938456595 0  1.249999993587612 0.6874999935058299 0  1.312499993960601 0.6874999932845761 0  1.374999994270318 0.68749999323389 0  1.437499994506013 0.6874999933924438 0  1.499999994653747 0.6874999937967805 0  1.562499994729069 0.6874999944734789 0  1.624999994757143 0.6874999953981547 0  1.687499994750259 0.6874999965245009 0  1.749999994733602 0.6874999978101658 0  1.812499994752146 0.6874999992015126 0  1.874999994888981 0.6875000006224168 0  1.937499995268205 0.6875000018864056 0  1.999999995778114 0.6875000026602602 0  0.06249999542067692 0.7500000018461465 0  -4.839989488084527e-09 0.750000001263687 0  0.1249999956523867 0.7500000021632659 0  0.187499995725878 0.7500000021915203 0  0.2499999955967827 0.7500000019806307 0  0.3124999952740403 0.7500000015871342 0  0.3749999947943728 0.7500000010643191 0  0.437499994214254 0.7500000004650564 0  0.4999999936005313 0.7499999998402069 0  0.5624999930213462 0.7499999992363414 0  0.6249999925402886 0.7499999986807351 0  0.6874999921993201 0.7499999981681255 0  0.7499999920085437 0.7499999976778254 0  0.812499991959979 0.7499999971929261 0  0.8749999920356272 0.7499999967021111 0  0.9374999922096225 0.7499999962044251 0  0.9999999924578146 0.7499999957093447 0  1.062499992756609 0.7499999952288599 0  1.124999993079068 0.7499999947809602 0  1.18749999340179 0.7499999943914391 0  1.249999993703574 0.749999994086648 0  1.312499993961656 0.7499999938961825 0  1.374999994158804 0.7499999938549029 0  1.437499994285024 0.7499999939955196 0  1.499999994338038 0.7499999943446504 0  1.562499994329174 0.7499999949149612 0  1.624999994278985 0.7499999956952407 0  1.687499994211568 0.7499999966544132 0  1.74999999415883 0.7499999977466514 0  1.812499994162758 0.7499999989051989 0  1.874999994268775 0.7500000000271646 0  1.937499994482388 0.7500000009610323 0  1.999999994668869 0.7500000015938922 0  0.06249999503853836 0.8125000016405716 0  -5.080883831625588e-09 0.8125000012517608 0  0.124999995166921 0.8125000018769347 0  0.1874999952158446 0.8125000019084784 0  0.24999999513797 0.8125000017464336 0  0.3124999949250969 0.8125000014265614 0  0.3749999945963453 0.8125000009912864 0  0.4374999941886867 0.8125000004836715 0  0.4999999937489655 0.8124999999440614 0  0.5624999933267938 0.8124999994058866 0  0.6249999929674832 0.8124999988890486 0  0.6874999927032808 0.8124999983966285 0  0.7499999925484274 0.8124999979209978 0  0.8124999925020462 0.8124999974526139 0  0.8749999925527495 0.8124999969851997 0  0.9374999926826127 0.8124999965187126 0  0.9999999928712765 0.8124999960595477 0  1.062499993097325 0.8124999956189763 0  1.124999993338654 0.8124999952131864 0  1.187499993574346 0.8124999948628766 0  1.249999993785206 0.8124999945914853 0  1.312499993954052 0.8124999944247218 0  1.374999994068106 0.8124999943895121 0  1.437499994121013 0.8124999945106249 0  1.49999999411443 0.812499994806414 0  1.562499994059384 0.8124999952833821 0  1.624999993974802 0.8124999959314536 0  1.687499993885039 0.8124999967227141 0  1.749999993818357 0.8124999976107818 0  1.812499993802704 0.8124999985278486 0  1.874999993853031 0.8124999993829638 0  1.937499993945907 0.8125000000775574 0  1.999999994002955 0.8125000005638352 0  0.06249999478046447 0.8750000014448579 0  -5.26751787610526e-09 0.8750000011968636 0  0.1249999948436784 0.8750000016059689 0  0.1874999948682635 0.8750000016259217 0  0.2499999948169194 0.8750000014970563 0  0.3124999946762272 0.8750000012375055 0  0.374999994453683 0.8750000008767418 0  0.4374999941719127 0.8750000004474743 0  0.4999999938626175 0.8749999999807668 0  0.5624999935607556 0.8749999995020934 0  0.6249999932987818 0.8749999990278972 0  0.6874999931011831 0.8749999985645939 0  0.7499999929812406 0.8749999981113487 0  0.8124999929412153 0.874999997664662 0  0.8749999929745326 0.8749999972222694 0  0.9374999930685587 0.874999996785548 0  0.9999999932072146 0.8749999963603112 0  1.062499993372705 0.8749999959566336 0  1.124999993546739 0.8749999955885674 0  1.187499993711758 0.8749999952735414 0  1.249999993851916 0.8749999950313765 0  1.312499993954087 0.8749999948832331 0  1.374999994009333 0.8749999948500311 0  1.437499994014391 0.8749999949498802 0  1.499999993972776 0.8749999951947059 0  1.562499993895115 0.8749999955864248 0  1.6249999937981 0.8749999961136166 0  1.687499993702313 0.8749999967494964 0  1.749999993629002 0.8749999974508537 0  1.81249999359456 0.874999998158251 0  1.874999993601689 0.8749999988008265 0  1.937499993630974 0.8749999993122145 0  1.999999993647488 0.8749999996578258 0  0.06249999460586692 0.9375000012777823 0  -5.410599808301956e-09 0.9375000011306653 0  0.1249999946331088 0.9375000013748567 0  0.1874999946412639 0.9375000013754268 0  0.249999994604883 0.9375000012645768 0  0.3124999945114164 0.9375000010488179 0  0.3749999943623657 0.9375000007465558 0  0.4374999941707731 0.9375000003810458 0  0.4999999939572977 0.9374999999755301 0  0.5624999937458887 0.9374999995497657 0  0.6249999935594787 0.9374999991177537 0  0.6874999934162069 0.937499
[...]
<PointData  Scalars="p"> 
<DataArray  type="Float64"  Name="p"  format="ascii">0.0000000000000000e+00  -1.0199864957171618e-05  -1.0979348231073886e-05  0.0000000000000000e+00  -1.7331026002266184e-05  -1.7990620053038830e-05  -2.1838391244448792e-05  -2.2265463470196443e-05  -2.4324745183910535e-05  -2.4556787987747118e-05  -2.5290906300565977e-05  -2.5388813985552462e-05  -2.5120815150439061e-05  -2.5136651671325082e-05  -2.4108540358367894e-05  -2.4077686738341883e-05  -2.2471048815653900e-05  -2.2416821672501232e-05  -2.0367540380657959e-05  -2.0304998234853868e-05  -1.7915336250452294e-05  -1.7854364321361188e-05  -1.5201424165882301e-05  -1.5149337596647611e-05  -1.2294641427714128e-05  -1.2256399372385686e-05  -9.2533893195415464e-06  -9.2309501891588524e-06  -6.1252261775477904e-06  -6.1191256598364345e-06  -2.9504909868186896e-06  -2.9596242679061258e-06  2.3704402915652276e-07  2.1497109944576974e-07  3.4143943366440128e-06  3.3789671184802619e-06  6.5530508152357674e-06  6.5055985559469913e-06  9.6229652165464922e-06  9.5657475995979105e-06  1.2596777390418712e-05  1.2529674181355236e-05  1.5433468520030074e-05  1.5358722358900466e-05  1.8081027076716590e-05  1.8003081431572118e-05  2.0478553232644113e-05  2.0401689501089490e-05  2.2537714840373907e-05  2.2471712425387857e-05  2.4143109492488876e-05  2.4103218571396004e-05  2.5144356481338733e-05  2.5151244267031973e-05  2.5323979209896441e-05  2.5413578814432316e-05  2.4386624940464893e-05  2.4612527916275332e-05  2.1945033702887422e-05  2.2370590764183301e-05  1.7489124248947236e-05  1.8155481924473250e-05  1.0400170543719380e-05  1.1169447611464765e-05  0.0000000000000000e+00  0.0000000000000000e+00  -1.2460396283748364e-05  0.0000000000000000e+00  -1.9478837614050516e-05  -2.3361365586428181e-05  -2.5243274243902881e-05  -2.5754267375224684e-05  -2.5281266151319388e-05  -2.4083005569873792e-05  -2.2342070110725054e-05  -2.0191341357003774e-05  -1.7730041461861134e-05  -1.5034095416284097e-05  -1.2163646784986160e-05  -9.1683468806527953e-06  -6.0899736819987762e-06  -2.9639955205473817e-06  1.7929705324768353e-07  3.3136612066254117e-06  6.4133111663805771e-06  9.4509822888306106e-06  1.2396925318787035e-05  1.5215142550152188e-05  1.7860726353953721e-05  2.0277488365136250e-05  2.2392056336905429e-05  2.4107746088336865e-05  2.5295289688709358e-05  2.5774916655910625e-05  2.5289293207415888e-05  2.3450882381504710e-05  1.9620624594379047e-05  1.2618293709746166e-05  0.0000000000000000e+00  -1.4030833236382899e-05  0.0000000000000000e+00  -2.1261106648021623e-05  -2.4827831925739172e-05  -2.6276134055123011e-05  -2.6398289019074112e-05  -2.5628004059277338e-05  -2.4222979731495537e-05  -2.2349416818706373e-05  -2.0122123494179291e-05  -1.7625085966099831e-05  -1.4922569199702729e-05  -1.2065694659092590e-05  -9.0967788055388552e-06  -6.0518393874996445e-06  -2.9619867276764524e-06  1.4555233827634409e-07  3.2461868804521405e-06  6.3159831464683040e-06  9.3300032849169692e-06  1.2260895617963604e-05  1.5076715403857313e-05  1.7738787967264566e-05  2.0199051429340812e-05  2.2395728111375840e-05  2.4247219938054860e-05  2.5641438648660388e-05  2.6415052309538933e-05  2.6312936708122629e-05  2.4901928074919423e-05  2.1381029051154244e-05  1.4165494770302125e-05  0.0000000000000000e+00  -1.5533365663727523e-05  0.0000000000000000e+00  -2.3090391033784716e-05  -2.6450281972025674e-05  -2.7516462239543251e-05  -2.7253199233783640e-05  -2.6161619301546171e-05  -2.4515132160334046e-05  -2.2473671852373082e-05  -2.0138752124545427e-05  -1.7580579279028352e-05  -1.4851440128380707e-05  -1.1992588735096140e-05  -9.0383032904675175e-06  -6.0181827781983186e-06  -2.9583034874885836e-06  1.1797004180543000e-07  3.1890382300691440e-06  6.2338276549490556e-06  9.2305989491526257e-06  1.2155770487655065e-05  1.4982585702624604e-05  1.7679415432130504e-05  2.0207363324668323e-05  2.2516303006352515e-05  2.4538180380078429e-05  2.6173936072072962e-05  2.7266636245761120e-05  2.7546025862776253e-05  2.6512111519159300e-05  2.3192954922326371e-05  1.5650139740497024e-05  0.0000000000000000e+00  -1.6929085773998750e-05  0.0000000000000000e+00  -2.4858774622927639e-05  -2.8096344474830374e-05  -2.8847046037558880e-05  -2.8233509708837517e-05  -2.6829364322131742e-05  -2.4933367338612710e-05  -2.2707527928237514e-05  -2.0245605399449159e-05  -1.7607085725363846e-05  -1.4833638190199323e-05  -1.1957113604737224e-05  -9.0038562009643655e-06  -5.9969263872459735e-06  -2.9570747253715376e-06  9.6705716067366206e-08  3.1465558273269484e-06  6.1749951484998468e-06  9.1641279888426914e-06  1.2094901937697837e-05  1.4946203769051111e-05  1.7693630902359301e-05  2.0307122643782178e-05  2.2746802521893058e-05  2.4955151263190654e-05  2.6840740820181720e-05  2.8244564861891530e-05  2.8871190353050815e-05  2.8148436610030847e-05  2.4947021531776952e-05  1.7030840048526412e-05  0.0000000000000000e+00  -1.8205883079710400e-05  0.0000000000000000e+00  -2.6512789245919165e-05  -2.9683092322879292e-05  -3.0178205467377126e-05  -2.9259264206242298e-05  -2.7568447090758954e-05  -2.5432988191236511e-05  -2.3021919093910075e-05  -2.0425637538812421e-05  -1.7696041641165459e-05  -1.4866158405313226e-05  -1.1959604005776981e-05  -8.9954381520455117e-06  -5.9905036786382347e-06  -2.9602855517201758e-06  8.0737336251587835e-08  3.1187577922267654e-06  6.1402195689853847e-06  9.1313904447636392e-06  1.2077916469486712e-05  1.4964342203448855e-05  1.7772991099805119e-05  2.0481637506859276e-05  2.3058735672679352e-05  2.5454114228947380e-05  2.7579590043134782e-05  2.9269035137989497e-05  3.0198413807706432e-05  2.9727133749382848e-05  2.6588525528778034e-05  1.8294248383897612e-05  0.0000000000000000e+00  -1.9353781675618834e-05  0.0000000000000000e+00  -2.8017187662139486e-05  -3.1152649437000043e-05  -3.1441021662285612e-05  -3.0261987443947898e-05  -2.8318356298782174e-05  -2.5964785318402922e-05  -2.3379302263078117e-05  -2.0651688289792090e-05  -1.7828757817016526e-05  -1.4936853705188894e-05  -1.1992753746804272e-05  -9.0091926596687442e-06  -5.9974121647440626e-06  -2.9680046514419037e-06  6.8889036852451775e-08  3.1034531868444781e-06  6.1260430185039519e-06  9.1270066624610399e-06  1.2096536055650883e-05  1.5024333106390982e-05  1.7898714674118954e-05  2.0703945727675309e-05  2.3414898734448506e-05  2.5986282037400546e-05  2.8330291202049173e-05  3.0271585445207418e-05  3.1458523446196465e-05  3.1189876773039671e-05  2.8081534429160856e-05  1.9429622452254114e-05  0.0000000000000000e+00  -2.0359286989601239e-05  0.0000000000000000e+00  -2.9341467174039216e-05  -3.2459114259674891e-05  -3.2580288497415183e-05  -3.1184335988215316e-05  -2.9025342401529524e-05  -2.6482035746540248e-05  -2.3741335316040646e-05  -2.0893725689348529e-05  -1.7982677457008638e-05  -1.5029487779171131e-05  -1.2045472815351100e-05  -9.0381123174843712e-06  -6.0138596796318358e-06  -2.9790115456351668e-06  6.0179901616577608e-08  3.0975434898756098e-06  6.1270166729264087e-06  9.1426776890257850e-06  1.2138745826770367e-05  1.5109452462883221e-05  1.8048047080525216e-05  2.0944065647210200e-05  2.3777165132272364e-05  2.6505139482188170e-05  2.9039257530310083e-05  3.1194934117355556e-05  3.2596159631402902e-05  3.2490460351936444e-05  2.9395064073781849e-05  2.0422848875723219e-05  0.0000000000000000e+00  -2.1205243793963168e-05  0.0000000000000000e+00  -3.0455736561453681e-05  -3.3562635731421121e-05  -3.3549978927104878e-05  -3.1978473662676394e-05  -2.9643588410504597e-05  -2.6943611017255587e-05  -2.4072970986910216e-05  -2.1123179542842518e-05  -1.8135419366627831e-05  -1.5127232770296225e-05  -1.2105706343732399e-05  -9.0741556571472464e-06  -6.0351605853816628e-06  -2.9914895769911246e-06  5.3846463412557088e-08  3.0977384563468784e-06  6.1371511576524187e-06  9.1692876275355295e-06  1.2191733224799748e-05  1.5202358093686473e-05  1.8198406330671615e-05  2.1173381362086603e-05  2.4110547563169626e-05  2.6969709308799073e-05  2.9660765425157637e-05  3.1991278218509983e-05  3.3565262579543627e-05  3.3588813054475435e-05  3.0498838033756781e-05  2.1256259348393297e-05  0.0000000000000000e+00  -2.1872227601973448e-05  0.0000000000000000e+00  -3.1330318910502559e-05  -3.4427367499770288e-05  -3.4310996229442116e-05  -3.2604712156157255e-05  -3.0135203529183899e-05  -2.7315158678771544e-05  -2.4344465481223973e-05  -2.1315315202208479e-05  -1.8267199546351048e-05  -1.5214874558179851e-05  -1.2162299896049422e-05  -9.1096882861860265e-06  -6.0567259141663189e-06  -3.0035335868398228e-06  4.9317066157290682e-08  3.1010313546844205e-06  6.1508619409735977e-06  9.1983806756054407e-06  1.2243696689599099e-05  1.5287435326128946e-05  1.8329736966674732e-05  2.1367107973133646e-05  2.4385314968350847e-05  2.7345670756148171e-05  3.0156991344981921e-05  3.2620924654053658e-05  3.4326652883203490e-05  3.4448909931854670e-05  3.1362835656136684e-05  2.1910052744863143e-05  0.0000000000000000e+00  -2.2340301647491815e-05  0.0000000000000000e+00  -3.1936841511158039e-05  -3.5021465805422204e-05  -3.4830494237366694e-05  -3.3030956255558428e-05  -3.0470124782584173e-05  -2.7569665776419773e-05  -2.4532415576263972e-05  -2.1450596778485210e-05  -1.8362264360573405e-05  -1.5280190114734979e-05  -1.2206189851278464e-05  -9.1384277115758256e-06  -6.0747144015173149e-06  -3.0134872656611273e-06  4.6212071765832832e-08  3.1050297988026084e-06  6.1636448059163587e-06  9.2231112364007172e-06  1.2285144651724169e-05  1.5352124518444375e-05  1.8426119244477414e-05  2.1505559903659516e-05  2.4578055449831024e-05  2.7605972241098590e-05  3.0497822011805930e-05  3.3051692958697903e-05  3.4847333554335269e-05  3.5038667597462777e-05  3.1958394345664394e-05  2.2364015576185125e-05  0.0000000000000000e+00  -2.2590619170679604e-05  0.0000000000000000e+00  -3.2249729885381757e-05  -3.5317796257006613e-05  -3.5082098274867696e-05  -3.3232628826646973e-05  -3.0626242402044429e-05  -2.7687752112075789e-05  -2.4620378007091989e-05  -2.1515430151193019e-05  -1.8409743864397765e-05  -1.5314765927437542e-05  -1.2231149317412047e-05  -9.1560540506660325e-06  -6.0864779253657356e-06  -3.0201988397548813e-06  4.4286926369908633e-08  3.1081084497822125e-06  6.1724185508004937e-06  9.2387876353391491e-06  1.2309532751220626e-05  1.5387769171522214e-05  1.8476435271730593e-05  2.1574997836176205e-05  2.4672097328874771e-05  2.7731129611904840e-05  3.0660956501395430e-05  3.3258871281483931e-05  3.5100737065122145e-05  3.5330766552399954e-05  3.2259724332481775e-05  2.2599160070153819e-05  0.0000000000000000e+00  -2.2606715991667082e-05  0.0000000000000000e+00  -3.2247498070541982e-05  -3.5294891896805046e-05  -3.5046339432080604e-05  -3.3192952871264189e-05  -3.0589445557416538e-05  -2.7657887956498646e-05  -2.4599028080936339e-05  -2.1502500002846128e-05  -1.8403977287126038e-05  -1.5314374280090064e-05  -1.2234132557399410e-05  -9.1605187589075978e-06  -6.0908089275303181e-06  -3.0231937252950238e-06  4.3342626650252436e-08  3.1094027610222202e-06  6.1756078859417900e-06  9.2430201648966362e-06  1.2313508533947415e-05  1.5389834940362479e-05  1.8474757432244173e-05  2.1567765555588962e-05  2.4657893372715314e-05  2.7709269975795776e-05  3.0632126861805336e-05  3.3225449518825688e-05  3.5067298072309749e-05  3.5303617574305027e-05  3.2245278874457036e-05  2.2598990297663306e-05  0.0000000000000000e+00  -2.2375354830913324e-05  0.0000000000000000e+00  -3.1913734768665004e-05  -3.4937681791885184e-05  -3.4711131720628132e-05  -3.2903010506373068e-05  -3.0353605381548153e-05  -2.7476036038937655e-05  -2.4465939643945552e-05  -2.1410366285610959e-05  -1.8344242846478718e-05  -1.5278676226270799e-05  -1.2215049138242313e-05  -9.1518527725311835e-06  -6.0877999767893893e-06  -3.0225847251688175e-06  4.3264965105757129e-08  3.1087993832250069e-06  6.1730835210634742e-06  9.2356275761347572e-06  1.2296762212393081e-05  1.5357781066834666e-05  1.8420105498089610e-05  2.1482228090058433e-05  2.4532689961359332e-05  2.7536170346340195e-05  3.0404876565342022e-05  3.2942318702052220e-05  3.4734685831353287e-05  3.4942002628686147e-05  3.1898530036730095e-05  2.2350243661392879e-05  0.0000000000000000e+00  -2.1886814178268181e-05  0.0000000000000000e+00  -3.1237440695042131e-05  -3.4237707055963065e-05  -3.4071729483469717e-05  -3.2361443375196702e-05  -2.9919872580000960e-05  -2.7144879122037757e-05  -2.4224406249724901e-05  -2.1242443200535978e-05  -1.8233559108823756e-05  -1.5210206084987615e-05  -1.2175821501105763e-05  -9.1314165634756670e-06  -6.0782841616812961e-06  -3.0187333147581698e-06  4.4134358131114888e-08  3.1068149728158623e-06  6.1658222605919221e-06  9.2180829589295349e-06  1.2261310660500334e-05  1.5294156752851919e-05  1.8315523219066648e-05  2.1321662480028986e-05  2.4299690946863149e-05  2.7214215974377624e-05  2.9980065384164911e-05  3.2407702154641013e-05  3.4097741281446696e-05  3.4237091215365838e-05  3.1208209471765729e-05  2.1843092437717526e-05  0.0000000000000000e+00  -2.1134440538749941e-05  0.0000000000000000e+00  -3.0212364658190672e-05  -3.3192299061111368e-05  -3.3129569503155600e-05  -3.1572954908960087e-05  -2.9294777243208719e-05  -2.6671514216876730e-05  -2.3881103869690834e-05  -2.1004332254607261e-05  -1.8076341610872230e-05  -1.5112078228624826e-05  -1.2118515928012142e-05  -9.1004000470303644e-06  -6.0628237836110692e-06  -3.0117378813681569e-06  4.6213103739989180e-08  3.1040646552662511e-06  6.1548667203600548e-06  9.1920158767678411e-06  1.2209557743721694e-05  1.5202369305151372e-05  1.8165515845478627e-05  2.1091733742896908e-05  2.3965370623188435e-05  2.6750208278747625e-05  2.9363765348575599e-05  3.1625728079394012e-05  3.3157330827458291e-05  3.3185670269229762e-05  3.0167669867917864e-05  2.1070671367863931e-05  0.0000000000000000e+00  -2.0113130614541317e-05  0.0000000000000000e+00  -2.8834805941143411e-05  -3.1801805491929642e-05  -3.1888848095984239e-05  -3.0544034703182999e-05  -2.8485331923278613e-05  -2.6061959474141620e-05  -2.3440297354615956e-05  -2.0698288618250133e-05  -1.7872944067233176e-05  -1.4983322693807805e-05  -1.2041299879060915e-05  -9.0567475574499766e-06  -6.0395881406845139e-06  -3.0003631674882086e-06  4.9959433907828115e-08  3.1002115218342603e-06  6.1392509285150271e-06  9.1561422884746887e-06  1.2140371838317709e-05  1.5081931965867032e-05  1.7970828527050460e-05  2.0794751031924034e-05  2.3533858620170589e-05  2.6149766443658153e-05  2.8562316945789829e-05  3.0602115235283409e-05  3.1916752682856401e-05  3.1787195486041497e-05  2.8772428205387098e-05  2.0027331517298080e-05  0.0000000000000000e+00  -1.8816069766030254e-05  0.0000000000000000e+00  -2.7098559978392534e-05  -3.0062956197509736e-05  -3.0348247703711236e-05  -2.9273095015098819e-05  -2.7487788204444241e-05  -2.5309322940759178e-05  -2.2891782352920737e-05  -2.0311518027532717e-05  -1.7609107710068160e-05  -1.4809402504739781e-05  -1.1930723970008477e-05  -8.9891218502647024e-06  -6.0002794185468043e-06  -2.9799330593074008e-06  5.6101480307539989e-08  3.0920270757777167e-06  6.1120634396140738e-06  9.1004494211302150e-06  1.2041441842380427e-05  1.4919329574910491e-05  1.7717860231669890e-05  2.0418318430421567e-05  2.2994923682469122e-05  2.5405484775918347e-05  2.7571115621613663e-05  2.9334017891669548e-05  3.0373179190848048e-05  3.0036805047045806e-05  2.7014737366071419e-05  1.8705114602033624e-05  0.0000000000000000e+00  -1.7228231949644186e-05  0.0000000000000000e+00  -2.4984012347088040e-05  -2.7953900190583050e-05  -2.8482037386701298e-05  -2.7728430250324696e-05  -2.6263512223560340e-05  -2.4368747538361789e-05  -2.2186449509770617e-05  -1.9793167391618255e-05  -1.7235062943709052e-05  -1.4544368710936272e-05  -1.1746920186367070e-05  -8.8657401721163206e-06  -5.9225937487553404e-06  -2.9386189357294951e-06  6.5520523082432173e-08  3.0694226144793612e-06  6.0527135830582694e-06  8.9947548596692624e-06  1.1874424662135995e-05  1.4669857265812916e-05  1.7357880383042147e-05  1.9912175057671330e-05  2.2299514528846627e-05  2.4472042275336676e-05  2.6350361862308418e-05  2.7787963981832180e-05  2.8498708734479396e-05  2.7910225876652525e-05  2.4872623724247003e-05  1.7087141740942775e-05  0.0000000000000000e+00  -1.5313488074831911e-05  0.0000000000000000e+00  -2.2434776217610548e-05  -2.5401060336855991e-05  -2.6198511473136534e-05  -2.5800593597480076e-05  -2.4688417109421345e-05  -2.3106616081706327e-05  -2.1187312366667172e-05  -1.9009210081666534e-05  -1.6625441877199457e-05  -1.4076429838080624e-05  -1.1395780480708044e-05  -8.6132324264048729e-06  -5.7562268972907353e-06  -2.8506248547684774e-06  7.8761877429673389e-08  3.0077014408610879e-06  5.9119667020341837e-06  8.7667659535260677e-06  1.1546174905480703e-05  1.4222651580306890e-05  1.6766195611714925e-05  1.9142688055187713e-05  2.1310660813119747e-05  2.3215187391225757e-05  2.4774657439102602e-05  2.5852513775272318e-05  2.6199018936091123e-05  2.5330982135632397e-05  2.2286889160151665e-05  1.5134914512720071e-05  0.0000000000000000e+00  -1.2988186867625786e-05  0.0000000000000000e+00  -1.9307114196082010e-05  -2.2206705177869545e-05  -2.3251071824264389e-05  -2.3203706187982306e-05  -2.2450784582754414e-05  -2.1200281407904944e-05  -1.9575069628037919e-05  -1.7656254424358461e-05  -1.5503350934722241e-05  -1.3163659190928784e-05  -1.0676865511147235e-05  -8.0776176256151673e-06  -5.3970714196139881e-06  -2.6639478877302375e-06  9.4686420831242738e-08  2.8525967984163866e-06  5.5835497010224563e-06  8.2604273225343054e-06  1.0854397864381872e-05  1.3334060857836841e-05  1.5664432003067756e-05  1.7805175256742630e-05  1.9707840668388048e-05  2.1311138834676336e-05  2.2531058266247203e-05  2.3240314273922310e-05  2.3225929148016507e-05  2.2099950585667824e-05  1.9112659976158657e-05  1.2763586543856465e-05  0.0000000000000000e+00  -1.0061794804464588e-05  0.0000000000000000e+00  -1.5254626531617525e-05  -1.7888349814690417e-05  -1.9048409403103196e-05  -1.9272367320156856e-05  -1.8847371188562018e-05  -1.7941970431463350e-05  -1.6665810322012019e-05  -1.5097284352229117e-05  -1.3296692999498590e-05  -1.1312742278033089e-05  -9.1860664107460056e-06  -6.9515035346335668e-06  -4.6397240972932126e-06  -2.2784112556165870e-06  1.0669830233789861e-07  2.4908472824943993e-06  4.8492465245689943e-06  7.1560631818769850e-06  9.3833832691832056e-06  1.1500197374949225e-05  1.3471150278492441e-05  1.5254818623844264e-05  1.6801274060282722e-05  1.8048403709989457e-05  1.8915035609921635e-05  1.9287474654089860e-05  1.8992706943533695e-05  1.7742343086172438e-05  1.5013512144121462e-05  9.7908650727599868e-06  0.0000000000000000e+00  -6.0926286371981739e-06  0.0000000000000000e+00  -9.4597632928124434e-06  -1.1326027764885988e-05  -1.2258440931186474e-05  -1.2553205624802814e-05  -1.2383379120178669e-05  -1.1860643801753851e-05  -1.1063365373418551e-05  -1.0050214296999715e-05  -8.8671541223677747e-06  -7.5512625010073745e-06  -6.1331092471216534e-06  -4.6384528992685180e-06  -3.0895255173209102e-06  -1.5060673661037963e-06  9.3804590122120479e-08  1.6927594737970122e-06  3.2734320764759992e-06  4.8175750853596362e-06  6.3052070038703580e-06  7.7137067882945244e-06  9.0167827253284977e-06  1.0183086527307519e-05  1.1174423330295826e-05  1.1943293063615790e-05  1.2428766067450232e-05  1.2549323300044106e-05  1.2189863570478512e-05  1.1176248392526053e-05  9.2234994527817885e-06  5.8248969016154342e-06  0.0000000000000000e+00  0.0000000000000000e+00  0.0000000000000000e+00  0.0000000000000000e+00  0.0000000000000000e+00  0.0000000000000000e+00  0.0000000000000000e+00  0.0000000000000000e+00  0.0000000000000000e+00  0.0000000000000000e+00  0.0000000000000000e+00  0.0000000000000000e+00  0.0000000000000000e+00  0.0000000000000000e+00  0.0000000000000000e+00  0.0000000000000000e+00  0.0000000000000000e+00  0.0000000000000000e+00  0.0000000000000000e+00  0.0000000000000000e+00  0.0000000000000000e+00  0.0000000000000000e+00  0.0000000000000000e+00  0.0000000000000000e+00  0