<?xml version="1.0"?>
<VTKFile type="UnstructuredGrid"  version="0.1"  >
<UnstructuredGrid>
<Piece  NumberOfPoints="825" NumberOfCells="1536">
<Points>
<DataArray  type="Float64"  NumberOfComponents="3"  format="ascii">-1.045407408054311e-21 0.5 0  0.06249999997805937 0.5000000002107065 0  0.06249999885481202 0.5625000011282681 0  -2.524458738673525e-09 0.562500000067289 0  0.1249999998493247 0.5000000001497367 0  0.1249999992872233 0.5625000010084319 0  0.1874999994931807 0.499999999759182 0  0.1874999991656254 0.5625000004302602 0  0.249999998936032 0.4999999991849819 0  0.2499999987046408 0.562499999665193 0  0.312499998179544 0.499999998456764 0  0.3124999979683621 0.5624999986584303 0  0.3749999966916494 0.4999999969900507 0  0.3749999968928227 0.5624999974222259 0  0.4374999951818063 0.4999999957702846 0  0.4374999957286586 0.5624999963327773 0  0.4999999938077263 0.4999999947508659 0  0.4999999946710935 0.5624999953071756 0  0.5624999924281151 0.4999999933515148 0  0.5624999938033409 0.5624999944857776 0  0.624999992411008 0.4999999935069097 0  0.6249999934474911 0.5624999944472118 0  0.6874999931435616 0.4999999943359791 0  0.6874999935887394 0.5624999946147677 0  0.7499999930892919 0.4999999935985721 0  0.7499999937898765 0.5624999945342156 0  0.8124999938029349 0.499999994126613 0  0.8124999942354311 0.5624999948355134 0  0.8749999949241239 0.4999999948595706 0  0.8749999948693021 0.5624999950309619 0  0.9374999950380215 0.4999999939499311 0  0.9374999953703244 0.562499994912719 0  0.9999999959187368 0.4999999944773795 0  0.9999999959829827 0.5624999951672858 0  1.062499997007707 0.4999999950860324 0  1.062499996652096 0.5624999952787125 0  1.124999996970756 0.4999999941134409 0  1.124999997098512 0.5624999950743123 0  1.18749999761335 0.4999999944718235 0  1.187499997570915 0.5624999952371168 0  1.249999998510949 0.4999999950838112 0  1.249999998047076 0.5624999953190087 0  1.312499998248604 0.499999994177024 0  1.312499998255898 0.5624999951311056 0  1.374999998545791 0.4999999945232588 0  1.374999998430068 0.5624999953024321 0  1.43749999893713 0.4999999950062468 0  1.437499998550595 0.5624999954534484 0  1.499999998468025 0.4999999945217908 0  1.499999998399217 0.5624999955981208 0  1.562499998466891 0.4999999955394437 0  1.562499998244977 0.5624999962911101 0  1.624999998732088 0.4999999969158856 0  1.624999998165055 0.562499997105299 0  1.687499998719835 0.4999999975008271 0  1.687499998014343 0.5624999978544979 0  1.749999999035251 0.4999999984628724 0  1.749999997917315 0.5624999987600774 0  1.812499999450736 0.4999999991935775 0  1.812499997851559 0.5624999996161862 0  1.874999999662185 0.4999999994625673 0  1.874999997694664 0.5625000005488712 0  1.937499999884884 0.4999999998332744 0  1.93749999772866 0.562500001894033 0  2 0.5 0  2.000000000078216 0.5625000032823793 0  0.06249999803429657 0.625000001221499 0  -2.910129901904579e-09 0.6250000005171749 0  0.1249999985608883 0.6250000011868445 0  0.1874999986388641 0.6250000006817307 0  0.2499999983599275 0.6249999999163034 0  0.3124999978057995 0.624999998965862 0  0.374999997023782 0.6249999979226065 0  0.4374999961397502 0.6249999969295532 0  0.4999999952987982 0.6249999960545147 0  0.5624999945937729 0.624999995421457 0  0.6249999941620529 0.6249999951617968 0  0.68749999406449 0.6249999951237839 0  0.7499999941779197 0.6249999951557716 0  0.812499994462864 0.6249999952831792 0  0.8749999948979912 0.6249999954056995 0  0.9374999953691261 0.6249999954769999 0  0.9999999958700545 0.6249999955841465 0  1.062499996401149 0.6249999956532564 0  1.124999996869642 0.6249999956562823 0  1.187499997282044 0.6249999956986089 0  1.249999997652942 0.6249999957310081 0  1.312499997904455 0.624999995735214 0  1.374999998045638 0.6249999958167 0  1.437499998089099 0.6249999959673002 0  1.499999997986545 0.6249999962347248 0  1.562499997797142 0.6249999967270935 0  1.624999997585312 0.6249999973819818 0  1.687499997340824 0.6249999981445127 0  1.74999999709603 0.624999999036064 0  1.812499996883826 0.6250000000470883 0  1.874999996769486 0.6250000012331347 0  1.937499997093389 0.6250000025478838 0  1.999999998283684 0.6250000030198714 0  0.06249999759162293 0.6875000009714248 0  -2.930526617722724e-09 0.6875000005153724 0  0.1249999979900818 0.6875000009761127 0  0.1874999981198813 0.6875000005888122 0  0.2499999979717232 0.6874999999374627 0  0.3124999975861834 0.6874999991239242 0  0.3749999970199914 0.6874999982436093 0  0.4374999963587091 0.6874999973937053 0  0.4999999956989221 0.6874999966555753 0  0.5624999951272173 0.6874999961081439 0  0.6249999947298003 0.6874999957949923 0  0.6874999945519058 0.6874999956688844 0  0.7499999945682931 0.6874999956573657 0  0.8124999947451214 0.6874999957167226 0  0.8749999950469965 0.6874999958003013 0  0.9374999954205204 0.6874999958808244 0  0.9999999958344751 0.6874999959590915 0  1.062499996264666 0.6874999960193968 0  1.12499999667048 0.6874999960565096 0  1.187499997031805 0.6874999960907987 0  1.249999997335462 0.6874999961251906 0  1.312499997551661 0.6874999961691033 0  1.37499999766735 0.6874999962573455 0  1.437499997677776 0.687499996418956 0  1.499999997576647 0.6874999966919422 0  1.562499997388579 0.6874999971150803 0  1.624999997149397 0.6874999976876618 0  1.687499996884308 0.687499998396185 0  1.749999996631109 0.6874999992363685 0  1.812499996447235 0.6875000001943669 0  1.87499999643237 0.6875000012182889 0  1.937499996729476 0.6875000020926566 0  1.999999997224789 0.687500002376657 0  0.0624999973403215 0.7500000005876174 0  -2.922934737774869e-09 0.7500000002867511 0  0.1249999975885225 0.7500000006027792 0  0.1874999976955161 0.7500000003205749 0  0.249999997614401 0.7499999998082761 0  0.3124999973520943 0.7499999991496838 0  0.3749999969461399 0.7499999984285368 0  0.43749999645526 0.7499999977241694 0  0.4999999959482462 0.7499999971056783 0  0.5624999954935603 0.7499999966273042 0  0.6249999951523103 0.7499999963133592 0  0.6874999949612143 0.7499999961469518 0  0.7499999949230816 0.7499999960893527 0  0.8124999950211 0.7499999961018639 0  0.8749999952281996 0.7499999961505003 0  0.9374999955107202 0.7499999962119851 0  0.9999999958384614 0.7499999962739804 0  1.062499996183812 0.7499999963275974 0  1.124999996518218 0.7499999963708102 0  1.187499996818642 0.749999996410058 0  1.249999997065786 0.749999996453628 0  1.312499997240051 0.7499999965151115 0  1.374999997327734 0.7499999966167821 0  1.437499997322364 0.749999996784805 0  1.499999997225761 0.7499999970474062 0  1.562499997054335 0.749999997427689 0  1.624999996835035 0.7499999979334473 0  1.687499996599975 0.7499999985594562 0  1.749999996390593 0.7499999992893118 0  1.812499996260596 0.7500000000834385 0  1.874999996269701 0.750000000852507 0  1.937499996434717 0.7500000014316912 0  1.999999996613211 0.7500000016744818 0  0.06249999716596414 0.8125000001791567 0  -2.954446356969032e-09 0.8124999999744362 0  0.1249999973019719 0.8125000001954344 0  0.187499997367336 0.8124999999936398 0  0.2499999973138122 0.8124999996058478 0  0.3124999971318727 0.8124999990911086 0  0.3749999968406859 0.8124999985158622 0  0.4374999964786417 0.8124999979442672 0  0.4999999960944848 0.8124999974317605 0  0.5624999957391544 0.8124999970190643 0  0.6249999954578312 0.8124999967252414 0  0.687499995280805 0.8124999965453296 0  0.7499999952186412 0.8124999964580482 0  0.8124999952654703 0.8124999964365255 0  0.8749999954043507 0.812499996455327 0  0.9374999956120992 0.8124999964946634 0  0.9999999958639701 0.8124999965412685 0  1.062499996135381 0.8124999965872771 0  1.124999996402452 0.8124999966305165 0  1.187499996643748 0.8124999966743706 0  1.249999996840539 0.8124999967265427 0  1.312499996976767 0.8124999967994142 0  1.374999997041034 0.8124999969101928 0  1.437499997028484 0.8124999970790792 0  1.499999996942649 0.8124999973262831 0  1.562499996797195 0.8124999976671048 0  1.62499999661489 0.8124999981068136 0  1.687499996425512 0.8124999986378958 0  1.749999996264619 0.8124999992366253 0  1.81249999616935 0.8124999998556846 0  1.874999996164308 0.8125000004169101 0  1.937499996231136 0.8125000008245787 0  1.999999996284038 0.8125000010350271 0  0.06249999701824651 0.8749999997993507 0  -3.0298199753179e-09 0.8749999996526 0  0.1249999970834941 0.8749999998154644 0  0.1874999971129169 0.8749999996723912 0  0.2499999970689596 0.8749999993843344 0  0.3124999969377006 0.8749999989904333 0  0.3749999967268856 0.8749999985401318 0  0.4374999964604058 0.8749999980833416 0  0.4999999961718503 0.8749999976636704 0  0.5624999958980003 0.8749999973131969 0  0.6249999956724001 0.8749999970486464 0  0.6874999955194644 0.8749999968708574 0  0.7499999954511295 0.8749999967685995 0  0.8124999954672149 0.8749999967245001 0  0.8749999955580254 0.8749999967202813 0  0.9374999957076389 0.8749999967402396 0  0.9999999958969574 0.8749999967728148 0  1.062499996105736 0.8749999968109682 0  1.124999996313939 0.8749999968523363 0  1.187499996502942 0.8749999968990739 0  1.24999999665636 0.8749999969574407 0  1.312499996760856 0.8749999970375022 0  1.374999996807438 0.8749999971524908 0  1.437499996792934 0.87499999731724 0  1.499999996721284 0.8749999975455961 0  1.562499996604225 0.8749999978468787 0  1.624999996460633 0.8749999982221436 0  1.687499996314675 0.8749999986609538 0  1.749999996192719 0.8749999991382872 0  1.812499996117363 0.8749999996121417 0  1.874999996096962 0.8750000000263151 0  1.937499996114004 0.8750000003276628 0  1.999999996128582 0.8750000005019826 0  0.06249999687740009 0.9374999994703443 0  -3.138673678393293e-09 0.937499999357288 0  0.1249999969034106 0.9374999994875474 0  0.1874999969092006 0.9374999993871411 0  0.2499999968691622 0.9374999991752374 0  0.3124999967707702 0.9374999988773657 0  0.3749999966161388 0.9374999985290507 0  0.4374999964196856 0.9374999981679314 0  0.4999999962040168 0.9374999978277998 0  0.5624999959951664 0.9374999975342806 0  0.6249999958178011 0.9374999973022418 0  0.6874999956910677 0.9374999971354911
[...]
<PointData  Scalars="p"> 
<DataArray  type="Float64"  Name="p"  format="ascii">0.0000000000000000e+00  -3.9344617331019983e-07  -4.2374909622901994e-07  0.0000000000000000e+00  -6.6693753881339741e-07  -6.9266412419192225e-07  -8.3719006919045100e-07  -8.5388442326322536e-07  -9.2720211769148746e-07  -9.3662855684239300e-07  -9.5734216526238528e-07  -9.6196606477295694e-07  -9.4358220409023356e-07  -9.4546028652385497e-07  -8.9835940798258117e-07  -8.9881001401939799e-07  -8.3098988187221396e-07  -8.3074279966165881e-07  -7.4795821453745407e-07  -7.4750391465756041e-07  -6.5405623533666211e-07  -6.5363681081585429e-07  -5.5274086580778485e-07  -5.5247326820673969e-07  -4.4650723195538308e-07  -4.4643812944369138e-07  -3.3728018023228484e-07  -3.3734683705250657e-07  -2.2642631863843907e-07  -2.2649668688664113e-07  -1.1452347235366826e-07  -1.1462551586251806e-07  -2.2455142012749344e-09  -2.3364164067559011e-09  1.0985328299842446e-07  1.0983663624534844e-07  2.2159838743977972e-07  2.2154481445636100e-07  3.3235394511433272e-07  3.3221716679394789e-07  4.4122962456402876e-07  4.4099631646097780e-07  5.4730412841872913e-07  5.4682514810752444e-07  6.4873376557402429e-07  6.4799804070111020e-07  7.4289997965794411e-07  7.4204023033950582e-07  8.2655298119188850e-07  8.2571486920922119e-07  8.9477679916288772e-07  8.9443805999153450e-07  9.4083370069699452e-07  9.4190582812948201e-07  9.5592784224075706e-07  9.5974909408900887e-07  9.2781231294280137e-07  9.3650936939817404e-07  8.4035037857691353e-07  8.5661622598352137e-07  6.7331131280641034e-07  6.9877153316194683e-07  4.0212130444984217e-07  4.3149771274961101e-07  0.0000000000000000e+00  0.0000000000000000e+00  -4.8244039572821183e-07  0.0000000000000000e+00  -7.5202882123731269e-07  -8.9819824133631084e-07  -9.6546793950262995e-07  -9.7900897672526542e-07  -9.5467858076978773e-07  -9.0329053653819666e-07  -8.3254186278571273e-07  -7.4795423914083754e-07  -6.5354902065011771e-07  -5.5229314342268098e-07  -4.4637576597099860e-07  -3.3742236943635477e-07  -2.2660927580303507e-07  -1.1473398078690866e-07  -2.4040521379661707e-09  1.0986553006516747e-07  2.2161458331708785e-07  3.3226033140726326e-07  4.4099929340606942e-07  5.4675561237513218e-07  6.4797489168282910e-07  7.4248101893505529e-07  8.2734868027068651e-07  8.9856834200847922e-07  9.5066670912760160e-07  9.7616396427590003e-07  9.6445767019658747e-07  8.9975515859202385e-07  7.5652056992251189e-07  4.8827949468204257e-07  0.0000000000000000e+00  -5.4594850437445698e-07  0.0000000000000000e+00  -8.2458888441080466e-07  -9.5886100628242921e-07  -1.0097174682471139e-06  -1.0087502288482341e-06  -9.7353382914992830e-07  -9.1469124119837786e-07  -8.3914422935117210e-07  -7.5164332425354201e-07  -6.5558328203842464e-07  -5.5345669662998447e-07  -4.4711244466511834e-07  -3.3793192948929728e-07  -2.2694234611096092e-07  -1.1489896868182534e-07  -2.3890467017515594e-09  1.1008516442809556e-07  2.2203805219959135e-07  3.3289923480037175e-07  4.4193095215703975e-07  5.4815299228416383e-07  6.5022530490453169e-07  7.4632316717319296e-07  8.3398646702012393e-07  9.0985821229530977e-07  9.6926634742938449e-07  1.0054558553083867e-06  1.0079948447106874e-06  9.5939809503467885e-07  8.2775198968585248e-07  5.5050495875804022e-07  0.0000000000000000e+00  -6.0766332658800273e-07  0.0000000000000000e+00  -9.0015761638799124e-07  -1.0268785923741035e-06  -1.0632858514332085e-06  -1.0478106737703144e-06  -1.0006041482870466e-06  -9.3278851586397598e-07  -8.5093106503019822e-07  -7.5919143276433883e-07  -6.6038808070643524e-07  -5.5653214232513435e-07  -4.4910118304964203e-07  -3.3920535774743942e-07  -2.2769221726276647e-07  -1.1521599699420397e-07  -2.3031321243010513e-09  1.1058600954070776e-07  2.2299685470338595e-07  3.3441413955152864e-07  4.4419916312354256e-07  5.5153026927332222e-07  6.5532105164998420e-07  7.5411589330681784e-07  8.4593581067554457e-07  9.2801082066386495e-07  9.9626808100894619e-07  1.0442896713648444e-06  1.0611329572751355e-06  1.0267460144776697e-06  9.0243515917668153e-07  6.1137611743838270e-07  0.0000000000000000e+00  -6.6545406783819665e-07  0.0000000000000000e+00  -9.7375795153124989e-07  -1.0962916550273046e-06  -1.1208245934694776e-06  -1.0921166980195577e-06  -1.0331286462966295e-06  -9.5589167085900543e-07  -8.6696909964737325e-07  -7.7015496691387069e-07  -6.6781342440003987e-07  -5.6153040034105612e-07  -4.5243055934673516e-07  -3.4135268333635187e-07  -2.2894926298775214e-07  -1.1574204367833357e-07  -2.1645362307574964e-09  1.1139574033811178e-07  2.2455396995782611e-07  3.3688294845495986e-07  4.4787213369352486e-07  5.5688360681001131e-07  6.6309459295976141e-07  7.6539840457527878e-07  8.6224009210751287e-07  9.5130824099559716e-07  1.0288960550101873e-06  1.0885781397093863e-06  1.1184913000075019e-06  1.0957764409801158e-06  9.7545478080585898e-07  6.6856352550177943e-07  0.0000000000000000e+00  -7.1831893000531060e-07  0.0000000000000000e+00  -1.0426242967280155e-06  -1.1631805445756701e-06  -1.1782011235930933e-06  -1.1379853267035865e-06  -1.0681650610224457e-06  -9.8182745258628224e-07  -8.8574714775774252e-07  -7.8353770008751455e-07  -6.7723842180646683e-07  -5.6809091850350359e-07  -4.5691245208196381e-07  -3.4429111107807465e-07  -2.3068698276767244e-07  -1.1647817466671242e-07  -1.9879626325391977e-09  1.1248912035828446e-07  2.2665957601252935e-07  3.4020390407379337e-07  4.5275032282530701e-07  5.6384905724853194e-07  6.7292245344110191e-07  7.7916930984193459e-07  8.8137721490291412e-07  9.7755732737572737e-07  1.0641797247719948e-06  1.1345966835548494e-06  1.1758728275718394e-06  1.1624726469870303e-06  1.0439151673293198e-06  7.2094411367056103e-07  0.0000000000000000e+00  -7.6549511221017860e-07  0.0000000000000000e+00  -1.1048942716050759e-06  -1.2248031132528644e-06  -1.2322940408972730e-06  -1.1823814146494860e-06  -1.1030591519866020e-06  -1.0084453865192101e-06  -9.0562128570087581e-07  -7.9814130159452484e-07  -6.8782687937134707e-07  -5.7565629849435831e-07  -4.6219453026854010e-07  -3.4781292126814670e-07  -2.3279602528934084e-07  -1.1738306148767122e-07  -1.7846399334390915e-09  1.1380359500048105e-07  2.2918647561041996e-07  3.4415489990321612e-07  4.5847395322047822e-07  5.7186491999544889e-07  6.8396597626166443e-07  7.9422509139683570e-07  9.0169020490101628e-07  1.0045866467292489e-06  1.0994345435790269e-06  1.1792654369023807e-06  1.2300963318559486e-06  1.2240187859274620e-06  1.1058695358322190e-06  7.6768446972077640e-07  0.0000000000000000e+00  -8.0624920767873162e-07  0.0000000000000000e+00  -1.1591019857512038e-06  -1.2790960894632835e-06  -1.2807150661351525e-06  -1.2228851961700978e-06  -1.1355852196543730e-06  -1.0338422920718380e-06  -9.2505460543801251e-07  -8.1278199933160832e-07  -6.9870504827717647e-07  -5.8360816633117621e-07  -4.6785919945106179e-07  -3.5165259313540704e-07  -2.3512428020886487e-07  -1.1839137561570535e-07  -1.5621472732432882e-09  1.1525955321319427e-07  2.3196987820334658e-07  3.4846117786045637e-07  4.6461804021798279e-07  5.8030931047501721e-07  6.9534643654351746e-07  8.0937437905063410e-07  9.2163033577996501e-07  1.0304729858121323e-06  1.1324074999221615e-06  1.2201304386947301e-06  1.2787294560978881e-06  1.2783017232153805e-06  1.1598013174426828e-06  8.0801073241661962e-07  0.0000000000000000e+00  -8.3985929686139094e-07  0.0000000000000000e+00  -1.2040027954528296e-06  -1.3244265079338541e-06  -1.3216088057236677e-06  -1.2575993706897524e-06  -1.1639565620993379e-06  -1.0564442098034833e-06  -9.4273413514277147e-07  -8.2641504542096223e-07  -7.0907649444943842e-07  -5.9136449695667832e-07  -4.7350025977735431e-07  -3.5554329454738509e-07  -2.3751385759703308e-07  -1.1943267602700227e-07  -1.3262990588402020e-09  1.1677526563853324e-07  2.3484182672416678e-07  3.5284659930065931e-07  4.7076969897810525e-07  5.8859277972888024e-07  7.0626186670568514e-07  8.2356389502756165e-07  9.3987215236776242e-07  1.0536273891999772e-06  1.1612914249119053e-06  1.2552695784050332e-06  1.3198897706826658e-06  1.3236576136167243e-06  1.2044366956030615e-06  8.4117863327637180e-07  0.0000000000000000e+00  -8.6564667040656503e-07  0.0000000000000000e+00  -1.2385297196633865e-06  -1.3594831023904716e-06  -1.3535364008411839e-06  -1.2850676087020692e-06  -1.1867972166371997e-06  -1.0750241528301463e-06  -9.5762104390405684e-07  -8.3820034272488746e-07  -7.1829075855911724e-07  -5.9844272007427433e-07  -4.7877611139838313e-07  -3.5925748420333024e-07  -2.3982842023927387e-07  -1.2044532461156650e-07  -1.0814800619382582e-09  1.1828046163505904e-07  2.3765759481084731e-07  3.5707613054020866e-07  4.7657938006989168e-07  5.9622669485157586e-07  7.1605344755659151e-07  8.3594673379266881e-07  9.5536708314633375e-07  1.0728097022328366e-06  1.1846960781595973e-06  1.2832093658327205e-06  1.3521195646458319e-06  1.3587571744840390e-06  1.2386916304235135e-06  8.6649894233861292e-07  0.0000000000000000e+00  -8.8301604847382275e-07  0.0000000000000000e+00  -1.2617999174513624e-06  -1.3832409871247553e-06  -1.3754171431820316e-06  -1.3042250568368901e-06  -1.2031133699358101e-06  -1.0887023392715278e-06  -9.6897161321789224e-07  -8.4753775849733804e-07  -7.2588380659261286e-07  -6.0449959559958932e-07  -4.8344457808442073e-07  -3.6263435299737084e-07  -2.4197153692780172e-07  -1.2138502340474506e-07  -8.2913376416281787e-10  1.1972796288468054e-07  2.4031785181402064e-07  3.6098557958126022e-07  4.8180153749259514e-07  6.0286235290330748e-07  7.2425270039932123e-07  8.4591418726318079e-07  9.6736409827671004e-07  1.0871290307294743e-06  1.2016146968192221e-06  1.3028708242147380e-06  1.3743237934658856e-06  1.3825616820852520e-06  1.2616735222112494e-06  8.8337172882182442e-07  0.0000000000000000e+00  -8.9148685625543213e-07  0.0000000000000000e+00  -1.2731334916170969e-06  -1.3949511946626025e-06  -1.3865042966669744e-06  -1.3143681723450762e-06  -1.2122763987216557e-06  -1.0969401243242983e-06  -9.7634738595328108e-07  -8.5408504035802055e-07  -7.3160204948072278e-07  -6.0935603217556421e-07  -4.8738612767834226e-07  -3.6559909142031488e-07  -2.4390068713334835e-07  -1.2223261202379813e-07  -5.6885956157879222e-10  1.2109928785923313e-07  2.4278035594022618e-07  3.6449976289338015e-07  4.8631461401441372e-07  6.0831746887830054e-07  7.3059872603726847e-07  8.5311715321970510e-07  9.7541194765433130e-07  1.0960368856346164e-06  1.2114048420442235e-06  1.3135393372271326e-06  1.3857443025312274e-06  1.3943142900747736e-06  1.2726972610131481e-06  8.9131651717827114e-07  0.0000000000000000e+00  -8.9071080280624970e-07  0.0000000000000000e+00  -1.2720617912347277e-06  -1.3941376754514748e-06  -1.3863673309807585e-06  -1.3151376216469374e-06  -1.2140027768307249e-06  -1.0995317635660020e-06  -9.7960881957276349e-07  -8.5776167985286040e-07  -7.3540841049460794e-07  -6.1300669350410057e-07  -4.9061379254277370e-07  -3.6817226935677644e-07  -2.4563495651654614e-07  -1.2299949817321428e-07  -3.0124110729970117e-10  1.2240452990206092e-07  2.4506243628083054e-07  3.6763653639653975e-07  4.9012779479313762e-07  6.1258019263134586e-07  7.3504691605222878e-07  8.5746239344424422e-07  9.7936133780302655e-07  1.0993120063654656e-06  1.2137743609799956e-06  1.3148444898034760e-06  1.3859458550180528e-06  1.3935350123090716e-06  1.2712943267232433e-06  8.8998698766455301e-07  0.0000000000000000e+00  -8.8047072087007443e-07  0.0000000000000000e+00  -1.2583222206220384e-06  -1.3805838147746973e-06  -1.3748743235953510e-06  -1.3064914444323040e-06  -1.2083302487913155e-06  -1.0965727074402712e-06  -9.7889311345585234e-07  -8.5872262043536967e-07  -7.3746367112231554e-07  -6.1560211903545705e-07  -4.9325922694817547e-07  -3.7045831003530778e-07  -2.4724634382569933e-07  -1.2372168193024748e-07  -2.4709705882375210e-11  1.2368261003052672e-07  2.4723823500718960e-07  3.7050139856135238e-07  4.9337176205772346e-07  6.1579890407237753e-07  7.3775176706577021e-07  8.5909958267870709e-07  9.7933767431580412e-07  1.0970428122541985e-06  1.2087480228299776e-06  1.3067364566113018e-06  1.3747868351396894e-06  1.3800013497908637e-06  1.2571974257723586e-06  8.7916449403544636e-07  0.0000000000000000e+00  -8.6065771002089989e-07  0.0000000000000000e+00  -1.2318280677360344e-06  -1.3542990875873033e-06  -1.3521546569692721e-06  -1.2886638587273697e-06  -1.1955672997688026e-06  -1.0884107819168563e-06  -9.7455332337051904e-07  -8.5730651653190710e-07  -7.3806970526919181e-07  -6.1740097640101531e-07  -4.9552925987662669e-07  -3.7261085901850179e-07  -2.4883387258464078e-07  -1.2444385837328989e-07  2.7005246595259141e-10  1.2499632325998834e-07  2.4942358571880661e-07  3.7326227020490688e-07  4.9626531058457647e-07  6.1823930178467905e-07  7.3902100535375791e-07  8.5836521122765103e-07  9.7569254277546891e-07  1.0895665609571084e-06  1.1966231474284387e-06  1.2894328549843434e-06  1.3523794504497992e-06  1.3537063964283426e-06  1.2303060217384499e-06  8.5873189637505508e-07  0.0000000000000000e+00  -8.3122036450207428e-07  0.0000000000000000e+00  -1.1925996775409551e-06  -1.3154448711542599e-06  -1.3185157889232164e-06  -1.2620739479207873e-06  -1.1761901468322758e-06  -1.0755315282953559e-06  -9.6704518947380539e-07  -8.5391220962874665e-07  -7.3756130522859478e-07  -6.1866597673219045e-07  -4.9762110120449133e-07  -3.7476506240245949e-07  -2.5047786963332775e-07  -1.2519621640631177e-07  5.9967445665450759e-10  1.2640853657615948e-07  2.5172922335992185e-07  3.7608185488249924e-07  4.9902754742403304e-07  6.2018258421095264e-07  7.3919805958076158e-07  8.5566424607307250e-07  9.6887603215890702e-07  1.0773582558183532e-06  1.1778583065819385e-06  1.2633296014767753e-06  1.3190070227031613e-06  1.3147865953984187e-06  1.1906187378326924e-06  8.2862202064585557e-07  0.0000000000000000e+00  -7.9207280916398436e-07  0.0000000000000000e+00  -1.1406351946544053e-06  -1.2641805550002820e-06  -1.2742643613105564e-06  -1.2271144223334505e-06  -1.1506080989566199e-06  -1.0583008468532646e-06  -9.5665989178535960e-07  -8.4874356553823203e-07  -7.3605671145631605e-07  -6.1944972317677928e-07  -4.9953708812410389e-07  -3.7689599284715949e-07  -2.5214195220988970e-07  -1.2594442475480057e-07  9.8971731729399963e-10  1.2793500981402769e-07  2.5416665982451612e-07  3.7897800648704420e-07  5.0169907229978203e-07  6.2170887611367841e-07  7.3842302359698456e-07  8.5120695723078179e-07  9.5917624293855514e-07  1.0607687598200943e-06  1.1528354815400014e-06  1.2287865122572375e-06  1.2749363423428728e-06  1.2633586087179450e-06  1.1380919473315514e-06  7.8871557120709936e-07  0.0000000000000000e+00  -7.4293405669866707e-07  0.0000000000000000e+00  -1.0756655452979364e-06  -1.2003490968866127e-06  -1.2193217900811239e-06  -1.1836991709123548e-06  -1.1186528489350560e-06  -1.0364280981595492e-06  -9.4297699038732136e-07  -8.4127830411415322e-07  -7.3297582425534389e-07  -6.1916126318594080e-07  -5.0072973813704349e-07  -3.7854045228735333e-07  -2.5348443077002780e-07  -1.2649177814586070e-07  1.4785192960172341e-09  1.2945500552382220e-07  2.5646660817576225e-07  3.8155573886747718e-07  5.0379082235365511e-07  6.2227834487395235e-07  7.3614939799414348e-07  8.4449120034738449e-07  9.4617307297300113e-07  1.0394856182984132e-06  1.1213482674165562e-06  1.1856611810684522e-06  1.2200195755464791e-06  1.1991895935084982e-06  1.0723794275914144e-06  7.3867018832426335e-07  0.0000000000000000e+00  -6.8303663347419739e-07  0.0000000000000000e+00  -9.9666719047453212e-07  -1.1228099016672173e-06  -1.1523830853643365e-06  -1.1302810856205019e-06  -1.0784995859918233e-06  -1.0078416922218991e-06  -9.2376038424595182e-07  -8.2922152558318248e-07  -7.2608452818856638e-07  -6.1574363520521839e-07  -4.9941664870561579e-07  -3.7827721501466265e-07  -2.5350631457619037e-07  -1.2630536428404015e-07  2.1117713500612784e-09  1.3052561396575572e-07  2.5771767786454662e-07  3.8247469713071566e-07  5.0359541074847517e-07  6.1989432071854030e-07  7.3019129421231409e-07  8.3324849181850568e-07  9.2763144598847596e-07  1.0114135961477225e-06  1.0815171046599760e-06  1.1323245566047111e-06  1.1528507437027993e-06  1.1210249875412910e-06  9.9234304798954517e-07  6.7762505685096479e-07  0.0000000000000000e+00  -6.1057196861806150e-07  0.0000000000000000e+00  -9.0085185299973813e-07  -1.0279971910226757e-06  -1.0690972643088488e-06  -1.0617530492950622e-06  -1.0244201427339633e-06  -9.6641139509536227e-07  -8.9274355956349542e-07  -8.0644606305305373e-07  -7.0964770431672107e-07  -6.0407570149477631e-07  -4.9127878207056109e-07  -3.7273260819288519e-07  -2.4988954133525029e-07  -1.2419250535518064e-07  2.9205786776830214e-09  1.3001624102006162e-07  2.5566124382747862e-07  3.7841868077176454e-07  4.9684355251697996e-07  6.0948033033747546e-07  7.1484396993900650e-07  8.1136632148790409e-07  8.9727998871108120e-07  9.7038757436053882e-07  1.0275477997573630e-06  1.0635729230909781e-06  1.0689545677797651e-06  1.0251603732159397e-06  8.9505726491076212e-07  6.0365457663838556e-07  0.0000000000000000e+00  -5.2157396738844086e-07  0.0000000000000000e+00  -7.8150769154191644e-07  -9.0680087129405747e-07  -9.5820298537617953e-07  -9.6511566625293648e-07  -9.4225057748795380e-07  -8.9745106520901240e-07  -8.3534472537477831e-07  -7.5903964803836709e-07  -6.7091141629377042e-07  -5.7296489651157422e-07  -4.6700552451999719e-07  -3.5472871620474136e-07  -2.3776686255267252e-07  -1.1771471765314111e-07  3.8583085227116653e-09  1.2539549536481954e-07  2.4534050297312166e-07  3.6212287541076563e-07  4.7414523641937297e-07  5.7976804764182722e-07  6.7728568867244688e-07  7.6487036279177816e-07  8.4047577786114796e-07  9.0166163962245471e-07  9.4521131823294046e-07  9.6633034237501422e-07  9.5698701698626126e-07  9.0240911095899529e-07  7.7374302640021461e-07  5.1272504603102532e-07  0.0000000000000000e+00  -4.0743351195070498e-07  0.0000000000000000e+00  -6.2311577613111621e-07  -7.3769188675778135e-07  -7.9331263411605958e-07  -8.1058033576915488e-07  -8.0034301863721820e-07  -7.6890238262392205e-07  -7.2036596318233052e-07  -6.5773242063012363e-07  -5.8340457217041642e-07  -4.9943833780808434e-07  -4.0767178862021745e-07  -3.0980274010314444e-07  -2.0743874695632433e-07  -1.0212717659076827e-07  4.6221113471724840e-09  1.1131828704157494e-07  2.1646986764078569e-07  3.1856505494880171e-07  4.1605047046561240e-07  5.0730955618991202e-07  5.9062942860946512e-07  6.6414685461558717e-07  7.2576473089375980e-07  7.7301732201095383e-07  8.0280560867100667e-07  8.1087254437055433e-07  7.9075222076934056e-07  7.3156055185664768e-07  6.1328833956775567e-07  3.9655822412411512e-07  0.0000000000000000e+00  -2.4889231799645272e-07  0.0000000000000000e+00  -3.9004150284888934e-07  -4.7168847966494966e-07  -5.1580875482085157e-07  -5.3367975295607457e-07  -5.3178660040667844e-07  -5.1428063950544527e-07  -4.8409153825386335e-07  -4.4346375225350672e-07  -3.9422885396656340e-07  -3.3795103895488633e-07  -2.7601353385782362e-07  -2.0967629442621627e-07  -1.4011579079375906e-07  -6.8453306811652880e-08  4.2246871374127266e-09  7.6848260340616358e-08  1.4834684619733638e-07  2.1763096233538952e-07  2.8357336153563056e-07  3.4498712688329975e-07  4.0059730630040399e-07  4.4899687736935534e-07  4.8858557922710622e-07  5.1748048431672209e-07  5.3335792621007518e-07  5.3317442609174872e-07  5.1265517242379440e-07  4.6528473099919765e-07  3.8024509574470748e-07  2.3797458990352015e-07  0.0000000000000000e+00  0.0000000000000000e+00  0.0000000000000000e+00  0.0000000000000000e+00  0.0000000000000000e+00  0.0000000000000000e+00  0.0000000000000000e+00  0.0000000000000000e+00  0.0000000000000000e+00  0.0000000000000000e+00  0.0000000000000000e+00  0.0000000000000000e+00  0.0000000000000000e+00  0.0000000000000000e+00  0.0000000000000000e+00  0.0000000000000000e+00  0.0000000000000000e+00  0.0000000000000000e+00  0.0000000000000000e+00  0.0000000000000000e+00  0.0000000000000000e+00  0.0000000000000000e+00  0.0000000000000000e+00  0.00000000