<?xml version="1.0"?>
<VTKFile type="UnstructuredGrid"  version="0.1"  >
<UnstructuredGrid>
<Piece  NumberOfPoints="825" NumberOfCells="1536">
<Points>
<DataArray  type="Float64"  NumberOfComponents="3"  format="ascii">-1.040139181537738e-21 0.5 0  0.0624999999015953 0.5000000023518172 0  0.06249999557454383 0.5625000040502317 0  -5.69513692580638e-09 0.562500000337512 0  0.1249999996177017 0.5000000048651901 0  0.1249999957245784 0.5625000063160451 0  0.1874999990070297 0.5000000075759249 0  0.1874999951709314 0.5625000082185518 0  0.2499999979652363 0.5000000100939327 0  0.2499999941013402 0.5625000098074863 0  0.3124999960217695 0.5000000115133666 0  0.3124999924622179 0.5625000106204157 0  0.3749999925797341 0.5000000111295622 0  0.3749999900799533 0.5625000104297001 0  0.4374999884346505 0.5000000099784334 0  0.4374999871959163 0.5625000095583951 0  0.4999999838772154 0.5000000080896727 0  0.4999999840781696 0.5625000079692944 0  0.5624999790243228 0.5000000050692457 0  0.5624999809379757 0.5625000059504472 0  0.6249999757221781 0.5000000033726625 0  0.6249999782710398 0.5625000043237406 0  0.6874999735016475 0.5000000022272754 0  0.6874999762292379 0.5625000027020904 0  0.7499999709618587 0.4999999995592765 0  0.7499999744899908 0.5625000007580815 0  0.8124999697446589 0.4999999983107466 0  0.8124999733137839 0.5624999991582417 0  0.8749999691851981 0.4999999968799481 0  0.8749999726514187 0.5624999973474617 0  0.9374999681107186 0.4999999938960162 0  0.9374999721845426 0.5624999951754931 0  0.9999999682860022 0.4999999923535741 0  0.9999999721881048 0.5624999933679929 0  1.062499969044178 0.499999990748818 0  1.062499972602618 0.5624999914240555 0  1.12499996920752 0.4999999877902628 0  1.124999973154252 0.5624999892674614 0  1.187499970562916 0.4999999863436709 0  1.187499974103534 0.5624999876351999 0  1.249999972559835 0.4999999852028456 0  1.249999975401888 0.5624999861138428 0  1.312499973913283 0.4999999829930771 0  1.31249997675788 0.5624999846301941 0  1.374999976281975 0.4999999824551558 0  1.374999978385421 0.5624999838839448 0  1.437499979030488 0.4999999823760747 0  1.437499980205806 0.5624999835465682 0  1.499999981286509 0.4999999821106132 0  1.499999981954399 0.562499983746846 0  1.562499984268716 0.4999999840326906 0  1.562499983861491 0.562499985049205 0  1.624999987560437 0.4999999867147046 0  1.624999985917972 0.5624999869500228 0  1.687499990635716 0.4999999892230298 0  1.687499987890976 0.5624999892193497 0  1.749999993912348 0.4999999924377184 0  1.749999989814838 0.5624999919439806 0  1.812499996857903 0.4999999953467691 0  1.812499991537478 0.5624999947193231 0  1.874999999082644 0.4999999976613582 0  1.874999992809293 0.5624999975213506 0  1.937500000386535 0.4999999991768734 0  1.937499993753842 0.5625000006889861 0  2 0.5 0  1.999999996387916 0.5625000048900484 0  0.06249999200976467 0.6250000049046168 0  -8.893713965620728e-09 0.6250000019112029 0  0.1249999923387332 0.6250000069668945 0  0.1874999920681731 0.6250000084966765 0  0.2499999913035966 0.6250000095981246 0  0.3124999900932629 0.6250000101237815 0  0.3749999884310588 0.6250000099817171 0  0.4374999864199065 0.6250000092347696 0  0.4999999842256532 0.6250000079628822 0  0.5624999819991985 0.6250000063828783 0  0.6249999799688466 0.6250000047739249 0  0.687499978300642 0.6250000031310727 0  0.7499999769659158 0.6250000014099896 0  0.8124999759981149 0.6249999996890357 0  0.8749999754123114 0.6249999978839234 0  0.9374999751109108 0.6249999959769361 0  0.9999999751042293 0.6249999940951496 0  1.062499975396711 0.6249999922055728 0  1.12499997589602 0.6249999903382342 0  1.18749997660781 0.6249999886565853 0  1.249999977530768 0.6249999871681891 0  1.312499978565867 0.6249999859267007 0  1.374999979698981 0.6249999851054509 0  1.437499980906308 0.6249999847545099 0  1.499999982103567 0.6249999849744408 0  1.562499983315393 0.6249999858857755 0  1.624999984553877 0.6249999873909208 0  1.68749998574714 0.6249999893749013 0  1.749999986860361 0.6249999917640416 0  1.812499987839604 0.6249999944324492 0  1.874999988645123 0.6249999973668736 0  1.937499989495983 0.6250000006391618 0  1.999999990787455 0.6250000037883137 0  0.06249998949088634 0.6875000054635116 0  -1.101318398608781e-08 0.6875000032485872 0  0.1249999897773106 0.6875000071878375 0  0.187499989683338 0.6875000084448794 0  0.2499999892069391 0.6875000092710064 0  0.3124999883813426 0.6875000096251311 0  0.3749999872402555 0.687500009471511 0  0.4374999858509604 0.68750000883256 0  0.4999999843111088 0.6875000077819748 0  0.5624999827323632 0.687500006451497 0  0.6249999812496564 0.6875000049782461 0  0.6874999799729301 0.6875000034188196 0  0.7499999789443219 0.6875000017884496 0  0.812499978187625 0.6875000001033672 0  0.8749999777065413 0.6874999983564244 0  0.9374999774708604 0.6874999965563645 0  0.9999999774636128 0.6874999947438586 0  1.062499977666705 0.6874999929474681 0  1.124999978039864 0.6874999912124895 0  1.187499978558539 0.6874999896130367 0  1.249999979197964 0.6874999882078056 0  1.312499979911657 0.6874999870649969 0  1.374999980666561 0.6874999862757131 0  1.437499981433659 0.6874999859170461 0  1.499999982181009 0.6874999860606489 0  1.562499982905785 0.6874999867527017 0  1.624999983608938 0.6874999879689968 0  1.687499984272797 0.6874999896464177 0  1.749999984883748 0.6874999917101614 0  1.812499985434812 0.6874999940720919 0  1.874999985950413 0.687499996642884 0  1.937499986513165 0.6874999992579873 0  1.999999987050949 0.6875000015742669 0  0.06249998779626471 0.750000005893401 0  -1.245944516073221e-08 0.7500000043410684 0  0.1249999879883758 0.7500000072300442 0  0.1874999879718458 0.7500000082318061 0  0.2499999876974214 0.7500000088658516 0  0.3124999871679833 0.7500000091062489 0  0.3749999864091969 0.750000008938403 0  0.4374999854667584 0.7500000083785875 0  0.4999999844045825 0.750000007479049 0  0.5624999833005674 0.7500000063212471 0  0.6249999822415057 0.7500000049885014 0  0.6874999813029546 0.7500000035365619 0  0.7499999805323715 0.750000001996189 0  0.8124999799548461 0.7500000003860599 0  0.8749999795761239 0.7499999987183531 0  0.9374999793849348 0.7499999970110898 0  0.9999999793648393 0.7499999952934271 0  1.062499979494916 0.74999999360043 0  1.124999979747662 0.7499999919771536 0  1.187499980096287 0.7499999904793961 0  1.249999980513109 0.749999989165961 0  1.312499980966498 0.7499999881005663 0  1.374999981428212 0.7499999873517623 0  1.437499981875312 0.7499999869834838 0  1.499999982291894 0.749999987047675 0  1.562499982674652 0.7499999875712323 0  1.624999983026514 0.7499999885430838 0  1.687499983349675 0.74999998991832 0  1.749999983648771 0.7499999916258695 0  1.812499983934064 0.7499999935684358 0  1.874999984222754 0.7499999956123249 0  1.937499984514245 0.7499999975630655 0  1.999999984712002 0.7499999991931765 0  0.06249998670261507 0.8125000062582034 0  -1.341575186764971e-08 0.8125000052367835 0  0.1249999868162201 0.8125000072240307 0  0.1874999868260752 0.8125000079771597 0  0.2499999866776316 0.8125000084457209 0  0.3124999863556742 0.8125000085943169 0  0.374999985870327 0.8125000084098917 0  0.4374999852495575 0.812500007903085 0  0.4999999845354158 0.8125000071086549 0  0.5624999837805952 0.8125000060789486 0  0.6249999830427958 0.8125000048697631 0  0.6874999823746045 0.8125000035269607 0  0.7499999818147016 0.8125000020834542 0  0.8124999813858507 0.8125000005631243 0  0.8749999810957841 0.8124999989862188 0  0.9374999809398595 0.8124999973754105 0  0.999999980905579 0.812499995759179 0  1.062499980974993 0.812499994172313 0  1.12499998112613 0.8124999926567068 0  1.18749998133551 0.8124999912607594 0  1.249999981579069 0.8124999900370302 0  1.312499981832932 0.8124999890407626 0  1.374999982076232 0.8124999883272253 0  1.437499982293553 0.8124999879462479 0  1.499999982476935 0.8124999879352086 0  1.562499982627017 0.8124999883105481 0  1.624999982750761 0.8124999890609303 0  1.687499982858337 0.8124999901454349 0  1.749999982961807 0.8124999914937343 0  1.812499983073214 0.8124999930041161 0  1.874999983197947 0.8124999945388059 0  1.937499983318105 0.8124999959249516 0  1.999999983378989 0.812499996979883 0  0.0624999860486645 0.8750000065834074 0  -1.400017780653535e-08 0.8750000059741341 0  0.1249999861107988 0.8750000072238517 0  0.1874999861270904 0.8750000077436015 0  0.2499999860536331 0.8750000080569417 0  0.3124999858696463 0.8750000081185827 0  0.3749999855742359 0.8750000079100074 0  0.4374999851817901 0.8750000074343175 0  0.4999999847183917 0.8750000067129731 0  0.562499984218455 0.8750000057802766 0  0.6249999837202318 0.8750000046752662 0  0.687499983259837 0.87500000343439 0  0.7499999828658517 0.8750000020883506 0  0.8124999825565382 0.8750000006629328 0  0.8749999823394154 0.8749999991818878 0  0.9374999822125676 0.8749999976702652 0  0.9999999821669118 0.8749999961567628 0  1.062499982188265 0.8749999946748067 0  1.124999982259149 0.8749999932628623 0  1.187499982360575 0.8749999919637917 0  1.24999998247351 0.8749999908233544 0  1.312499982580347 0.8749999898882046 0  1.374999982666814 0.8749999892029228 0  1.437499982723836 0.8749999888056517 0  1.499999982748863 0.8749999887226001 0  1.562499982746145 0.8749999889620734 0  1.624999982725418 0.8749999895094636 0  1.68749998269965 0.8749999903242303 0  1.749999982682461 0.8749999913382053 0  1.812499982684509 0.8749999924543271 0  1.874999982707795 0.8749999935468435 0  1.937499982739662 0.8749999944671563 0  1.999999982756458 0.8749999950557023 0  0.06249998571897016 0.9375000068782068 0  -1.429921038109631e-08 0.9375000065830587 0  0.1249999857522432 0.9375000072462981 0  0.187499985769479 0.9375000075563059 0  0.2499999857403265 0.9375000077236451 0  0.3124999856454656 0.9375000076985041 0  0.3749999854785767 0.937500007456788 0  0.4374999852449493 0.9375000069942876 0  0.4999999849592088 0.9375000063223315 0  0.5624999846426376 0.9375000054631046 0  0.624999984319844 0.937500004444369 0  0.6874999840148701 0.9375
[...]
<PointData  Scalars="p"> 
<DataArray  type="Float64"  Name="p"  format="ascii">0.0000000000000000e+00  -1.9920875555032609e-05  -2.1286763678117979e-05  0.0000000000000000e+00  -3.3981901442504875e-05  -3.5034543040203696e-05  -4.3018407464058236e-05  -4.3564111599968672e-05  -4.8120130471714196e-05  -4.8261821681726367e-05  -5.0234074970167946e-05  -5.0105736373658965e-05  -5.0100767130115343e-05  -4.9811841439039642e-05  -4.8283523869931794e-05  -4.7911651313071993e-05  -4.5205063840688214e-05  -4.4802480834416001e-05  -4.1178146940353979e-05  -4.0779414802962172e-05  -3.6431374452070354e-05  -3.6060429456984904e-05  -3.1138925989099742e-05  -3.0811002803422730e-05  -2.5428908982807841e-05  -2.5156621933757384e-05  -1.9406669030617219e-05  -1.9198107691514463e-05  -1.3163678240387167e-05  -1.3022358424000796e-05  -6.7725075261282962e-06  -6.7026464206106119e-06  -3.0287142346420416e-07  -3.0696159046042730e-07  6.1710096185510862e-06  6.0952962536604280e-06  1.2585990133458302e-05  1.2438847148805329e-05  1.8873024485718785e-05  1.8655663953705780e-05  2.4947887445485510e-05  2.4666388632573802e-05  3.0724386455507589e-05  3.0383754330250699e-05  3.6094236656927735e-05  3.5702862124569195e-05  4.0913409587917198e-05  4.0488611469757731e-05  4.5009428111618417e-05  4.4573648241870564e-05  4.8152412348503076e-05  4.7740681487238799e-05  5.0028174652335484e-05  4.9698103242993077e-05  5.0228881827625814e-05  5.0061737876871963e-05  4.8205036818009487e-05  4.8314714266330325e-05  4.3218650089967547e-05  4.3747279839033632e-05  3.4325106743063574e-05  3.5368739428557362e-05  2.0365400327410943e-05  2.1684693807962848e-05  0.0000000000000000e+00  0.0000000000000000e+00  -2.3901881647820431e-05  0.0000000000000000e+00  -3.7518141812698380e-05  -4.5193677982229459e-05  -4.9044861736216882e-05  -5.0243852029908724e-05  -4.9518296429804933e-05  -4.7359656918043812e-05  -4.4118855690931625e-05  -4.0053110235627224e-05  -3.5353873278644979e-05  -3.0167324159635157e-05  -2.4606957692921346e-05  -1.8764550730485930e-05  -1.2718658355368098e-05  -6.5382688655432198e-06  -2.8749430522263709e-07  5.9704732631443233e-06  1.2173199134615397e-05  1.8255582079079039e-05  2.4145062393501105e-05  2.9759995604721012e-05  3.5003984376973960e-05  3.9757885698177268e-05  4.3873363846924389e-05  4.7160082590035596e-05  4.9366095860649525e-05  5.0151423861609665e-05  4.9036892467781307e-05  4.5300861985349896e-05  3.7754110589583367e-05  2.4188475086087745e-05  0.0000000000000000e+00  -2.6680407383491059e-05  0.0000000000000000e+00  -4.0565970754855483e-05  -4.7547554597696134e-05  -5.0512962510376353e-05  -5.0938749703036067e-05  -4.9635309451634905e-05  -4.7087616836486977e-05  -4.3611666148423159e-05  -3.9427288192179309e-05  -3.4695194015864178e-05  -2.9537867712778808e-05  -2.4051625676370046e-05  -1.8315488111421734e-05  -1.2397749814587456e-05  -6.3597698567137036e-06  -2.5907493911023723e-07  5.8480704490618569e-06  1.1905211115752218e-05  1.7853423114319016e-05  2.3628538308269428e-05  2.9158794490551731e-05  3.4361074350472433e-05  3.9135274823223800e-05  4.3357455225780708e-05  4.6868433048511315e-05  4.9453670497797355e-05  5.0806637923073281e-05  5.0453229604618954e-05  4.7588951583162141e-05  4.0722983019108463e-05  2.6894404342526597e-05  0.0000000000000000e+00  -2.9350446626305237e-05  0.0000000000000000e+00  -4.3749628457765914e-05  -5.0268742472466179e-05  -5.2462952627665628e-05  -5.2130413146442951e-05  -5.0205956091867181e-05  -4.7201441854880339e-05  -4.3418354565122356e-05  -3.9049253729383388e-05  -3.4227522937095424e-05  -2.9052267004785871e-05  -2.3601221679845822e-05  -1.7938904404574790e-05  -1.2121986319147464e-05  -6.2023588505176300e-06  -2.2922940519119639e-07  5.7491635183070248e-06  1.1684163653123558e-05  1.7525183597206163e-05  2.3217958152823977e-05  2.8702848597651642e-05  3.3912053221208456e-05  3.8765211560250871e-05  4.3162500177558223e-05  4.6972361805428699e-05  5.0007231505561409e-05  5.1974069756563001e-05  5.2370942553957208e-05  5.0268840327376721e-05  4.3858095458077884e-05  2.9521420016327871e-05  0.0000000000000000e+00  -3.1846534365373415e-05  0.0000000000000000e+00  -4.6870639227581237e-05  -5.3108094225100697e-05  -5.4672309283989771e-05  -5.3656568078813925e-05  -5.1130762513831475e-05  -4.7653125078204270e-05  -4.3527618266484889e-05  -3.8931001440586186e-05  -3.3975725871115167e-05  -2.8740583094172358e-05  -2.3285719932345379e-05  -1.7661088289129394e-05  -1.1911281060900731e-05  -6.0779245838323680e-06  -2.0102951834514151e-07  5.6799326326856217e-06  1.1525092134613124e-05  1.7293214567564724e-05  2.2940794509391414e-05  2.8420881340088986e-05  3.3681130382699725e-05  3.8659609498510334e-05  4.3277338114287151e-05  4.7423895093317530e-05  5.0927172197917189e-05  5.3490738148780202e-05  5.4565342127066014e-05  5.3086616426733516e-05  4.6951368248054932e-05  3.1990997170835464e-05  0.0000000000000000e+00  -3.4147713396295654e-05  0.0000000000000000e+00  -4.9824684303649609e-05  -5.5898816481692104e-05  -5.6956322846215929e-05  -5.5348135263119566e-05  -5.2272167823203465e-05  -4.8339652510842321e-05  -4.3867178161359633e-05  -3.9024649944309687e-05  -3.3909926666675004e-05  -2.8585458892182959e-05  -2.3096020236039299e-05  -1.7478054922337116e-05  -1.1764483479062127e-05  -5.9866885318221291e-06  -1.7533344451644329e-07  5.6390758334837802e-06  1.1425683374005219e-05  1.7152857949611655e-05  2.2787738004191562e-05  2.8295711860181197e-05  3.3638613099582420e-05  3.8770561293428555e-05  4.3629289793572560e-05  4.8118944450273226e-05  5.2073887981075241e-05  5.5184238771686144e-05  5.6846666118883045e-05  5.5868190080595023e-05  4.9889162165802050e-05  3.4273760543721759e-05  0.0000000000000000e+00  -3.6234920919192676e-05  0.0000000000000000e+00  -5.2540504686747114e-05  -5.8521247477815019e-05  -5.9169664775518754e-05  -5.7057490730179243e-05  -5.3496087851196299e-05  -4.9148080472492789e-05  -4.4346803634609961e-05  -3.9260843939835625e-05  -3.3978410260221675e-05  -2.8549383632367610e-05  -2.3005757364905092e-05  -1.7372132274499441e-05  -1.1670792692978069e-05  -5.9235216146024217e-06  -1.5207678344066010e-07  5.6216309857846817e-06  1.1375426443491270e-05  1.7086786416029721e-05  2.2732855256073541e-05  2.8290092261176694e-05  3.3732801393970351e-05  3.9028300890489505e-05  4.4127095625253267e-05  4.8942897387243061e-05  5.3310860568770381e-05  5.6903479027379484e-05  5.9065041567257379e-05  5.8488394209967132e-05  5.2594134808538679e-05  3.6345689630653221e-05  0.0000000000000000e+00  -3.8081266446306516e-05  0.0000000000000000e+00  -5.4955798094918229e-05  -6.0880105728443205e-05  -6.1196024805499223e-05  -5.8661823161978650e-05  -5.4685132261649484e-05  -4.9973853980077006e-05  -4.4878058769342440e-05  -3.9567631459117148e-05  -3.4124465433664246e-05  -2.8588963408571000e-05  -2.2982844497815893e-05  -1.7320769803896782e-05  -1.1615810909082655e-05  -5.8812511270142439e-06  -1.3085413648221756e-07  5.6212373279771093e-06  1.1360670848866922e-05  1.7073119420713546e-05  2.2744480540915478e-05  2.8360840038100603e-05  3.3906747283651229e-05  3.9360188998454524e-05  4.4681197206671879e-05  4.9789523422858747e-05  5.4518524953359613e-05  5.8523026780403133e-05  6.1100967814394010e-05  6.0848380531749067e-05  5.5000362089886261e-05  3.8176976775716586e-05  0.0000000000000000e+00  -3.9651860511643194e-05  0.0000000000000000e+00  -5.7009180044641274e-05  -6.2892772160961981e-05  -6.2938998783977358e-05  -6.0059736362643003e-05  -5.5740767193729340e-05  -5.0726950973551644e-05  -4.5382532544921878e-05  -3.9879310705313300e-05  -3.4294843581780297e-05  -2.8662407494655624e-05  -2.2995686446051039e-05  -1.7301344922335200e-05  -1.1584884497700183e-05  -5.8525017619672187e-06  -1.1123179342615177e-07  5.6313443806455630e-06  1.1367493388023613e-05  1.7089750768110398e-05  2.2791334588689948e-05  2.8466092071272069e-05  3.4106887262886224e-05  3.9699808194606251e-05  4.5212091193101959e-05  5.0567496487858047e-05  5.5596764990218674e-05  5.9939679904211473e-05  6.2856130559504759e-05  6.2863408349755564e-05  5.7044346634545542e-05  3.9730985391750172e-05  0.0000000000000000e+00  -4.0906443233802977e-05  0.0000000000000000e+00  -5.8639041007039621e-05  -6.4484600432160847e-05  -6.4316733048343488e-05  -6.1167483359873251e-05  -5.6582195236683619e-05  -5.1333111850165934e-05  -4.5794795359358821e-05  -4.0140278074093623e-05  -3.4443825907099800e-05  -2.8733347741687260e-05  -2.3016459127077002e-05  -1.7293738904910381e-05  -1.1564891341145757e-05  -5.8306511558309832e-06  -9.2852978450354492e-08  5.6460080687768163e-06  1.1383322270707585e-05  1.7116943749083067e-05  2.2845689142810982e-05  2.8569390205710642e-05  3.4287054286374738e-05  3.9990985073836746e-05  4.5653539558197835e-05  5.1201531276683277e-05  5.6463718958765824e-05  6.1068541157059585e-05  6.4247457487129000e-05  6.4457623037341021e-05  5.8663213366768173e-05  4.0966436333917742e-05  0.0000000000000000e+00  -4.1802752053398977e-05  0.0000000000000000e+00  -5.9785375385281647e-05  -6.5588309228119805e-05  -6.5259737608394631e-05  -6.1916855799791948e-05  -5.7145032759830394e-05  -5.1733813668920619e-05  -4.6063375322274083e-05  -4.0306698530773023e-05  -3.4535184338086625e-05  -2.8772787014197005e-05  -2.3022829097056852e-05  -1.7281702834132327e-05  -1.1545168046797637e-05  -5.8102810660163128e-06  -7.5383468277581946e-08  5.6604386430134684e-06  1.1398018920066214e-05  1.7138786305821575e-05  2.2885355837514811e-05  2.8641581764944011e-05  3.4410744186151204e-05  4.0189298674204988e-05  4.5953478490906123e-05  5.1632351413428321e-05  5.7054183561738224e-05  6.1840582729136799e-05  6.5204654942016359e-05  6.5562932473128762e-05  5.9796232033066170e-05  4.1840490882280502e-05  0.0000000000000000e+00  -4.2299779517761934e-05  0.0000000000000000e+00  -6.0392706862952577e-05  -6.6145161825247021e-05  -6.5710880443432454e-05  -6.2254421650581669e-05  -5.7380807224917534e-05  -5.1886066183827141e-05  -4.6151149455240500e-05  -4.0347207117767915e-05  -3.4543116410487360e-05  -2.8760065792177837e-05  -2.2998855217975429e-05  -1.7253592720873521e-05  -1.1518038207412193e-05  -5.7874539119522728e-06  -5.8527770239889391e-08  5.6712586182153224e-06  1.1404366877387604e-05  1.7143948800821474e-05  2.2894485135414928e-05  2.8661904149871680e-05  3.4451736492062120e-05  4.0262909206039086e-05  4.6074008786468047e-05  5.1816331254524278e-05  5.7318932491398892e-05  6.2201778240040224e-05  6.5670035460937111e-05  6.6120191384757784e-05  6.0387581494546053e-05  4.2311959377668984e-05  0.0000000000000000e+00  -4.2360596784239479e-05  0.0000000000000000e+00  -6.0412887905634071e-05  -6.6106936025258896e-05  -6.5626153961875419e-05  -6.2141772689075592e-05  -5.7256658874588320e-05  -5.1762300373311527e-05  -4.6035129371903749e-05  -4.0242996983974502e-05  -3.4452367390337792e-05  -2.8683105867446174e-05  -2.2935236740256552e-05  -1.7202618671510424e-05  -1.1479012122396528e-05  -5.7598607795643584e-06  -4.2107271573368895e-08  5.6764878669753242e-06  1.1398129639467235e-05  1.7125759921384716e-05  2.2863740536244306e-05  2.8618010630497621e-05  3.4394366547109068e-05  4.0192293620869911e-05  4.5991529152160214e-05  5.1725042089556562e-05  5.7224585425784672e-05  6.2113164502721483e-05  6.5599363247511680e-05  6.6081034888290465e-05  6.0389143292967702e-05  4.2343991505072792e-05  0.0000000000000000e+00  -4.1954394712296504e-05  0.0000000000000000e+00  -5.9807443835266593e-05  -6.5437665335225232e-05  -6.4975724195620227e-05  -6.1555667325827724e-05  -5.6755133652102258e-05  -5.1349503241032971e-05  -4.5705743569136517e-05  -3.9986779467937928e-05  -3.4257422515468312e-05  -2.8537584921952065e-05  -2.2828644627065928e-05  -1.7126273152410591e-05  -1.1426360607671659e-05  -5.7265318715602143e-06  -2.5926860018604129e-08  5.6755250187035337e-06  1.1377871493677895e-05  1.7081901506366002e-05  2.2789818713905117e-05  2.8505479876675186e-05  3.4232771558719184e-05  3.9969809229463302e-05  4.5695804074627433e-05  5.1345017713959759e-05  5.6753017617448072e-05  6.1551107851065773e-05  6.4962418881564477e-05  6.5409353177640355e-05  5.9762418379045982e-05  4.1905894648355025e-05  0.0000000000000000e+00  -4.1057536470549255e-05  0.0000000000000000e+00  -5.8548825458558849e-05  -6.4114576547381983e-05  -6.3744280449831752e-05  -6.0487717826230841e-05  -5.5873074062284746e-05  -5.0647814540141924e-05  -4.5164694820626724e-05  -3.9580847397338135e-05  -3.3960243796001860e-05  -2.8324989244610166e-05  -2.2679907276888832e-05  -1.7024874672963742e-05  -1.1360013059434095e-05  -5.6871622603927279e-06  -9.5377237233305386e-09  5.6689310149643276e-06  1.1344311827569900e-05  1.7013339736281247e-05  2.2674060437896102e-05  2.8326060595025230e-05  3.3969094254190755e-05  3.9597566721937987e-05  4.5188370497209289e-05  5.0675859556582776e-05  5.5900535566274689e-05  6.0506515021626616e-05  6.3743254775055629e-05  6.4081886479827111e-05  5.8479610334109458e-05  4.0974054913613144e-05  0.0000000000000000e+00  -3.9653261671466784e-05  0.0000000000000000e+00  -5.6619843658661989e-05  -6.2127188289863962e-05  -6.1929405588600136e-05  -5.8942033341266237e-05  -5.4618394059979395e-05  -4.9666537797407188e-05  -4.4420780465609768e-05  -3.9032307841179470e-05  -3.3566025025730766e-05  -2.8048448589456102e-05  -2.2490597799676751e-05  -1.6898815932641879e-05  -1.1279693128649230e-05  -5.6411530209979417e-06  7.7593115399750799e-09  5.6574782142295201e-06  1.1298439292018295e-05  1.6921599358129160e-05  2.2518916113009776e-05  2.8083603937011737e-05  3.3608826081102924e-05  3.9082856712858772e-05  4.4477724840726369e-05  4.9726368303886248e-05  5.4674287914242352e-05  5.8982564505168276e-05  6.1938582624171472e-05  6.2087414544008689e-05  5.6523097995242760e-05  3.9531594800241929e-05  0.0000000000000000e+00  -3.7729368975468042e-05  0.0000000000000000e+00  -5.4010229964561546e-05  -5.9472795214345777e-05  -5.9535772715324864e-05  -5.6927789986226838e-05  -5.3001410523935263e-05  -4.8414312341653336e-05  -4.3479526799659235e-05  -3.8343089461322982e-05  -3.3073361914876831e-05  -2.7704307230811295e-05  -2.2255728514037070e-05  -1.6742999997858947e-05  -1.1181070082228752e-05  -5.5856591492745950e-06  2.6964783047527691e-08  5.6402805208190831e-06  1.1237795982415206e-05  1.6803250002812843e-05  2.2320888954640079e-05  2.7775511437677339e-05  3.3151398852579865e-05  3.8427825169162624e-05  4.3569225345482463e-05  4.8504551119597646e-05  5.3083490149308985e-05  5.6987160971912742e-05  5.9551640697442054e-05  5.9421842870632304e-05  5.3881474203897254e-05  3.7565588427850415e-05  0.0000000000000000e+00  -3.5272628035001253e-05  0.0000000000000000e+00  -5.0707894264761981e-05  -5.6144884894652558e-05  -5.6560575673145845e-05  -5.4441722479915117e-05  -5.1014863786565465e-05  -4.6878007266656156e-05  -4.2321656100807463e-05  -3.7489108444894733e-05  -3.2455441094293761e-05  -2.7265268028727479e-05  -2.1950042720088251e-05  -1.6536136590161950e-05  -1.1048545275552482e-05  -5.5118644710343363e-06  4.9501597233553489e-08  5.6113483967988907e-06  1.1149489046950676e-05  1.6639578460335165e-05  2.2056948783097115e-05  2.7376473922195447e-05  3.2571330921695594e-05  3.7609215856748903e-05  4.2443666046541799e-05  4.6996477663929185e-05  5.1119448674761335e-05  5.4514925793066375e-05  5.6577072531472145e-05  5.6076009287467547e-05  5.0540157866828294e-05  3.5061020921430124e-05  0.0000000000000000e+00  -3.2257195473024628e-05  0.0000000000000000e+00  -4.6679443130252081e-05  -5.2106321954619891e-05  -5.2959647309721028e-05  -5.1428606967540258e-05  -4.8590671682940666e-05  -4.4977963714476236e-05  -4.0859499972563313e-05  -3.6379303034821078e-05  -3.1622981201591287e-05  -2.6648797756709026e-05  -2.1501886571359298e-05  -1.6221074119051496e-05  -1.0841995347287444e-05  -5.3984704516768002e-06  7.6992675037870280e-08  5.5525897039665904e-06  1.0996556441530630e-05  1.6376399458216491e-05  2.1658275006186336e-05  2.6806307184796006e-05  3.1781312358993698e-05  3.6537163002086119e-05  4.1013617919429270e-05  4.5121777722118250e-05  4.8712146626321521e-05  5.1507618593401939e-05  5.2966985607470307e-05  5.2008670938289370e-05  4.6461799452486539e-05  3.1988988077830031e-05  0.0000000000000000e+00  -2.8621184306430587e-05  0.0000000000000000e+00  -4.1827812159327682e-05  -4.7229358809864881e-05  -4.8572356692173555e-05  -4.7695460863151965e-05  -4.5509076657599465e-05  -4.2476967106276028e-05  -3.8849611223376518e-05  -3.4775415649629629e-05  -3.0353166934998030e-05  -2.5656322243488925e-05  -2.0744196258528760e-05  -1.5667646908107934e-05  -1.0472221587444231e-05  -5.1997541342211963e-06  1.1040026802915031e-07  5.4202253989359352e-06  1.0691703508987307e-05  1.5885482872668975e-05  2.0959566088426843e-05  2.5868155154221434e-05  3.0559838298510961e-05  3.4974232197313922e-05  3.9035797031971118e-05  4.2642273706253926e-05  4.5639630387538700e-05  4.7768831526025411e-05  4.8556240238922858e-05  4.7087079734141292e-05  4.1544520620636595e-05  2.8283581859969291e-05  0.0000000000000000e+00  -2.4218265520660364e-05  0.0000000000000000e+00  -3.5899919313350681e-05  -4.1163889978154959e-05  -4.2960443211886736e-05  -4.2733300807232319e-05  -4.1214924211289526e-05  -3.8800774075995422e-05  -3.5724417400077655e-05  -3.2139044731119814e-05  -2.8155495872828114e-05  -2.3860031772332681e-05  -1.9323111419880525e-05  -1.4604400240198314e-05  -9.7559164973549069e-06  -4.8242685371353476e-06  1.4760084695522597e-07  5.1185906065066939e-06  1.0047588621790607e-05  1.4891521869690762e-05  1.9603517547245960e-05  2.4131037372494832e-05  2.8413694825771982e-05  3.2379695038831315e-05  3.5940481962891205e-05  3.8981740667743207e-05  4.1344640115321598e-05  4.2787083302397968e-05  4.2903904796908524e-05  4.0958854330309855e-05  3.5533514082686272e-05  2.3796608950271261e-05  0.0000000000000000e+00  -1.8708744844385583e-05  0.0000000000000000e+00  -2.8275904152109857e-05  -3.3044986414180153e-05  -3.5063793617513529e-05  -3.5350531375495924e-05  -3.4451332146281832e-05  -3.2687580315555986e-05  -3.0268055655966983e-05  -2.7340939197902473e-05  -2.4018641085727781e-05  -2.0390144589725060e-05  -1.6527777407126574e-05  -1.2491673753364363e-05  -8.3330579732384616e-06  -4.0967241239279386e-06  1.7674410730568607e-07  4.4488744272459339e-06  8.6811216836090207e-06  1.2832680343512052e-05  1.6858262851482608e-05  2.0705925724324093e-05  2.4314464341064458e-05  2.7609927838450974e-05  3.0500875854001026e-05  3.2871335626169100e-05  3.4567689726098382e-05  3.5373287762462528e-05  3.4958064635127403e-05  3.2773136871212619e-05  2.7827325802020023e-05  1.8203689234348260e-05  0.0000000000000000e+00  -1.1293838301164984e-05  0.0000000000000000e+00  -1.7476771796928217e-05  -2.0848927176425213e-05  -2.2480870991081374e-05  -2.2934892668383444e-05  -2.2540986119921801e-05  -2.1512493072663489e-05  -1.9998736210466018e-05  -1.8110622289260988e-05  -1.5933841941096436e-05  -1.3536156015190696e-05  -1.0971979663600987e-05  -8.2857134949652137e-06  -5.5143328745453286e-06  -2.6895193042205369e-06  1.6050441383474065e-07  3.0091939131451579e-06  5.8299275281601525e-06  8.5942016710950011e-06  1.1269822332905319e-05  1.3819008185776700e-05  1.6196256136287106e-05  1.8345560695660357e-05  2.0196916416257191e-05  2.1661586377375358e-05  2.2624226525751762e-05  2.2929371741926948e-05  2.2357013437133624e-05  2.0574802302382431e-05  1.7041074022335036e-05  1.0797592304243411e-05  0.0000000000000000e+00  0.0000000000000000e+00  0.0000000000000000e+00  0.0000000000000000e+00  0.0000000000000000e+00  0.0000000000000000e+00  0.0000000000000000e+00  0.0000000000000000e+00  0.0000000000000000e+00  0.0000000000000000e+00  0.0000000000000000e+00  0.0000000000000000e+00  0.0000000000000000e+00  0.0000000000000000e+00  0.0000000000000000e+00  0.0000000000000000e+00  0.0000000000000000e+00  0.0000000000000000e+00  0.0000000000000000e+00  0.0000000000000000e+00  0.0000000000000000e+00  0.0000000000000000e+00  0.0000000000000000e+00  0.0000000