<?xml version="1.0"?>
<VTKFile type="UnstructuredGrid"  version="0.1"  >
<UnstructuredGrid>
<Piece  NumberOfPoints="825" NumberOfCells="1536">
<Points>
<DataArray  type="Float64"  NumberOfComponents="3"  format="ascii">-9.794995903427803e-22 0.5 0  0.06249999947028081 0.5000000247434065 0  0.06249996536603996 0.5625000309386625 0  -3.503697425795943e-08 0.5625000031417717 0  0.1249999968197893 0.5000000493464045 0  0.1249999630020417 0.5625000536704866 0  0.1874999917165846 0.5000000743806078 0  0.1874999580623847 0.5625000750195298 0  0.249999983791383 0.500000099213798 0  0.2499999506340135 0.5625000947211618 0  0.3124999711217372 0.5000001191791577 0  0.3124999403582391 0.5625001105159602 0  0.3749999527719472 0.5000001312041996 0  0.3749999265826475 0.5625001199118979 0  0.437499925753465 0.5000001301406112 0  0.4374999090361509 0.562500121135682 0  0.4999998932648085 0.5000001198948446 0  0.4999998881480099 0.562500114528604 0  0.5624998591084315 0.500000103687496 0  0.5624998654220793 0.5625001023069217 0  0.6249998279891557 0.5000000863861137 0  0.6249998429067601 0.5625000871855215 0  0.6874998004661215 0.5000000684411646 0  0.6874998220309452 0.5625000700298016 0  0.7499997754936598 0.5000000475623212 0  0.7499998033114977 0.5625000511807672 0  0.8124997555932223 0.5000000277008932 0  0.8124997875890173 0.5625000320197786 0  0.8749997409101989 0.5000000084710998 0  0.874999775300205 0.5625000127225496 0  0.9374997301771433 0.4999999882605616 0  0.9374997663809611 0.5624999935582676 0  0.9999997249273593 0.4999999708855672 0  0.9999997612018544 0.5624999754063141 0  1.062499723608379 0.4999999528273095 0  1.062499759594623 0.5624999576060137 0  1.124999725891522 0.4999999345278824 0  1.124999761131625 0.562499940583474 0  1.187499733620201 0.4999999203964746 0  1.187499766105741 0.562499925642476 0  1.249999745020239 0.4999999069789202 0  1.249999774266369 0.5624999123536406 0  1.312499759469342 0.4999998948363792 0  1.312499784994821 0.5624999012224614 0  1.37499977843592 0.4999998882818591 0  1.374999798349907 0.5624998935737674 0  1.437499799851335 0.4999998840115811 0  1.437499813865862 0.5624998890947828 0  1.4999998233015 0.4999998832552401 0  1.499999830758747 0.5624998884703445 0  1.562499849530133 0.4999998900650897 0  1.562499848920995 0.5624998927913057 0  1.624999876349977 0.4999999007007456 0  1.624999867806695 0.5624999012317237 0  1.68749990337357 0.4999999151775584 0  1.687499886517857 0.5624999134038464 0  1.749999930186956 0.499999934499645 0  1.749999904552288 0.5624999289314381 0  1.81249995412897 0.4999999538256999 0  1.812499920954998 0.5624999461576817 0  1.874999974349744 0.4999999726802954 0  1.874999934548459 0.5624999643869381 0  1.937499989234494 0.4999999893174809 0  1.937499944479857 0.5624999844996765 0  2 0.5 0  1.999999949772777 0.5625000167199883 0  0.06249993740314277 0.6250000372714031 0  -6.318362570052168e-08 0.6250000140920672 0  0.124999936055729 0.6250000572821182 0  0.187499932540046 0.6250000753774925 0  0.2499999270170263 0.6250000913711754 0  0.3124999195256834 0.6250001039505976 0  0.3749999099198547 0.6250001115102117 0  0.4374998980780587 0.6250001129449899 0  0.4999998841364858 0.6250001082335037 0  0.5624998687135322 0.6250000985178827 0  0.6249998528518903 0.6250000853199965 0  0.6874998375891025 0.6250000697058901 0  0.7499998236158459 0.6250000524379028 0  0.8124998115060796 0.6250000342873635 0  0.8749998016992249 0.6250000157894051 0  0.9374997944011995 0.6249999973829912 0  0.9999997897932295 0.6249999794527458 0  1.062499787887958 0.6249999621487606 0  1.124999788513927 0.62499994582566 0  1.187499791621387 0.6249999310237037 0  1.249999797063074 0.6249999180435756 0  1.312499804508779 0.6249999073227145 0  1.374999813735094 0.6249998994393888 0  1.437499824423506 0.624999894725518 0  1.499999836121144 0.6249998935962757 0  1.562499848529009 0.624999896407174 0  1.624999861275249 0.624999903000874 0  1.687499873822233 0.6249999130291194 0  1.749999885655969 0.6249999259907471 0  1.812499896088957 0.6249999411598588 0  1.874999904223505 0.6249999582945235 0  1.937499909202147 0.6249999785966079 0  1.999999911181754 0.6250000047994519 0  0.06249991657567026 0.6875000441027822 0  -8.378314679092676e-08 0.6875000264756206 0  0.1249999158980179 0.6875000605551561 0  0.1874999137439061 0.6875000754693426 0  0.2499999101151845 0.6875000883512401 0  0.312499905085491 0.6875000982670846 0  0.3749998986487971 0.6875001041545293 0  0.4374998907623738 0.6875001052653716 0  0.4999998814784166 0.6875001014937906 0  0.5624998710878829 0.6875000934078137 0  0.624999860140062 0.6875000819184958 0  0.6874998492776555 0.687500067904133 0  0.7499998390636016 0.6875000521180427 0  0.8124998299678401 0.6875000352260879 0  0.8749998223597775 0.687500017785469 0  0.9374998164889644 0.6875000002583443 0  0.9999998125153401 0.6874999830246853 0  1.062499810484634 0.6874999664006128 0  1.124999810339315 0.687499950741593 0  1.187499811996366 0.6874999364504408 0  1.249999815318235 0.6874999239070461 0  1.312499820094698 0.6874999135122006 0  1.37499982610387 0.6874999056802884 0  1.43749983308828 0.6874999007635388 0  1.499999840754387 0.6874998990602368 0  1.562499848832845 0.6874999007450231 0  1.624999857030147 0.6874999057564339 0  1.687499864986079 0.6874999138330928 0  1.749999872290581 0.6874999245688722 0  1.812499878444098 0.6874999375094365 0  1.874999882896726 0.6874999524195464 0  1.937499885328885 0.687499969421286 0  1.99999988614188 0.6874999880955371 0  0.06249990210114422 0.750000051050469 0  -9.809008384169511e-08 0.7500000384944157 0  0.1249999017920816 0.750000063747806 0  0.1874999006159924 0.7500000755436416 0  0.2499998984694755 0.7500000856666241 0  0.3124998953582667 0.7500000933087403 0  0.374999891279899 0.7500000976897077 0  0.4374998862112714 0.7500000982635454 0  0.4999998801719489 0.7500000948893376 0  0.5624998733058183 0.7500000878510655 0  0.6249998659076215 0.7500000777131307 0  0.6874998583645161 0.7500000651321252 0  0.7499998510721382 0.7500000507497671 0  0.8124998443887947 0.7500000351575882 0  0.8749998386121852 0.7500000188811849 0  0.9374998339652449 0.750000002378337 0  0.9999998305929804 0.7499999860469491 0  1.062499828557013 0.7499999702477432 0  1.124999827845224 0.7499999553402232 0  1.187499828395976 0.7499999416926072 0  1.249999830102525 0.7499999296701937 0  1.312499832816564 0.7499999196341842 0  1.374999836365427 0.7499999119281988 0  1.437499840556916 0.7499999068484385 0  1.499999845186683 0.749999904616489 0  1.562499850050692 0.7499999053357477 0  1.624999854932045 0.7499999089489066 0  1.687499859583005 0.7499999152373643 0  1.749999863721768 0.7499999238516829 0  1.812499867041682 0.7499999343674383 0  1.874999869281973 0.7499999463341703 0  1.937499870398552 0.7499999591377398 0  1.99999987071593 0.7499999713996189 0  0.06249989276132671 0.8125000577184089 0  -1.073369714593054e-07 0.8125000494363164 0  0.1249998926587923 0.8125000669023081 0  0.1874998921156705 0.8125000757574733 0  0.2499998910047379 0.8125000833864754 0  0.3124998892754803 0.8125000890274658 0  0.3749998868949672 0.8125000920395907 0  0.4374998838302347 0.8125000919837904 0  0.499999880075521 0.8125000887021405 0  0.562499875695274 0.8125000823283086 0  0.6249998708448606 0.8125000732188756 0  0.6874998657517637 0.8125000618515481 0  0.7499998606751732 0.8125000487435343 0  0.8124998558699538 0.8125000344040636 0  0.8749998515614433 0.8125000193101535 0  0.9374998479290265 0.8125000038973362 0  0.9999998450966929 0.8124999885614723 0  1.062499843128986 0.8124999736702362 0  1.124999842035405 0.8124999595780198 0  1.187499841780682 0.8124999466324113 0  1.249999842292715 0.8124999351714123 0  1.312499843470125 0.8124999255166623 0  1.374999845191927 0.81249991795985 0  1.437499847325183 0.8124999127417453 0  1.499999849731605 0.8124999100267595 0  1.56249985227148 0.8124999098734952 0  1.624999854799621 0.812499912210268 0  1.687499857159463 0.8124999168270275 0  1.749999859185448 0.8124999233819064 0  1.812499860723472 0.8124999314080615 0  1.874999861683546 0.8124999402803254 0  1.93749986211393 0.8124999490667799 0  1.999999862219148 0.8124999562092259 0  0.06249988743253732 0.8750000638553838 0  -1.126201071764485e-07 0.8750000590316446 0  0.1249998874462793 0.8750000699598471 0  0.1874998872903557 0.8750000761561222 0  0.2499998868552687 0.8750000815419592 0  0.3124998860659037 0.8750000853964788 0  0.3749998848636749 0.875000087155275 0  0.4374998831984936 0.8750000864359749 0  0.4999998810415895 0.8750000830700621 0  0.5624998784081408 0.8750000771047912 0  0.6249998753713172 0.8750000687660027 0  0.6874998720574432 0.8750000583989078 0  0.7499998686265824 0.8750000464109696 0  0.8124998652492585 0.8750000332297087 0  0.8749998620860666 0.8750000192763002 0  0.9374998592722957 0.8750000049518826 0  0.9999998569078128 0.8749999906335443 0  1.062499855052302 0.8749999766771036 0  1.124999853726209 0.8749999634221481 0  1.187499852915772 0.8749999511941307 0  1.249999852579405 0.8749999403015836 0  1.312499852654637 0.8749999310287181 0  1.374999853065466 0.8749999236230593 0  1.437499853728987 0.8749999182783621 0  1.499999854560556 0.8749999151141082 0  1.562499855476454 0.8749999141538203 0  1.624999856393551 0.8749999153065107 0  1.687499857229082 0.8749999183546455 0  1.749999857906036 0.8749999229457532 0  1.812499858369141 0.8749999285757303 0  1.874999858611221 0.8749999345414032 0  1.937499858692685 0.8749999398407461 0  1.999999858716147 0.874999943020904 0  0.06249988517827044 0.9375000693352422 0  -1.148555296490511e-07 0.9375000672420301 0  0.1249998852560956 0.9375000728441913 0  0.1874998853253834 0.9375000767164144 0  0.2499998853074214 0.9375000801156097 0  0.3124998851253941 0.9375000823762865 0  0.3749998847084157 0.9375000829888318 0  0.4374998839931837 0.9375000816057896 0  0.4999998829328082 0.937500078052139 0  0.5624998815100399 0.9375000723219895 0  0.6249998797467473 0.937500064555333 0  0.6874998777038617 0.9375
[...]
<PointData  Scalars="p"> 
<DataArray  type="Float64"  Name="p"  format="ascii">0.0000000000000000e+00  -1.2048146624853549e-04  -1.2779437272484613e-04  0.0000000000000000e+00  -2.0750565837672827e-04  -2.1269075601503936e-04  -2.6565249573803912e-04  -2.6767246747121765e-04  -3.0071919460729872e-04  -3.0021084450026852e-04  -3.1768142509941129e-04  -3.1547132272643081e-04  -3.2047469640293576e-04  -3.1724677925256621e-04  -3.1214182823427309e-04  -3.0839527782157807e-04  -2.9498795746864568e-04  -2.9108706975315777e-04  -2.7078236110146591e-04  -2.6699626372989651e-04  -2.4094333069555975e-04  -2.3746471080318685e-04  -2.0663263652343514e-04  -2.0359897768675446e-04  -1.6881630103065967e-04  -1.6632912329381025e-04  -1.2833327455602218e-04  -1.2646416247635132e-04  -8.5934853872151839e-05  -8.4730812635992688e-05  -4.2308293140175141e-05  -4.1797704853333855e-05  1.8912406786720689e-06  1.7017261684712868e-06  4.6054201010210115e-05  4.5162238677400759e-05  8.9550942842697424e-05  8.7972031374978439e-05  1.3171914976005300e-04  1.2949418206120828e-04  1.7189519610716965e-04  1.6907244106261659e-04  2.0933586855145794e-04  2.0599066419051758e-04  2.4320236375740710e-04  2.3944704510697442e-04  2.7256545202064032e-04  2.6854028032763903e-04  2.9629863424931102e-04  2.9220174857825853e-04  3.1302463466940846e-04  3.0913275290542132e-04  3.2104385168367088e-04  3.1772452212445096e-04  3.1812001171571843e-04  3.1589029605686233e-04  3.0130424505552477e-04  3.0086404755739305e-04  2.6673900783558932e-04  2.6890612790436523e-04  2.0937048038509255e-04  2.1471756819318286e-04  1.2292391247170777e-04  1.3013310770151637e-04  0.0000000000000000e+00  0.0000000000000000e+00  -1.4154823091670253e-04  0.0000000000000000e+00  -2.2497102659325199e-04  -2.7452692084653046e-04  -3.0177873636690245e-04  -3.1300674953744427e-04  -3.1208311795624205e-04  -3.0164469570590158e-04  -2.8361133878342359e-04  -2.5944992556140343e-04  -2.3033571748833212e-04  -1.9724615538933726e-04  -1.6101566725928410e-04  -1.2237864802023944e-04  -8.2001160221225315e-05  -4.0501930194605116e-05  1.5309921176567692e-06  4.3527182335221512e-05  8.4914224359275076e-05  1.2510390263022246e-04  1.6348399888511847e-04  1.9939713487202208e-04  2.3212022650760059e-04  2.6084200918007495e-04  2.8461823653466413e-04  3.0231536904770932e-04  3.1252367515561061e-04  3.1339606353867684e-04  3.0236930088699265e-04  2.7559780947061823e-04  2.2665642323908667e-04  1.4338924500191291e-04  0.0000000000000000e+00  -1.5587494210474780e-04  0.0000000000000000e+00  -2.3998016032836922e-04  -2.8496273855514411e-04  -3.0666267204805460e-04  -3.1308625278699491e-04  -3.0859494892934654e-04  -2.9580685451944714e-04  -2.7646006330847312e-04  -2.5181601344720529e-04  -2.2286425031807990e-04  -1.9042723108407371e-04  -1.5521497047482115e-04  -1.1786166977414777e-04  -7.8951107773239047e-05  -3.9032543948289604e-05  1.3674984670035153e-06  4.1734319145278541e-05  8.1552919962340906e-05  1.2029778039733474e-04  1.5742434192624109e-04  1.9235617617607213e-04  2.2447048261936976e-04  2.5307642655986504e-04  2.7737984748395792e-04  2.9642852463685940e-04  3.0901008806912889e-04  3.1344802618652601e-04  3.0718411911447133e-04  2.8587317635125247e-04  2.4138399561571676e-04  1.5739622016865202e-04  0.0000000000000000e+00  -1.6956176097338046e-04  0.0000000000000000e+00  -2.5575752113007086e-04  -2.9751284509865077e-04  -3.1433567654966276e-04  -3.1604902878601155e-04  -3.0774279696121209e-04  -2.9221171345665390e-04  -2.7112985103468874e-04  -2.4561097271679524e-04  -2.1648236414306438e-04  -1.8441640764608054e-04  -1.4999348484692987e-04  -1.1373840259667913e-04  -7.6142377478060369e-05  -3.7674543674138531e-05  1.2106738321776699e-06  4.0066508159047853e-05  7.8446364940283180e-05  1.1589740640364296e-04  1.5195438976088645e-04  1.8613295432546131e-04  2.1791832621620159e-04  2.4674622311530553e-04  2.7196856028332021e-04  2.9279069295992579e-04  3.0814138601093546e-04  3.1639963767147208e-04  3.1482187640342299e-04  2.9833092300567772e-04  2.5699715550473189e-04  1.7090050534775215e-04  0.0000000000000000e+00  -1.8250522867864022e-04  0.0000000000000000e+00  -2.7153029484118052e-04  -3.1113982056869946e-04  -3.2391669483395523e-04  -3.2135797821699209e-04  -3.0934563978980164e-04  -2.9096390636006034e-04  -2.6791952426850560e-04  -2.4124399463149431e-04  -2.1164120524109589e-04  -1.7965402057761561e-04  -1.4574204410516519e-04  -1.1032277412747814e-04  -7.3793201301993700e-05  -3.6538582736010889e-05  1.0636532403053449e-06  3.8640292514396985e-05  7.5818540175057053e-05  1.1222249398306315e-04  1.4747067792662737e-04  1.8117203343083553e-04  2.1291817322891050e-04  2.4226302211683017e-04  2.6868437061230277e-04  2.9150709439758647e-04  3.0973693189570461e-04  3.2171319189071632e-04  3.2439641323473247e-04  3.1191611702730221e-04  2.7268096290659845e-04  1.8373817460074640e-04  0.0000000000000000e+00  -1.9477414486351681e-04  0.0000000000000000e+00  -2.8694404040586525e-04  -3.2513089089870699e-04  -3.3457263177302977e-04  -3.2825010141081414e-04  -3.1280398167781841e-04  -2.9164667688368209e-04  -2.6657432247548663e-04  -2.3858634087935100e-04  -2.0830021182437143e-04  -1.7615394874996942e-04  -1.4250161384859208e-04  -1.0766200318852525e-04  -7.1942096246867487e-05  -3.5644791004153399e-05  9.2947799418500138e-07  3.7481823135383973e-05  7.3713709870401031e-05  1.0932627862301538e-04  1.4401978696087296e-04  1.7749291837066477e-04  2.0943455145714082e-04  2.3950234897182444e-04  2.6727594222404583e-04  2.9216253167684215e-04  3.1319548895902659e-04  3.2861931117241590e-04  3.3506082412606213e-04  3.2588989877161404e-04  2.8804174492094204e-04  1.9593883817159237e-04  0.0000000000000000e+00  -2.0636955820674662e-04  0.0000000000000000e+00  -3.0172651251874553e-04  -3.3892606671345553e-04  -3.4557463842642828e-04  -3.3596144382171296e-04  -3.1741327157505520e-04  -2.9366275039951524e-04  -2.6661721460446904e-04  -2.3727390589289765e-04  -2.0619163229363232e-04  -1.7372591342100722e-04  -1.4014179664242413e-04  -1.0567086416155069e-04  -7.0537866289899155e-05  -3.4968576898427549e-05  8.0986606086705891e-07  3.6569830636599137e-05  7.2084072234169638e-05  1.0712670872295989e-04  1.4147491304234761e-04  1.7490848247741117e-04  2.0720295758656278e-04  2.3810296626156633e-04  2.6726784392909654e-04  2.9416012599456338e-04  3.1781080311647336e-04  3.3634823186791570e-04  3.4607520141500994e-04  3.3967458939532425e-04  3.0278226078956749e-04  2.0747868480749238e-04  0.0000000000000000e+00  -2.1717572066994506e-04  0.0000000000000000e+00  -3.1556239999785339e-04  -3.5200845911767460e-04  -3.5626794110052759e-04  -3.4378367836459243e-04  -3.2248347696196009e-04  -2.9638708235251446e-04  -2.6751108111226920e-04  -2.3686319730897330e-04  -2.0496134116999227e-04  -1.7209610004423256e-04  -1.3845863359476031e-04  -1.0420556399805683e-04  -6.9488999196214642e-05  -3.4465241849640998e-05  7.0544395956078564e-07  3.5860905185551466e-05  7.0839259107700103e-05  1.0548136003515489e-04  1.3963312147509201e-04  1.7314652938257006e-04  2.0587045395834076e-04  2.3762242007619911e-04  2.6812398096938422e-04  2.9687480689579625e-04  3.2289173428125798e-04  3.4418907027745454e-04  3.5677857893802901e-04  3.5274262356831457e-04  3.1657159732480374e-04  2.1822494467867718e-04  0.0000000000000000e+00  -2.2696667405323653e-04  0.0000000000000000e+00  -3.2805897950484789e-04  -3.6385242329212223e-04  -3.6603867559525894e-04  -3.5106731165480514e-04  -3.2737708645308894e-04  -2.9922943136946394e-04  -2.6873369767434950e-04  -2.3690920022744066e-04  -2.0424257482266287e-04  -1.7097226270556455e-04  -1.3722855995975086e-04  -1.0310498987314661e-04  -6.8691472118184875e-05  -3.4083997963313765e-05  6.1578360449821019e-07  3.5303343393184931e-05  6.9874398352126352e-05  1.0422810739883660e-04  1.3827030209240853e-04  1.7191396216005689e-04  2.0507040777674096e-04  2.3761577854188628e-04  2.6932215844127004e-04  2.9971705243141242e-04  3.2780107662610755e-04  3.5149173060049042e-04  3.6655502998299218e-04  3.6456227586250512e-04  3.2900664469243118e-04  2.2793919624739773e-04  0.0000000000000000e+00  -2.3542979084522752e-04  0.0000000000000000e+00  -3.3875149017452042e-04  -3.7391013391099436e-04  -3.7429769299315288e-04  -3.5721538587023233e-04  -3.3151864125834638e-04  -3.0165762001941882e-04  -2.6981075993351005e-04  -2.3700283776474391e-04  -2.0369349394478843e-04  -1.7007821676951791e-04  -1.3623757166342584e-04  -1.0221333287614786e-04  -6.8044048028392909e-05  -3.3775519260852701e-05  5.3967391851570959e-07  3.4845432855421573e-05  6.9085822974791281e-05  1.0320889782974011e-04  1.3717011200090016e-04  1.7093315668616069e-04  2.0445943652460356e-04  2.3767387786589709e-04  2.7038835214731276e-04  3.0215504061555960e-04  3.3196442648269852e-04  3.5765976064828836e-04  3.7481434746319608e-04  3.7458221905901153e-04  3.3961506450933503e-04  2.3629969812342282e-04  0.0000000000000000e+00  -2.4219500334634290e-04  0.0000000000000000e+00  -3.4712685370234586e-04  -3.8162186623665311e-04  -3.8048103137917926e-04  -3.6168367117827465e-04  -3.3439856335933685e-04  -3.0320812206620921e-04  -2.7033148951687176e-04  -2.3678980133737634e-04  -2.0301675673124790e-04  -1.6917225590049999e-04  -1.3529711732137637e-04  -1.0139248276615257e-04  -6.7456631124851422e-05  -3.3495948112669345e-05  4.7567731810683001e-07  3.4440422688914065e-05  6.8380605820696051e-05  1.0228278658156997e-04  1.3614148663569704e-04  1.6995979126869726e-04  2.0373879110064093e-04  2.3744083162723019e-04  2.7091183795225379e-04  3.0372542674331925e-04  3.3487255872606970e-04  3.6214917387864296e-04  3.8099183702188010e-04  3.8223985196653490e-04  3.4787860325362276e-04  2.4292991865168577e-04  0.0000000000000000e+00  -2.4686522964800670e-04  0.0000000000000000e+00  -3.5265586521272726e-04  -3.8643784486149527e-04  -3.8406354228484146e-04  -3.6398786073943938e-04  -3.3558025530025976e-04  -3.0349329360269619e-04  -2.6995809008823542e-04  -2.3598067244639173e-04  -2.0197005585534934e-04  -1.6805696505676069e-04  -1.3425265925730862e-04  -1.0052879757005167e-04  -6.6854914556137765e-05  -3.3209205335391499e-05  4.2220593895081354e-07  3.4049077219704303e-05  6.7681275716190389e-05  1.0133302983062674e-04  1.3502668994864041e-04  1.6879353797914274e-04  2.0266283432002490e-04  2.3662514122260679e-04  2.7055210442116547e-04  3.0403982150319927e-04  3.3608781597686756e-04  3.6447554229181595e-04  3.8456163374297043e-04  3.8698410436091606e-04  3.5326512397686953e-04  2.4742937140411825e-04  0.0000000000000000e+00  -2.4904615542423343e-04  0.0000000000000000e+00  -3.5482660098830668e-04  -3.8784646019238389e-04  -3.8457776366992427e-04  -3.6371704907334554e-04  -3.3470777883559655e-04  -3.0220826337759853e-04  -2.6843019704766958e-04  -2.3435591005940018e-04  -2.0037019803256879e-04  -1.6658322828683991e-04  -1.3298702147327603e-04  -9.9535852674417145e-05  -6.6182338792547088e-05  -3.2888107848344575e-05  3.7731183740951642e-07  3.3640309943794734e-05  6.6927385894344845e-05  1.0026925985019857e-04  1.3370464658269085e-04  1.6728107794754165e-04  2.0104452182074226e-04  2.3500261960467982e-04  2.6904591052601915e-04  3.0278959080074554e-04  3.3525319274505617e-04  3.6422657357849388e-04  3.8505654822721129e-04  3.8830320047772822e-04  3.5526244959992789e-04  2.4940289742154037e-04  0.0000000000000000e+00  -2.4837282187256454e-04  0.0000000000000000e+00  -3.5317681592141471e-04  -3.8540233394550891e-04  -3.8163547610403360e-04  -3.6054686658692434e-04  -3.3151439967413947e-04  -2.9913302249597799e-04  -2.6556628032968634e-04  -2.3176376425373255e-04  -1.9809151491440060e-04  -1.6464771458914203e-04  -1.3141826272322028e-04  -9.8352412000603416e-05  -6.5398481597553205e-05  -3.2513181893153553e-05  3.3936836883700848e-07  3.3191395034203788e-05  6.6075211664886282e-05  9.9026941808347493e-05  1.3208992355456730e-04  1.6531576708467217e-04  1.9875426123011075e-04  2.3241854780239359e-04  2.6620754230250132e-04  2.9975265120840710e-04  3.3209883411922640e-04  3.6107683458345833e-04  3.8208719145241808e-04  3.8575184014750797e-04  3.5340869353885800e-04  2.4848633266697862e-04  0.0000000000000000e+00  -2.4453149750586510e-04  0.0000000000000000e+00  -3.4732125323463285e-04  -3.7875097745836849e-04  -3.7494631764288305e-04  -3.5425123944238268e-04  -3.2582676198464691e-04  -2.9413280114197335e-04  -2.6125749524284015e-04  -2.2811427983053891e-04  -1.9505662280674187e-04  -1.6218481334066940e-04  -1.2949162696895299e-04  -9.6935891444762564e-05  -6.4474009546554363e-05  -3.2069528510549128e-05  3.0822451668953460e-07  3.2687072165225775e-05  6.5094977451117791e-05  9.7562775025141299e-05  1.3012700785506519e-04  1.6283054907928715e-04  1.9571369879576829e-04  2.2878054508804538e-04  2.6192674935283456e-04  2.9479107786930760e-04  3.2644890114530092e-04  3.5479712207094901e-04  3.7536089502599411e-04  3.7897448177873601e-04  3.4731924248812226e-04  2.4436804236415956e-04  0.0000000000000000e+00  -2.3727421362232720e-04  0.0000000000000000e+00  -3.3696900947912468e-04  -3.6764369654855827e-04  -3.6432594845454177e-04  -3.4470367751474073e-04  -3.1755855826961387e-04  -2.8714509288683466e-04  -2.5545217297844605e-04  -2.2335854143767700e-04  -1.9121790576254432e-04  -1.5914724648628136e-04  -1.2716367214106334e-04  -9.5249267354489535e-05  -6.3381764154326711e-05  -3.1542144812546439e-05  2.8533043949755978e-07  3.2115195533491728e-05  6.3962087337117527e-05  9.5842065135485230e-05  1.2777393496449284e-04  1.5977957266761125e-04  1.9187484786216584e-04  2.2403962326423890e-04  2.5614949643640859e-04  2.8783954668133320e-04  3.1821330045674181e-04  3.4525678239838979e-04  3.6469032649665153e-04  3.6772109049834130e-04  3.3670458973949531e-04  2.3680328798653845e-04  0.0000000000000000e+00  -2.2642103490471760e-04  0.0000000000000000e+00  -3.2192385085806949e-04  -3.5193153676404092e-04  -3.4968094402370030e-04  -3.3185061991455140e-04  -3.0667513756529662e-04  -2.7813594234277461e-04  -2.4810768996854905e-04  -2.1744189400782498e-04  -1.8651005224585402e-04  -1.5546580181837827e-04  -1.2436683444448868e-04  -9.3234239256295909e-05  -6.2078047345987588e-05  -3.0906336463886522e-05  2.7425769640070707e-07  3.1458070296854203e-05  6.2639668112898577e-05  9.3812606140160365e-05  1.2496892746376420e-04  1.5609753075859629e-04  1.8717597591676982e-04  2.1814171016968194e-04  2.4883232994853084e-04  2.7886123046301920e-04  3.0735232974412778e-04  3.3239704432835225e-04  3.4997679734801958e-04  3.5183902772961727e-04  3.2136766380838698e-04  2.2561375291190914e-04  0.0000000000000000e+00  -2.1184242563807989e-04  0.0000000000000000e+00  -3.0205329242763315e-04  -3.3151915490911739e-04  -3.3094552067894475e-04  -3.1563110610752834e-04  -2.9309862331414622e-04  -2.6699868820175259e-04  -2.3908619243923770e-04  -2.1020282118641557e-04  -1.8075974177122472e-04  -1.5096805163968216e-04  -1.2094421423694252e-04  -9.0760244886267628e-05  -6.0468488495836180e-05  -3.0109991667735940e-05  2.8147521908118173e-07  3.0676537182946213e-05  6.1045921922236641e-05  9.1356249595291102e-05  1.2156609870739930e-04  1.5162259316745175e-04  1.8145128029579163e-04  2.1093090253391033e-04  2.3983943319358833e-04  2.6774712280936536e-04  2.9378292839160489e-04  3.1614853006928885e-04  3.3114462636488684e-04  3.3122402560810746e-04  3.0116954147787854e-04  2.1066744910845414e-04  0.0000000000000000e+00  -1.9340612463009490e-04  0.0000000000000000e+00  -2.7719649548032979e-04  -3.0623467406051938e-04  -3.0791416467140808e-04  -2.9578039932425659e-04  -2.7649301307501844e-04  -2.5333231660220658e-04  -2.2794111687376241e-04  -2.0117421378745227e-04  -1.7350743065168807e-04  -1.4522876180665610e-04  -1.1652647340187371e-04  -8.7532903414352497e-05  -5.8346433797676322e-05  -2.9043327349842843e-05  3.1574042908686716e-07  2.9678208737116892e-05  5.8991719815592343e-05  8.8195539844214082e-05  1.1721312552439781e-04  1.4594449498102712e-04  1.7425510173178525e-04  2.0195036601573023e-04  2.2872983435972378e-04  2.5409723537967902e-04  2.7716365631545530e-04  2.9623552068081541e-04  3.0797423627903760e-04  3.0568924668757162e-04  2.7593675867031164e-04  1.9182412231671979e-04  0.0000000000000000e+00  -1.7085490855820733e-04  0.0000000000000000e+00  -2.4694304937675411e-04  -2.7551735371840203e-04  -2.7985288546107174e-04  -2.7138964636067860e-04  -2.5580369095464092e-04  -2.3598659846564069e-04  -2.1348668190013901e-04  -1.8919483961016742e-04  -1.6366865811701022e-04  -1.3728372284228031e-04  -1.1030463030348710e-04  -8.2923017930366033e-05  -5.5280797115340069e-05  -2.7484052039807545e-05  3.8508331415641481e-07  2.8257076218227849e-05  5.6062268237409911e-05  8.3718249027241211e-05  1.1111746534872108e-04  1.3811599617998216e-04  1.6451817677217714e-04  1.9005194752054065e-04  2.1432771479260512e-04  2.3676515917788786e-04  2.5643698617435243e-04  2.7173953819184911e-04  2.7971616011824332e-04  2.7465646104094969e-04  2.4524346980804107e-04  1.6881445251793476e-04  0.0000000000000000e+00  -1.4354206257161732e-04  0.0000000000000000e+00  -2.1013411944524379e-04  -2.3771439831157834e-04  -2.4465081330029821e-04  -2.3998222894919339e-04  -2.2832173131847355e-04  -2.1216548528184948e-04  -1.9297367630051219e-04  -1.7167460454847077e-04  -1.4890154770438657e-04  -1.2510538868380801e-04  -1.0061220470678065e-04  -7.5658205544956841e-05  -5.0413644704995864e-05  -2.5001346177572773e-05  4.8785794468521782e-07  2.5979104639618063e-05  5.1397299105095749e-05  7.6650301906005193e-05  1.0161291214265634e-04  1.2611068936393353e-04  1.4990176405107035e-04  1.7265008558398274e-04  1.9388838393922847e-04  2.1295940129232400e-04  2.2889678067161958e-04  2.4018338427517495e-04  2.4425720767447804e-04  2.3647266697628599e-04  2.0793386941253197e-04  1.4099225366660779e-04  0.0000000000000000e+00  -1.0982325050894504e-04  0.0000000000000000e+00  -1.6370507141273853e-04  -1.8850077182919276e-04  -1.9699310067055576e-04  -1.9560653186282337e-04  -1.8781935202615157e-04  -1.7568281727158402e-04  -1.6051266436651075e-04  -1.4321190209098874e-04  -1.2442729117276573e-04  -1.0462945179540475e-04  -8.4158806458776783e-05  -6.3257592691920615e-05  -4.2094834941130131e-05  -2.0786312405446256e-05  5.8709701561121414e-07  2.1961899579345387e-05  4.3273929788907973e-05  6.4440306881681741e-05  8.5341169717698386e-05  1.0580169750431759e-04  1.2557122712948625e-04  1.4429686051624290e-04  1.6148969745756009e-04  1.7647727950781668e-04  1.8831846950544313e-04  1.9564325503634055e-04  1.9633949849849717e-04  1.8690162401334876e-04  1.6105704680351282e-04  1.0680919775174272e-04  0.0000000000000000e+00  -6.5554209966611090e-05  0.0000000000000000e+00  -9.9951377439436387e-05  -1.1737062749290610e-04  -1.2452398109383088e-04  -1.2499283027235292e-04  -1.2090074174900748e-04  -1.1361961615407028e-04  -1.0409395237666192e-04  -9.3000747186892040e-05  -8.0833971959828394e-05  -6.7952965114697581e-05  -5.4614253336865160e-05  -4.0995698237051053e-05  -2.7216061927760613e-05  -1.3351679018515468e-05  5.4883810316432078e-07  1.4450296485989863e-05  2.8316828131573222e-05  4.2097485148722777e-05  5.5711792205149959e-05  6.9034643920655149e-05  8.1879561690951014e-05  9.3977769523618165e-05  1.0495298598098179e-04  1.1428873217149401e-04  1.2127608036482738e-04  1.2492712883189759e-04  1.2382214076893711e-04  1.1581417457794123e-04  9.7436033320071495e-05  6.2643779650363871e-05  0.0000000000000000e+00  0.0000000000000000e+00  0.0000000000000000e+00  0.0000000000000000e+00  0.0000000000000000e+00  0.0000000000000000e+00  0.0000000000000000e+00  0.0000000000000000e+00  0.0000000000000000e+00  0.0000000000000000e+00  0.0000000000000000e+00  0.0000000000000000e+00  0.0000000000000000e+00  0.0000000000000000e+00  0.0000000000000000e+00  0.0000000000000000e+00  0.0000000000000000e+00  0.0000000000000000e+00  0.0000000000000000e+00  0.0000000000000000e+00  0.0000000000000000e+00  0.0000000000000000e+00  0.0000000000000000e+00  0.0000000000000000e+00  0