<?xml version="1.0"?>
<VTKFile type="UnstructuredGrid"  version="0.1"  >
<UnstructuredGrid>
<Piece  NumberOfPoints="825" NumberOfCells="1536">
<Points>
<DataArray  type="Float64"  NumberOfComponents="3"  format="ascii">8.771301092237205e-23 0.5 0  0.06249998698488585 0.5000002953315756 0  0.06249960378798609 0.5625003314949265 0  -3.860196254622481e-07 0.5625000262174051 0  0.1249999424092468 0.5000005705253081 0  0.1249995698073929 0.5625005788868508 0  0.1874998624506562 0.5000008073148935 0  0.1874995088242233 0.5625007938218363 0  0.2499997520135805 0.5000010287110495 0  0.2499994207128177 0.5625009775108301 0  0.3124996006628974 0.5000011928868794 0  0.3124993039327211 0.5625011168772506 0  0.3749993965078044 0.5000012844111094 0  0.3749991551576208 0.5625011966067487 0  0.437499127617003 0.5000012782094916 0  0.4374989734009536 0.5625012061368027 0  0.4999988116840751 0.5000011907633297 0  0.4999987636634787 0.5625011487392971 0  0.5624984837378636 0.500001053377555 0  0.5624985385584785 0.5625010401260228 0  0.6249981734941606 0.5000008886686362 0  0.6249983131855369 0.5625008991045923 0  0.6874978954700168 0.5000007201625862 0  0.6874981005933629 0.5625007401207034 0  0.7499976503907055 0.5000005411232938 0  0.7499979092666181 0.5625005692658884 0  0.812497441954409 0.5000003530167344 0  0.8124977441534479 0.5625003915372585 0  0.8749972784822215 0.5000001730385306 0  0.8749976092204921 0.5625002134495075 0  0.9374971587603411 0.4999999974040121 0  0.9374975072633901 0.5625000393458094 0  0.9999970872142895 0.49999983794771 0  0.999997440248757 0.5624998718418538 0  1.062497055800305 0.4999996786961249 0  1.062497408050066 0.562499706816417 0  1.124997054612116 0.4999994983480723 0  1.124997407192072 0.5624995438470225 0  1.187497107033297 0.4999993595584164 0  1.187497438446107 0.5624993948228783 0  1.249997197314982 0.4999992276077907 0  1.249997502469165 0.5624992588220207 0  1.312497315935682 0.4999990892236646 0  1.312497594411599 0.5624991364700661 0  1.37499748319751 0.4999990047229479 0  1.374997713445004 0.5624990403519112 0  1.437497681459203 0.4999989405335401 0  1.437497858245021 0.5624989701192634 0  1.499997899943767 0.4999988835841697 0  1.499998021507883 0.5624989280648646 0  1.562498155886602 0.4999989027498381 0  1.562498200112052 0.5624989296326579 0  1.624998427506844 0.4999989694578255 0  1.624998391481655 0.5624989746941881 0  1.687498701205056 0.4999990625972527 0  1.687498587465858 0.5624990588007246 0  1.749998991086175 0.4999992280261158 0  1.749998782795038 0.5624991847508017 0  1.812499272763371 0.4999994163496896 0  1.812498970634206 0.5624993410960681 0  1.874999529606117 0.4999995987465641 0  1.874999136586732 0.5624995198914529 0  1.937499772304883 0.4999998092007915 0  1.937499262206819 0.5624997409027513 0  2 0.5 0  1.999999300921193 0.5625001282840912 0  0.06249930093798713 0.6250003833917528 0  -6.963940722851332e-07 0.6250001347196498 0  0.1249992810153984 0.6250005978385015 0  0.1874992400436435 0.6250007835830512 0  0.2499991780350795 0.6250009388768915 0  0.312499095365535 0.6250010556224234 0  0.3749989917037018 0.6250011236424912 0  0.4374988671353945 0.6250011361881895 0  0.4999987238152785 0.625001094018618 0  0.5624985673524179 0.6250010057526795 0  0.6249984060263044 0.6250008837120373 0  0.68749824877168 0.6250007390435198 0  0.749998103041205 0.6250005796192426 0  0.812497974123191 0.6250004114270428 0  0.8749978660036734 0.6250002398818504 0  0.9374977817358333 0.6250000693041784 0  0.9999977234540255 0.6249999020381509 0  1.062497691726585 0.62499973853984 0  1.124997685270498 0.6249995807129692 0  1.187497703489673 0.6249994330219344 0  1.249997745870136 0.6249992985370634 0  1.312497809915805 0.6249991803880572 0  1.374997893577429 0.6249990838592899 0  1.437497994593937 0.6249990126858707 0  1.499998108616865 0.624998970914675 0  1.562498232128677 0.6249989644519137 0  1.624998362052705 0.6249989955730608 0  1.687498493182772 0.624999063275842 0  1.749998619785741 0.6249991659401999 0  1.81249873428873 0.6249992997996464 0  1.874998824198934 0.6249994649691946 0  1.93749887405563 0.6249996779690118 0  1.999998882684247 0.6249999658769437 0  0.06249907728885248 0.6875004476978834 0  -9.216921076274332e-07 0.6875002602815038 0  0.1249990665330299 0.687500622424102 0  0.1874990416056114 0.6875007768781721 0  0.2499990015563886 0.6875009055153046 0  0.312498946619347 0.687501001309255 0  0.3749988769972069 0.6875010570029513 0  0.4374987929359729 0.6875010678188046 0  0.4999986955344663 0.6875010336590034 0  0.5624985876310785 0.6875009593850698 0  0.624998473910233 0.6875008529184704 0  0.6874983600767648 0.6875007226209801 0  0.7499982516508533 0.6875005757272937 0  0.8124981532445664 0.6875004182461786 0  0.8749980685448256 0.6875002552781363 0  0.9374980004285073 0.6875000909378877 0  0.9999979508822655 0.6874999281491362 0  1.062497920724321 0.687499769045993 0  1.124997909688698 0.6874996161297848 0  1.187497917167103 0.6874994726421395 0  1.249997942226142 0.6874993418708037 0  1.312497983199884 0.6874992272654711 0  1.374998038116001 0.6874991327103427 0  1.43749810464152 0.6874990619260828 0  1.499998179800519 0.6874990185689303 0  1.562498260613322 0.6874990060613764 0  1.624998344026529 0.68749902618653 0  1.68749842613781 0.6874990787662641 0  1.749998502119364 0.6874991623440032 0  1.812498565847867 0.6874992749544382 0  1.874998610020968 0.6874994163491791 0  1.937498630208516 0.6874995883684932 0  1.999998633381358 0.6874997799122338 0  0.06249892141866491 0.7500005170612473 0  -1.078177842623606e-06 0.7500003833832155 0  0.1249989159573883 0.750000651548777 0  0.1874989020431531 0.7500007744643508 0  0.2499988781799707 0.7500008775487604 0  0.3124988439873365 0.7500009537573599 0  0.3749987993918631 0.7500009971199671 0  0.4374987444431405 0.7500010038297988 0  0.4999986796664345 0.7500009732926615 0  0.5624986065725487 0.7500009082648867 0  0.6249985278600179 0.7500008139121006 0  0.6874984471065226 0.7500006963833475 0  0.7499983681529383 0.7500005617087748 0  0.8124982945800137 0.7500004153328272 0  0.8749982294633982 0.7500002620090674 0  0.9374981752731483 0.7500001057423744 0  0.9999981337567255 0.7499999497969906 0  1.062498105819484 0.7499997969679686 0  1.12499809158939 0.749999650049348 0  1.187498090667822 0.7499995120575926 0  1.249998102228179 0.7499993861439067 0  1.312498124994167 0.7499992755685359 0  1.374998157342277 0.7499991836709016 0  1.43749819734452 0.7499991136827369 0  1.499998242790753 0.749999068560003 0  1.562498291347557 0.7499990506547477 0  1.624998340523694 0.7499990611684373 0  1.687498387431366 0.7499990998975443 0  1.74999842870775 0.7499991653793174 0  1.8124984607073 0.7499992551786167 0  1.874998480501444 0.7499993657788711 0  1.937498488338007 0.7499994898083159 0  1.999998489546481 0.7499996073445311 0  0.06249881956055252 0.812500585562709 0  -1.18035551872262e-06 0.8125004963900899 0  0.1249988171786354 0.8125006832150663 0  0.1874988103268965 0.8125007761740191 0  0.2499987975296563 0.8125008551377614 0  0.312498777994119 0.8125009129617715 0  0.3749987512719796 0.8125009442188587 0  0.4374987171193509 0.8125009455071722 0  0.4999986756466739 0.8125009158587922 0  0.5624986275934414 0.8125008567494587 0  0.6249985744826326 0.8125007715736127 0  0.6874985185149611 0.8125006648201559 0  0.7499984622597218 0.8125005413173669 0  0.8124984083151453 0.812500405751806 0  0.874998359056487 0.8125002624288389 0  0.9374983164678737 0.8125001151714616 0  0.999998282014204 0.8124999673316444 0  1.062498256561289 0.8124998219348356 0  1.124998240394414 0.8124996818936528 0  1.187498233316899 0.812499550143947 0  1.249998234732671 0.8124994296618423 0  1.312498243699147 0.8124993234330542 0  1.374998258993781 0.8124992343797131 0  1.437498279175568 0.8124991652222391 0  1.499998302646883 0.8124991182863984 0  1.56249832772161 0.8124990952278816 0  1.624998352631381 0.8124990967104132 0  1.687498375492654 0.8124991221721901 0  1.749998394381365 0.8124991696924792 0  1.812498407667842 0.8124992357437956 0  1.874998414753782 0.812499314304736 0  1.937498416962417 0.8124993945052869 0  1.999998417283872 0.8124994566267685 0  0.0624987597281068 0.8750006496805401 0  -1.240360693124569e-06 0.8750005963097375 0  0.1249987591174448 0.8750007154019523 0  0.1874987566077337 0.8750007812352225 0  0.2499987510029409 0.8750008380011175 0  0.312498741376185 0.8750008787235186 0  0.3749987270332839 0.8750008982867956 0  0.4374987074813368 0.8750008934502453 0  0.4999986825150481 0.8750008629487437 0  0.5624986523699839 0.8750008074219539 0  0.6249986178251667 0.8750007290780187 0  0.6874985801722048 0.8750006311796391 0  0.7499985410576208 0.8750005175231949 0  0.8124985022700145 0.8750003920358931 0  0.8749984655400213 0.8750002585201928 0  0.9374984323790817 0.8750001205222483 0  0.9999984039588296 0.8749999813029401 0  1.06249838103958 0.8749998438931191 0  1.124998363960722 0.8749997111879638 0  1.18749835268105 0.874999586017556 0  1.249998346835479 0.874999471162988 0  1.312498345792682 0.8749993693239639 0  1.374998348716417 0.8749992830410019 0  1.43749835462799 0.8749992145688245 0  1.499998362468134 0.8749991656999083 0  1.562498371152521 0.8749991375392224 0  1.624998379610456 0.8749991302534812 0  1.687498386831495 0.8749991428262915 0  1.749998391984633 0.8749991727870459 0  1.812498394662896 0.8749992157682501 0  1.874998395204506 0.8749992646497995 0  1.937498394783008 0.8749993081617515 0  1.999998394711195 0.8749993292929159 0  0.06249873216013347 0.9375007076197235 0  -1.268017791658168e-06 0.9375006825370129 0  0.1249987325304798 0.9375007465437536 0  0.1874987325767315 0.9375007886472804 0  0.2499987314401508 0.9375008255013929 0  0.3124987282410852 0.9375008505734338 0  0.374998722189114 0.9375008590543833 0  0.4374987126362752 0.9375008478082322 0  0.4999986991562982 0.9375008153540419 0  0.5624986816449138 0.937500761763944 0  0.6249986603907675 0.9375006884236805 0  0.6874986360727504 0.937500597688
[...]
<PointData  Scalars="p"> 
<DataArray  type="Float64"  Name="p"  format="ascii">0.0000000000000000e+00  -7.7643215542442471e-04  -8.1502113728896142e-04  0.0000000000000000e+00  -1.3603802563645537e-03  -1.3854206341969335e-03  -1.7734398479382837e-03  -1.7795071797526846e-03  -2.0431154033118408e-03  -2.0340978501611189e-03  -2.1940331764041159e-03  -2.1747479713468826e-03  -2.2466265409249891e-03  -2.2210665203505758e-03  -2.2173222971589345e-03  -2.1886098365992640e-03  -2.1196569182875039e-03  -2.0901349914501624e-03  -1.9648712914174019e-03  -1.9363728843905599e-03  -1.7628281440564262e-03  -1.7366740606255991e-03  -1.5220574757943317e-03  -1.4992911894611072e-03  -1.2502932529551011e-03  -1.2316848249663691e-03  -9.5475888045801292e-04  -9.4076584061676867e-04  -6.4186583490469934e-04  -6.3282739182899251e-04  -3.1759213587543531e-04  -3.1371113225058043e-04  1.2443918496006699e-05  1.1028452344842480e-05  3.4271320673936784e-04  3.3591844121971494e-04  6.6708712011457163e-04  6.5523936400347000e-04  9.8032834294060857e-04  9.6352844753717112e-04  1.2764914607345905e-03  1.2549999995961098e-03  1.5485111844861102e-03  1.5230701412161168e-03  1.7897455545202133e-03  1.7609976542557984e-03  1.9923744177953785e-03  1.9612974009241423e-03  2.1470265642372375e-03  2.1152978955896835e-03  2.2443333650278680e-03  2.2137645159969500e-03  2.2730499128026187e-03  2.2460988570537641e-03  2.2192173946427381e-03  2.1994737935779819e-03  2.0671909955358937e-03  2.0588302616220910e-03  1.7971940773138708e-03  1.8049884850993249e-03  1.3838777190825623e-03  1.4112955251813081e-03  7.9731999350573059e-04  8.3667082766094431e-04  0.0000000000000000e+00  0.0000000000000000e+00  -8.8834336279217151e-04  0.0000000000000000e+00  -1.4493792497999669e-03  -1.8119650939592386e-03  -2.0355178612399653e-03  -2.1520105898582332e-03  -2.1817287993759135e-03  -2.1392906729817891e-03  -2.0362184049414916e-03  -1.8821413196342296e-03  -1.6854449049563231e-03  -1.4536239076067918e-03  -1.1935109742280770e-03  -9.1142698747096482e-04  -6.1323518118244942e-04  -3.0444624537313044e-04  9.6541378759460620e-06  3.2385450436158802e-04  6.3287930886567775e-04  9.3144692325144974e-04  1.2140410602166742e-03  1.4746947805823402e-03  1.7070901179967236e-03  1.9043450290130673e-03  2.0588104962290352e-03  2.1621204153029721e-03  2.2047558588654836e-03  2.1753207417730368e-03  2.0594817539793266e-03  1.8369814491612008e-03  1.4745672148235649e-03  9.0858850320216038e-04  0.0000000000000000e+00  -9.6767756531331093e-04  0.0000000000000000e+00  -1.5344463679811198e-03  -1.8722747684610862e-03  -2.0640809052394379e-03  -2.1519821922289183e-03  -2.1596024309284865e-03  -2.1019768622298940e-03  -1.9899606981248551e-03  -1.8322133462545759e-03  -1.6361334026850553e-03  -1.4083273880552117e-03  -1.1548442321733972e-03  -8.8130608421044298e-04  -5.9299520309489227e-04  -2.9493856583217800e-04  8.0030298861221579e-06  3.1103671432813939e-04  6.0935081114080756e-04  8.9807165047321421e-04  1.1721474190729657e-03  1.4262408042054248e-03  1.6546915759778332e-03  1.8514048532885397e-03  2.0097212903979686e-03  2.1222668902158319e-03  2.1804923707785884e-03  2.1737080066220262e-03  2.0870421946767260e-03  1.8966887713536165e-03  1.5591685336809786e-03  9.8748708279822119e-04  0.0000000000000000e+00  -1.0504583955350667e-03  0.0000000000000000e+00  -1.6350134546397267e-03  -1.9578521343449717e-03  -2.1224833966318564e-03  -2.1821172462375828e-03  -2.1654261556675212e-03  -2.0892108773161813e-03  -1.9644965191944670e-03  -1.7994191128495218e-03  -1.6006025157789291e-03  -1.3738311144461347e-03  -1.1243636651766078e-03  -8.5709346700281821e-04  -5.7665473090486030e-04  -2.8750014604720254e-04  6.0360084573076169e-06  2.9967293174839113e-04  5.8912181448341231e-04  8.7003180385013094e-04  1.1379236373163847e-03  1.3881194964529416e-03  1.6156838120826521e-03  1.8153244414141150e-03  1.9812460311620676e-03  2.1068694173182224e-03  2.1841745861271959e-03  2.2022967901729742e-03  2.1445275885458998e-03  1.9818979463670939e-03  1.6597505751976269e-03  1.0704449594946671e-03  0.0000000000000000e+00  -1.1398474550703577e-03  0.0000000000000000e+00  -1.7513470316319211e-03  -2.0672152532332008e-03  -2.2095626352255852e-03  -2.2426278909738846e-03  -2.2009308118116889e-03  -2.1039347558980291e-03  -1.9635359999324868e-03  -1.7878116221952815e-03  -1.5828862273315114e-03  -1.3538664472868647e-03  -1.1052846154920169e-03  -8.4132219982562526e-04  -5.6594613889515363e-04  -2.8298993779390832e-04  3.7960383642390429e-06  2.9070043476780928e-04  5.7400547774062196e-04  8.4994540708478858e-04  1.1146597360981903e-03  1.3641451708309492e-03  1.5941806435403520e-03  1.8002100329516544e-03  1.9771364620951733e-03  2.1188927821647447e-03  2.2175192873412808e-03  2.2612677423885720e-03  2.2307236193546262e-03  2.0909957868245868e-03  1.7763057779510262e-03  1.1602615616033275e-03  0.0000000000000000e+00  -1.2395121482215229e-03  0.0000000000000000e+00  -1.8854115959485974e-03  -2.1998655881578012e-03  -2.3233661850931330e-03  -2.3312036577357296e-03  -2.2641164589764125e-03  -2.1447281939014607e-03  -1.9862606867946473e-03  -1.7970769302794697e-03  -1.5830347362066159e-03  -1.3487054388650027e-03  -1.0979743163601330e-03  -8.3434762521857660e-04  -5.6113044505790380e-04  -2.8152142132521128e-04  1.3410390863076681e-06  2.8434551799307858e-04  5.6437544446607645e-04  8.3827648279443377e-04  1.1028261564808510e-03  1.3546845435531041e-03  1.5903108440758556e-03  1.8058009746094259e-03  1.9965990496714041e-03  2.1569103713816895e-03  2.2784876381830672e-03  2.3482437886452119e-03  2.3435789551728078e-03  2.2233415225825573e-03  1.9106226030612598e-03  1.2604591146564105e-03  0.0000000000000000e+00  -1.3523002372262830e-03  0.0000000000000000e+00  -2.0389517821321791e-03  -2.3553546677128464e-03  -2.4616452391834666e-03  -2.4446059073473855e-03  -2.3514613020023242e-03  -2.2082450991304228e-03  -2.0297379723627253e-03  -1.8247818287203477e-03  -1.5991115852460091e-03  -1.3568619442346705e-03  -1.1013343436393481e-03  -8.3539553741243796e-04  -5.6170369349928045e-04  -2.8282292285063056e-04  -1.2717034203855734e-06  2.8045053063165040e-04  5.5983870182179925e-04  8.3435965324384922e-04  1.1014243336277727e-03  1.3583432264179134e-03  1.6022142462886141e-03  1.8297182038478350e-03  2.0367355611043336e-03  2.2175898679273410e-03  2.3635503784555909e-03  2.4599664038489825e-03  2.4808175305406155e-03  2.3784522601823796e-03  2.0644147405654025e-03  1.3738737219055267e-03  0.0000000000000000e+00  -1.4798406915420665e-03  0.0000000000000000e+00  -2.2125831142332463e-03  -2.5324720885713764e-03  -2.6215655484941448e-03  -2.5789663588607881e-03  -2.4586650396533744e-03  -2.2902159110932403e-03  -2.0900235312253670e-03  -1.8674648742574766e-03  -1.6282003275277528e-03  -1.3759701547939028e-03  -1.1135248726454633e-03  -8.4311562648020655e-04  -5.6676946713555990e-04  -2.8642516642810712e-04  -3.9859670445253128e-06  2.7865729333659452e-04  5.5960868054315738e-04  8.3694918111505896e-04  1.1087159150721701e-03  1.3728469282368572e-03  1.6270567245514065e-03  1.8685714652547719e-03  2.0936588978390336e-03  2.2967103664504832e-03  2.4684527030391793e-03  2.5926092416327000e-03  2.6396517177782004e-03  2.5551693012775024e-03  2.2383505632838346e-03  1.5021761567605139e-03  0.0000000000000000e+00  -1.6223092981306031e-03  0.0000000000000000e+00  -2.4052491226696495e-03  -2.7286207725694374e-03  -2.7992580544102001e-03  -2.7296283682533055e-03  -2.5807757914419506e-03  -2.3857813445598264e-03  -2.1626174394382552e-03  -1.9211388484957565e-03  -1.6669001528264113e-03  -1.4032345826552124e-03  -1.1323446449851000e-03  -8.5587607218082901e-04  -5.7523833774775473e-04  -2.9175974236346172e-04  -6.7433353929008534e-06  2.7851410500537988e-04  5.6271018503895910e-04  8.4452605602040258e-04  1.1226062235026475e-03  1.3955051241745114e-03  1.6615343048117502e-03  1.9184644263105029e-03  2.1629576319529701e-03  2.3894979301892871e-03  2.5883279458222999e-03  2.7416085833492695e-03  2.8163028051799190e-03  2.7509828089075468e-03  2.4314405860101146e-03  1.6455783877675440e-03  0.0000000000000000e+00  -1.7781780915510595e-03  0.0000000000000000e+00  -2.6137867119132791e-03  -2.9393262385375330e-03  -2.9893983481656754e-03  -2.8908899850075241e-03  -2.7121023549746149e-03  -2.4895578325660021e-03  -2.2426296216537986e-03  -1.9815162496784507e-03  -1.7115691277082396e-03  -1.4356646620930296e-03  -1.1554364182693583e-03  -8.7192624312652962e-04  -5.8593979120396785e-04  -2.9821573785680403e-04  -9.4815175984493775e-06  2.7953384104522933e-04  5.6809571831728609e-04  8.5545948946121769e-04  1.1408573509093468e-03  1.4234402995682990e-03  1.7021195975475344e-03  1.9752194716328815e-03  2.2398505207906557e-03  2.4906800876562949e-03  2.7175997316609053e-03  2.9013729920292909e-03  3.0055542346830158e-03  2.9614952346801470e-03  2.6405582087751789e-03  1.8025396905798807e-03  0.0000000000000000e+00  -1.9439296865039280e-03  0.0000000000000000e+00  -2.8325534739542012e-03  -3.1578607629587432e-03  -3.1849068149650251e-03  -3.0557956686118929e-03  -2.8461292737472911e-03  -2.5956404939745537e-03  -2.3248637166728933e-03  -2.0441322056566980e-03  -1.7584694997978205e-03  -1.4702179254940362e-03  -1.1804160852136359e-03  -8.8950186228916380e-04  -5.9769703136406836e-04  -3.0518074049709686e-04  -1.2140615585893343e-05  2.8122383980182486e-04  5.7470708066047996e-04  8.6810313936944476e-04  1.1611996795854096e-03  1.4537266602280077e-03  1.7451859484121899e-03  2.0344894182849514e-03  2.3192554844255744e-03  2.5944712633937006e-03  2.8498688059627538e-03  3.0650614929319739e-03  3.2004124409387340e-03  3.1800243953821919e-03  2.8600309339693051e-03  1.9694594500183362e-03  0.0000000000000000e+00  -2.1137883121345653e-03  0.0000000000000000e+00  -3.0531369311416734e-03  -3.3750206690609619e-03  -3.3767884356844086e-03  -3.2160685678955235e-03  -2.9755002779489532e-03  -2.6976596427043206e-03  -2.4038966065185966e-03  -2.1044568806881797e-03  -1.8038793416034473e-03  -1.5039104441369831e-03  -1.2049684042767439e-03  -9.0690300120121179e-04  -6.0938369871189392e-04  -3.1207444595229665e-04  -1.4672672806616626e-05  2.8309945702401144e-04  5.8151335648306765e-04  8.8085126230431823e-04  1.1814128649390752e-03  1.4834714461146069e-03  1.7871094862001345e-03  2.0918356307926592e-03  2.3958552383712300e-03  2.6945996152345246e-03  2.9778837592436156e-03  3.2244806407150674e-03  3.3919362793004659e-03  3.3973471687811594e-03  3.0813361695762173e-03  2.1403880424569160e-03  0.0000000000000000e+00  -2.2795303122994416e-03  0.0000000000000000e+00  -3.2642239294468217e-03  -3.5790815660244166e-03  -3.5541743947877114e-03  -3.3621837638265605e-03  -3.0921365877714878e-03  -2.7888855368142637e-03  -2.4742066465293293e-03  -2.1579954145064489e-03  -1.8441954497368425e-03  -1.5338972832906689e-03  -1.2269161747698624e-03  -9.2254604676409693e-04  -6.1996097699786642e-04  -3.1837088956271863e-04  -1.7049440198645153e-05  2.8469114288478051e-04  5.8753145733475868e-04  8.9217592816402322e-04  1.1993726170001055e-03  1.5098854628734729e-03  1.8243352037261888e-03  2.1428255053997621e-03  2.4641777289639362e-03  2.7844041614297948e-03  3.0936170085238161e-03  3.3701469043587126e-03  3.5692450191171098e-03  3.6016447371806279e-03  3.2929520192156239e-03  2.3068329301865506e-03  0.0000000000000000e+00  -2.4304739612398306e-03  0.0000000000000000e+00  -3.4517231548864425e-03  -3.7560355626304878e-03  -3.7046093274886232e-03  -3.4836665499472096e-03  -3.1874927448249301e-03  -2.8624616055984006e-03  -2.5303312962158269e-03  -2.2004330116312228e-03  -1.8760188640699704e-03  -1.5575466428689364e-03  -1.2442656730030893e-03  -9.3499792580313383e-04  -6.2849939183325446e-04  -3.2361228944125187e-04  -1.9269205454122897e-05  2.8554400242874833e-04  5.9183401671491695e-04  9.0064283702454245e-04  1.2130836354434101e-03  1.5303261810832712e-03  1.8534601483623711e-03  2.1831235625585934e-03  2.5187568424336216e-03  2.8570075525832191e-03  3.1885082630666545e-03  3.4915432850854211e-03  3.7197937099456412e-03  3.7787314971222158e-03  3.4804891417542132e-03  2.4577626033281696e-03  0.0000000000000000e+00  -2.5537502486343588e-03  0.0000000000000000e+00  -3.5992529627081166e-03  -3.8901841230983411e-03  -3.8146391523874328e-03  -3.5696178276529936e-03  -3.2529838341717027e-03  -2.9117175073335145e-03  -2.5671067977950943e-03  -2.2277640051964302e-03  -1.8962591268384900e-03  -1.5724798331684618e-03  -1.2552371243827920e-03  -9.4298588329089824e-04  -6.3418588245153058e-04  -3.2741380517164754e-04  -2.1363088309420122e-05  2.8521047670126813e-04  5.9354173700338275e-04  9.0491046190303891e-04  1.2206864966356093e-03  1.5423357201764865e-03  1.8712935468162659e-03  2.2086312942382448e-03  2.5543138019613579e-03  2.9056279897769310e-03  3.2538497400943557e-03  3.5776316505586239e-03  3.8299555359588414e-03  3.9126585942160482e-03  3.6272130860382375e-03  2.5799116466590057e-03  0.0000000000000000e+00  -2.6349195231062236e-03  0.0000000000000000e+00  -3.6890399831273290e-03  -3.9650714636698886e-03  -3.8706434938028684e-03  -3.6093597672093350e-03  -3.2804499335891491e-03  -2.9304516728404302e-03  -2.5798061164736649e-03  -2.2363524906200347e-03  -1.9020944283406039e-03  -1.5765278826795168e-03  -1.2581858614007302e-03  -9.4533371797275083e-04  -6.3626743427576242e-04  -3.2942886965407607e-04  -2.3381683090748376e-05  2.8324053120038363e-04  5.9179505326966103e-04  9.0368495467052186e-04  1.2204145193517770e-03  1.5435986761000325e-03  1.8748653180493857e-03  2.2155324897910359e-03  2.5659310081502761e-03  2.9238561637694050e-03  3.2812562068166517e-03  3.6175018744822865e-03  3.8858501218880358e-03  3.9866623570547636e-03  3.7149664547667708e-03  2.6584370717037476e-03  0.0000000000000000e+00  -2.6589428899253735e-03  0.0000000000000000e+00  -3.7031724008285928e-03  -3.9646524337546996e-03  -3.8597420637967103e-03  -3.5930282600414054e-03  -3.2624374381118064e-03  -2.9129880083156499e-03  -2.5640112230585527e-03  -2.2226950788641407e-03  -1.8907133460346064e-03  -1.5674322601685205e-03  -1.2513539457585251e-03  -9.4073805701163965e-04  -6.3389080423674113e-04  -3.2924601959808417e-04  -2.5358092745945591e-05  2.7915543438150739e-04  5.8566402006284804e-04  8.9557906288405134e-04  1.2104008301166017e-03  1.5317380098451576e-03  1.8612045268174204e-03  2.2001407835856748e-03  2.5489704011281296e-03  2.9057533393640400e-03  3.2629884771157693e-03  3.6009770398521294e-03  3.8742689965585724e-03  3.9843537452920663e-03  3.7254626524787712e-03  2.6779457229486646e-03  0.0000000000000000e+00  -2.6114272080090704e-03  0.0000000000000000e+00  -3.6250417622758265e-03  -3.8744448509553222e-03  -3.7704652147728538e-03  -3.5117623873719265e-03  -3.1919847917525920e-03  -2.8536642682758986e-03  -2.5149591242565115e-03  -2.1826901750857013e-03  -1.8585812159924641e-03  -1.5422023404501539e-03  -1.2322917283264555e-03  -9.2732625505155661e-04  -6.2577396877925499e-04  -3.2619843725468730e-04  -2.7249067645825979e-05  2.7236954363322991e-04  5.7394065864124831e-04  8.7877110470449755e-04  1.1882318052474227e-03  1.5037542820490937e-03  1.8267364161889165e-03  2.1582584507640681e-03  2.4985066279537183e-03  2.8454388460433981e-03  3.1917987699269282e-03  3.5188630921444007e-03  3.7833954481294361e-03  3.8909112723238930e-03  3.6417892292199285e-03  2.6238045971031937e-03  0.0000000000000000e+00  -2.4798423744293190e-03  0.0000000000000000e+00  -3.4404626086473617e-03  -3.6820014093215466e-03  -3.5924412264851991e-03  -3.3566971475899377e-03  -3.0611473847308324e-03  -2.7450982175064435e-03  -2.4257166635984549e-03  -2.1098993786922175e-03  -1.7998551415385929e-03  -1.4957197526642219e-03  -1.1967307368237895e-03  -9.0176129165101915e-04  -6.0958889444773679e-04  -3.1900464540106545e-04  -2.8847132890440453e-05  2.6201370734695023e-04  5.5469032578830426e-04  8.5029903101003904e-04  1.1499689135396744e-03  1.4548228990277135e-03  1.7658438033756195e-03  2.0835955565493033e-03  2.4076713426233348e-03  2.7354809756187691e-03  3.0595821305224409e-03  3.3620432712266959e-03  3.6025498378587525e-03  3.6936012849670364e-03  3.4495699928988408e-03  2.4834056768534996e-03  0.0000000000000000e+00  -2.2540798265855110e-03  0.0000000000000000e+00  -3.1373965057862386e-03  -3.3753174251766912e-03  -3.3135775334988309e-03  -3.1152794679043254e-03  -2.8568656218444519e-03  -2.5740021339035898e-03  -2.2832013443317149e-03  -1.9919079850717275e-03  -1.7032091103513271e-03  -1.4180707264135196e-03  -1.1364055051080659e-03  -8.5760282806567002e-04  -5.8082130154637058e-04  -3.0515054359000495e-04  -2.9669624551060032e-05  2.4652828900317044e-04  5.2433356469029028e-04  8.0461157785634751e-04  1.0881909221093294e-03  1.3757961437279641e-03  1.6678841128678792e-03  1.9643195065874152e-03  2.2638272704608828e-03  2.5628898894125281e-03  2.8534118273418189e-03  3.1179310977967551e-03  3.3195024288527691e-03  3.3802964466800693e-03  3.1367745411313565e-03  2.2467889883728870e-03  0.0000000000000000e+00  -1.9250724346994415e-03  0.0000000000000000e+00  -2.7020709896488039e-03  -2.9364122570777647e-03  -2.9117961336166602e-03  -2.7621121895046708e-03  -2.5517301867907720e-03  -2.3124093279878930e-03  -2.0602106687505829e-03  -1.8033279248982482e-03  -1.5458318663016894e-03  -1.2895555399612400e-03  -1.0350801868450393e-03  -7.8229517181127952e-04  -5.3074216350123540e-04  -2.7981088302180088e-04  -2.8843986466527806e-05  2.2282168210531591e-04  4.7582837194725351e-04  7.3077794375497472e-04  9.8818731457230675e-04  1.2483935021528633e-03  1.5113330425335094e-03  1.7761752778604337e-03  2.0407469204089417e-03  2.3004882675337446e-03  2.5464649865212909e-03  2.7615351280643671e-03  2.9124696323771992e-03  2.9333323250603795e-03  2.6901256404143529e-03  1.9054797808337315e-03  0.0000000000000000e+00  -1.4785292539260563e-03  0.0000000000000000e+00  -2.1063881852663776e-03  -2.3239996124593842e-03  -2.3353050955958275e-03  -2.2388736585897567e-03  -2.0849263571686128e-03  -1.9003713948394787e-03  -1.7001375980867386e-03  -1.4925779812637908e-03  -1.2822484688858025e-03  -1.0714590619027055e-03  -8.6119021517696355e-04  -6.5166159753251164e-04  -4.4269665520576759e-04  -2.3394487073773022e-04  -2.4993787065165994e-05  1.8457531110977631e-04  3.9516369749564270e-04  6.0712776508156869e-04  8.2073115649894965e-04  1.0360249115488251e-03  1.2526116378661978e-03  1.4692508050283008e-03  1.6832670895172120e-03  1.8895821806648779e-03  2.0790577625885084e-03  2.2356316433914743e-03  2.3308712970868343e-03  2.3129734412447242e-03  2.0835629090750936e-03  1.4471938369220020e-03  0.0000000000000000e+00  -8.7610563462589531e-04  0.0000000000000000e+00  -1.2746400584935731e-03  -1.4324213859188875e-03  -1.4597374365624366e-03  -1.4134216822308107e-03  -1.3250774073352003e-03  -1.2131179285506187e-03  -1.0884491309873323e-03  -9.5744794706319712e-04  -8.2369148457467291e-04  -6.8903565533946841e-04  -5.5430614026962205e-04  -4.1974952246600039e-04  -2.8532305131509901e-04  -1.5086407418585262e-04  -1.6177695252941093e-05  1.1893013647625239e-04  2.5464015742135057e-04  3.9110964780261006e-04  5.2843652653260622e-04  6.6657063314123422e-04  8.0512483032052962e-04  9.4306215991818790e-04  1.0782233224311932e-03  1.2065838207533475e-03  1.3210972728720336e-03  1.4099020732884135e-03  1.4533075564864865e-03  1.4183757779385180e-03  1.2484292848513178e-03  8.4117690299272845e-04  0.0000000000000000e+00  0.0000000000000000e+00  0.0000000000000000e+00  0.0000000000000000e+00  0.0000000000000000e+00  0.0000000000000000e+00  0.0000000000000000e+00  0.0000000000000000e+00  0.0000000000000000e+00  0.0000000000000000e+00  0.0000000000000000e+00  0.0000000000000000e+00  0.0000000000000000e+00  0.0000000000000000e+00  0.0000000000000000e+00  0.0000000000000000e+00  0.0000000000000000e+00  0.0000000000000000e+00  0.0000000000000000e+00  0.0000000000000000e+00  0.0000000000000000e+00  0.0000000000000000e+00  0.0000000000000000e+00  0.000000