<?xml version="1.0"?>
<VTKFile type="UnstructuredGrid"  version="0.1"  >
<UnstructuredGrid>
<Piece  NumberOfPoints="825" NumberOfCells="1536">
<Points>
<DataArray  type="Float64"  NumberOfComponents="3"  format="ascii">-1.044898132288326e-21 0.5 0  0.06250000000243675 0.499999999967886 0  0.06249999916975534 0.5625000008982448 0  -2.218875618428628e-09 0.5625000000581112 0  0.1249999999380666 0.4999999997304685 0  0.1249999996340208 0.5625000006201839 0  0.1874999996818537 0.4999999992319034 0  0.1874999995691543 0.5624999999365656 0  0.2499999992534975 0.4999999986099852 0  0.2499999991881648 0.5624999991113604 0  0.3124999986374267 0.4999999978568436 0  0.3124999985500241 0.5624999980780507 0  0.3749999973084256 0.4999999964035815 0  0.3749999975854413 0.5624999968449125 0  0.4374999959679363 0.4999999952289889 0  0.4374999965415223 0.5624999957822864 0  0.4999999947580855 0.4999999942551674 0  0.4999999956072216 0.5624999947957692 0  0.5624999935297699 0.4999999929015457 0  0.5624999948591746 0.5624999940193028 0  0.6249999936451719 0.4999999931021487 0  0.6249999946160997 0.5624999940305399 0  0.6874999945151001 0.4999999939973068 0  0.6874999948624319 0.5624999942553113 0  0.7499999945750817 0.49999999331691 0  0.7499999951594966 0.5624999942354024 0  0.8124999953918913 0.4999999939126141 0  0.8124999956895699 0.562499994598456 0  0.8749999965903851 0.4999999946936521 0  0.8749999963949531 0.5624999948528335 0  0.9374999967721055 0.4999999938404182 0  0.9374999969535767 0.5624999947942495 0  0.9999999977071796 0.4999999944320837 0  0.9999999976112851 0.5624999951102307 0  1.062499998826317 0.4999999950884231 0  1.062499998311698 0.5624999952811728 0  1.12499999880972 0.4999999941730064 0  1.124999998775077 0.5624999951384494 0  1.187499999459622 0.4999999945990862 0  1.187499999251578 0.5624999953667298 0  1.25000000034108 0.4999999952661761 0  1.249999999717918 0.5624999955150773 0  1.312500000053105 0.499999994428824 0  1.312499999902438 0.5624999953992801 0  1.37500000031087 0.4999999948603553 0  1.3750000000392 0.5624999956502396 0  1.437500000637706 0.4999999954231245 0  1.437500000108353 0.5624999958852033 0  1.500000000092415 0.4999999950428483 0  1.499999999892667 0.5624999961185587 0  1.562499999998057 0.4999999961669512 0  1.562499999663879 0.5624999968943747 0  1.625000000140487 0.4999999976021575 0  1.624999999497109 0.5624999977681366 0  1.68749999998746 0.4999999982188459 0  1.687499999245564 0.562499998548424 0  1.750000000136315 0.4999999991783491 0  1.749999999035494 0.5624999994506783 0  1.812500000344419 0.4999999998406728 0  1.812499998846182 0.5625000002575868 0  1.875000000315785 0.4999999999894314 0  1.874999998562909 0.5625000010864907 0  1.937500000245749 0.5000000001562411 0  1.937499998491025 0.5625000022494048 0  2 0.5 0  2.000000000812862 0.5625000032914463 0  0.06249999855723895 0.6250000009801577 0  -2.389216807957513e-09 0.6250000004420665 0  0.1249999990983139 0.6250000008121159 0  0.1874999992077154 0.6250000002113887 0  0.2499999989778518 0.6249999993859447 0  0.3124999984882884 0.6249999984061462 0  0.3749999977830174 0.6249999973596003 0  0.437499996984818 0.6249999963842299 0  0.4999999962348414 0.6249999955413457 0  0.5624999956214944 0.6249999949497441 0  0.6249999952786047 0.6249999947385252 0  0.6874999952649737 0.6249999947550676 0  0.7499999954559742 0.6249999948459869 0  0.8124999958105289 0.6249999950342989 0  0.8749999963056995 0.6249999952181915 0  0.937499996826196 0.6249999953515301 0  0.9999999973657427 0.6249999955216964 0  1.062499997924161 0.624999995654379 0  1.124999998408214 0.6249999957224439 0  1.187499998824769 0.624999995832153 0  1.249999999188237 0.6249999959343512 0  1.312499999420693 0.6249999960119034 0  1.37499999953215 0.6249999961707838 0  1.437499999536105 0.6249999964012476 0  1.499999999385879 0.6249999967477383 0  1.562499999142791 0.6249999973112309 0  1.624999998871835 0.6249999980197941 0  1.687499998563424 0.6249999988113373 0  1.749999998252871 0.6249999997008452 0  1.812499997978171 0.6250000006709028 0  1.874999997813753 0.6250000017679604 0  1.937499998112916 0.6250000029341177 0  1.999999999301586 0.6250000032130341 0  0.06249999825987805 0.6875000007048414 0  -2.262923915230884e-09 0.6875000003684125 0  0.1249999986649573 0.6875000006038225 0  0.1874999988117328 0.6875000001351299 0  0.2499999986928441 0.6874999994290814 0  0.3124999983486178 0.6874999985862343 0  0.3749999978342333 0.6874999976991684 0  0.4374999972331152 0.6874999968613463 0  0.4999999966391453 0.6874999961498487 0  0.5624999961358343 0.6874999956397967 0  0.6249999958065567 0.6874999953721885 0  0.6874999956943959 0.6874999952980538 0  0.7499999957724782 0.6874999953432778 0  0.8124999960054732 0.6874999954624388 0  0.8749999963565921 0.6874999956076747 0  0.9374999967713674 0.6874999957512369 0  0.9999999972179742 0.6874999958937813 0  1.062499997671731 0.6874999960195419 0  1.124999998091712 0.6874999961235664 0  1.187499998457828 0.6874999962265824 0  1.24999999875704 0.6874999963317233 0  1.312499998959966 0.687499996448573 0  1.374999999054519 0.687499996611515 0  1.437499999037318 0.6874999968478748 0  1.499999998903852 0.6874999971922766 0  1.562499998680662 0.687499997678145 0  1.624999998405122 0.6874999982982931 0  1.687499998104132 0.6874999990330942 0  1.749999997818185 0.6874999998726702 0  1.812499997608414 0.687500000797912 0  1.87499999757838 0.6875000017533606 0  1.937499997871625 0.6875000025277709 0  1.999999998367091 0.6875000027119248 0  0.06249999810742065 0.7500000002890346 0  -2.156058849406103e-09 0.75000000007169 0  0.1249999983586877 0.7500000002244177 0  0.1874999984746662 0.7499999998767671 0  0.2499999984105696 0.7499999993179978 0  0.3124999981740299 0.7499999986328979 0  0.3749999978021729 0.7499999979041159 0  0.4374999973525319 0.7499999972087148 0  0.4999999968921409 0.7499999966129512 0  0.5624999964873558 0.7499999961682795 0  0.6249999961971682 0.7499999958967027 0  0.6874999960564423 0.7499999957794875 0  0.7499999960664279 0.7499999957763028 0  0.8124999962089363 0.749999995847026 0  0.8749999964556716 0.7499999959565784 0  0.9374999967719838 0.7499999960810038 0  0.9999999971269663 0.7499999962075877 0  1.062499997492527 0.7499999963272573 0  1.124999997839857 0.7499999964379614 0  1.187499998145934 0.7499999965461551 0  1.249999998391728 0.7499999966600406 0  1.312499998558235 0.7499999967928742 0  1.374999998632759 0.7499999969660339 0  1.437499998610209 0.7499999972038607 0  1.499999998494053 0.7499999975315879 0  1.562499998302412 0.7499999979681961 0  1.624999998063822 0.7499999985167303 0  1.687499997811947 0.7499999991673366 0  1.749999997589867 0.7499999998996942 0  1.812499997452666 0.7500000006718655 0  1.874999997460162 0.7500000013959468 0  1.937499997626633 0.7500000019173567 0  1.999999997805577 0.7500000021157931 0  0.06249999799783569 0.8124999998466433 0  -2.122613529126061e-09 0.8124999996976477 0  0.1249999981351702 0.8124999998055379 0  0.1874999982050843 0.8124999995539599 0  0.2499999981611067 0.8124999991292488 0  0.3124999979947372 0.8124999985927031 0  0.3749999977253495 0.8124999980109735 0  0.4374999973908433 0.8124999974471536 0  0.4999999970389361 0.8124999969549248 0  0.5624999967191873 0.8124999965730373 0  0.6249999964752642 0.8124999963186846 0  0.6874999963359929 0.8124999961852474 0  0.7499999963106048 0.8124999961499848 0  0.8124999963920309 0.812499996184758 0  0.8749999965622711 0.8124999962631093 0  0.9374999967972663 0.8124999963644981 0  0.9999999970716108 0.8124999964751393 0  1.062499997360283 0.8124999965868167 0  1.124999997639198 0.812499996697105 0  1.187499997886967 0.8124999968091396 0  1.249999998085181 0.8124999969302578 0  1.312499998218404 0.8124999970722038 0  1.374999998276176 0.812499997251079 0  1.437499998254852 0.8124999974853108 0  1.499999998159331 0.8124999977925784 0  1.562499998004642 0.8124999981850051 0  1.624999997814764 0.8124999986644079 0  1.687499997620442 0.8124999992201097 0  1.74999999745782 0.8124999998262276 0  1.812499997363911 0.8125000004353921 0  1.874999997362051 0.8125000009733756 0  1.937499997431551 0.8125000013550379 0  1.999999997484943 0.8125000015557295 0  0.06249999788953176 0.8749999994336554 0  -2.158489038706809e-09 0.874999999321166 0  0.1249999979552107 0.8749999994110595 0  0.1874999979866891 0.8749999992325205 0  0.2499999979477386 0.8749999989173093 0  0.3124999978254431 0.8749999985073539 0  0.3749999976280318 0.8749999980531329 0  0.4374999973793458 0.8749999976043779 0  0.4999999971124659 0.8749999972037645 0  0.5624999968633327 0.8749999968820664 0  0.6249999966644612 0.8749999966545969 0  0.6874999965391801 0.8749999965208228 0  0.7499999964983672 0.8749999964682471 0  0.8124999965408578 0.8749999964783703 0  0.8749999966560762 0.8749999965319588 0  0.9374999968273614 0.8749999966125379 0  0.9999999970350485 0.8749999967079419 0  1.06249999725852 0.8749999968106474 0  1.12499999747758 0.8749999969178663 0  1.187499997673673 0.874999997031308 0  1.249999997830726 0.874999997156667 0  1.312499997935964 0.8749999973032074 0  1.374999997981188 0.8749999974830001 0  1.437499997964186 0.8749999977092628 0  1.499999997889933 0.8749999979937663 0  1.562499997771125 0.8749999983434334 0  1.624999997627379 0.874999998756918 0  1.687499997483254 0.8749999992218608 0  1.749999997365011 0.8749999997124729 0  1.812499997294483 0.875000000188071 0  1.874999997278613 0.875000000597064 0  1.937499997298346 0.8750000008953072 0  1.999999997313364 0.8750000010819532 0  0.06249999776899894 0.937499999073618 0  -2.246992402590478e-09 0.9374999989781944 0  0.1249999977949732 0.9374999990674243 0  0.187499997801408 0.937499998944119 0  0.2499999977636283 0.9374999987143601 0  0.312499997669963 0.9374999984065675 0  0.3749999975230866 0.9374999980577462 0  0.4374999973376074 0.9374999977059439 0  0.4999999971359649 0.9374999973846251 0  0.5624999969437363 0.9374999971186402 0  0.6249999967849336 0.9374999969218604 0  0.6874999966779441 
[...]
<PointData  Scalars="p"> 
<DataArray  type="Float64"  Name="p"  format="ascii">0.0000000000000000e+00  -8.6723592267876446e-07  -9.2794229912115045e-07  0.0000000000000000e+00  -1.4778095241221109e-06  -1.5263398550324176e-06  -1.8659423010944821e-06  -1.8934054644725394e-06  -2.0789870604021361e-06  -2.0897111843990762e-06  -2.1590694363080823e-06  -2.1589361958771355e-06  -2.1401258440027882e-06  -2.1338133286474833e-06  -2.0481442093732748e-06  -2.0389472905576322e-06  -1.9026854374026666e-06  -1.8928331632080845e-06  -1.7188655864446437e-06  -1.7096123951605050e-06  -1.5081343289336154e-06  -1.5000614114179855e-06  -1.2788402799494931e-06  -1.2721577242538700e-06  -1.0369022995168842e-06  -1.0316463213382599e-06  -7.8657100915042743e-07  -7.8266426072375566e-07  -5.3069718276929205e-07  -5.2813963057577821e-07  -2.7166503769064646e-07  -2.7034731051651870e-07  -1.1152927435937314e-08  -1.1029477929428950e-08  2.4960310970387433e-07  2.4842674027180974e-07  5.0899946370088861e-07  5.0648589950707186e-07  7.6532325029819971e-07  7.6138280191297584e-07  1.0165101778137677e-06  1.0109532496797161e-06  1.2593227270523673e-06  1.2521161166823097e-06  1.4895189602044514e-06  1.4807144753751328e-06  1.7014108752204671e-06  1.6911776103022695e-06  1.8867430845651328e-06  1.8757533177229639e-06  2.0345007089547304e-06  2.0240423958785707e-06  2.1301360900142645e-06  2.1223220148935448e-06  2.1539673664753926e-06  2.1522597782379380e-06  2.0801782894882259e-06  2.0895124844704612e-06  1.8750860492332773e-06  1.9014428331091855e-06  1.4952981933571178e-06  1.5429183807670176e-06  8.8907679940669249e-07  9.4760112289358808e-07  0.0000000000000000e+00  0.0000000000000000e+00  -1.0463303900242024e-06  0.0000000000000000e+00  -1.6412913066835019e-06  -1.9726517853304607e-06  -2.1333986346956619e-06  -2.1759487021018075e-06  -2.1334598739096312e-06  -2.0286676197419747e-06  -1.8779804274032619e-06  -1.6936620213470768e-06  -1.4850167789383700e-06  -1.2590446116271221e-06  -1.0209248397518985e-06  -7.7447374949372388e-07  -5.2251864957215442e-07  -2.6724374758435410e-07  -1.0391351172427891e-08  2.4654092763087931e-07  5.0201369942576879e-07  7.5426942306015084e-07  1.0011413109510162e-06  1.2397577149017251e-06  1.4663084230395367e-06  1.6757333913771279e-06  1.8612351685120017e-06  2.0137866571500666e-06  2.1214236169768821e-06  2.1679933390528154e-06  2.1310180680498334e-06  1.9773154360895231e-06  1.6531609983308984e-06  1.0608008142992255e-06  0.0000000000000000e+00  -1.1746838334734826e-06  0.0000000000000000e+00  -1.7837829635300007e-06  -2.0859627202827763e-06  -2.2090041239971638e-06  -2.2189288863612045e-06  -2.1524613548246382e-06  -2.0319001618242287e-06  -1.8719750959917930e-06  -1.6830978402633019e-06  -1.4729714381632422e-06  -1.2474004404808928e-06  -1.0107594522369522e-06  -7.6636006484802774e-07  -5.1674713257800103e-07  -2.6393547019220358e-07  -9.5882732961455441e-09  2.4481118899183577e-07  4.9776787692271975e-07  7.4760854088644349e-07  9.9231766600206267e-07  1.2293407632879821e-06  1.4553855046285772e-06  1.6661602483173219e-06  1.8560112369575235e-06  2.0174383380760071e-06  2.1402683761071786e-06  2.2100444854167240e-06  2.2047380793266210e-06  2.0876350291512073e-06  1.7917213678632763e-06  1.1854811119089243e-06  0.0000000000000000e+00  -1.2997154180348218e-06  0.0000000000000000e+00  -1.9336862367930658e-06  -2.2163520399436661e-06  -2.3061573171072527e-06  -2.2835995189674787e-06  -2.1908354035906416e-06  -2.0511890976432522e-06  -1.8785762263498746e-06  -1.6820136687106519e-06  -1.4678067088233998e-06  -1.2405964568431591e-06  -1.0038872249531946e-06  -7.6038523581671199e-07  -5.1223699137716247e-07  -2.6119657181161197e-07  -8.7574810895542290e-09  2.4371792168934351e-07  4.9486269313075912e-07  7.4317807456120360e-07  9.8690775908545219e-07  1.2239085729390379e-06  1.4514933619700591e-06  1.6662165074684254e-06  1.8635485061671802e-06  2.0373423682321331e-06  2.1787883350943022e-06  2.2742429736969879e-06  2.3006702414294671e-06  2.2159892769399818e-06  1.9389634442835192e-06  1.3080797883955290e-06  0.0000000000000000e+00  -1.4171242612449062e-06  0.0000000000000000e+00  -2.0808165064251546e-06  -2.3516844384250597e-06  -2.4141322108534734e-06  -2.3620398848244492e-06  -2.2435054448544826e-06  -2.0837557186644820e-06  -1.8966467491268837e-06  -1.6903295324128065e-06  -1.4700336753761142e-06  -1.2393978457990494e-06  -1.0011057585380774e-06  -7.5724166704205316e-07  -5.0950233769124819e-07  -2.5931869781844819e-07  -7.9446082376338924e-09  2.4345522808793413e-07  4.9371419593039705e-07  7.4157452311256352e-07  9.8560601159038708e-07  1.2241171077016778e-06  1.4550418044307513e-06  1.6757389250923763e-06  1.8826547676792649e-06  2.0706926134482275e-06  2.2318895004968651e-06  2.3526502852019580e-06  2.4080402892420689e-06  2.3500863526808377e-06  2.0843400682315921e-06  1.4237920845260715e-06  0.0000000000000000e+00  -1.5248335549648992e-06  0.0000000000000000e+00  -2.2193091922541103e-06  -2.4835977641143420e-06  -2.5240864215091272e-06  -2.4463574931479380e-06  -2.3041616149868668e-06  -2.1249499885554476e-06  -1.9229932996689396e-06  -1.7060017859102513e-06  -1.4784446136373657e-06  -1.2431595767639150e-06  -1.0021184692430323e-06  -7.5682665959653898e-07  -5.0853088055024920e-07  -2.5831556876529741e-07  -7.1580879297325689e-09  2.4401847199413716e-07  4.9428922314777639e-07  7.4267474341096341e-07  9.8809060353975609e-07  1.2292978642650795e-06  1.4648050490539652e-06  1.6926742290250854e-06  1.9101357954935420e-06  2.1128330015635104e-06  2.2932264555846453e-06  2.4372898440864109e-06  2.5178501359562686e-06  2.4813029468914384e-06  2.2216247372973461e-06  1.5302029511060807e-06  0.0000000000000000e+00  -1.6212202262742309e-06  0.0000000000000000e+00  -2.3451147784873106e-06  -2.6060765186227205e-06  -2.6291245315796489e-06  -2.5297968065162424e-06  -2.3668445102419565e-06  -2.1698979856741302e-06  -1.9538573205773993e-06  -1.7262717704133379e-06  -1.4911012471696867e-06  -1.2505744417311187e-06  -1.0060805395793523e-06  -7.5862112140293706e-07  -5.0902988519558542e-07  -2.5805583020857062e-07  -6.3958563091691502e-09  2.4527921417110663e-07  4.9629752778597155e-07  7.4595960926832728e-07  9.9351757857751397e-07  1.2381424355172425e-06  1.4788469206894756e-06  1.7142674385461085e-06  1.9422303420401836e-06  2.1588725540210140e-06  2.3567941119550364e-06  2.5213135462111595e-06  2.6230572417697172e-06  2.6034210224597641e-06  2.3465264967302164e-06  1.6254864182739106e-06  0.0000000000000000e+00  -1.7046991774632159e-06  0.0000000000000000e+00  -2.4550020694450235e-06  -2.7145240432897061e-06  -2.7238818368168524e-06  -2.6068763373267311e-06  -2.4264635514939617e-06  -2.2141986236201426e-06  -1.9856429868810874e-06  -1.7483346261265422e-06  -1.5059025632760603e-06  -1.2601276161683722e-06  -1.0119420057625304e-06  -7.6193410468555417e-07  -5.1058402443763079e-07  -2.5834345838327433e-07  -5.6531725446858698e-09  2.4705090079028504e-07  4.9933146871332090e-07  7.5074573421113573e-07  1.0008409623587049e-06  1.2491419742126151e-06  1.4950688936318959e-06  1.7377130036158357e-06  1.9753364064694351e-06  2.2043876308062579e-06  2.4174567413787599e-06  2.5991684430461049e-06  2.7181906052868881e-06  2.7117103179337266e-06  2.4556701227574566e-06  1.7079411949353949e-06  0.0000000000000000e+00  -1.7736898288920947e-06  0.0000000000000000e+00  -2.5462023721735054e-06  -2.8052673106102452e-06  -2.8041474750669087e-06  -2.6732518730451038e-06  -2.4788869549259231e-06  -2.2541716236475868e-06  -2.0152417258870568e-06  -1.7696813524689910e-06  -1.5209042796583641e-06  -1.2703691976649072e-06  -1.0186660665719794e-06  -7.6606349848005518e-07  -5.1276181485760684e-07  -2.5897261138398210e-07  -4.9268106209928754e-09  2.4913336078245507e-07  5.0296465235420111e-07  7.5633345135251666e-07  1.0090268308939655e-06  1.2608450312769595e-06  1.5115273816172720e-06  1.7604977591994622e-06  2.0063334210926999e-06  2.2456792723966199e-06  2.4710492035136217e-06  2.6664595973218010e-06  2.7989746357342651e-06  2.8024162152603526e-06  2.5462034752907732e-06  1.7759215595966244e-06  0.0000000000000000e+00  -1.8266857525119294e-06  0.0000000000000000e+00  -2.6163191983872662e-06  -2.8753307729493694e-06  -2.8666258491272594e-06  -2.7255559254072127e-06  -2.5209001438167601e-06  -2.2869164421712228e-06  -2.0401636599888000e-06  -1.7882666964865126e-06  -1.5344927269542446e-06  -1.2800756188253395e-06  -1.0253637618984776e-06  -7.7039935717456720e-07  -5.1518454234847009e-07  -2.5976169972622706e-07  -4.2149550256980562e-09  2.5134850606628813e-07  5.0682034443774013e-07  7.6211394077129490e-07  1.0171839662089286e-06  1.2720274008108108e-06  1.5266029256469157e-06  1.7805729646672281e-06  2.0327226700674364e-06  2.2798291607292260e-06  2.5143330366071327e-06  2.7197854946618248e-06  2.8620691376618794e-06  2.8725145129860558e-06  2.6156796028563691e-06  1.8278859960494868e-06  0.0000000000000000e+00  -1.8623393359593942e-06  0.0000000000000000e+00  -2.6633369430295947e-06  -2.9223527542040025e-06  -2.9088021901002388e-06  -2.7612837603185129e-06  -2.5501366238131067e-06  -2.3103070222565434e-06  -2.0585811711738460e-06  -1.8025848230179340e-06  -1.5454752952627190e-06  -1.2883388624366169e-06  -1.0313729237976667e-06  -7.7448549869687049e-07  -5.1756743848786077e-07  -2.6057251997361333e-07  -3.5130900245440232e-09  2.5356650269720434e-07  5.1062105086674282e-07  7.6763562658755375e-07  1.0246531460550031e-06  1.2817786405274260e-06  1.5391016475999862e-06  1.7964235638472063e-06  2.0526686648747098e-06  2.3046955299659254e-06  2.5449196143576395e-06  2.7566131103265171e-06  2.9049266916676600e-06  2.9196071982578242e-06  2.6620525863096173e-06  1.8624679089358088e-06  0.0000000000000000e+00  -1.8795319512904537e-06  0.0000000000000000e+00  -2.6856616409589033e-06  -2.9445599910384015e-06  -2.9288854490545969e-06  -2.7787214682834834e-06  -2.5650339218507325e-06  -2.3229730768204435e-06  -2.0693439419661400e-06  -1.8117047348465677e-06  -1.5531288401862092e-06  -1.2946182434027346e-06  -1.0363067610866256e-06  -7.7805983098740673e-07  -5.1974866434166535e-07  -2.6132573506683282e-07  -2.8155037424387511e-09  2.5571907808998397e-07  5.1421429140880335e-07  7.7264352376449936e-07  1.0310501322521845e-06  1.2895572521922397e-06  1.5482907386184490e-06  1.8071090134955264e-06  2.0649998450702304e-06  2.3188911733484749e-06  2.5612210567641227e-06  2.7752060568586026e-06  2.9257308919260896e-06  2.9419002205478928e-06  2.6837112460472549e-06  1.8785427999674514e-06  0.0000000000000000e+00  -1.8774193173181427e-06  0.0000000000000000e+00  -2.6821461301553970e-06  -2.9407652916891971e-06  -2.9257709560477529e-06  -2.7769063262065413e-06  -2.5647873169584683e-06  -2.3242758257130389e-06  -2.0719614592263305e-06  -1.8152728886035357e-06  -1.5572091935990580e-06  -1.2987577829027454e-06  -1.0400724494764267e-06  -7.8107245539440284e-07  -5.2170387397810853e-07  -2.6201089792980652e-07  -2.1196132999645074e-09  2.5780042385535377e-07  5.1757921544315008e-07  7.7708858886048620e-07  1.0362801138835270e-06  1.2951991321130026e-06  1.5539150084017781e-06  1.8122537361919327e-06  2.0692083374982702e-06  2.3217480750236256e-06  2.5624150549893383e-06  2.7745784085392814e-06  2.9233641738992129e-06  2.9381939516439211e-06  2.6795029349925826e-06  1.8752655093192829e-06  0.0000000000000000e+00  -1.8554364995471837e-06  0.0000000000000000e+00  -2.6520859681328812e-06  -2.9103427445127687e-06  -2.8990022884940865e-06  -2.7555677669740888e-06  -2.5492928012286764e-06  -2.3142364074790804e-06  -2.0665488723061426e-06  -1.8134532905563277e-06  -1.5579072296987785e-06  -1.3009454153779224e-06  -1.0428397254220596e-06  -7.8365973494421087e-07  -5.2352712138641512e-07  -2.6267333531054021e-07  -1.4194413530071498e-09  2.5986739272846631e-07  5.2081959113229170e-07  7.8111460972500173e-07  1.0405156889732857e-06  1.2988922662810121e-06  1.5561565588511468e-06  1.8120139757068430e-06  2.0653878293811165e-06  2.3132735421301906e-06  2.5483712629725062e-06  2.7544411904298154e-06  2.8973473667504418e-06  2.9078457585934017e-06  2.6487087966465943e-06  1.8520642564135227e-06  0.0000000000000000e+00  -1.8132581986465337e-06  0.0000000000000000e+00  -2.5951649067140176e-06  -2.8531636304184106e-06  -2.8486965660522331e-06  -2.7150403757179471e-06  -2.5190408349675988e-06  -2.2934297518264792e-06  -2.0536981552999722e-06  -1.8068159603934619e-06  -1.5557286397089043e-06  -1.3016116235304350e-06  -1.0449489335653656e-06  -7.8607133001243694e-07  -5.2537610009240007e-07  -2.6338066493558473e-07  -6.9373181529738845e-10  2.6202894602463062e-07  5.2413176499027555e-07  7.8500450353417924e-07  1.0441255319912698e-06  1.3010851298160985e-06  1.5555359876923279e-06  1.8069581123157109e-06  2.0541284747306723e-06  2.2940218811174429e-06  2.5195563108588504e-06  2.7150934781932695e-06  2.8477596157835819e-06  2.8506901583271450e-06  2.5909811266457997e-06  1.8085948990958796e-06  0.0000000000000000e+00  -1.7507016198592381e-06  0.0000000000000000e+00  -2.5113215483964189e-06  -2.7694505795804919e-06  -2.7753771427357676e-06  -2.6560779237340450e-06  -2.4749035497400767e-06  -2.2627479053887902e-06  -2.0342417552809938e-06  -1.7960809658693225e-06  -1.5512681657299189e-06  -1.3012129585173890e-06  -1.0467343384811428e-06  -7.8852890861692437e-07  -5.2737670369523067e-07  -2.6417398123462977e-07  9.3635057626132073e-11  2.6439719293724189e-07  5.2770781846304277e-07  7.8904002529209329e-07  1.0474921321476838e-06  1.3022749203806923e-06  1.5526684239638442e-06  1.7978201976379383e-06  2.0362526684609576e-06  2.2648635672749153e-06  2.4768055809229627e-06  2.6572402523520447e-06  2.7750726497436637e-06  2.7668966760845821e-06  2.5062123298897196e-06  1.7446418465480639e-06  0.0000000000000000e+00  -1.6675422068834345e-06  0.0000000000000000e+00  -2.4004891782032134e-06  -2.6594650504345988e-06  -2.6796072426867463e-06  -2.5794185318287881e-06  -2.4176492657600997e-06  -2.2228667211108015e-06  -2.0086993368725262e-06  -1.7815880223745042e-06  -1.5446928733079605e-06  -1.2997873253586938e-06  -1.0481400322459118e-06  -7.9093246727671376e-07  -5.2941967773477565e-07  -2.6496405254581331e-07  9.9723480262119408e-10  2.6698987665123367e-07  5.3154077544047673e-07  7.9321274142300321e-07  1.0506413610600423e-06  1.3025591856256144e-06  1.5477678801142012e-06  1.7849553985405932e-06  2.0122747615216503e-06  2.2264440728386022e-06  2.4208313906200924e-06  2.5815508185140453e-06  2.6797665067759368e-06  2.6566373003088357e-06  2.3942487420238854e-06  1.6599120050005758e-06  0.0000000000000000e+00  -1.5631846797253934e-06  0.0000000000000000e+00  -2.2620924698443851e-06  -2.5228602204509495e-06  -2.5611967326024943e-06  -2.4848493550925027e-06  -2.3468871796087737e-06  -2.1731344753707169e-06  -1.9761459277660772e-06  -1.7621991133090807e-06  -1.5347455001561475e-06  -1.2960593255701043e-06  -1.0479869199423945e-06  -7.9228650753467683e-07  -5.3077169998534210e-07  -2.6532963687642458e-07  2.0979627557138796e-09  2.6954605569074860e-07  5.3505027621434572e-07  7.9667129248676101e-07  1.0525182251696565e-06  1.3007709468775259e-06  1.5396498515423949e-06  1.7672696514670914e-06  1.9812727901396314e-06  2.1780687828203010e-06  2.3511649018743524e-06  2.4876965905469529e-06  2.5615078248829496e-06  2.5194081575770088e-06  2.2543562902337633e-06  1.5536846626915263e-06  0.0000000000000000e+00  -1.4360606944769579e-06  0.0000000000000000e+00  -2.0940394935777017e-06  -2.3572996260445971e-06  -2.4174610438224291e-06  -2.3691734235247115e-06  -2.2588346415810901e-06  -2.1092484704381256e-06  -1.9319307407888568e-06  -1.7331379468029732e-06  -1.5167745159051218e-06  -1.2857448525186221e-06  -1.0425625408059360e-06  -7.8963031342381165e-07  -5.2935140006867103e-07  -2.6415982845861780e-07  3.4922223829304085e-09  2.7114487255023273e-07  5.3634011417277120e-07  7.9662660760074264e-07  1.0495697167938426e-06  1.2927558549331718e-06  1.5237670315692575e-06  1.7400462155035083e-06  1.9386028033234786e-06  2.1153895237056872e-06  2.2639137353009682e-06  2.3723137037780510e-06  2.4174047955490180e-06  2.3526391851267982e-06  2.0842084548885967e-06  1.4242008782913855e-06  0.0000000000000000e+00  -1.2824768565381309e-06  0.0000000000000000e+00  -1.8906252263307363e-06  -2.1554673389358535e-06  -2.2394497348419739e-06  -2.2218639321861815e-06  -2.1416689519529217e-06  -2.0185469117701230e-06  -1.8631064757361552e-06  -1.6817434677826241e-06  -1.4789294233623139e-06  -1.2582634852072030e-06  -1.0229443470538883e-06  -7.7599486326261829e-07  -5.2036965665046981e-07  -2.5898878935032602e-07  5.2484618141481965e-09  2.6945715118295088e-07  5.3075267049381736e-07  7.8623722289651610e-07  1.0329855834649133e-06  1.2680350038021053e-06  1.4883415601705653e-06  1.6906637615181327e-06  1.8713159789119783e-06  2.0256808703970046e-06  2.1471255685801373e-06  2.2246808411166126e-06  2.2382546359444554e-06  2.1487316232544833e-06  1.8778194580516734e-06  1.2675280940474391e-06  0.0000000000000000e+00  -1.0942879834878672e-06  0.0000000000000000e+00  -1.6380387911711373e-06  -1.8985865312714394e-06  -2.0039264326558590e-06  -2.0160847409799419e-06  -1.9661480954096524e-06  -1.8707160962406337e-06  -1.7395865352193527e-06  -1.5793249555109744e-06  -1.3949218167440248e-06  -1.1905561829986829e-06  -9.6995859139994806e-07  -7.3660228237418642e-07  -4.9380627560393326e-07  -2.4479324180760183e-07  7.2789543498154814e-09  2.5928494817278274e-07  5.0809987959151586e-07  7.5056301198352758e-07  9.8344484860254391e-07  1.2034098660383386e-06  1.4069611907839026e-06  1.5903190166243287e-06  1.7492147477858964e-06  1.8785191332993679e-06  1.9714360687449594e-06  2.0178150198666358e-06  2.0006598122887854e-06  1.8887585654641694e-06  1.6212472038918298e-06  1.0753870461343472e-06  0.0000000000000000e+00  -8.5371762494492852e-07  0.0000000000000000e+00  -1.3042011966781012e-06  -1.5421333109608640e-06  -1.6563215360188172e-06  -1.6902585201254109e-06  -1.6668951960511869e-06  -1.5995858678032326e-06  -1.4970339848145556e-06  -1.3655750528419432e-06  -1.2102569063140638e-06  -1.0353652567164571e-06  -8.4469801812840961e-07  -6.4173192516424351e-07  -4.2973164058632954e-07  -2.1181810704599600e-07  8.9783914050966172e-09  2.2967333089994855e-07  4.4728053652355250e-07  6.5876467913266392e-07  8.6099076231894977e-07  1.0506730461396393e-06  1.2243007108655293e-06  1.3780200045220102e-06  1.5074553748125262e-06  1.6074236177767486e-06  1.6713749051594115e-06  1.6902884025365547e-06  1.6504626929705747e-06  1.5288707666268464e-06  1.2832707142745817e-06  8.3069782314461053e-07  0.0000000000000000e+00  -5.2082401252807340e-07  0.0000000000000000e+00  -8.1520546908814138e-07  -9.8456609421209186e-07  -1.0752182266642309e-06  -1.1109919505910539e-06  -1.1056243033276152e-06  -1.0679204721441397e-06  -1.0040900822849627e-06  -9.1887483259406770e-07  -8.1612180775377909e-07  -6.9909104406760892e-07  -5.7063926307375858e-07  -4.3334384486896486e-07  -2.8958978355282319e-07  -1.4163286463017043e-07  8.3531785976230513e-09  1.5823377465226816e-07  3.0587269876739191e-07  4.4908902897786018e-07  5.8561295803224299e-07  7.1303562349814838e-07  8.2874564683408540e-07  9.2983348998244145e-07  1.0129602682385289e-06  1.0741676600407114e-06  1.1085441949777236e-06  1.1096379658827550e-06  1.0683817034707426e-06  9.7097275693603574e-07  7.9454593335769698e-07  4.9786020856894536e-07  0.0000000000000000e+00  0.0000000000000000e+00  0.0000000000000000e+00  0.0000000000000000e+00  0.0000000000000000e+00  0.0000000000000000e+00  0.0000000000000000e+00  0.0000000000000000e+00  0.0000000000000000e+00  0.0000000000000000e+00  0.0000000000000000e+00  0.0000000000000000e+00  0.0000000000000000e+00  0.0000000000000000e+00  0.0000000000000000e+00  0.0000000000000000e+00  0.0000000000000000e+00  0.0000000000000000e+00  0.0000000000000000e+00  0.0000000000000000e+00  0.0000000000000000e+00  0.0000000000000000e+00  0.0000000000000000e+00  0.0000000