<?xml version="1.0"?>
<VTKFile type="UnstructuredGrid"  version="0.1"  >
<UnstructuredGrid>
<Piece  NumberOfPoints="825" NumberOfCells="1536">
<Points>
<DataArray  type="Float64"  NumberOfComponents="3"  format="ascii">-1.048129333392543e-21 0.5 0  0.06249999993544608 0.5000000051000077 0  0.06249999239940425 0.5625000071093403 0  -8.798823878181669e-09 0.5625000008401122 0  0.1249999993798609 0.5000000100134621 0  0.1249999923152248 0.5625000114777013 0  0.1874999980229087 0.5000000144405625 0  0.1874999912788283 0.5625000151464397 0  0.2499999961193621 0.5000000188059792 0  0.2499999894668538 0.5625000183361991 0  0.3124999930189737 0.5000000220708634 0  0.3124999868720402 0.5625000205601444 0  0.3749999880090231 0.5000000229061627 0  0.37499998329851 0.5625000213465997 0  0.4374999817247999 0.5000000220857409 0  0.4374999789435962 0.5625000208178531 0  0.4999999744625513 0.5000000195668364 0  0.4999999740771679 0.5625000188988533 0  0.5624999667530681 0.5000000154896205 0  0.5624999690081187 0.5625000160143222 0  0.6249999605856417 0.5000000122308654 0  0.6249999643668932 0.5625000131273789 0  0.6874999558201137 0.5000000095159626 0  0.6874999604367091 0.562500010027096 0  0.7499999511254442 0.5000000052655986 0  0.749999957009149 0.5625000064391746 0  0.8124999478581341 0.5000000017718567 0  0.8124999543595551 0.5625000030286814 0  0.8749999460101245 0.4999999989086962 0  0.8749999525102728 0.5624999994170651 0  0.9374999436311061 0.499999993648874 0  0.9374999511726217 0.5624999953162678 0  0.999999943125278 0.4999999900175745 0  0.9999999505917774 0.5624999916049305 0  1.062499943884765 0.499999987041398 0  1.062499950794803 0.5624999879338755 0  1.124999944079495 0.499999982043855 0  1.124999951480167 0.5624999840525368 0  1.187499946077978 0.4999999788652353 0  1.187499952850733 0.5624999808589458 0  1.249999949383761 0.4999999768679023 0  1.249999954917653 0.5624999780985465 0  1.312499952010023 0.499999973284675 0  1.312499957335496 0.562499975530532 0  1.374999956179074 0.4999999718604151 0  1.37499996023417 0.5624999740250129 0  1.437499961280604 0.4999999719751541 0  1.437499963572353 0.5624999734167713 0  1.499999965701893 0.499999971580855 0  1.499999967011647 0.5624999736492808 0  1.562499971201161 0.4999999740062133 0  1.562499970678507 0.5624999754099734 0  1.624999977342586 0.4999999783089679 0  1.624999974577766 0.5624999782807658 0  1.68749998281003 0.4999999820351781 0  1.687499978375709 0.5624999817460422 0  1.749999988500315 0.499999986849645 0  1.749999981973086 0.5624999858983923 0  1.812499993799177 0.4999999920571467 0  1.812499985202948 0.5624999903036048 0  1.874999997416563 0.4999999956379637 0  1.874999987695919 0.5624999945695621 0  1.93749999963642 0.4999999979047551 0  1.937499989405691 0.5624999991963513 0  2 0.5 0  1.999999992245959 0.5625000059977536 0  0.06249998634198806 0.6250000084674047 0  -1.453570910384534e-08 0.6250000034158681 0  0.1249999865186302 0.6250000123324264 0  0.1874999859142014 0.6250000154364561 0  0.2499999846241864 0.6250000179135493 0  0.3124999827228293 0.6250000195779556 0  0.3749999802147343 0.6250000202120084 0  0.4374999771928139 0.6250000197565303 0  0.4999999738215881 0.625000018251765 0  0.5624999702880049 0.6250000159660535 0  0.6249999668881848 0.6250000132789322 0  0.6874999638705577 0.6250000102919132 0  0.7499999612847897 0.6250000070334768 0  0.8124999592100547 0.6250000036380451 0  0.8749999577090096 0.6250000000789738 0  0.9374999567123303 0.6249999963664873 0  0.9999999562331544 0.6249999926890448 0  1.062499956308194 0.6249999890822486 0  1.124999956844058 0.624999985587126 0  1.187499957821261 0.6249999824267324 0  1.249999959245654 0.624999979678996 0  1.312499960994372 0.6249999774111907 0  1.374999963007556 0.6249999758569387 0  1.437499965251754 0.6249999751303401 0  1.499999967605311 0.6249999753237356 0  1.562499970034685 0.6249999765755097 0  1.62499997252868 0.6249999787893001 0  1.687499974962055 0.6249999817636008 0  1.749999977222669 0.624999985359101 0  1.812499979209294 0.6249999893837457 0  1.874999980792507 0.6249999937391089 0  1.937499982062729 0.6249999986353177 0  1.999999983423866 0.6250000040516183 0  0.06249998198241821 0.6875000096364341 0  -1.85092915934117e-08 0.6875000058755731 0  0.1249999821785107 0.6875000128235306 0  0.1874999818738926 0.687500015400188 0  0.249999981056257 0.6875000173698754 0  0.3124999797700451 0.6875000186385389 0  0.3749999780593995 0.6875000190890247 0  0.4374999759921877 0.6875000186671845 0  0.4999999736667165 0.6875000174132333 0  0.5624999712101822 0.6875000154796752 0  0.6249999687926313 0.6875000130632591 0  0.6874999665730598 0.6875000102934459 0  0.7499999646448784 0.6875000072516786 0  0.812499963074562 0.6875000040117578 0  0.8749999619015207 0.6875000006172974 0  0.9374999611200593 0.6874999971225537 0  0.9999999607275162 0.6874999936188846 0  1.062499960720209 0.6874999901848099 0  1.124999961060633 0.6874999869056087 0  1.187499961716283 0.687499983902095 0  1.249999962656007 0.6874999812811031 0  1.312499963817588 0.6874999791487578 0  1.374999965144265 0.6874999776377191 0  1.437499966588159 0.6874999768610878 0  1.499999968091914 0.6874999769048118 0  1.562499969620578 0.6874999778187522 0  1.624999971147142 0.6874999795632595 0  1.687499972616949 0.6874999820292444 0  1.749999973968361 0.6874999850867813 0  1.812499975144392 0.6874999885944624 0  1.874999976106343 0.6874999924344278 0  1.937499976885134 0.6874999964951185 0  1.999999977456395 0.6875000005096349 0  0.06249997901150001 0.7500000107125 0  -2.12383211352861e-08 0.7500000080660048 0  0.124999979154582 0.7500000131701636 0  0.1874999790173434 0.7500000152213263 0  0.2499999785394871 0.750000016767978 0  0.312499977726 0.7500000177231302 0  0.3749999766072155 0.7500000180083483 0  0.4374999752300578 0.7500000175856537 0  0.49999997365914 0.7500000164799513 0  0.5624999719797421 0.7500000147796864 0  0.6249999702971768 0.7500000126035875 0  0.6874999687154639 0.7500000100580395 0  0.7499999673149236 0.7500000072277652 0  0.8124999661520484 0.7500000041833113 0  0.8749999652595516 0.7500000009854169 0  0.937499964646651 0.7499999976985661 0  0.9999999643112795 0.7499999943985298 0  1.062499964242488 0.7499999911656917 0  1.124999964416313 0.7499999880878233 0  1.187499964803398 0.7499999852633208 0  1.249999965370036 0.7499999827922539 0  1.312499966073976 0.7499999807756571 0  1.37499996687264 0.749999979315777 0  1.43749996772788 0.7499999785027596 0  1.49999996860609 0.7499999784021234 0  1.562499969483467 0.7499999790407855 0  1.62499997034093 0.7499999803913907 0  1.687499971153985 0.7499999823755225 0  1.749999971894618 0.7499999848785479 0  1.812499972536928 0.7499999877590517 0  1.874999973063252 0.7499999908502595 0  1.93749997346052 0.7499999939364526 0  1.999999973674356 0.7499999967221893 0  0.06249997709952217 0.8125000117079076 0  -2.301683498614366e-08 0.8125000099706993 0  0.1249999771907025 0.8125000134797932 0  0.1874999771406528 0.8125000150210961 0  0.2499999768849111 0.8125000161820526 0  0.3124999764054052 0.8125000168630749 0  0.3749999757119732 0.8125000169952267 0  0.437499974831668 0.8125000165456795 0  0.4999999738057889 0.8125000155255764 0  0.5624999726898802 0.8125000139873464 0  0.6249999715509629 0.8125000120080488 0  0.6874999704576005 0.8125000096690841 0  0.7499999694686947 0.8125000070458657 0  0.812499968628151 0.8125000042068365 0  0.8749999679630784 0.8125000012166105 0  0.9374999674847529 0.8124999981415995 0  0.9999999671926604 0.8124999950535298 0  1.062499967076943 0.8124999920293935 0  1.124999967119444 0.8124999891517735 0  1.187499967296432 0.8124999865082629 0  1.249999967580324 0.812499984188328 0  1.312499967940775 0.8124999822804762 0  1.374999968348179 0.8124999808681721 0  1.437499968776981 0.8124999800219073 0  1.499999969207589 0.8124999797894477 0  1.562499969627328 0.8124999801855139 0  1.624999970027952 0.8124999811836775 0  1.6874999704016 0.8124999827150104 0  1.749999970739448 0.8124999846715023 0  1.812499971032231 0.8124999869082938 0  1.874999971269808 0.8124999892403281 0  1.937499971436036 0.812499991432253 0  1.999999971503827 0.8124999931863945 0  0.06249997598780111 0.8750000126177799 0  -2.406127678986425e-08 0.8750000115997949 0  0.1249999760438867 0.8750000137889883 0  0.1874999760391539 0.8750000148583568 0  0.2499999759219993 0.8750000156612653 0  0.3124999756667212 0.8750000160891833 0  0.3749999752690241 0.8750000160725554 0  0.4374999747401275 0.8750000155766702 0  0.4999999741035239 0.875000014601355 0  0.5624999733933406 0.8750000131770942 0  0.6249999726515476 0.8750000113555466 0  0.6874999719224528 0.8750000091983476 0  0.7499999712463096 0.8750000067693502 0  0.8124999706547046 0.8750000041316741 0  0.8749999701682926 0.8750000013481949 0  0.9374999697967362 0.8749999984836421 0  0.999999969540234 0.874999995606273 0  1.062499969391246 0.8749999927883304 0  1.124999969336116 0.8749999901057871 0  1.187499969356967 0.8749999876371527 0  1.249999969433527 0.8749999854611334 0  1.312499969544997 0.8749999836534635 0  1.374999969672412 0.8749999822824693 0  1.437499969800913 0.8749999814028772 0  1.499999969921159 0.8749999810484465 0  1.562499970029494 0.8749999812245252 0  1.62499997012642 0.8749999819022181 0  1.687499970214174 0.8749999830155634 0  1.749999970294738 0.8749999844609608 0  1.812499970368385 0.8749999860966008 0  1.874999970432027 0.8749999877400578 0  1.937499970477816 0.8749999891641568 0  1.9999999704967 0.8749999900886849 0  0.06249997547861038 0.9375000134361468 0  -2.454099298837547e-08 0.9375000129760707 0  0.1249999755153135 0.9375000141024993 0  0.1874999755350228 0.9375000147524248 0  0.2499999755021244 0.9375000152277313 0  0.3124999753920423 0.9375000154192404 0  0.374999975193528 0.9375000152560184 0  0.4374999749071309 0.9375000146996842 0  0.4999999745433263 0.9375000137411239 0  0.5624999741208484 0.9375000123963164 0  0.6249999736644041 0.9375000107000813 0  0.6874999732012358 0.9375000086990
[...]
<PointData  Scalars="p"> 
<DataArray  type="Float64"  Name="p"  format="ascii">0.0000000000000000e+00  -3.4309522426342786e-05  -3.6426922005659273e-05  0.0000000000000000e+00  -5.8889805605815779e-05  -6.0405011069350652e-05  -7.5032406351535370e-05  -7.5640538685032915e-05  -8.4418390485187713e-05  -8.4314719191560939e-05  -8.8514561408401050e-05  -8.7962292919326052e-05  -8.8565568389666256e-05  -8.7760916899326578e-05  -8.5525702746254924e-05  -8.4610537046242660e-05  -8.0116618729669594e-05  -7.9191353718101326e-05  -7.2896553094719765e-05  -7.2029767264048233e-05  -6.4315358710567296e-05  -6.3545497677225808e-05  -5.4716413676826582e-05  -5.4068216536747434e-05  -4.4367552389839237e-05  -4.3858546815339671e-05  -3.3504287064276121e-05  -3.3137487615054127e-05  -2.2317964897297194e-05  -2.2088101626577382e-05  -1.0959397030500549e-05  -1.0852852884269906e-05  5.0185911175235449e-07  4.7745879416457883e-07  1.1991142413608666e-05  1.1818995285061401e-05  2.3361908199734573e-05  2.3047365779924363e-05  3.4489171199930129e-05  3.4033239739714691e-05  4.5246767708670161e-05  4.4641939635775805e-05  5.5424128740584772e-05  5.4688354170093253e-05  6.4811384878492683e-05  6.3963110891263956e-05  7.3167753081854133e-05  7.2225357886698447e-05  8.0130814537191406e-05  7.9150180550828451e-05  8.5292554871640899e-05  8.4345728993621985e-05  8.8149878774584431e-05  8.7329799640948729e-05  8.7986010607069050e-05  8.7450411593984127e-05  8.3909718302729253e-05  8.3862161113084724e-05  7.4766941285903004e-05  7.5439399413421818e-05  5.9006701253639308e-05  6.0580503991132505e-05  3.4787661866100010e-05  3.6883550394514686e-05  0.0000000000000000e+00  0.0000000000000000e+00  -4.0492865988664341e-05  0.0000000000000000e+00  -6.4071007867563850e-05  -7.7755855177948153e-05  -8.4937005961482979e-05  -8.7484190242567838e-05  -8.6580093141343923e-05  -8.3045402782198669e-05  -7.7480263663653502e-05  -7.0342704527080188e-05  -6.1994937388730063e-05  -5.2726847411221804e-05  -4.2773277102670696e-05  -3.2330717446444705e-05  -2.1563079235991991e-05  -1.0602058701398437e-05  4.5038802572608954e-07  1.1499503748620454e-05  2.2435072984461805e-05  3.3136266761847972e-05  4.3469560094512714e-05  5.3273021251728082e-05  6.2358298425519459e-05  7.0503827733093167e-05  7.7432702422048098e-05  8.2805466834646045e-05  8.6196197337655846e-05  8.7037519850416918e-05  8.4548344551910404e-05  7.7570142371710901e-05  6.4184884125921760e-05  4.0821625088349654e-05  0.0000000000000000e+00  -4.4809493744161913e-05  0.0000000000000000e+00  -6.8627704488851389e-05  -8.1011864454990989e-05  -8.6624850467244795e-05  -8.7843861064173243e-05  -8.5982514976316505e-05  -8.1841734834711124e-05  -7.5958005064149045e-05  -6.8720454013320191e-05  -6.0429737227351520e-05  -5.1327225492778575e-05  -4.1611250121955440e-05  -3.1448725406766584e-05  -2.0981164858375901e-05  -1.0327380959346374e-05  4.1176278021994989e-07  1.1141474949384521e-05  2.1761368472685019e-05  3.2162351410165366e-05  4.2223442469315424e-05  5.1805304475602719e-05  6.0747451125375601e-05  6.8861832003865072e-05  7.5920459710200508e-05  8.1641737459342900e-05  8.5661468634300737e-05  8.7471681469517376e-05  8.6300727771759331e-05  8.0849218628742088e-05  6.8705308616051592e-05  4.5065352559887815e-05  0.0000000000000000e+00  -4.8969789916830722e-05  0.0000000000000000e+00  -7.3445815920170483e-05  -8.4920801746288710e-05  -8.9158361103584794e-05  -8.9068480275307895e-05  -8.6168034651451202e-05  -8.1297279489936326e-05  -7.4963367387385576e-05  -6.7503809362394576e-05  -5.9165732627314297e-05  -5.0143489077718060e-05  -4.0596881013939193e-05  -3.0661801670992783e-05  -2.0456066687492143e-05  -1.0082539548816765e-05  3.6701857159136205e-07  1.0805415893606958e-05  2.1143453705730721e-05  3.1286194795325844e-05  4.1129999855022499e-05  5.0559369857111485e-05  5.9443678812332909e-05  6.7631525022581810e-05  7.4940372832772736e-05  8.1138945889646334e-05  8.5909746087054002e-05  8.8769052258005150e-05  8.8899571092576648e-05  8.4795010325576810e-05  7.3518962945352088e-05  4.9192094834475924e-05  0.0000000000000000e+00  -5.2884436462540396e-05  0.0000000000000000e+00  -7.8229729766117516e-05  -8.9111709248536713e-05  -9.2215687909668896e-05  -9.0940714751399837e-05  -8.7026396994419790e-05  -8.1387004314204740e-05  -7.4529851428284190e-05  -6.6761110303472119e-05  -5.8286836053186667e-05  -4.9260959184244455e-05  -3.9807634132886569e-05  -3.0032951716411913e-05  -2.0030996633224776e-05  -9.8866540243536361e-06  3.2186526069850717e-07  1.0519433540649604e-05  2.0630282514693803e-05  3.0575244503661388e-05  4.0269849621989154e-05  4.9622362938162773e-05  5.8531268831128568e-05  6.6879364230577984e-05  7.4522616978644094e-05  8.1268129376612717e-05  8.6826063691392978e-05  9.0708223794114641e-05  9.2019054888738927e-05  8.9027798797321759e-05  7.8313773819160571e-05  5.3091975903059614e-05  0.0000000000000000e+00  -5.6526450481334731e-05  0.0000000000000000e+00  -8.2817681591289272e-05  -9.3320760204009803e-05  -9.5504310358590172e-05  -9.3195720470629856e-05  -8.8347086660451899e-05  -8.1959237143511594e-05  -7.4557748525578269e-05  -6.6433529415211830e-05  -5.7763590462778995e-05  -4.8669458280551533e-05  -3.9244567381799095e-05  -2.9568083683792008e-05  -1.9711499366418142e-05  -9.7412068751423850e-06  2.8005033997831975e-07  1.0291371892176542e-05  2.0231722287558878e-05  3.0038412492262352e-05  3.9645993642539062e-05  4.8985406634740561e-05  5.7981395781634428e-05  6.6546358446828002e-05  7.4566941991967655e-05  8.1876880294677186e-05  8.8198691219883683e-05  9.3022599096658762e-05  9.5363239820174124e-05  9.3276096308352453e-05  8.2915632598397617e-05  5.6725523886998043e-05  0.0000000000000000e+00  -5.9866029545978551e-05  0.0000000000000000e+00  -8.7092124826872362e-05  -9.7348533131310790e-05  -9.8781306358623245e-05  -9.5587005110276560e-05  -8.9907283209132474e-05  -8.2827931981575503e-05  -7.4900593471283081e-05  -6.6411143422219818e-05  -5.7516884053926401e-05  -4.8314356925565491e-05  -3.8871676222280998e-05  -2.9244641872925281e-05  -1.9484259111151025e-05  -9.6391963700934313e-06  2.4345076303111167e-07  1.0117449062043267e-05  1.9936651516862124e-05  2.9654370321541225e-05  3.9223140462242552e-05  4.8594152939031742e-05  5.7715100460960127e-05  6.6522643216926781e-05  7.4926890601789115e-05  8.2779335364150175e-05  8.9805017901756356e-05  9.5465328580019552e-05  9.8687559151135304e-05  9.7336533891153283e-05  8.7200384167157198e-05  6.0056037837123363e-05  0.0000000000000000e+00  -6.2856538219427762e-05  0.0000000000000000e+00  -9.0944616016173607e-05  -1.0102923447236206e-04  -1.0184439696372347e-04  -9.7901146068024968e-05  -9.1503284059365447e-05  -8.3812174240475648e-05  -7.5406227200348964e-05  -6.6571386116636233e-05  -5.7451636818525195e-05  -4.8124557963766812e-05  -3.8637888493476623e-05  -2.9027886125677560e-05  -1.9327703208606325e-05  -9.5699986788926918e-06  2.1272982097736359e-07  9.9881468538170926e-06  1.9724049731543010e-05  2.9388483415433548e-05  3.8949924762273745e-05  4.8377240134451055e-05  5.7637006746749227e-05  6.6685547048993049e-05  7.5450590408093703e-05  8.3795112591894378e-05  9.1442097047819484e-05  9.7823779286491594e-05  1.0178970671420976e-04  1.0104191336720438e-04  9.1056548841222758e-05  6.3033137797253769e-05  0.0000000000000000e+00  -6.5435183300598129e-05  0.0000000000000000e+00  -9.4264554199571506e-05  -1.0421431346712623e-04  -1.0452061238177252e-04  -9.9956480391604456e-05  -9.2958726375251316e-05  -8.4751058007687645e-05  -7.5934890755249924e-05  -6.6797787519155835e-05  -5.7474336404303962e-05  -4.8027684936932956e-05  -3.8489534002197506e-05  -2.8880262600831415e-05  -1.9218169449873900e-05  -9.5222276343375877e-06  1.8778995036881884e-07  9.8917569603073125e-06  1.9569708741408700e-05  2.9202384943136011e-05  3.8771845289467150e-05  4.8261412572808014e-05  5.7653135343998065e-05  6.6918425029281341e-05  7.5998485563714778e-05  8.4764150597730552e-05  9.2934762389975141e-05  9.9917567661895231e-05  1.0449779465697716e-04  1.0424372553778781e-04  9.4372329147582017e-05  6.5591996670902875e-05  0.0000000000000000e+00  -6.7527952490485334e-05  0.0000000000000000e+00  -9.6938356073730315e-05  -1.0676617696764730e-04  -1.0665926390959608e-04  -1.0159898226349008e-04  -9.4125094664263960e-05  -8.5508155004388782e-05  -7.6366509692613263e-05  -6.6988620017203909e-05  -5.7501812279451658e-05  -4.7958207548743299e-05  -3.8377153920744011e-05  -2.8766685926551370e-05  -1.9133380579378028e-05  -9.4852819556287360e-06  1.6812157586017805e-07  9.8166347918856219e-06  1.9450200341546655e-05  2.9059795665413375e-05  3.8638221027805154e-05  4.8180227869048001e-05  5.7679574173429926e-05  6.7119456310506910e-05  7.6450876757166110e-05  8.5550777841753782e-05  9.4135779687630193e-05  1.0159410505214356e-04  1.0666232528335845e-04  1.0680503671069166e-04  9.7033753013930769e-05  6.7657566905551629e-05  0.0000000000000000e+00  -6.9055658111835883e-05  0.0000000000000000e+00  -9.8853124095140397e-05  -1.0855794482822778e-04  -1.0812915254208341e-04  -1.0269975807893199e-04  -9.4880602207588307e-05  -8.5972627564677169e-05  -7.6603561023972963e-05  -6.7060865510403986e-05  -5.7465665594084933e-05  -4.7861714126850144e-05  -3.8259284165593678e-05  -2.8657474645696540e-05  -1.9054395795698561e-05  -9.4501798978031456e-06  1.5315192573458166e-07  9.7526257726130176e-06  1.9345396958527771e-05  2.8929833244076852e-05  3.8506494364537182e-05  4.8078255032994170e-05  5.7647376039104618e-05  6.7205272419630017e-05  7.6710563192093265e-05  8.6044826417921039e-05  9.4924335326722703e-05  1.0272566309423342e-04  1.0815318540251104e-04  1.0859959713747938e-04  9.8928022908981555e-05  6.9150224190407409e-05  0.0000000000000000e+00  -6.9939896599627370e-05  0.0000000000000000e+00  -9.9902198531184134e-05  -1.0947607129466504e-04  -1.0881922803033786e-04  -1.0315439943247822e-04  -9.5129992855115821e-05  -8.6059573211601134e-05  -7.6572357569198302e-05  -6.6952090803683642e-05  -5.7314477533519042e-05  -4.7697153037022583e-05  -3.8104491139479495e-05  -2.8530017999846869e-05  -1.8966744776256852e-05  -9.4100928261602357e-06  1.4232692768789264e-07  9.6917988707491537e-06  1.9239716832260986e-05  2.8788803581287964e-05  3.8344167116534868e-05  4.7913533219193504e-05  5.7504240047834133e-05  6.7113037578414914e-05  7.6703509295886484e-05  8.6161740325627683e-05  9.5205664763656659e-05  1.0320872093251249e-04  1.0886020541869834e-04  1.0951469163091131e-04  9.9948929708022183e-05  6.9991723205116982e-05  0.0000000000000000e+00  -7.0108449708387676e-05  0.0000000000000000e+00  -9.9990658939763156e-05  -1.0942440778757476e-04  -1.0864050215759294e-04  -1.0288391907966930e-04  -9.4804502604401249e-05  -8.5710199351660509e-05  -7.6223085246941727e-05  -6.6620912168571643e-05  -5.7014370602812124e-05  -4.7437575499390357e-05  -3.7892103634445022e-05  -2.8369447916903460e-05  -1.8860950877559203e-05  -9.3606633904023732e-06  1.3503199968553588e-07  9.6285692963973245e-06  1.9122482674572299e-05  2.8620660243585265e-05  3.8129468736179571e-05  4.7658031831486452e-05  5.7215412026713746e-05  6.6800433990943644e-05  7.6379553542240157e-05  8.5842315482510947e-05  9.4911388756903418e-05  1.0296472735020035e-04  1.0869531474850726e-04  1.0945503727184421e-04  1.0000238204533242e-04  7.0110363525415965e-05  0.0000000000000000e+00  -6.9499425137537187e-05  0.0000000000000000e+00  -9.9040096605671691e-05  -1.0832786973142961e-04  -1.0752838378459375e-04  -1.0183545583392912e-04  -9.3861836917288552e-05  -8.4890686975847121e-05  -7.5528838401873398e-05  -6.6045536952536764e-05  -5.6547912427196128e-05  -4.7069025519212543e-05  -3.7611354399857452e-05  -2.8167908803349605e-05  -1.8731984185609800e-05  -9.2996187576328031e-06  1.3080182249993367e-07  9.5597426964891200e-06  1.8987751843638440e-05  2.8416681523784310e-05  3.7850776401956078e-05  4.7297065644740171e-05  5.6762673957854087e-05  6.6245221417275601e-05  7.5711143330902723e-05  8.5052694282364128e-05  9.3998990792465870e-05  1.0194113780896870e-04  1.0759423477096822e-04  1.0834613522754075e-04  9.9010559796355120e-05  6.9444803179486510e-05  0.0000000000000000e+00  -6.8063812895904793e-05  0.0000000000000000e+00  -9.6991677651748321e-05  -1.0613485815625745e-04  -1.0544399288359197e-04  -9.9982294501427279e-05  -9.2284794819630006e-05  -8.3590216161105065e-05  -7.4482408030221409e-05  -6.5220855022291740e-05  -5.5910671387324552e-05  -4.6587601096732183e-05  -3.7258633493854936e-05  -2.7922368467517553e-05  -1.8577598626511261e-05  -9.2257476535636144e-06  1.2969007497280251e-07  9.4842002358096016e-06  1.8833356253341735e-05  2.8173851360518063e-05  3.7504505501946609e-05  4.6826610688570637e-05  5.6141624715260076e-05  6.5441999389555255e-05  7.4691064291731519e-05  8.3781645017307188e-05  9.2451015295960394e-05  1.0011079343153148e-04  1.0551776952617472e-04  1.0613627823377683e-04  9.6914802729272743e-05  6.7946464641148354e-05  0.0000000000000000e+00  -6.5765882686451402e-05  0.0000000000000000e+00  -9.3806290947351460e-05  -1.0281681821675599e-04  -1.0237233928510620e-04  -9.7320734193254746e-05  -9.0076551708610759e-05  -8.1814930318514729e-05  -7.3089856558296274e-05  -6.4151003515780701e-05  -5.5104605816273476e-05  -4.5992929571448952e-05  -3.6832160743516644e-05  -2.7630313169256598e-05  -1.8395425286489191e-05  -9.1374041759771130e-06  1.3226290637258830e-07  9.4014128182691862e-06  1.8657952660015274e-05  2.7890600669038115e-05  3.7089577820906516e-05  4.6246954698634971e-05  5.5354408814549798e-05  6.4395136657943245e-05  7.3325020149940859e-05  8.2034799120370876e-05  9.0269832957346854e-05  9.7469007389099069e-05  1.0245009484582359e-04  1.0279630412584243e-04  9.3675863614886635e-05  6.5579863497276005e-05  0.0000000000000000e+00  -6.2580204718171425e-05  0.0000000000000000e+00  -8.9459965351495436e-05  -9.8361852534103712e-05  -9.8313747244939149e-05  -9.3858718836499610e-05  -8.7247198919700359e-05  -7.9572497008535689e-05  -7.1354166034321716e-05  -6.2833590797985742e-05  -5.4122499026955827e-05  -4.5274858288757300e-05  -3.6320437932683936e-05  -2.7280976720097633e-05  -1.8176904651858856e-05  -9.0294367246540476e-06  1.3967968531278313e-07  9.3085006455075485e-06  1.8455180669179018e-05  2.7558130871982426e-05  3.6596321806595389e-05  4.5549225504010383e-05  5.4394919255099695e-05  6.3102516669910746e-05  7.1615811411528297e-05  7.9819030911163687e-05  8.7464086522036512e-05  9.4022081537641550e-05  9.8389686156330372e-05  9.8312585588021883e-05  8.9268470566237885e-05  6.2318859710726933e-05  0.0000000000000000e+00  -5.8483236163867713e-05  0.0000000000000000e+00  -8.3930528787610912e-05  -9.2756805429849380e-05  -9.3261061524300601e-05  -8.9588258424795354e-05  -8.3782140985891519e-05  -7.6838699455433255e-05  -6.9241136632957996e-05  -6.1226732768277493e-05  -5.2918276028713216e-05  -4.4386870809767589e-05  -3.5680703779794449e-05  -2.6838534576195528e-05  -1.7895993436045199e-05  -8.8873672398641829e-06  1.5386348229415385e-07  9.1948222467026156e-06  1.8202696304484299e-05  2.7144207253115084e-05  3.5985118106072484e-05  4.4689816719111847e-05  5.3219074196240433e-05  6.1523591099904945e-05  6.9529487396129727e-05  7.7109073099159101e-05  8.4017191609575962e-05  8.9759001520380575e-05  9.3325708028308527e-05  9.2668191032246026e-05  8.3666985126847103e-05  5.8137530097845525e-05  0.0000000000000000e+00  -5.3435049798451779e-05  0.0000000000000000e+00  -7.7166774342798161e-05  -8.5944685454206473e-05  -8.7145761170048127e-05  -8.4422575197792878e-05  -7.9573371157365711e-05  -7.3486430748749204e-05  -6.6610422843860065e-05  -5.9184401127610736e-05  -5.1348664828403881e-05  -4.3196524769577826e-05  -3.4798019738201567e-05  -2.6211396774569292e-05  -1.7488492053850630e-05  -8.6772563337592996e-06  1.7715220016963077e-07  9.0310693925928076e-06  1.7840919994586604e-05  2.6561635160822760e-05  3.5145336319003229e-05  4.3539941453475079e-05  5.1686798724754406e-05  5.9514408192550913e-05  6.6926350310082011e-05  7.3777027656995260e-05  7.9818440412973587e-05  8.4588580592915633e-05  8.7184129891931952e-05  8.5800052067810687e-05  7.6814416329611709e-05  5.2991545087387968e-05  0.0000000000000000e+00  -4.7341638246547803e-05  0.0000000000000000e+00  -6.9020380216969264e-05  -7.7728424299659032e-05  -7.9717701596415089e-05  -7.8059043966729365e-05  -7.4274778277741164e-05  -6.9141193451942570e-05  -6.3077291834951393e-05  -5.6330005613567280e-05  -4.9061606648769640e-05  -4.1390260869641401e-05  -3.3408791062497086e-05  -2.5194340255884967e-05  -1.6813871659341629e-05  -8.3271229394620486e-06  2.1101370319328952e-07  8.7482476942431272e-06  1.7232295668822705e-05  2.5608302494573121e-05  3.3816312490199389e-05  4.1789026893354076e-05  4.9448476707853217e-05  5.6700145945641629e-05  6.3422465530657240e-05  6.9447440483652890e-05  7.4518805745965019e-05  7.8203308607832306e-05  7.9708171030342995e-05  7.7503679587947826e-05  6.8555336741689868e-05  4.6780974273013681e-05  0.0000000000000000e+00  -3.9976429204555019e-05  0.0000000000000000e+00  -5.9096639142330916e-05  -6.7558590803786569e-05  -7.0286291982762334e-05  -6.9693999273092656e-05  -6.7009363842551636e-05  -6.2896337207308574e-05  -5.7746701063639466e-05  -5.1815831201783588e-05  -4.5286127721608131e-05  -3.8296781670268993e-05  -3.0958593348975636e-05  -2.3362571493316704e-05  -1.5585482742653066e-05  -7.6939223194895667e-06  2.5241240619622573e-07  8.1972929726655178e-06  1.6084471502122157e-05  2.3854030993848078e-05  3.1438936320487174e-05  3.8761560294712953e-05  4.5729696431627179e-05  5.2230295517651487e-05  5.8120289833271755e-05  6.3211421845533699e-05  6.7238825243954792e-05  6.9796372057719114e-05  7.0203763597333183e-05  6.7226772098837864e-05  5.8493029345222945e-05  3.9276860779052645e-05  0.0000000000000000e+00  -3.0803073564187731e-05  0.0000000000000000e+00  -4.6412895974022150e-05  -5.4061202532297123e-05  -5.7167003374861768e-05  -5.7435904931625858e-05  -5.5785718735618326e-05  -5.2757508541442961e-05  -4.8702140425823160e-05  -4.3866892911109312e-05  -3.8436934402278618e-05  -3.2556077890336892e-05  -2.6338295912850603e-05  -1.9875432714192442e-05  -1.3242995107672114e-05  -6.5046312358444294e-06  2.8379984607932121e-07  7.0703435627416766e-06  1.3802912966625542e-05  2.0425248335626949e-05  2.6872830961045276e-05  3.3068894441715174e-05  3.8919728237395386e-05  4.4308534356749533e-05  4.9087245832582832e-05  5.3064577709927963e-05  5.5983978049402090e-05  5.7481213235740799e-05  5.7000455971793753e-05  5.3618909358992282e-05  4.5675466555312720e-05  2.9968376453492902e-05  0.0000000000000000e+00  -1.8541954097082909e-05  0.0000000000000000e+00  -2.8598665238409758e-05  -3.3996043067085791e-05  -3.6523033024306680e-05  -3.7123597508807247e-05  -3.6353720496066470e-05  -3.4573241386461183e-05  -3.2033319569823264e-05  -2.8919077931624697e-05  -2.5371693501910092e-05  -2.1500697200253836e-05  -1.7391802717986387e-05  -1.3112677789831805e-05  -8.7175039719979463e-06  -4.2507926341545024e-06  2.4927857455325633e-07  4.7476093358351090e-06  9.2089561102761349e-06  1.3594630589989928e-05  1.7859199139657675e-05  2.1947045013566894e-05  2.5788543659607592e-05  2.9295173440354228e-05  3.2353469218675897e-05  3.4816958147020241e-05  3.6492873838082632e-05  3.7119540598428464e-05  3.6325693207160519e-05  3.3551026006532890e-05  2.7885351232300908e-05  1.7725503206999365e-05  0.0000000000000000e+00  0.0000000000000000e+00  0.0000000000000000e+00  0.0000000000000000e+00  0.0000000000000000e+00  0.0000000000000000e+00  0.0000000000000000e+00  0.0000000000000000e+00  0.0000000000000000e+00  0.0000000000000000e+00  0.0000000000000000e+00  0.0000000000000000e+00  0.0000000000000000e+00  0.0000000000000000e+00  0.0000000000000000e+00  0.0000000000000000e+00  0.0000000000000000e+00  0.0000000000000000e+00  0.0000000000000000e+00  0.0000000000000000e+00  0.0000000000000000e+00  0.0000000000000000e+00  0.0000000000000000e+00  0.0000000000000000e+00  0