<?xml version="1.0"?>
<VTKFile type="UnstructuredGrid"  version="0.1"  >
<UnstructuredGrid>
<Piece  NumberOfPoints="825" NumberOfCells="1536">
<Points>
<DataArray  type="Float64"  NumberOfComponents="3"  format="ascii">-1.040001513872203e-21 0.5 0  0.06249999988717435 0.5000000013515269 0  0.06249999643499309 0.5625000029469939 0  -4.832672269883238e-09 0.5624999999745526 0  0.1249999996266597 0.5000000031422449 0  0.1249999966119266 0.5625000045427264 0  0.1874999990736808 0.5000000051120896 0  0.1874999961406764 0.5625000058151414 0  0.2499999980908207 0.5000000067698082 0  0.2499999952072312 0.5625000068375738 0  0.3124999965054155 0.5000000078636161 0  0.3124999938005569 0.5625000073030633 0  0.3749999936699293 0.5000000074464533 0  0.3749999917885367 0.5625000070233608 0  0.437499990345614 0.5000000065736896 0  0.4374999893995141 0.5625000062897872 0  0.4999999866681908 0.5000000050676559 0  0.4999999868568228 0.562500005000115 0  0.5624999827377866 0.500000002598337 0  0.5624999843201445 0.5625000033853721 0  0.6249999802047471 0.500000001349048 0  0.6249999822331491 0.562500002182763 0  0.6874999786356729 0.5000000006145999 0  0.6874999807024912 0.5625000009714695 0  0.7499999766318197 0.4999999983752992 0  0.7499999793934131 0.5624999993995512 0  0.8124999756286581 0.4999999971498027 0  0.8124999785404529 0.5624999981120372 0  0.8749999754535541 0.4999999962367427 0  0.8749999781184933 0.5624999967021052 0  0.9374999746698981 0.4999999937884053 0  0.9374999778466196 0.5624999949978485 0  0.9999999749244753 0.4999999926017612 0  0.9999999779669203 0.5624999936641951 0  1.062499975824458 0.4999999916711183 0  1.062499978422819 0.5624999922561392 0  1.124999975996052 0.499999989338711 0  1.124999978951565 0.5624999906355624 0  1.187499977103962 0.4999999882431404 0  1.18749997978 0.5624999894699011 0  1.249999978885407 0.4999999876800792 0  1.24999998086737 0.5624999883947899 0  1.312499979866194 0.4999999858981871 0  1.312499981941944 0.562499987270904 0  1.374999981604806 0.4999999854147619 0  1.374999983195555 0.5624999867290468 0  1.437499983781719 0.4999999855217195 0  1.437499984570322 0.5624999864980629 0  1.49999998535724 0.4999999852146442 0  1.499999985833047 0.5624999866614225 0  1.562499987469504 0.4999999866971296 0  1.562499987203497 0.5624999877499727 0  1.62499999003005 0.4999999890977818 0  1.624999988706091 0.562499989358111 0  1.687499992365608 0.4999999911765206 0  1.687499990152892 0.5624999912506219 0  1.749999994837269 0.4999999936894708 0  1.749999991581026 0.5624999935171304 0  1.812499997265997 0.4999999962181648 0  1.812499992881083 0.5624999958863363 0  1.874999999151947 0.4999999982801281 0  1.874999993857775 0.5624999983583219 0  1.937500000325656 0.4999999997197843 0  1.937499994658737 0.5625000011642028 0  2 0.5 0  1.999999997258499 0.5625000047173455 0  0.06249999353853915 0.6250000036172911 0  -7.368259105456465e-09 0.6250000011929739 0  0.1249999938935123 0.6250000051309017 0  0.1874999936868479 0.6250000061515111 0  0.2499999930261643 0.6250000068209302 0  0.3124999919738314 0.6250000070587589 0  0.3749999905446173 0.6250000068148132 0  0.4374999888445692 0.6250000061455381 0  0.4999999870236078 0.6250000050975233 0  0.5624999852060989 0.6250000038407939 0  0.6249999835887099 0.6250000026044451 0  0.6874999823066136 0.6250000013462891 0  0.7499999813098898 0.6250000000002841 0  0.8124999806115885 0.624999998649226 0  0.874999980226945 0.6249999972453919 0  0.9374999800731583 0.6249999957817394 0  0.9999999801562697 0.6249999943692902 0  1.062499980480515 0.6249999929706971 0  1.124999980958335 0.624999991591664 0  1.187499981586638 0.6249999903633385 0  1.249999982364823 0.6249999892801754 0  1.312499983202838 0.6249999883677428 0  1.374999984083626 0.6249999877686805 0  1.437499984990456 0.6249999875289839 0  1.499999985854392 0.6249999877393771 0  1.562499986704295 0.624999988516546 0  1.624999987567771 0.6249999897901436 0  1.687499988397361 0.6249999914665807 0  1.749999989171146 0.6249999934960671 0  1.812499989858915 0.6249999957994005 0  1.874999990456906 0.6249999983759519 0  1.937499991204987 0.6250000012335724 0  1.999999992478835 0.6250000037920247 0  0.06249999150212375 0.6875000039784126 0  -9.00435071646016e-09 0.6875000021798779 0  0.124999991805543 0.6875000052785402 0  0.1874999917513561 0.6875000061385745 0  0.249999991341513 0.6875000066325572 0  0.3124999906164902 0.6875000067613404 0  0.3749999896205903 0.687500006518363 0  0.4374999884264146 0.6875000059301465 0  0.499999987127195 0.6875000050531321 0  0.5624999858215081 0.6875000039888612 0  0.62499998462533 0.6875000028405381 0  0.6874999836275349 0.6875000016361762 0  0.7499999828509429 0.6875000003738025 0  0.8124999823039141 0.6874999990683346 0  0.8749999819846566 0.6874999977226338 0  0.937499981865564 0.6874999963501189 0  0.9999999819308349 0.6874999949856483 0  1.062499982163743 0.6874999936473968 0  1.124999982526069 0.6874999923632727 0  1.187499982992609 0.687499991186251 0  1.249999983539738 0.6874999901558883 0  1.312499984124455 0.6874999893196226 0  1.374999984715438 0.6874999887495201 0  1.43749998528768 0.6874999885119463 0  1.499999985816075 0.6874999886729843 0  1.562499986303841 0.6874999892807807 0  1.624999986761462 0.6874999903245964 0  1.68749998718462 0.6874999917597293 0  1.749999987572954 0.6874999935332251 0  1.812499987937126 0.6874999955798894 0  1.874999988322947 0.6874999978156338 0  1.937499988824141 0.6875000000502464 0  1.999999989352083 0.6875000019048831 0  0.06249999013076442 0.750000004215409 0  -1.012585572002872e-08 0.7500000029467391 0  0.1249999903310972 0.7500000052417972 0  0.1874999903350651 0.7500000059465546 0  0.2499999900973529 0.7500000063319956 0  0.3124999896260627 0.7500000064038779 0  0.3749999889534948 0.7500000061696966 0  0.4374999881300805 0.750000005652678 0  0.4999999872194518 0.7500000048971026 0  0.5624999862933204 0.7500000039660425 0  0.6249999854273092 0.7500000029202033 0  0.6874999846829278 0.750000001794659 0  0.7499999840933698 0.7500000006060564 0  0.8124999836720649 0.7499999993674835 0  0.8749999834184329 0.7499999980911523 0  0.9374999833198434 0.7499999967942839 0  0.9999999833604953 0.7499999955007234 0  1.062499983520913 0.7499999942356858 0  1.124999983775265 0.7499999930302053 0  1.187499984097927 0.749999991923551 0  1.249999984462668 0.7499999909575588 0  1.31249998483981 0.7499999901793454 0  1.374999985202929 0.74999998964318 0  1.437499985531578 0.7499999894034302 0  1.499999985813436 0.7499999895079099 0  1.562499986049583 0.7499999899858242 0  1.624999986249173 0.7499999908353123 0  1.687499986422856 0.7499999920256469 0  1.749999986585433 0.7499999935025591 0  1.812499986759371 0.7499999951842309 0  1.874999986973726 0.7499999969445718 0  1.937499987231716 0.74999999858804 0  1.999999987424263 0.7499999998939265 0  0.06249998923214081 0.8125000044013213 0  -1.088619642357143e-08 0.8125000035542861 0  0.1249999893480147 0.8125000051557848 0  0.1874999893652456 0.8125000056989643 0  0.2499999892326611 0.8125000059908172 0  0.312499988939322 0.8125000060221332 0  0.374999988500299 0.8125000057980457 0  0.4374999879475881 0.812500005336988 0  0.499999987324458 0.8125000046710539 0  0.5624999866809652 0.8125000038419343 0  0.624999986068446 0.8125000028906875 0  0.6874999855305424 0.8125000018484452 0  0.7499999850962241 0.8125000007365241 0  0.8124999847798402 0.8124999995715387 0  0.8749999845836306 0.8124999983694824 0  0.9374999845005915 0.8124999971489124 0  0.9999999845179898 0.8124999959320827 0  1.062499984618775 0.8124999947446512 0  1.124999984782294 0.8124999936166811 0  1.187499984986367 0.8124999925829924 0  1.249999985208206 0.8124999916820623 0  1.312499985425198 0.8124999909557523 0  1.374999985617687 0.8124999904480853 0  1.437499985771679 0.8124999902012074 0  1.499999985881156 0.8124999902493372 0  1.562499985949473 0.8124999906108811 0  1.62499998598754 0.8124999912815541 0  1.687499986010966 0.8124999922315508 0  1.749999986038597 0.8124999934039954 0  1.812499986089944 0.8124999947106604 0  1.874999986176314 0.8124999960255748 0  1.937499986280154 0.8124999971885941 0  1.999999986338534 0.8124999980416239 0  0.06249998867390592 0.8750000045663331 0  -1.137443381889896e-08 0.8750000040446655 0  0.1249999887348712 0.8750000050781985 0  0.1874999887505129 0.8750000054623167 0  0.2499999886795192 0.8750000056609688 0  0.3124999885046552 0.8750000056512446 0  0.3749999882290408 0.8750000054303425 0  0.4374999878705623 0.8750000050093921 0  0.4999999874571022 0.8750000044102689 0  0.5624999870223581 0.8750000036615573 0  0.6249999866012296 0.8750000027928868 0  0.6874999862244555 0.8750000018302594 0  0.7499999859143732 0.8750000007949732 0  0.8124999856834866 0.8749999997053567 0  0.8749999855351153 0.8749999985791971 0  0.9374999854650649 0.8749999974357597 0  0.9999999854635833 0.87499999629688 0  1.062499985516852 0.8749999951874051 0  1.124999985608246 0.8749999941355441 0  1.187499985719734 0.8749999931727973 0  1.24999998583316 0.8749999923333314 0  1.312499985931648 0.8749999916529894 0  1.374999986001526 0.8749999911674134 0  1.437499986034342 0.8749999909087053 0  1.499999986028437 0.8749999909007031 0  1.562499985989487 0.8749999911534337 0  1.624999985929476 0.874999991658045 0  1.687499985864574 0.8749999923831888 0  1.749999985812369 0.8749999932723475 0  1.812499985787517 0.8749999942416166 0  1.874999985794564 0.8749999951799849 0  1.937499985820118 0.8749999959578396 0  1.999999985835943 0.8749999964452642 0  0.06249998836475627 0.9375000047213744 0  -1.165272875469048e-08 0.9375000044464286 0  0.1249999883951183 0.9375000050284716 0  0.1874999884072607 0.9375000052652072 0  0.2499999883726163 0.9375000053709799 0  0.3124999882747169 0.9375000053152056 0  0.3749999881105739 0.9375000050876126 0  0.4374999878885527 0.9375000046919296 0  0.4999999876253008 0.9375000041416831 0  0.5624999873424747 0.9375000034564585 0  0.6249999870632357 0.9375000026581672 0  0.6874999868086724 0.93750
[...]
<PointData  Scalars="p"> 
<DataArray  type="Float64"  Name="p"  format="ascii">0.0000000000000000e+00  -1.3756957310179997e-05  -1.4684342104849253e-05  0.0000000000000000e+00  -2.3500208458560101e-05  -2.4216181013137723e-05  -2.9772513224051757e-05  -3.0146111538344447e-05  -3.3310053144499412e-05  -3.3412009761273541e-05  -3.4760141740051295e-05  -3.4683155108269490e-05  -3.4636219874378624e-05  -3.4455347654168442e-05  -3.3331366590808643e-05  -3.3099877191978752e-05  -3.1142673326512318e-05  -3.0896101044534295e-05  -2.8294332020990173e-05  -2.8055036145919223e-05  -2.4954873926033647e-05  -2.4736316598970143e-05  -2.1249958034932245e-05  -2.1060359711211072e-05  -1.7273540206768606e-05  -1.7118388897332141e-05  -1.3098795827102176e-05  -1.2981867853081513e-05  -8.7866347373152648e-06  -8.7097485465340114e-06  -4.3868371938647332e-06  -4.3516609599452063e-06  5.5290336104206244e-08  4.7940903741031477e-08  4.4965773004434799e-06  4.4467820482207974e-06  8.8957140657541023e-06  8.8032793396923213e-06  1.3206993830870247e-05  1.3072616663744309e-05  1.7378034882285366e-05  1.7203749028940781e-05  2.1348674840160566e-05  2.1137198861211817e-05  2.5042843553726713e-05  2.4799555932814788e-05  2.8363451631330210e-05  2.8097924349046722e-05  3.1187217238752010e-05  3.0914084346516936e-05  3.3350799795724248e-05  3.3093867324411323e-05  3.4637559533379916e-05  3.4434268936919605e-05  3.4761713659531544e-05  3.4667171812439030e-05  3.3341402555019576e-05  3.3433439465931415e-05  2.9871699330841584e-05  3.0245436365991653e-05  2.3703540935344972e-05  2.4423695892012685e-05  1.4045058644920148e-05  1.4948775977120530e-05  0.0000000000000000e+00  0.0000000000000000e+00  -1.6467984239932133e-05  0.0000000000000000e+00  -2.5906991649636422e-05  -3.1253576932872929e-05  -3.3944770569200305e-05  -3.4782401901221735e-05  -3.4269092815368415e-05  -3.2747626078421870e-05  -3.0464869923964456e-05  -2.7604424416783089e-05  -2.4305521157503592e-05  -2.0674845701610709e-05  -1.6795028282689268e-05  -1.2731916282178516e-05  -8.5402087635781827e-06  -4.2669288211099983e-06  4.5598358867633507e-08  4.3572065940075043e-06  8.6278151227248944e-06  1.2814769315100827e-05  1.6870248436888272e-05  2.0738758833031629e-05  2.4353324106786503e-05  2.7630930747339106e-05  3.0466946978992468e-05  3.2726781953271304e-05  3.4233925262929468e-05  3.4751154718768436e-05  3.3946077233708595e-05  3.1321982390726927e-05  2.6063961865602027e-05  1.6665710124496977e-05  0.0000000000000000e+00  -1.8371716926246119e-05  0.0000000000000000e+00  -2.7986546267032456e-05  -3.2851910466107462e-05  -3.4935722952658408e-05  -3.5248025060174285e-05  -3.4346820206792512e-05  -3.2569017136952962e-05  -3.0136416036086143e-05  -2.7205538794466689e-05  -2.3892716890621618e-05  -2.0287376450222236e-05  -1.6459898921077585e-05  -1.2467480090177746e-05  -8.3584778507441019e-06  -4.1752639552125141e-06  4.3571206933649947e-08  4.2612362385592242e-06  8.4408858844405308e-06  1.2543644700532550e-05  1.6526656887860124e-05  2.0340972246813933e-05  2.3928865467833429e-05  2.7220193277783372e-05  3.0127462028973225e-05  3.2538247833732722e-05  3.4302032417003318e-05  3.5205200779786351e-05  3.4919666810033156e-05  3.2892173151968305e-05  2.8101482308318054e-05  1.8524785200568367e-05  0.0000000000000000e+00  -2.0207750999163442e-05  0.0000000000000000e+00  -3.0164118351761755e-05  -3.4701967525520752e-05  -3.6251627454161052e-05  -3.6044139197109611e-05  -3.4721792185279636e-05  -3.2638550354228202e-05  -3.0004983881725213e-05  -2.6957542349510675e-05  -2.3592354292990572e-05  -1.9981747099515899e-05  -1.6182732440191775e-05  -1.2242357284487590e-05  -8.2012315151273340e-06  -4.0956714558508445e-06  4.0761212508835897e-08  4.1758383958195581e-06  8.2772580245315290e-06  1.2311261463438238e-05  1.6241231817321580e-05  2.0026265727231412e-05  2.3619156279887088e-05  2.6963412926242880e-05  2.9988525891028195e-05  3.2601734906729190e-05  3.4671723823124709e-05  3.5994958854461753e-05  3.6225139682593474e-05  3.4724169070085292e-05  3.0251984770984443e-05  2.0332711594186598e-05  0.0000000000000000e+00  -2.1927503680479268e-05  0.0000000000000000e+00  -3.2302436238944074e-05  -3.6635147263143205e-05  -3.7744652204837219e-05  -3.7065687813233403e-05  -3.5332630820662314e-05  -3.2930130051552987e-05  -3.0069260180983955e-05  -2.6874414557014222e-05  -2.3426164395929221e-05  -1.9781933261783059e-05  -1.5986004519575411e-05  -1.2075089529022019e-05  -8.0814992367959491e-06  -4.0347563114915234e-06  3.7405860556888560e-08  4.1081255387766722e-06  8.1504923490824936e-06  1.2136633109876958e-05  1.6036891010676584e-05  1.9818851523128782e-05  2.3445916396683390e-05  2.6874438561249105e-05  3.0048657119084032e-05  3.2890972481691168e-05  3.5281438389734463e-05  3.7015043277364559e-05  3.7713833659042660e-05  3.6647275749646624e-05  3.2373214757441028e-05  2.2033515040672631e-05  0.0000000000000000e+00  -2.3512933229487639e-05  0.0000000000000000e+00  -3.4327091258016089e-05  -3.8536583094508257e-05  -3.9290065318815364e-05  -3.8200564450654918e-05  -3.6090129438965814e-05  -3.3378969374301422e-05  -3.0285841074119746e-05  -2.6929419172994034e-05  -2.3379292771805918e-05  -1.9680851669662967e-05  -1.5867215976877915e-05  -1.1965457090151040e-05  -7.9997551200163942e-06  -3.9927141039123256e-06  3.4040272026430346e-08  4.0593602224200339e-06  8.0620583908713821e-06  1.2020439082572469e-05  1.5911839626458374e-05  1.9712152991151378e-05  2.3394536128867152e-05  2.6926564991557780e-05  3.0264355580058491e-05  3.3340887098060092e-05  3.6041344149354559e-05  3.8152223988327177e-05  3.9259114729911265e-05  3.8543450150717090e-05  3.4386127217312618e-05  2.3604540719818502e-05  0.0000000000000000e+00  -2.4948154451279751e-05  0.0000000000000000e+00  -3.6186310964067771e-05  -4.0322583684959772e-05  -4.0788253374733504e-05  -3.9349151305243385e-05  -3.6905207410423288e-05  -3.3911369165850674e-05  -3.0597149905706424e-05  -2.7079535816845462e-05  -2.3420736705502113e-05  -1.9656853573446268e-05  -1.5811721340128466e-05  -1.1903939155176026e-05  -7.9502355018774190e-06  -3.9666558572356631e-06  3.1101826505584080e-08  4.0275003120372816e-06  8.0069834450180898e-06  1.1953809305643930e-05  1.5851956423541586e-05  1.9684808932204326e-05  2.3434111949791129e-05  2.7076686344152386e-05  3.0577749289239835e-05  3.3877311350045695e-05  3.6861658765226056e-05  3.9305766976203093e-05  4.0759737534325076e-05  4.0326742154786079e-05  3.6236038699454980e-05  2.5027195305388306e-05  0.0000000000000000e+00  -2.6213024264964788e-05  0.0000000000000000e+00  -3.7835274206341186e-05  -4.1926203484177226e-05  -4.2158776888110536e-05  -4.0427581995550593e-05  -3.7698651943523652e-05  -3.4457671254335792e-05  -3.0945134508991675e-05  -2.7278354516932668e-05  -2.3514648167277648e-05  -1.9683112161560568e-05  -1.5800123110382651e-05  -1.1877178987144076e-05  -7.9245413652416171e-06  -3.9524153548818842e-06  2.8877026693432720e-08  4.0089374434431078e-06  7.9773530846686331e-06  1.1923790955581184e-05  1.5838075678058946e-05  1.9710117704037336e-05  2.3528722977596104e-05  2.7278169771995739e-05  3.0930466677016784e-05  3.4430113672617835e-05  3.7662558075744877e-05  4.0391053892583701e-05  4.2134206799271697e-05  4.1928818981992137e-05  3.7876436716970483e-05  2.6279719906290831e-05  0.0000000000000000e+00  -2.7283035056131805e-05  0.0000000000000000e+00  -3.9230933788632486e-05  -4.3289861862558933e-05  -4.3334950531784666e-05  -4.1366267976445149e-05  -3.8403400417136309e-05  -3.4957173324159093e-05  -3.1277488163315258e-05  -2.7482597927614775e-05  -2.3626464353844527e-05  -1.9732938733692220e-05  -1.5812592301195666e-05  -1.1871225236636051e-05  -7.9137941771161874e-06  -3.9456279062455838e-06  2.7495218637728580e-08  3.9995442438135862e-06  7.9644827454302920e-06  1.1916526978743267e-05  1.5850397710309105e-05  1.9761266422495782e-05  2.3643649143789619e-05  2.7487474682314021e-05  3.1269852263880937e-05  3.4938254765464059e-05  3.8376589797132757e-05  4.1338035006580191e-05  4.3315303775905033e-05  4.3291319979811822e-05  3.9263290126360334e-05  2.7336614861789708e-05  0.0000000000000000e+00  -2.8131010303601358e-05  0.0000000000000000e+00  -4.0331280775630533e-05  -4.4362397022231842e-05  -4.4260622959293369e-05  -4.2107880792537052e-05  -3.8964380578511727e-05  -3.5359566593721591e-05  -3.1550230005720126e-05  -2.7655253508478195e-05  -2.3726103340901045e-05  -1.9782724204414202e-05  -1.5831332268813485e-05  -1.1873418057476788e-05  -7.9098914257064255e-06  -3.9423361369168015e-06  2.6973908419700092e-08  3.9953871662577514e-06  7.9602487291852314e-06  1.1919289898853762e-05  1.5870962643420627e-05  1.9814472144449941e-05  2.3748532030487584e-05  2.7667364563725424e-05  3.1551676898917909e-05  3.5351145488020666e-05  3.8948450785851457e-05  4.2089127538390889e-05  4.4246544204414920e-05  4.4362658777807702e-05  4.0353977488571610e-05  2.8170108436973203e-05  0.0000000000000000e+00  -2.8729225231999422e-05  0.0000000000000000e+00  -4.1096445734817641e-05  -4.5098631521539545e-05  -4.4888808284701710e-05  -4.2606156569056587e-05  -3.9337928787972929e-05  -3.5625275958840257e-05  -3.1728741294112403e-05  -2.7767062784515238e-05  -2.3789623100475739e-05  -1.9813532151367373e-05  -1.5841959953804255e-05  -1.1873457662489955e-05  -7.9062091563106828e-06  -3.9393022254226165e-06  2.7311916854903127e-08  3.9932133737044556e-06  7.9579839613023650e-06  1.1921680575318015e-05  1.5885247986441486e-05  1.9850566600711693e-05  2.3819228152771696e-05  2.7788288796278977e-05  3.1741121410843239e-05  3.5628983626065952e-05  3.9334253972724687e-05  4.2597849046771690e-05  4.4880699310448644e-05  4.5097328590462157e-05  4.1108260910897800e-05  2.8752124658324328e-05  0.0000000000000000e+00  -2.9051414966389748e-05  0.0000000000000000e+00  -4.1490456529232025e-05  -4.5460013789577507e-05  -4.5181629186507684e-05  -4.2825424720998982e-05  -3.9491576453134222e-05  -3.5725510665702576e-05  -3.1788244543579554e-05  -2.7797229297123689e-05  -2.3800075812363256e-05  -1.9811957285780790e-05  -1.5834282586919920e-05  -1.1864030171018780e-05  -7.8980376252438269e-06  -3.9342242132204751e-06  2.8499124573775939e-08  3.9906931315126476e-06  7.9529225623231948e-06  1.1916290687039190e-05  1.5882897069061258e-05  1.9855937843019910e-05  2.3838466780434192e-05  2.7829174390276062e-05  3.1813009274032804e-05  3.5742723894949386e-05  3.9501227820025323e-05  4.2828331609780241e-05  4.5179686185914054e-05  4.5456615142464818e-05  4.1489982990710133e-05  2.9056280459543733e-05  0.0000000000000000e+00  -2.9074466506204228e-05  0.0000000000000000e+00  -4.1482865305625798e-05  -4.5415720700958667e-05  -4.5110677937537278e-05  -4.2740699992296414e-05  -3.9403849458411654e-05  -3.5642242125139974e-05  -3.1713761114864709e-05  -2.7733598782898336e-05  -2.3747724922373369e-05  -1.9770418499238023e-05  -1.5802581897823934e-05  -1.1841066238340649e-05  -7.8827799515797821e-06  -3.9258645827703532e-06  3.0470027226303632e-08  3.9864502044228923e-06  7.9423105076873904e-06  1.1898855582072814e-05  1.5857957090608624e-05  1.9822688246949704e-05  2.3796173172593667e-05  2.7777394067024199e-05  3.1752011316312352e-05  3.5673864322002535e-05  3.9427666034824081e-05  4.2755330264601488e-05  4.5115027454942634e-05  4.5409640351147946e-05  4.1468712835487120e-05  2.9059492547951268e-05  0.0000000000000000e+00  -2.8779557901197815e-05  0.0000000000000000e+00  -4.1050022490567068e-05  -4.4943542901397022e-05  -4.4657488133512482e-05  -4.2337611193111243e-05  -3.9064019198573460e-05  -3.5367569960057316e-05  -3.1499611889236109e-05  -2.7571976369804323e-05  -2.3629534212936867e-05  -1.9686646011231821e-05  -1.5745205547470201e-05  -1.1803393296188509e-05  -7.8596888330372397e-06  -3.9138663778383282e-06  3.3198578398009667e-08  3.9800694885798327e-06  7.9253183380594918e-06  1.1868090793826513e-05  1.5808605586772699e-05  1.9748350842738553e-05  2.3689004620558608e-05  2.7628493995667103e-05  3.1552024705971229e-05  3.5414247189300953e-05  3.9102449023372303e-05  4.2364258090027244e-05  4.4668022901414523e-05  4.4934087002356681e-05  4.1020742466027370e-05  2.8742966976368840e-05  0.0000000000000000e+00  -2.8152616374886736e-05  0.0000000000000000e+00  -4.0175595443930708e-05  -4.4030197029504010e-05  -4.3813496809932463e-05  -4.1611964933795578e-05  -3.8471184566890591e-05  -3.4902644034679562e-05  -3.1147879575000588e-05  -2.7314752141137966e-05  -2.3447595104814166e-05  -1.9562335794741778e-05  -1.5663322424056318e-05  -1.1751738199212248e-05  -7.8291139675388304e-06  -3.8982905382902128e-06  3.6863049408907957e-08  3.9719538309606301e-06  7.9026048207862190e-06  1.1824965470943212e-05  1.5736199004432436e-05  1.9634681309709393e-05  2.3519097696539457e-05  2.7384701547857564e-05  3.1215008461829495e-05  3.4964666596903868e-05  3.8524323387629371e-05  4.1650448128522960e-05  4.3829658030182389e-05  4.4016294998554047e-05  4.0129496270826891e-05  2.8092571231881534e-05  0.0000000000000000e+00  -2.7183861254537086e-05  0.0000000000000000e+00  -3.8849847614364520e-05  -4.2670378747931479e-05  -4.2578630204193861e-05  -4.0567878651100188e-05  -3.7631848255551967e-05  -3.4254758028489717e-05  -3.0665396799083525e-05  -2.6967518449443334e-05  -2.3206119322014923e-05  -1.9400219745094409e-05  -1.5558524143679037e-05  -1.1686799115499958e-05  -7.7911963772484745e-06  -3.8789462574656926e-06  4.1843234132162512e-08  3.9626576478229759e-06  7.8749967418961049e-06  1.1770792534478666e-05  1.5642795265538844e-05  1.9484798741073450e-05  2.3290790729858356e-05  2.7051681503225667e-05  3.0747557991178940e-05  3.4332051496542886e-05  3.7699251340242143e-05  4.0617354650815172e-05  4.2599218143631322e-05  4.2650381002093420e-05  3.8784842761690729e-05  2.7098345019302615e-05  0.0000000000000000e+00  -2.5865969205139455e-05  0.0000000000000000e+00  -3.7066952488301820e-05  -4.0863322041683527e-05  -4.0956990913119678e-05  -3.9212367759512550e-05  -3.6553671294775471e-05  -3.3430325742693598e-05  -3.0056374277313811e-05  -2.6531970497369761e-05  -2.2904480253978522e-05  -1.9198092726189379e-05  -1.5427657371132040e-05  -1.1605306899039358e-05  -7.7431455943106879e-06  -3.8540084814458735e-06  4.8757391663413257e-08  3.9515664234058027e-06  7.8408626681148275e-06  1.1703332804798364e-05  1.5526164979219823e-05  1.9297141801110335e-05  2.3003963854171620e-05  2.6631226708718045e-05  3.0153726156248109e-05  3.3522343939858387e-05  3.6634098372305820e-05  3.9271069109637647e-05  4.0979749627252662e-05  4.0834526547623234e-05  3.6980046543615894e-05  2.5752344638407006e-05  0.0000000000000000e+00  -2.4190000490994395e-05  0.0000000000000000e+00  -3.4818652695705037e-05  -3.8604460134029212e-05  -3.8946433545476710e-05  -3.7542877637848362e-05  -3.5231289801346930e-05  -3.2419910575121492e-05  -2.9307140178494733e-05  -2.5991143115787181e-05  -2.2523865535659123e-05  -1.8936856607940447e-05  -1.5253084778464201e-05  -1.1492420479478899e-05  -7.6741090784974142e-06  -3.8173677964472594e-06  5.8550729978449370e-08  3.9344488202391543e-06  7.7911483691128725e-06  1.1609459010872485e-05  1.5370149481415161e-05  1.9053930600019166e-05  2.2640676797855081e-05  2.6106897617642833e-05  2.9419845502332170e-05  3.2525508575855506e-05  3.5322453961501492e-05  3.7607508710510898e-05  3.8967256993467097e-05  3.8562217019483880e-05  3.4704985786834437e-05  2.4044258528427906e-05  0.0000000000000000e+00  -2.2137198422256810e-05  0.0000000000000000e+00  -3.2080485606277863e-05  -3.5866486926852726e-05  -3.6514657410576047e-05  -3.5519397543086947e-05  -3.3615782776103779e-05  -3.1166601595915993e-05  -2.8355293126123596e-05  -2.5280377452789766e-05  -2.2000977472283523e-05  -1.8558052597730107e-05  -1.4984087952771931e-05  -1.1307703792260094e-05  -7.5557128242609737e-06  -3.7539763930661848e-06  7.2344334528135151e-08  3.8984718886186759e-06  7.6996620579500280e-06  1.1450781188760254e-05  1.5125979894464851e-05  1.8698317794578724e-05  2.2138973660333051e-05  2.5414833062609809e-05  2.8483641269001904e-05  3.1284088967451815e-05  3.3713993311486429e-05  3.5584494367433550e-05  3.6526758303681013e-05  3.5803174705213406e-05  3.1932304312615199e-05  2.1953062442007038e-05  0.0000000000000000e+00  -1.9662605293720812e-05  0.0000000000000000e+00  -2.8782127070758700e-05  -3.2557312954167850e-05  -3.3546497519081394e-05  -3.3004151524246137e-05  -3.1550686218994003e-05  -2.9501768140971339e-05  -2.7027896782425047e-05  -2.4230449892356784e-05  -2.1177535339361400e-05  -1.7920573053227048e-05  -1.4501898646002158e-05  -1.0958581868246849e-05  -7.3244907442129316e-06  -3.6312857791357388e-06  9.0842579386509442e-08  3.8125075588807855e-06  7.5043265785479684e-06  1.1136126878754575e-05  1.4676161284515828e-05  1.8090423183711433e-05  2.1341503748683884e-05  2.4386383139840309e-05  2.7172271612044813e-05  2.9628750249036462e-05  3.1650672802583797e-05  3.3061796538986226e-05  3.3539861728019736e-05  3.2461714500108303e-05  2.8588183342648763e-05  1.9430862156880883e-05  0.0000000000000000e+00  -1.6661374828384482e-05  0.0000000000000000e+00  -2.4742973905680685e-05  -2.8427978593839267e-05  -2.9731030360864546e-05  -2.9636449919249706e-05  -2.8642672286224301e-05  -2.7018381034433424e-05  -2.4922314820019351e-05  -2.2459015356865380e-05  -1.9704806293143257e-05  -1.6719906100179914e-05  -1.3554370289163656e-05  -1.0251436300008087e-05  -6.8495787999051126e-06  -3.3839315923654250e-06  1.1263525642231851e-07  3.6083906495747173e-06  7.0716009899104125e-06  1.0469322599135996e-05  1.3766265798666077e-05  1.6923633890208316e-05  1.9897736907970059e-05  2.2637654695647383e-05  2.5081657753521618e-05  2.7151113499348437e-05  2.8737705923182610e-05  2.9676972092074793e-05  2.9693742060953932e-05  2.8287212231239224e-05  2.4490702072091690e-05  1.6371393249959397e-05  0.0000000000000000e+00  -1.2893142257161149e-05  0.0000000000000000e+00  -1.9525422046534423e-05  -2.2868553489138530e-05  -2.4320727476489046e-05  -2.4575431974293058e-05  -2.4003684707925863e-05  -2.2823478735539666e-05  -2.1176563407838390e-05  -1.9164015895537868e-05  -1.6863191796233088e-05  -1.4336120229054310e-05  -1.1634071253339111e-05  -8.8005259575937336e-06  -5.8733263175581378e-06  -2.8862652714297266e-06  1.2950869211970216e-07  3.1441747121216869e-06  6.1278675750885175e-06  9.0493032777164618e-06  1.1874378145152601e-05  1.4564794257329275e-05  1.7076382989186698e-05  1.9356818060497868e-05  2.1342454000271493e-05  2.2953573555330212e-05  2.4085469932491138e-05  2.4591119904714832e-05  2.4246732599233808e-05  2.2679605033009625e-05  1.9215041058885734e-05  1.2544855491219337e-05  0.0000000000000000e+00  -7.7977907169865705e-06  0.0000000000000000e+00  -1.2092593163007245e-05  -1.4459224038892371e-05  -1.5628287388337137e-05  -1.5982227877424227e-05  -1.5744875347102027e-05  -1.5060782658347438e-05  -1.4031294208689793e-05  -1.2732060918959523e-05  -1.1222044388784949e-05  -9.5484626380208992e-06  -7.7498751475237152e-06  -5.8583992599743196e-06  -3.9014094444895202e-06  -1.9029160729912662e-06  1.1526344672799113e-07  2.1323748811309127e-06  4.1276159450955426e-06  6.0789917135406201e-06  7.9621651166028391e-06  9.7492430258614091e-06  1.1407394640433596e-05  1.2897021943901181e-05  1.4169430143084135e-05  1.5163641229081384e-05  1.5801046919921704e-05  1.5976191950314527e-05  1.5540070029030240e-05  1.4267380983254319e-05  1.1790017790531662e-05  7.4547174593603040e-06  0.0000000000000000e+00  0.0000000000000000e+00  0.0000000000000000e+00  0.0000000000000000e+00  0.0000000000000000e+00  0.0000000000000000e+00  0.0000000000000000e+00  0.0000000000000000e+00  0.0000000000000000e+00  0.0000000000000000e+00  0.0000000000000000e+00  0.0000000000000000e+00  0.0000000000000000e+00  0.0000000000000000e+00  0.0000000000000000e+00  0.0000000000000000e+00  0.0000000000000000e+00  0.0000000000000000e+00  0.0000000000000000e+00  0.0000000000000000e+00  0.0000000000000000e+00  0.0000000000000000e+00  0.0000000000000000e+00  0.0000000000000000e+00  0