<?xml version="1.0"?>
<VTKFile type="UnstructuredGrid"  version="0.1"  >
<UnstructuredGrid>
<Piece  NumberOfPoints="825" NumberOfCells="1536">
<Points>
<DataArray  type="Float64"  NumberOfComponents="3"  format="ascii">-1.044927000928401e-21 0.5 0  0.06249999999378089 0.500000000154901 0  0.06249999892482811 0.5625000011069411 0  -2.456614171672953e-09 0.5625000000796206 0  0.1249999998998583 0.5000000000942511 0  0.1249999993679383 0.5625000009798226 0  0.1874999995859385 0.4999999997225102 0  0.1874999992642219 0.5625000004204871 0  0.2499999990839571 0.4999999992210193 0  0.2499999988257848 0.562499999699416 0  0.3124999983686049 0.4999999985733243 0  0.3124999981145 0.5624999987442603 0  0.3749999968997155 0.499999997139174 0  0.3749999970584453 0.562499997549571 0  0.4374999954099983 0.4999999959703305 0  0.4374999959055787 0.562499996495464 0  0.4999999940368946 0.4999999949899749 0  0.4999999948528366 0.562499995490125 0  0.5624999926170159 0.4999999935519002 0  0.5624999939794402 0.5624999946594142 0  0.6249999925645937 0.4999999936725758 0  0.6249999936091879 0.5624999945951862 0  0.6874999932762351 0.4999999944778967 0  0.6874999937355073 0.562499994728454 0  0.7499999931777573 0.4999999936585794 0  0.7499999939214049 0.5624999945995068 0  0.8124999938762409 0.4999999941412515 0  0.812499994353077 0.5624999948536622 0  0.874999994991156 0.4999999948418591 0  0.8749999949806228 0.5624999950037767 0  0.9374999950846089 0.4999999938478059 0  0.9374999954796734 0.5624999948327531 0  0.9999999959770405 0.4999999943342814 0  0.9999999960951798 0.5624999950421142 0  1.062499997088903 0.4999999949193636 0  1.062499996776698 0.5624999951156641 0  1.124999997060843 0.4999999938757859 0  1.124999997240414 0.5624999948710527 0  1.187499997742649 0.4999999942105112 0  1.187499997734105 0.5624999950063405 0  1.249999998688201 0.4999999948218696 0  1.249999998239115 0.5624999950740665 0  1.312499998456997 0.4999999938753614 0  1.312499998478816 0.5624999948774436 0  1.374999998812702 0.4999999942410903 0  1.374999998684257 0.5624999950628115 0  1.437499999267422 0.4999999947833551 0  1.437499998839523 0.562499995253385 0  1.499999998839085 0.4999999943420323 0  1.499999998721451 0.5624999954536097 0  1.562499998897961 0.499999995466691 0  1.562499998597837 0.5624999962252584 0  1.624999999216986 0.499999996967821 0  1.624999998547046 0.5624999971296232 0  1.687499999220615 0.4999999976243232 0  1.687499998415453 0.5624999979609082 0  1.749999999550239 0.4999999986858916 0  1.749999998323384 0.5624999989442342 0  1.812499999946738 0.4999999995040206 0  1.812499998250082 0.5624999998597736 0  1.875000000066148 0.499999999761909 0  1.874999998069718 0.5625000008034478 0  1.937500000136609 0.5000000000483323 0  1.937499998072302 0.562500002098637 0  2 0.5 0  2.000000000415883 0.5625000033682519 0  0.06249999813031811 0.6250000012201834 0  -2.814089681484978e-09 0.625000000532848 0  0.1249999986593433 0.6250000011808137 0  0.1874999987436246 0.6250000006890385 0  0.249999998475236 0.624999999952684 0  0.3124999979350302 0.6249999990382876 0  0.3749999971666677 0.6249999980287098 0  0.437499996293639 0.6249999970622643 0  0.4999999954607736 0.6249999962013001 0  0.5624999947590589 0.6249999955648157 0  0.6249999943253775 0.6249999952866299 0  0.6874999942232602 0.6249999952192248 0  0.7499999943308696 0.6249999952133839 0  0.8124999946102059 0.6249999952993081 0  0.8749999950427725 0.6249999953791603 0  0.9374999955143389 0.624999995406703 0  0.9999999960188584 0.6249999954728086 0  1.062499996558373 0.624999995505474 0  1.12499999703891 0.6249999954764157 0  1.187499997466039 0.6249999954948637 0  1.249999997855018 0.624999995513999 0  1.312499998125999 0.6249999955162844 0  1.374999998286693 0.6249999956120371 0  1.437499998350571 0.6249999957955574 0  1.499999998268258 0.6249999961125151 0  1.562499998098208 0.6249999966691137 0  1.624999997905005 0.6249999973965894 0  1.687499997675746 0.6249999982307335 0  1.749999997441384 0.6249999991865225 0  1.812499997236761 0.6250000002444155 0  1.874999997128536 0.6250000014462583 0  1.937499997458901 0.6250000027419578 0  1.9999999986525 0.6250000031952515 0  0.06249999770064894 0.6875000009840919 0  -2.821323266204306e-09 0.6875000005369032 0  0.1249999980993219 0.6875000009867229 0  0.1874999982311973 0.6875000006086668 0  0.249999998088119 0.6874999999768906 0  0.3124999977106647 0.6874999991884253 0  0.3749999971542098 0.6874999983327938 0  0.4374999965028558 0.6874999975022816 0  0.4999999958521404 0.6874999967740879 0  0.5624999952873839 0.6874999962244486 0  0.6249999948940687 0.6874999958972146 0  0.6874999947179169 0.6874999957472537 0  0.7499999947344966 0.6874999957046588 0  0.8124999949110293 0.6874999957285991 0  0.8749999952134137 0.6874999957747103 0  0.9374999955888283 0.6874999958174458 0  0.9999999960064289 0.6874999958597771 0  1.062499996442505 0.6874999958878258 0  1.12499999685619 0.6874999958978346 0  1.187499997226934 0.6874999959123225 0  1.249999997541349 0.6874999959362625 0  1.312499997768928 0.6874999959808783 0  1.374999997896107 0.6874999960831928 0  1.437499997918334 0.6874999962733885 0  1.499999997829358 0.6874999965885462 0  1.562499997653851 0.6874999970648474 0  1.624999997427729 0.6874999976968412 0  1.68749999717567 0.6874999984647584 0  1.749999996935235 0.6874999993578316 0  1.812499996764276 0.6875000003551442 0  1.874999996761838 0.6875000013993542 0  1.937499997067921 0.6875000022794872 0  1.999999997565195 0.6875000025811598 0  0.06249999745721724 0.7500000006106142 0  -2.805916112487492e-09 0.7500000003153147 0  0.1249999977052767 0.7500000006249474 0  0.1874999978130899 0.7500000003491297 0  0.2499999977348215 0.7499999998500022 0  0.3124999974778167 0.7499999992085346 0  0.374999997079237 0.7499999985045628 0  0.4374999965969879 0.7499999978136095 0  0.4999999960989069 0.7499999972016212 0  0.5624999956524371 0.7499999967209038 0  0.624999995317933 0.7499999963954868 0  0.6874999951319172 0.7499999962095458 0  0.749999995097439 0.7499999961261566 0  0.8124999951982207 0.7499999961087138 0  0.874999995407838 0.7499999961252288 0  0.9374999956931092 0.749999996154269 0  0.9999999960241651 0.7499999961853343 0  1.062499996373615 0.7499999962112672 0  1.124999996712873 0.7499999962316959 0  1.187499997018728 0.7499999962548026 0  1.249999997271701 0.749999996290576 0  1.312499997451965 0.7499999963541535 0  1.374999997545752 0.7499999964690778 0  1.437499997546826 0.7499999966619578 0  1.499999997457359 0.7499999969601513 0  1.562499997294117 0.7499999973844719 0  1.624999997084299 0.7499999979390286 0  1.687499996859983 0.7499999986139301 0  1.74999999666235 0.749999999387823 0  1.812499996544427 0.7500000002167918 0  1.874999996564148 0.7500000010100361 0  1.937499996735553 0.7500000016081394 0  1.99999999691518 0.750000001879056 0  0.06249999728911686 0.8125000002099347 0  -2.831239261585952e-09 0.812500000009755 0  0.1249999974250812 0.8125000002254935 0  0.1874999974910478 0.8125000000278567 0  0.249999997439579 0.8124999996487189 0  0.3124999972616483 0.8124999991453189 0  0.3749999969764183 0.8124999985814587 0  0.4374999966218459 0.8124999980185353 0  0.4999999962459764 0.8124999975096481 0  0.5624999958989444 0.8124999970940242 0  0.6249999956252361 0.8124999967902971 0  0.6874999954547327 0.8124999965940435 0  0.749999995397906 0.8124999964851941 0  0.8124999954490428 0.8124999964384388 0  0.8749999955914849 0.8124999964300106 0  0.9374999958023295 0.8124999964417854 0  0.9999999960570563 0.8124999964621399 0  1.062499996331229 0.8124999964848003 0  1.124999996601014 0.8124999965091346 0  1.187499996844954 0.8124999965400246 0  1.249999997044299 0.8124999965865644 0  1.312499997183019 0.8124999966623064 0  1.374999997249874 0.8124999967852287 0  1.437499997240342 0.8124999969756105 0  1.499999997158381 0.8124999972527939 0  1.562499997018066 0.8124999976301693 0  1.624999996842418 0.8124999981101547 0  1.687499996661176 0.8124999986817852 0  1.749999996509439 0.8124999993178827 0  1.812499996423301 0.812499999968619 0  1.874999996425672 0.8125000005557158 0  1.937499996496504 0.8125000009871838 0  1.999999996550068 0.8125000012263017 0  0.06249999714734707 0.8749999998358969 0  -2.900713672142694e-09 0.8749999996935829 0  0.1249999972127032 0.874999999850816 0  0.1874999972427942 0.8749999997100386 0  0.2499999972006418 0.8749999994273169 0  0.3124999970727521 0.8749999990405201 0  0.3749999968669805 0.8749999985972652 0  0.4374999966069908 0.8749999981454976 0  0.4999999963258868 0.8749999977271138 0  0.5624999960598336 0.8749999973730415 0  0.624999995841777 0.8749999970995754 0  0.6874999956956794 0.8749999969078225 0  0.7499999956332248 0.8749999967873726 0  0.8124999956541689 0.874999996722028 0  0.8749999957488787 0.8749999966948677 0  0.9374999959015519 0.8749999966916185 0  0.9999999960932174 0.8749999967021621 0  1.062499996303739 0.8749999967208738 0  1.124999996513163 0.8749999967467503 0  1.187499996702937 0.8749999967832184 0  1.249999996856775 0.8749999968376574 0  1.31249999696151 0.8749999969209987 0  1.374999997008416 0.8749999970469413 0  1.437499996994689 0.8749999972302153 0  1.499999996924682 0.8749999974838545 0  1.562499996810492 0.8749999978156252 0  1.624999996671173 0.8749999982244041 0  1.687499996530775 0.8749999986972402 0  1.749999996415141 0.8749999992067528 0  1.812499996345907 0.8749999997094083 0  1.874999996330197 0.8750000001490515 0  1.937499996349605 0.8750000004744859 0  1.999999996364561 0.8750000006743327 0  0.06249999701248848 0.9374999995109834 0  -3.003607736924671e-09 0.9374999994025311 0  0.1249999970387155 0.9374999995263208 0  0.1874999970452595 0.9374999994266436 0  0.2499999970069244 0.9374999992175712 0  0.3124999969115102 0.9374999989236789 0  0.3749999967612502 0.9374999985791911 0  0.4374999965704351 0.9374999982203439 0  0.4999999963613322 0.9374999978796847 0  0.5624999961595062 0.9374999975819689 0  0.6249999959891279 0.9374999973416903 0  0.687499995868914 0.93749
[...]
<PointData  Scalars="p"> 
<DataArray  type="Float64"  Name="p"  format="ascii">0.0000000000000000e+00  -1.6009085278640311e-06  -1.7142872374524708e-06  0.0000000000000000e+00  -2.7258896409436622e-06  -2.8167946307703943e-06  -3.4394802914142771e-06  -3.4911836330375332e-06  -3.8294234340942089e-06  -3.8501112300010792e-06  -3.9743584361244766e-06  -3.9748785480269470e-06  -3.9375901368026857e-06  -3.9264176720638518e-06  -3.7665004119891919e-06  -3.7499888509745467e-06  -3.4976454196956380e-06  -3.4798469808320509e-06  -3.1592527384012686e-06  -3.1422561680399111e-06  -2.7714144560507680e-06  -2.7565940025212565e-06  -2.3498840698314228e-06  -2.3375149408850356e-06  -1.9056168322572929e-06  -1.8955970345711835e-06  -1.4452357320444084e-06  -1.4378057230620237e-06  -9.7428793925866704e-07  -9.6947275496125602e-07  -4.9769000936831924e-07  -4.9507051118193251e-07  -1.7607771248682177e-08  -1.7453810955373740e-08  4.6315671385560652e-07  4.6067686061044257e-07  9.4096263628407384e-07  9.3605232877204395e-07  1.4134761501012588e-06  1.4056795716207926e-06  1.8763352633367998e-06  1.8653939408144287e-06  2.3229316584273934e-06  2.3091173677778884e-06  2.7463869450451207e-06  2.7295577516078252e-06  3.1358332733086478e-06  3.1164422543389374e-06  3.4756547928494817e-06  3.4553162417549551e-06  3.7468556541895617e-06  3.7276823145559559e-06  3.9225487149549268e-06  3.9084827394080049e-06  3.9660470369495703e-06  3.9637551710244540e-06  3.8306954311072721e-06  3.8489962578491397e-06  3.4538312755796978e-06  3.5038131042935904e-06  2.7545782809115555e-06  2.8442893015702718e-06  1.6379889303503439e-06  1.7477567967767290e-06  0.0000000000000000e+00  0.0000000000000000e+00  -1.9350628636421378e-06  0.0000000000000000e+00  -3.0318150379901469e-06  -3.6402123537061334e-06  -3.9333259367955488e-06  -4.0086484212842111e-06  -3.9277868001517649e-06  -3.7327733600755956e-06  -3.4539323146280205e-06  -3.1138876004511432e-06  -2.7295767910804362e-06  -2.3137671892972002e-06  -1.8758670021207874e-06  -1.4225937195515799e-06  -9.5903365566732162e-07  -4.8924253062667555e-07  -1.6332243221197282e-08  4.5688141957419502e-07  9.2739590288365735e-07  1.3919887049977414e-06  1.8465846068505258e-06  2.2857601348723387e-06  2.7026042937259462e-06  3.0878587258951400e-06  3.4290594235347444e-06  3.7098926610399171e-06  3.9085186200843045e-06  3.9951979660976382e-06  3.9285716832294297e-06  3.6472314842041174e-06  3.0514541660254757e-06  1.9597876808014254e-06  0.0000000000000000e+00  -2.1741606198006831e-06  0.0000000000000000e+00  -3.2980671967734578e-06  -3.8529638356274037e-06  -4.0765188320029650e-06  -4.0914846766399830e-06  -3.9660828936164508e-06  -3.7416308413701333e-06  -3.4453541142404628e-06  -3.0964257876660916e-06  -2.7089228025079990e-06  -2.2934102147808906e-06  -1.8578010617777812e-06  -1.4080084181230425e-06  -9.4860030138757479e-07  -4.8324010676011116e-07  -1.4944804544101510e-08  4.5353940015383036e-07  9.1940180181797316e-07  1.3795415022435587e-06  1.8302113474768434e-06  2.2666765754840654e-06  2.6829281442588912e-06  3.0711408084538512e-06  3.4210099617693528e-06  3.7189059105522131e-06  3.9462305368436281e-06  4.0763857265425142e-06  4.0687062286143664e-06  3.8551647654411660e-06  3.3113501900719098e-06  2.1929368474437010e-06  0.0000000000000000e+00  -2.4068686561112048e-06  0.0000000000000000e+00  -3.5779220680726582e-06  -4.0974450210934155e-06  -4.2599005435862887e-06  -4.2148972139926938e-06  -4.0407599591132547e-06  -3.7807644983448022e-06  -3.4606648132493346e-06  -3.0970778437675149e-06  -2.7015470064622491e-06  -2.2825153931417336e-06  -1.8463124943977620e-06  -1.3977871707840775e-06  -9.4078559797689454e-07  -4.7846843575707001e-07  -1.3538877909412075e-08  4.5150977020081257e-07  9.1415431626064130e-07  1.3716335718877255e-06  1.8207135929064946e-06  2.2574619793993428e-06  2.6769831062124002e-06  3.0730115095125030e-06  3.4373084543245255e-06  3.7586732753137455e-06  4.0209611198874629e-06  4.1990238312638394e-06  4.2502363305450020e-06  4.0965410045798921e-06  3.5870836760230063e-06  2.4218272954095767e-06  0.0000000000000000e+00  -2.6253043365389143e-06  0.0000000000000000e+00  -3.8524596114362593e-06  -4.3509519248494487e-06  -4.4632664392191977e-06  -4.3638203847258521e-06  -4.1419845475085216e-06  -3.8446076331230828e-06  -3.4973750819311830e-06  -3.1153373926069738e-06  -2.7080876381357758e-06  -2.2822468777547648e-06  -1.8426557197520854e-06  -1.3930443136088777e-06  -9.3644106775132325e-07  -4.7540541552499386e-07  -1.2189561004620223e-08  4.5109921536860314e-07  9.1233723641222437e-07  1.3692313161156550e-06  1.8191741726172230e-06  2.2590889549705800e-06  2.6852292346962015e-06  3.0928066443800474e-06  3.4753614246148435e-06  3.8235834677046276e-06  4.1228338405524117e-06  4.3479890203967529e-06  4.4528289090485016e-06  4.3483005864730253e-06  3.8590000815067116e-06  2.6376208336915575e-06  0.0000000000000000e+00  -2.8257566406272935e-06  0.0000000000000000e+00  -4.1108965012983892e-06  -4.5979610423256992e-06  -4.6701024270236847e-06  -4.5234287511866797e-06  -4.2578173573514842e-06  -3.9242776471138689e-06  -3.5493009695329820e-06  -3.1471573531107893e-06  -2.7260655329590229e-06  -2.2911932534058624e-06  -1.8460894989953647e-06  -1.3934347603745653e-06  -9.3543670012587546e-07  -4.7401459779619831e-07  -1.0902851290792430e-08  4.5225232676430748e-07  9.1379302923383251e-07  1.3719584983970932e-06  1.8247970819116526e-06  2.2700793304180225e-06  2.7051208525135696e-06  3.1264215521986310e-06  3.5289465142824043e-06  3.9047139178388333e-06  4.2398174916255182e-06  4.5082771784494676e-06  4.6596616392438615e-06  4.5944190457852817e-06  4.1156457224272295e-06  2.8360068687750813e-06  0.0000000000000000e+00  -3.0053405837101488e-06  0.0000000000000000e+00  -4.3458397209165219e-06  -4.8273724931299584e-06  -4.8676080159908377e-06  -4.6811233423140173e-06  -4.3770917044006478e-06  -4.0105921456777076e-06  -3.6093134935878125e-06  -3.1872560825489926e-06  -2.7517220953998771e-06  -2.3067754012549918e-06  -1.8549060612047197e-06  -1.3978779710780910e-06  -9.3714337351155178e-07  -4.7400247424894723e-07  -9.6661939674745760e-09  4.5469550246781487e-07  9.1790561824845666e-07  1.3787339722580960e-06  1.8358617585755263e-06  2.2878238264471290e-06  2.7328660306452463e-06  3.1685395622921150e-06  3.5908906861747930e-06  3.9928192922729202e-06  4.3606370190815658e-06  4.6671035273876975e-06  4.8576587589319452e-06  4.8234323109606869e-06  4.3492091094905249e-06  3.0137639042799954e-06  0.0000000000000000e+00  -3.1611952839033778e-06  0.0000000000000000e+00  -4.5513821173976299e-06  -5.0307195005427465e-06  -5.0458542199611811e-06  -4.8267211442008420e-06  -4.4903179821243464e-06  -4.0953169586355571e-06  -3.6706547915093271e-06  -3.2303318980119733e-06  -2.7810568804384122e-06  -2.3260807126927234e-06  -1.8670619671263602e-06  -1.4050099992312235e-06  -9.4072861125478229e-07  -4.7496876633311947e-07  -8.4638213110159545e-09  4.5805817124899624e-07  9.2386328875897718e-07  1.3882054357914623e-06  1.8503193552764293e-06  2.3093977327612074e-06  2.7644382999286588e-06  3.2138247391297592e-06  3.6543938099716611e-06  4.0795989776204947e-06  4.4757038447813940e-06  4.8141480765180772e-06  5.0367019604358687e-06  5.0266475275031990e-06  4.5535500681444560e-06  3.1678495007083126e-06  0.0000000000000000e+00  -3.2904082168920985e-06  0.0000000000000000e+00  -4.7224144086164033e-06  -5.2012103755180025e-06  -5.1970391312414443e-06  -4.9521572896831119e-06  -4.5898096975767511e-06  -4.1715881462411113e-06  -3.7275093535417714e-06  -3.2716724652820780e-06  -2.8103989219603812e-06  -2.3463539824218320e-06  -1.8805708102138968e-06  -1.4134731082688480e-06  -9.4534961350843084e-07  -4.7650634539844959e-07  -7.2846100640007699e-09  4.6195214704287743e-07  9.3083665025887943e-07  1.3990172780189543e-06  1.8661783582537642e-06  2.3320254548596170e-06  2.7961457291617494e-06  3.2575330880944492e-06  3.7135967324202595e-06  4.1581386499641115e-06  4.5772616874115291e-06  4.9412539751984904e-06  5.1888824974512406e-06  5.1971451626277945e-06  4.7234342478247405e-06  3.2952551557744436e-06  0.0000000000000000e+00  -3.3901418496259269e-06  0.0000000000000000e+00  -4.8544460066779786e-06  -5.3332884131946063e-06  -5.3150189019479271e-06  -5.0511572024874831e-06  -4.6695743551629238e-06  -4.2339919760320095e-06  -3.7752205361316131e-06  -3.3074410267119717e-06  -2.8367092057170948e-06  -2.3652785688124547e-06  -1.8937389389227996e-06  -1.4220967759211608e-06  -9.5027398226902560e-07  -4.7826091102434660e-07  -6.1225065422253405e-09  4.6603399688681585e-07  9.3809815294039497e-07  1.4099974413446513e-06  1.8817321918080278e-06  2.3533757086113644e-06  2.8249222612721627e-06  3.2958046975695821e-06  3.7638121051853309e-06  4.2229824829698475e-06  4.6592716158484632e-06  5.0420897852425437e-06  5.3079886034254597e-06  5.3292999390166034e-06  4.8543013994019857e-06  3.3930953866856276e-06  0.0000000000000000e+00  -3.4578003151451392e-06  0.0000000000000000e+00  -4.9436295483508093e-06  -5.4224796452239376e-06  -5.3950557898677699e-06  -5.1190177536166306e-06  -4.7251756608609670e-06  -4.2785438999681958e-06  -3.8103591520044016e-06  -3.3348059261595797e-06  -2.8577368682532473e-06  -2.3811326226125631e-06  -1.9053030411108795e-06  -1.4300048797845993e-06  -9.5495105054469328e-07  -4.7996337411559668e-07  -4.9678179350861735e-09  4.7005202963120054e-07  9.4511039077839782e-07  1.4202750421628500e-06  1.8957163572350106e-06  2.3717127180434035e-06  2.8485035196680711e-06  3.3257800432836007e-06  3.8015874694396892e-06  4.2701120646459521e-06  4.7172573607930914e-06  5.1119071653648948e-06  5.3892353865835348e-06  5.4185881993745963e-06  4.9422654633810791e-06  3.4587503290683284e-06  0.0000000000000000e+00  -3.4911739704489198e-06  0.0000000000000000e+00  -4.9868516741541230e-06  -5.4653568392006139e-06  -5.4337172824439096e-06  -5.1524743412473448e-06  -4.7536485329691234e-06  -4.3026471105071543e-06  -3.8307442430909003e-06  -3.3519972681332388e-06  -2.8721008979102540e-06  -2.3928766346056325e-06  -1.9145132686097285e-06  -1.4366844024275070e-06  -9.5906115787000308e-07  -4.8145606579104909e-07  -3.8094671681228568e-09  4.7386952128950978e-07  9.5157014728271466e-07  1.4293475455902856e-06  1.9073809848181409e-06  2.3859891077934391e-06  2.8654836955598851e-06  3.3456649360835190e-06  3.8246978802047041e-06  4.2968976692087439e-06  4.7482089697869414e-06  5.1474065227842583e-06  5.4291537637661630e-06  5.4615567340986441e-06  4.9841928653387059e-06  3.4900063411153029e-06  0.0000000000000000e+00  -3.4885394327434019e-06  0.0000000000000000e+00  -4.9817980105559015e-06  -5.4595499770241755e-06  -5.4288171430600094e-06  -5.1496328884098755e-06  -4.7534140905239553e-06  -4.3050467605848861e-06  -3.8354064925036517e-06  -3.3583075250144002e-06  -2.8793023693765478e-06  -2.4001807395991102e-06  -1.9211628045555440e-06  -1.4420152459968066e-06  -9.6253987191010005e-07  -4.8270982910593219e-07  -2.6432282772590452e-09  4.7746455316170435e-07  9.5741729825028871e-07  1.4370930454172546e-06  1.9165111010831059e-06  2.3958546592242784e-06  2.8753378785394120e-06  3.3547063401790644e-06  3.8321387339502743e-06  4.3020297471542990e-06  4.7505175575083720e-06  5.1466566479956078e-06  5.4255422161332195e-06  5.4558225471273456e-06  4.9777682960431023e-06  3.4851440189393143e-06  0.0000000000000000e+00  -3.4486886864657135e-06  0.0000000000000000e+00  -4.9269705246371820e-06  -5.4037236219637249e-06  -5.3793641188906333e-06  -5.1098749453577758e-06  -4.7241853618973943e-06  -4.2857041181475983e-06  -3.8244933097994862e-06  -3.3539831094925145e-06  -2.8796446111036367e-06  -2.4033494341181097e-06  -1.9255295379787897e-06  -1.4462214312418444e-06  -9.6554191893006264e-07  -4.8379910695464262e-07  -1.4591292966821468e-09  4.8093051350178016e-07  9.6282166098857504e-07  1.4437457944062971e-06  1.9233857027590386e-06  2.4016094184805198e-06  2.8783487324708154e-06  3.3531325778678124e-06  3.8240154539228663e-06  4.2854436772361126e-06  4.7238496773892354e-06  5.1090097070098657e-06  5.3773744154092207e-06  5.4000275066022044e-06  4.9214751349883037e-06  3.4429482363484937e-06  0.0000000000000000e+00  -3.3708757593474894e-06  0.0000000000000000e+00  -4.8216121356224636e-06  -5.2974830648445258e-06  -5.2854445344689651e-06  -5.0337140170610424e-06  -4.6667836179062042e-06  -4.2456108206929919e-06  -3.7990377574225445e-06  -3.3400239871134241e-06  -2.8740148045984993e-06  -2.4031370568448409e-06  -1.9282078998927236e-06  -1.4497374925178587e-06  -9.6834058140934756e-07  -4.8484034366708336e-07  -2.1951037088963833e-10  4.8445692115258387e-07  9.6812441259021439e-07  1.4497979719770957e-06  1.9286476057963993e-06  2.4040370142999466e-06  2.8754274551838059e-06  3.3419377752207288e-06  3.8013561388144409e-06  4.2480930347344699e-06  4.6689842671982975e-06  5.0349174027434739e-06  5.2846718686684915e-06  5.2937157462393495e-06  4.8145053275515935e-06  3.3626439757410049e-06  0.0000000000000000e+00  -3.2546550187466511e-06  0.0000000000000000e+00  -4.6654832152288872e-06  -5.1411264562172801e-06  -5.1479323123809122e-06  -4.9224674416574541e-06  -4.5827580013812673e-06  -4.1863617323476248e-06  -3.7605303735077893e-06  -3.3177173490643488e-06  -2.8634725520161717e-06  -2.4003522185659091e-06  -1.9297859730828965e-06  -1.4529500138210914e-06  -9.7115318201219909e-07  -4.8590273083229048e-07  1.1400510834407323e-09  4.8823955809843801e-07  9.7366054412320021e-07  1.4557426344826010e-06  1.9329696243082034e-06  2.4040172295451097e-06  2.8676679525018576e-06  3.3224325344183905e-06  3.7656314825662577e-06  4.1915327193688306e-06  4.5874041598005163e-06  4.9256098165884058e-06  5.1482176483910630e-06  5.1370931828444948e-06  4.6565407792642862e-06  3.2437313444628363e-06  0.0000000000000000e+00  -3.0995574609084083e-06  0.0000000000000000e+00  -4.4584025531948834e-06  -4.9350900222914056e-06  -4.9678331394889533e-06  -4.7774729923161142e-06  -4.4735071005135759e-06  -4.1091867766499926e-06  -3.7099132906644041e-06  -3.2876728570455386e-06  -2.8483089027175798e-06  -2.3950485376647944e-06  -1.9301462309717998e-06  -1.4556633278251081e-06  -9.7377119592847655e-07  -4.8681966856663595e-07  2.7168867227651940e-09  4.9230253284765627e-07  9.7940381239781575e-07  1.4615470146463823e-06  1.9363796866032175e-06  2.4017090020362099e-06  2.8554441935284790e-06  3.2952524235489929e-06  3.7177723440238879e-06  4.1169366932809603e-06  4.4804058610841480e-06  4.7823005306634766e-06  4.9688682916035968e-06  4.9304368524584105e-06  4.4472473890718117e-06  3.0856222179914332e-06  0.0000000000000000e+00  -2.9044985417996719e-06  0.0000000000000000e+00  -4.1993397973677783e-06  -4.6787776193990688e-06  -4.7448466524280347e-06  -4.5983898482639553e-06  -4.3383600166440750e-06  -4.0129296683123804e-06  -3.6455210210732802e-06  -3.2478269149168954e-06  -2.8262351270060874e-06  -2.3848990286401719e-06  -1.9271349476603452e-06  -1.4560582065797474e-06  -9.7485508139393912e-07  -4.8682338881441865e-07  4.6548905101696893e-09  4.9616330410684652e-07  9.8428687239813774e-07  1.4656486842416231e-06  1.9369450080937206e-06  2.3949788227162375e-06  2.8365966986422680e-06  3.2584116211766700e-06  3.6561174427221426e-06  4.0230697100731617e-06  4.3471764477802811e-06  4.6044388758394359e-06  4.7460644482874804e-06  4.6728682276018760e-06  4.1853110490899068e-06  2.8870094535696470e-06  0.0000000000000000e+00  -2.6666798025684112e-06  0.0000000000000000e+00  -3.8845767096871040e-06  -4.3680399232891919e-06  -4.4741883031138183e-06  -4.3794884211865205e-06  -4.1705032665781617e-06  -3.8898122821992551e-06  -3.5589261097524953e-06  -3.1895111315320269e-06  -2.7888013898978555e-06  -2.3621172120556314e-06  -1.9140028698671563e-06  -1.4487521797720496e-06  -9.7062211217773782e-07  -4.8389722711325914e-07  7.1245277924500530e-09  4.9814130772350088e-07  9.8485490613029843e-07  1.4629694029887182e-06  1.9281998423700002e-06  2.3762709647409354e-06  2.8028615855080679e-06  3.2033478388814864e-06  3.5722503867369452e-06  3.9020706153300143e-06  4.1807029526139949e-06  4.3859919040179964e-06  4.4746456835540664e-06  4.3598153432523621e-06  3.8665905121772982e-06  2.6447524683842612e-06  0.0000000000000000e+00  -2.3794747365845392e-06  0.0000000000000000e+00  -3.5038628772497523e-06  -3.9896975340274581e-06  -4.1396869021409824e-06  -4.1017049670971665e-06  -3.9484929257701902e-06  -3.7168478357098629e-06  -3.4266135590402346e-06  -3.0897283028243534e-06  -2.7144849263779060e-06  -2.3074913855426694e-06  -1.8745535810163654e-06  -1.4210993097109314e-06  -9.5238602856036959e-07  -4.7357296824977577e-07  1.0242574406905441e-08  4.9400179418875430e-07  9.7264656787398263e-07  1.4410824979475292e-06  1.8941409822488346e-06  2.3265496577854080e-06  2.7328417164444895e-06  3.1071317398460910e-06  3.4426512197314327e-06  3.7308359135996774e-06  3.9593053220723942e-06  4.1075423707955954e-06  4.1379826050851102e-06  3.9775859493265697e-06  3.4803282305447066e-06  2.3517936736663374e-06  0.0000000000000000e+00  -2.0281488790706206e-06  0.0000000000000000e+00  -3.0321632541072202e-06  -3.5096511691960761e-06  -3.6990927857032235e-06  -3.7162154566145726e-06  -3.6191234250670519e-06  -3.4388957560192497e-06  -3.1938826452269016e-06  -2.8963474787606790e-06  -2.5555516820865278e-06  -2.1791791397217958e-06  -1.7740166835160609e-06  -1.3463166158184758e-06  -9.0199713796793853e-07  -4.4676034786501816e-07  1.3837393832574149e-08  4.7431291965238813e-07  9.2918389301907915e-07  1.3728882943690058e-06  1.7997107721286577e-06  2.2037016274478795e-06  2.5785634404861200e-06  2.9174164782631325e-06  3.2124089641665697e-06  3.4540193665300830e-06  3.6295524231830102e-06  3.7199978160832046e-06  3.6935327165578461e-06  3.4918110909660144e-06  3.0012564274797357e-06  1.9931602536217429e-06  0.0000000000000000e+00  -1.5803190327661944e-06  0.0000000000000000e+00  -2.4109709227103850e-06  -2.8466515448647865e-06  -3.0528285202424258e-06  -3.1107085571114117e-06  -3.0632449613437862e-06  -2.9354745024747405e-06  -2.7437110305116580e-06  -2.4997914830295397e-06  -2.2130868510742610e-06  -1.8914832713704787e-06  -1.5418976116415886e-06  -1.1705943592559270e-06  -7.8339718506289934e-07  -3.8582638968856149e-07  1.6790929645372351e-08  4.1922511400148129e-07  8.1624314361585725e-07  1.2025076647439643e-06  1.5724708056884291e-06  1.9202676704267597e-06  2.2395678370699245e-06  2.5233476230477948e-06  2.7635506196860978e-06  2.9505501416609581e-06  3.0721057155539039e-06  3.1113076976452549e-06  3.0424667669167154e-06  2.8224786021519803e-06  2.3724490499316277e-06  1.5377571398425475e-06  0.0000000000000000e+00  -9.6284359683332846e-07  0.0000000000000000e+00  -1.5049433203977089e-06  -1.8148449242392215e-06  -1.9788631839119366e-06  -2.0415373664397538e-06  -2.0286091256815675e-06  -1.9566014158932011e-06  -1.8371572706585147e-06  -1.6791357302722181e-06  -1.4896789925896659e-06  -1.2747870180694626e-06  -1.0396632543522209e-06  -7.8895046754657340e-07  -5.2689906228652157e-07  -2.5749230160794355e-07  1.5457377307032650e-08  2.8821943227941391e-07  5.5705986518739548e-07  8.1815173904535725e-07  1.0674838509100795e-06  1.3007588599408663e-06  1.5132675694405342e-06  1.6997046492602463e-06  1.8539194406494059e-06  1.9685581733315972e-06  2.0344407490724309e-06  2.0394679338866239e-06  1.9666229496940000e-06  1.7900342248903388e-06  1.4669444879971691e-06  9.2043990862150708e-07  0.0000000000000000e+00  0.0000000000000000e+00  0.0000000000000000e+00  0.0000000000000000e+00  0.0000000000000000e+00  0.0000000000000000e+00  0.0000000000000000e+00  0.0000000000000000e+00  0.0000000000000000e+00  0.0000000000000000e+00  0.0000000000000000e+00  0.0000000000000000e+00  0.0000000000000000e+00  0.0000000000000000e+00  0.0000000000000000e+00  0.0000000000000000e+00  0.0000000000000000e+00  0.0000000000000000e+00  0.0000000000000000e+00  0.0000000000000000e+00  0.0000000000000000e+00  0.0000000000000000e+00  0.0000000000000000e+00  0.0000000