<?xml version="1.0"?>
<VTKFile type="UnstructuredGrid"  version="0.1"  >
<UnstructuredGrid>
<Piece  NumberOfPoints="825" NumberOfCells="1536">
<Points>
<DataArray  type="Float64"  NumberOfComponents="3"  format="ascii">-1.047198590610215e-21 0.5 0  0.06250000006032858 0.5000000013972147 0  0.06249999783035568 0.5625000026669721 0  -3.547210983686034e-09 0.5625000006282327 0  0.1250000000395729 0.5000000025880047 0  0.1249999982438746 0.5625000035707099 0  0.1874999997003627 0.5000000035109076 0  0.1874999980523057 0.5625000040471403 0  0.2499999990981816 0.5000000043736218 0  0.2499999974500269 0.5625000042602551 0  0.3124999979370038 0.5000000044990415 0  0.3124999964540392 0.5625000038813404 0  0.3749999955741865 0.5000000029350541 0  0.3749999949179831 0.5625000027312448 0  0.4374999928621437 0.5000000010283613 0  0.4374999930776063 0.5625000012518994 0  0.4999999901162696 0.4999999990113003 0  0.4999999911962896 0.5624999995449855 0  0.5624999874618912 0.4999999967153263 0  0.5624999894708161 0.5624999979341853 0  0.6249999863472482 0.4999999959698093 0  0.6249999883182046 0.5624999970738906 0  0.6874999861724573 0.499999995888441 0  0.6874999877672708 0.5624999964422938 0  0.7499999855345617 0.4999999945796652 0  0.7499999874232703 0.5624999956455826 0  0.8124999858133193 0.49999999443485 0  0.8124999874782634 0.5624999952393269 0  0.8749999865475734 0.49999999428026 0  0.8749999878379449 0.562499994706765 0  0.9374999865963267 0.4999999928646403 0  0.9374999881937864 0.5624999939221373 0  0.9999999874738319 0.4999999927050513 0  0.9999999887962595 0.5624999935054332 0  1.062499988596948 0.4999999924395007 0  1.062499989551441 0.5624999929352292 0  1.124999988926535 0.4999999910280225 0  1.124999990201219 0.5624999921505507 0  1.187499990007686 0.4999999908363315 0  1.18749999100318 0.562499991786245 0  1.249999991381378 0.499999990787144 0  1.249999991892147 0.5624999914000823 0  1.312499991913279 0.4999999897401994 0  1.312499992609202 0.5624999909237293 0  1.374999993043149 0.4999999899286933 0  1.374999993384667 0.5624999909463437 0  1.437499994258158 0.4999999902584143 0  1.437499994145549 0.5624999911040585 0  1.499999994870545 0.4999999902970708 0  1.499999994680887 0.5624999915295553 0  1.562499995910209 0.4999999919168204 0  1.562499995254626 0.5624999926959166 0  1.62499999710686 0.4999999938686699 0  1.624999995879398 0.5624999941154588 0  1.687499998153065 0.499999995550133 0  1.687499996396499 0.5624999956440087 0  1.749999999317311 0.4999999974820136 0  1.74999999690325 0.5624999973698541 0  1.812500000257314 0.4999999989342746 0  1.812499997304184 0.5624999989869524 0  1.875000000854764 0.5000000001210788 0  1.874999997475963 0.5625000006073543 0  1.937500000906141 0.5000000007353438 0  1.937499997716451 0.562500002394716 0  2 0.5 0  2.000000000153269 0.5625000042173637 0  0.06249999613992827 0.6250000031052111 0  -4.797638155700781e-09 0.6250000016371374 0  0.1249999966342358 0.625000003876954 0  0.1874999966466746 0.6250000041813291 0  0.2499999962657621 0.6250000041280405 0  0.3124999955524908 0.6250000036435873 0  0.3749999945096182 0.6250000027104494 0  0.4374999932362468 0.625000001476171 0  0.4999999918953962 0.6250000001000352 0  0.5624999906332878 0.6249999988147434 0  0.6249999896462785 0.6249999978331817 0  0.687499989039308 0.6249999970601223 0  0.7499999887259936 0.6249999963758869 0  0.8124999886853179 0.6249999957997976 0  0.8749999888905761 0.6249999952265427 0  0.9374999892301134 0.6249999946240405 0  0.9999999896995025 0.6249999940760421 0  1.062499990284757 0.6249999935150186 0  1.124999990892793 0.6249999929449929 0  1.187499991530366 0.6249999924832201 0  1.249999992194406 0.624999992097793 0  1.312499992801362 0.6249999918102398 0  1.374999993354333 0.6249999917429949 0  1.437499993843539 0.6249999919058369 0  1.499999994214036 0.6249999923746158 0  1.562499994519124 0.6249999932415661 0  1.624999994796333 0.6249999944113087 0  1.687499995018717 0.6249999958034516 0  1.749999995203264 0.6249999973794296 0  1.812499995354302 0.6249999990629802 0  1.874999995525259 0.6250000008666132 0  1.937499996037665 0.6250000027439055 0  1.999999997273124 0.6250000039884701 0  0.06249999508521709 0.6875000031756303 0  -5.433746671152392e-09 0.6875000021759382 0  0.1249999954649609 0.6875000037841021 0  0.1874999955582963 0.6875000039981634 0  0.2499999953547684 0.6875000038630619 0  0.3124999948826589 0.6875000033861381 0  0.3749999941736099 0.6875000025941825 0  0.4374999932923714 0.6875000015737225 0  0.4999999923359151 0.6875000004485194 0  0.5624999914136163 0.6874999993628548 0  0.6249999906453971 0.6874999984224289 0  0.6874999901099983 0.6874999976282187 0  0.7499999898110178 0.6874999969378187 0  0.8124999897332316 0.6874999963197929 0  0.8749999898483621 0.6874999957340406 0  0.9374999901064588 0.6874999951614146 0  0.9999999904765211 0.6874999946094671 0  1.06249999092934 0.6874999940733213 0  1.1249999914205 0.6874999935654394 0  1.187499991925642 0.6874999931231841 0  1.24999999242299 0.6874999927685799 0  1.312499992875497 0.687499992534121 0  1.37499999326295 0.6874999924733028 0  1.437499993570651 0.6874999926301366 0  1.499999993785661 0.6874999930518561 0  1.56249999392627 0.6874999937694856 0  1.624999994016636 0.6874999947607272 0  1.687499994070388 0.6874999959822283 0  1.749999994112922 0.6874999973882223 0  1.812499994184251 0.6874999989215835 0  1.874999994364086 0.6875000005055445 0  1.937499994770181 0.6875000019511111 0  1.999999995284673 0.6875000029316757 0  0.06249999444946954 0.750000003078677 0  -5.813344728782275e-09 0.7500000024279646 0  0.1249999946924079 0.7500000035176489 0  0.1874999947883966 0.7500000036636255 0  0.2499999946884206 0.7500000035144876 0  0.3124999943905391 0.7500000030871984 0  0.3749999939164599 0.7500000024177421 0  0.4374999933099651 0.7500000015711562 0  0.499999992635084 0.7500000006352988 0  0.5624999919688393 0.749999999703042 0  0.6249999913905794 0.7499999988420623 0  0.6874999909590503 0.7499999980735367 0  0.749999990697965 0.749999997386709 0  0.812499990606394 0.7499999967608015 0  0.8749999906668264 0.7499999961740068 0  0.9374999908505227 0.7499999956133349 0  0.999999991128532 0.7499999950765189 0  1.062499991471382 0.7499999945666129 0  1.124999991847379 0.749999994096177 0  1.187499992229339 0.7499999936875267 0  1.249999992592467 0.7499999933658904 0  1.312499992911585 0.749999993162111 0  1.37499999316758 0.7499999931133584 0  1.437499993348542 0.749999993256432 0  1.499999993451803 0.7499999936232884 0  1.562499993489248 0.7499999942304696 0  1.624999993481524 0.7499999950689694 0  1.687499993452897 0.7499999961084869 0  1.749999993434715 0.7499999973016969 0  1.812499993466892 0.7499999985792443 0  1.874999993592581 0.7499999998351581 0  1.937499993815524 0.7500000009131935 0  1.999999994003285 0.7500000016890593 0  0.06249999407069973 0.8125000029185598 0  -6.050676716536995e-09 0.812500002520411 0  0.1249999942097114 0.8125000032067293 0  0.1874999942804347 0.8125000032901466 0  0.2499999942320453 0.8125000031423397 0  0.3124999940479142 0.8125000027712762 0  0.3749999937360797 0.8125000022071934 0  0.4374999933238514 0.8125000014995342 0  0.4999999928540727 0.812500000710738 0  0.5624999923796845 0.8124999999039967 0  0.6249999919549925 0.8124999991276598 0  0.6874999916236085 0.8124999984056642 0  0.7499999914102343 0.812499997741044 0  0.8124999913211265 0.8124999971256461 0  0.8749999913480178 0.8124999965485393 0  0.9374999914729152 0.8124999960022149 0  0.9999999916732114 0.8124999954850718 0  1.062499991924038 0.8124999950015294 0  1.124999992199661 0.8124999945627982 0  1.187499992475763 0.8124999941864282 0  1.249999992730058 0.8124999938945305 0  1.312499992942814 0.8124999937131442 0  1.374999993099198 0.8124999936708043 0  1.437499993191282 0.8124999937949623 0  1.499999993219945 0.8124999941071177 0  1.562499993196048 0.8124999946163599 0  1.624999993138518 0.8124999953140976 0  1.687499993071691 0.8124999961725494 0  1.749999993023522 0.8124999971439274 0  1.812499993021286 0.8124999981575882 0  1.874999993079459 0.8124999991180509 0  1.937499993175192 0.8124999999190533 0  1.999999993232593 0.8125000004981079 0  0.06249999385311193 0.8750000027475097 0  -6.196476918605484e-09 0.8750000025276746 0  0.1249999939253853 0.8750000029122446 0  0.1874999939688532 0.8750000029376747 0  0.2499999939437269 0.8750000027892426 0  0.3124999938303004 0.875000002465339 0  0.3749999936278957 0.8750000019863843 0  0.4374999933517695 0.8750000013881677 0  0.4999999930296666 0.8750000007152198 0  0.5624999926972936 0.8750000000123479 0  0.6249999923920431 0.8749999993157882 0  0.6874999921457455 0.87499999864787 0  0.7499999919792764 0.8749999980175391 0  0.8124999919009807 0.8749999974248697 0  0.8749999919079898 0.8749999968664082 0  0.9374999919890062 0.874999996339511 0  0.9999999921273817 0.8749999958448708 0  1.062499992303487 0.8749999953876419 0  1.124999992496577 0.8749999949779099 0  1.187499992686456 0.8749999946303915 0  1.249999992854732 0.8749999943635235 0  1.312499992986012 0.8749999941983179 0  1.374999993069476 0.8749999941565616 0  1.437499993100449 0.8749999942579479 0  1.499999993081583 0.8749999945162302 0  1.56249999302312 0.8749999949348194 0  1.624999992941664 0.8749999955029946 0  1.687499992857836 0.8749999961935589 0  1.749999992792958 0.8749999969615513 0  1.812499992763562 0.8749999977442205 0  1.874999992772832 0.8749999984653154 0  1.937499992802456 0.8749999990499073 0  1.999999992818988 0.8749999994499702 0  0.0624999937398474 0.9375000025896386 0  -6.277855676758202e-09 0.9375000024934855 0  0.1249999937742896 0.937500002658187 0  0.1874999937976956 0.93750000263225 0  0.2499999937829505 0.9375000024780917 0  0.3124999937129467 0.9375000021882138 0  0.3749999935831931 0.9375000017742171 0  0.4374999934011348 0.9375000012606275 0  0.4999999931839352 0.9375000006789983 0  0.5624999929551144 0.9375000000617849 0  0.6249999927401627 0.9374999994367544 0  0.6874999925618187 0.937
[...]
<PointData  Scalars="p"> 
<DataArray  type="Float64"  Name="p"  format="ascii">0.0000000000000000e+00  -9.2728629834314369e-06  -9.9201377712834240e-06  0.0000000000000000e+00  -1.5768640319059350e-05  -1.6269726271222324e-05  -1.9885298059535342e-05  -2.0148146443754818e-05  -2.2145728129780644e-05  -2.2220044803093101e-05  -2.3008691053505117e-05  -2.2958650847837118e-05  -2.2836480568807408e-05  -2.2713339100241709e-05  -2.1902559752582909e-05  -2.1742378199998774e-05  -2.0407652004077264e-05  -2.0235218628707432e-05  -1.8499905176932893e-05  -1.8331331914532434e-05  -1.6289561344504618e-05  -1.6134334884175510e-05  -1.3855479796140261e-05  -1.3720280072648312e-05  -1.1257880501850194e-05  -1.1146961500571258e-05  -8.5461754389470638e-06  -8.4608036539772795e-06  -5.7567856465254919e-06  -5.6974475782882685e-06  -2.9149079167521459e-06  -2.8835731952279430e-06  -4.7687568183034931e-08  -4.4205093661234865e-08  2.8218176315103665e-06  2.7976537804464507e-06  5.6744880013882355e-06  5.6211196680755960e-06  8.4826479691207112e-06  8.4006376073642346e-06  1.1216086491135006e-05  1.1106407077082284e-05  1.3841364045309206e-05  1.3703979049031089e-05  1.6308038477029878e-05  1.6146406359356196e-05  1.8552850539009982e-05  1.8372970165761606e-05  2.0496162082063352e-05  2.0306217990745136e-05  2.2023283632798565e-05  2.1840059080187348e-05  2.2983194492411756e-05  2.2833323923999883e-05  2.3178679079686174e-05  2.3100134650850554e-05  2.2339240274627144e-05  2.2387854615083153e-05  2.0109317656059585e-05  2.0353108733795479e-05  1.6033103121635451e-05  1.6518245846400553e-05  9.5459889412608448e-06  1.0162729301292306e-05  0.0000000000000000e+00  0.0000000000000000e+00  -1.1171459044098100e-05  0.0000000000000000e+00  -1.7466483776644306e-05  -2.0947394637349296e-05  -2.2625944516560542e-05  -2.3067152294905709e-05  -2.2624311414808582e-05  -2.1535774271408943e-05  -1.9969496823389118e-05  -1.8047071705802830e-05  -1.5858393992305682e-05  -1.3470706970736422e-05  -1.0935664958688640e-05  -8.2943414051943937e-06  -5.5793326001919484e-06  -2.8168606025960919e-06  -3.0251697833755148e-08  2.7587803759601108e-06  5.5289884822139125e-06  8.2565351728296482e-06  1.0913753559601285e-05  1.3467714921868288e-05  1.5876404049139983e-05  1.8086158405708969e-05  2.0028058684648787e-05  2.1610729013968345e-05  2.2712505814686707e-05  2.3168800385380039e-05  2.2746931002929954e-05  2.1098359272231753e-05  1.7651418828873666e-05  1.1349146092614357e-05  0.0000000000000000e+00  -1.2513491525065195e-05  0.0000000000000000e+00  -1.8949822635222106e-05  -2.2113044507939194e-05  -2.3382672639775714e-05  -2.3467706559619122e-05  -2.2759362838351473e-05  -2.1491948179589394e-05  -1.9816860900138536e-05  -1.7838057138970300e-05  -1.5630508369296137e-05  -1.3250273516004618e-05  -1.0740649365013195e-05  -8.1362380371716385e-06  -5.4652982406880283e-06  -2.7515371968096081e-06  -1.6042938755893929e-08  2.7213622574355809e-06  5.4408471045200683e-06  8.1208390493907049e-06  1.0736737878913805e-05  1.3259480674202824e-05  1.5653342232568803e-05  1.7873490984037579e-05  1.9862555377686156e-05  2.1544892546568351e-05  2.2817414313852925e-05  2.3532201232666297e-05  2.3460370971601222e-05  2.2214982723034124e-05  1.9081718456605121e-05  1.2646211323071827e-05  0.0000000000000000e+00  -1.3810490458426984e-05  0.0000000000000000e+00  -2.0507719908441456e-05  -2.3465254058051472e-05  -2.4381667328541258e-05  -2.4118291511891945e-05  -2.3124308701948695e-05  -2.1645913587108881e-05  -1.9827376612481081e-05  -1.7759742239806307e-05  -1.5505001749216618e-05  -1.3108207842585164e-05  -1.0603835355415085e-05  -8.0195872315957414e-06  -5.3786385498690630e-06  -2.7010401704884198e-06  -4.9050083181819238e-09  2.6925580226182335e-06  5.3740198543967553e-06  8.0209380963865577e-06  1.0612550724304164e-05  1.3124849685282029e-05  1.5529060806073579e-05  1.7789541766919285e-05  1.9860422414687538e-05  2.1679683148475401e-05  2.3157710304782489e-05  2.4153797491744263e-05  2.4426905567508041e-05  2.3531876326660264e-05  2.0603359455983434e-05  1.3914027279863997e-05  0.0000000000000000e+00  -1.5024296833853864e-05  0.0000000000000000e+00  -2.2036266757909782e-05  -2.4874853244285958e-05  -2.5505601945613824e-05  -2.4929680223148019e-05  -2.3659472485841703e-05  -2.1962417314666196e-05  -1.9983623861125108e-05  -1.7806601826184034e-05  -1.5483487369438651e-05  -1.3049842283879514e-05  -1.0531939495328513e-05  -7.9507656382548784e-06  -5.3242011553163853e-06  -2.6681283284404785e-06  2.8227797224154042e-09  2.6745885103774902e-06  5.3329825591244134e-06  7.9629909830044434e-06  1.0548154583053301e-05  1.3069848294072890e-05  1.5506224703419124e-05  1.7830173491613650e-05  2.0005726818168360e-05  2.1981184599997911e-05  2.3674767393379708e-05  2.4944840242538406e-05  2.5528737279932171e-05  2.4917804316952466e-05  2.2107622779127710e-05  1.5107873780596085e-05  0.0000000000000000e+00  -1.6139728555747896e-05  0.0000000000000000e+00  -2.3478576351746393e-05  -2.6254542457964178e-05  -2.6658442105312193e-05  -2.5813254508739392e-05  -2.4291301112436971e-05  -2.2384499639623574e-05  -2.0243605839467280e-05  -1.7948808132050277e-05  -1.5545414897033265e-05  -1.3061423399605916e-05  -1.0516045157311527e-05  -7.9241627246719506e-06  -5.2985714881983678e-06  -2.6509223186657558e-06  7.8184430696068166e-09  2.6669751639761943e-06  5.3157578310595058e-06  7.9428857847690431e-06  1.0536223555822529e-05  1.3082404645670139e-05  1.5565887145488396e-05  1.7966925560306464e-05  2.0257424004738488e-05  2.2392748385006661e-05  2.4294533706642003e-05  2.5815286241547896e-05  2.6667356679701905e-05  2.6281763846977590e-05  2.3532864968305383e-05  1.6208335472662776e-05  0.0000000000000000e+00  -1.7144649904763212e-05  0.0000000000000000e+00  -2.4796397361351218e-05  -2.7542688572581587e-05  -2.7766386362166495e-05  -2.6694294850407171e-05  -2.4951708126374380e-05  -2.2854318908349525e-05  -2.0560514161576812e-05  -1.8149793417380402e-05  -1.5662993626040903e-05  -1.3122360642401944e-05  -1.0541326221234523e-05  -7.9295093319474438e-06  -5.2951201060221620e-06  -2.6458344041252237e-06  1.0925085179296894e-08  2.6678133533087530e-06  5.3173943829610989e-06  7.9519819169958925e-06  1.0563531543070444e-05  1.3143380237752477e-05  1.5681478587993086e-05  1.8164068796035330e-05  2.0568992615895153e-05  2.2856198143422344e-05  2.4947918161895313e-05  2.6688691915368431e-05  2.7766593137979797e-05  2.7559246649309787e-05  2.4837722465674504e-05  1.7200812863314560e-05  0.0000000000000000e+00  -1.8025108480471474e-05  0.0000000000000000e+00  -2.5958382297057209e-05  -2.8692123815829899e-05  -2.8772351679078516e-05  -2.7512789782476580e-05  -2.5583414965319368e-05  -2.3320821083391606e-05  -2.0891066149407251e-05  -1.8374229691672424e-05  -1.5808277415839583e-05  -1.3211191219259969e-05  -1.0591835460935526e-05  -7.9554930848976205e-06  -5.3064610052327475e-06  -2.6489232622591904e-06  1.2877410778968147e-08  2.6746214286214816e-06  5.3319137691355185e-06  7.9803085082514379e-06  1.0615322506867153e-05  1.3232346037231234e-05  1.5825780996746124e-05  1.8386628303257979e-05  2.0897079737038769e-05  2.3319913830310249e-05  2.5576619791838776e-05  2.7503654641606769e-05  2.8767641044026676e-05  2.8701191091607793e-05  2.5988989723048338e-05  1.8069921939856281e-05  0.0000000000000000e+00  -1.8764913242266842e-05  0.0000000000000000e+00  -2.6935775151753503e-05  -2.9663987853993614e-05  -2.9630952775785516e-05  -2.8221030849700022e-05  -2.6140114659871415e-05  -2.3741756313615782e-05  -2.1198515642492283e-05  -1.8591381287797836e-05  -1.5956411820452839e-05  -1.3308455955533583e-05  -1.0652888976072916e-05  -7.9915849594247489e-06  -5.3256986688300571e-06  -2.6565614698699706e-06  1.4215101910365536e-08  2.6848310794702976e-06  5.3534289563692715e-06  8.0182351682755985e-06  1.0677696673850895e-05  1.3330406798205872e-05  1.5974306351352092e-05  1.8603930161283308e-05  2.1204668933105277e-05  2.3741104196843958e-05  2.6133521035730818e-05  2.8211457422901729e-05  2.9624020578013573e-05  2.9667567278696699e-05  2.6956801606091242e-05  1.8798604843771167e-05  0.0000000000000000e+00  -1.9346545539384504e-05  0.0000000000000000e+00  -2.7701375825680921e-05  -3.0424934010972272e-05  -3.0305348147925093e-05  -2.8781188656470912e-05  -2.6585284881755237e-05  -2.4083604631245329e-05  -2.1453416061995149e-05  -1.8776331308209740e-05  -1.6087018322008990e-05  -1.3398042178956736e-05  -1.0712227341597969e-05  -8.0289470740942212e-06  -5.3470423768544820e-06  -2.6657382752640407e-06  1.5298687524808746e-08  2.6961350786666195e-06  5.3767928784770478e-06  8.0574842752198442e-06  1.0738808868292873e-05  1.3421742811150152e-05  1.6106748785253990e-05  1.8790983362126118e-05  2.1462028192544835e-05  2.4085758686803334e-05  2.6581498905406745e-05  2.8773579280176142e-05  3.0298152193760189e-05  3.0424314605643812e-05  2.7713261819420792e-05  1.9368816668230571e-05  0.0000000000000000e+00  -1.9752441861753898e-05  0.0000000000000000e+00  -2.8229953544299889e-05  -3.0946335795957892e-05  -3.0765692448956817e-05  -2.9163804947592063e-05  -2.6891068814563464e-05  -2.4321082597268068e-05  -2.1633624831415026e-05  -1.8910344332630246e-05  -1.6184740439146326e-05  -1.3467770902161005e-05  -1.0760554739841232e-05  -8.0608594943108611e-06  -5.3660814864336988e-06  -2.6741646321540475e-06  1.6386606601833631e-08  2.7067432816952214e-06  5.3980448218279922e-06  8.0916959792229000e-06  1.0789621710595824e-05  1.3494271066843467e-05  1.6207746883727593e-05  1.8928849970043556e-05  2.1646736449836612e-05  2.4328177733354240e-05  2.6892196735081923e-05  2.9160029402098996e-05  3.0759659088281071e-05  3.0942284560900955e-05  2.8232690400417723e-05  1.9762663660454220e-05  0.0000000000000000e+00  -1.9966235177475748e-05  0.0000000000000000e+00  -2.8499206989679634e-05  -3.1204397513413565e-05  -3.0988698143592208e-05  -2.9347031253823052e-05  -2.7037662584541590e-05  -2.4436708396685666e-05  -2.1724174083770881e-05  -1.8980919989063789e-05  -1.6239439367266075e-05  -1.3509648770743915e-05  -1.0791795560401811e-05  -8.0829381433224139e-06  -5.3799387257726047e-06  -2.6803407146490628e-06  1.7659927964755291e-08  2.7155039372176115e-06  5.4146096721391456e-06  8.1167175041291138e-06  1.0824180758853630e-05  1.3540010667827457e-05  1.6267001664822887e-05  1.9004801225173983e-05  2.1743419199215045e-05  2.4450489661313295e-05  2.7045337468713038e-05  2.9348537280256819e-05  3.0984844954730682e-05  3.1197346572283329e-05  2.8492502906855771e-05  1.9963615381553259e-05  0.0000000000000000e+00  -1.9973780336033448e-05  0.0000000000000000e+00  -2.8490677909347666e-05  -3.1180664606017087e-05  -3.0957617431261773e-05  -2.9316407275662992e-05  -2.7012891928657937e-05  -2.4420497996260877e-05  -2.1716963771243391e-05  -1.8981653344433920e-05  -1.6246103674815098e-05  -1.3519858981841056e-05  -1.0803115390064423e-05  -8.0931761655729878e-06  -5.3873106022241107e-06  -2.6835889183226025e-06  1.9205239156144719e-08  2.7218997541264433e-06  5.4253092761566432e-06  8.1306046993718982e-06  1.0839637340022207e-05  1.3555013488427985e-05  1.6279286589398607e-05  1.9012054600396704e-05  2.1743615377338684e-05  2.4442216043569005e-05  2.7028381557436033e-05  2.9324253194179167e-05  3.0956713004200725e-05  3.1170840257643149e-05  2.8474124311552570e-05  1.9957472090903501e-05  0.0000000000000000e+00  -1.9763809546759086e-05  0.0000000000000000e+00  -2.8190452185034025e-05  -3.0862447469041276e-05  -3.0662377073029815e-05  -2.9064628486287232e-05  -2.6811854730648930e-05  -2.4269354249995207e-05  -2.1610242817232868e-05  -1.8911603897926768e-05  -1.6204345843412040e-05  -1.3498274684627334e-05  -1.0794524557583880e-05  -8.0916127157201095e-06  -5.3882180640362554e-06  -2.6838841915152715e-06  2.1097422861606697e-08  2.7260452822783795e-06  5.4302695163754011e-06  8.1334516711452025e-06  1.0835977905128431e-05  1.3539063082636595e-05  1.6243999679835324e-05  1.8949435207327778e-05  2.1645183988565147e-05  2.4299944718128934e-05  2.6836003110810988e-05  2.9079560151032472e-05  3.0664875942789856e-05  3.0849865299091632e-05  2.8163489549444959e-05  1.9732911578968008e-05  0.0000000000000000e+00  -1.9328120648391849e-05  0.0000000000000000e+00  -2.7589354634017471e-05  -3.0242873849494890e-05  -3.0099399476798985e-05  -2.8591101401438324e-05  -2.6436156976558548e-05  -2.3986191745381014e-05  -2.1407433128354858e-05  -1.8774229279558555e-05  -1.6117213885936541e-05  -1.3447433556236314e-05  -1.0767936954032825e-05  -8.0795759217881463e-06  -5.3834353005172565e-06  -2.6815003079461087e-06  2.3529988744113258e-08  2.7285860952006541e-06  5.4305989515256045e-06  8.1268513447039587e-06  1.0815311752580628e-05  1.3494769047121981e-05  1.6164209819434088e-05  1.8820243900798215e-05  2.1451379017253165e-05  2.4026241000136934e-05  2.6469441452166218e-05  2.8613408996473874e-05  3.0105316987356161e-05  3.0227168222923774e-05  2.7551148658015461e-05  1.9281611635570144e-05  0.0000000000000000e+00  -1.8661131482124060e-05  0.0000000000000000e+00  -2.6682288185707346e-05  -2.9320073375690446e-05  -2.9270481976845119e-05  -2.7900522625506715e-05  -2.5892120163056645e-05  -2.3577823015677739e-05  -2.1114940041513738e-05  -1.8574957372969430e-05  -1.5989019346107136e-05  -1.3370434553842399e-05  -1.0725441309037507e-05  -8.0582940444058452e-06  -5.3735453934403971e-06  -2.6765217024564786e-06  2.6821115053135468e-08  2.7302290020072397e-06  5.4274499365032085e-06  8.1125326461811929e-06  1.0780101511473067e-05  1.3425518729600438e-05  1.6044309822913345e-05  1.8629918516259736e-05  2.1168381354976438e-05  2.3627581879706649e-05  2.5934547922124602e-05  2.7929934979525381e-05  2.9279281203278564e-05  2.9300370867240595e-05  2.6631626904268419e-05  1.8597784312831059e-05  0.0000000000000000e+00  -1.7758491913342327e-05  0.0000000000000000e+00  -2.5466223138486468e-05  -2.8094645774198715e-05  -2.8179668196991030e-05  -2.6999003198102617e-05  -2.5186330340455181e-05  -2.3049976452169727e-05  -2.0736935490061002e-05  -1.8316150487355178e-05  -1.5820416653818378e-05  -1.3266699050551943e-05  -1.0665637880829126e-05  -8.0260965893693618e-06  -5.3570035067562280e-06  -2.6678558526825712e-06  3.1446846561886791e-08  2.7308121322984818e-06  5.4201622956317666e-06  8.0896047919297869e-06  1.0729631369543637e-05  1.3331202093536928e-05  1.5885298393768724e-05  1.8380863391302619e-05  2.0800203555813732e-05  2.3109302767799786e-05  2.5237281953143679e-05  2.7034521697249422e-05  2.8189989222323278e-05  2.8069245699008968e-05  2.5401164168743012e-05  1.7676565393310419e-05  0.0000000000000000e+00  -1.6614155950454072e-05  0.0000000000000000e+00  -2.3935662070931045e-05  -2.6563729528669011e-05  -2.6825863177174707e-05  -2.5885257563595211e-05  -2.4315634155696329e-05  -2.2396728360531451e-05  -2.0264586421048969e-05  -1.7986682406706884e-05  -1.5598955399586900e-05  -1.3123511725908810e-05  -1.0576729735205878e-05  -7.9730175060689700e-06  -5.3264879649461397e-06  -2.6513434345631060e-06  3.8113731472161950e-08  2.7275773653951141e-06  5.4027511177318185e-06  8.0493639266134613e-06  1.0653185899478043e-05  1.3200048097769913e-05  1.5675340764921551e-05  1.8062300461190359e-05  2.0337979774951240e-05  2.2465014191491545e-05  2.4373696439492754e-05  2.5924748153013968e-05  2.6834978074324993e-05  2.6529484081717744e-05  2.3852868716547223e-05  1.6510868923500358e-05  0.0000000000000000e+00  -1.5214601677936287e-05  0.0000000000000000e+00  -2.2072940781440857e-05  -2.4707677817108348e-05  -2.5186024551917451e-05  -2.4530988272694783e-05  -2.3245646999689212e-05  -2.1578227071209653e-05  -1.9654284286652645e-05  -1.7541417768218952e-05  -1.5280471685242828e-05  -1.2900085045950883e-05  -1.0423323827441011e-05  -7.8708227528856175e-06  -5.2621672499806806e-06  -2.6164380591230766e-06  4.7660575221617130e-08  2.7116339515269409e-06  5.3570078427626701e-06  7.9650905392892015e-06  1.0516797447858028e-05  1.2992440553969906e-05  1.5371228551004984e-05  1.7629650444757578e-05  1.9738170183843410e-05  2.1654443377281036e-05  2.3308377876072065e-05  2.4570745705119094e-05  2.5189265250282136e-05  2.4659288837948458e-05  2.1966971566738106e-05  1.5085511687659036e-05  0.0000000000000000e+00  -1.3527390968988102e-05  0.0000000000000000e+00  -1.9827502752990147e-05  -2.2460638041561722e-05  -2.3178231231725689e-05  -2.2838572027418414e-05  -2.1865774141646286e-05  -2.0475442190837237e-05  -1.8784036280655965e-05  -1.6860994525016913e-05  -1.4753301004333117e-05  -1.2496833941380832e-05  -1.0121556993550949e-05  -7.6541072328062781e-06  -5.1191654972564161e-06  -2.5400868641721402e-06  6.0653649733145972e-08  2.6610660921321829e-06  5.2391628799326310e-06  7.7724784938141032e-06  1.0237594391577250e-05  1.2609726934230690e-05  1.4862000785076393e-05  1.6963980161217679e-05  1.8878850592353653e-05  2.0558055643907005e-05  2.1929599707319147e-05  2.2873134694669246e-05  2.3168625499761086e-05  2.2390234149249818e-05  1.9690398075747854e-05  1.3365933394592093e-05  0.0000000000000000e+00  -1.1477717342513117e-05  0.0000000000000000e+00  -1.7070970242743303e-05  -1.9646216422501358e-05  -2.0582658217617469e-05  -2.0553275125469090e-05  -1.9898302797845498e-05  -1.8800894812942279e-05  -1.7369273575416901e-05  -1.5674948792064154e-05  -1.3770513767427255e-05  -1.1697924690321016e-05  -9.4925415548017200e-06  -7.1853799169582020e-06  -4.8044681514047637e-06  -2.3757586995602873e-06  7.6200907604032312e-08  2.5275702124848172e-06  4.9545076658486194e-06  7.3324176255628188e-06  9.6352428501965717e-06  1.1834737617009353e-05  1.3899580599833712e-05  1.5793830121156110e-05  1.7474511324753726e-05  1.8887471761802231e-05  1.9958652934083944e-05  2.0575965244414737e-05  2.0551896246507321e-05  1.9544729062163069e-05  1.6893795773131268e-05  1.1276279792935364e-05  0.0000000000000000e+00  -8.8958722443020260e-06  0.0000000000000000e+00  -1.3494992815146760e-05  -1.5835068963511788e-05  -1.6873145295836586e-05  -1.7082878952038885e-05  -1.6717098562285110e-05  -1.5924129125491399e-05  -1.4800479324603396e-05  -1.3415236585018284e-05  -1.1821673702224342e-05  -1.0062975116070863e-05  -8.1753320579572133e-06  -6.1899335008622166e-06  -4.1343836726093672e-06  -2.0337289119035521e-06  8.8650085845668371e-08  2.2102089342359669e-06  4.3083751412830552e-06  6.3596810642486391e-06  8.3388770464309677e-06  1.0218058044637074e-05  1.1965580888608238e-05  1.3544553619004963e-05  1.4910713462880539e-05  1.6009206793698720e-05  1.6768506925588030e-05  1.7088551415127883e-05  1.6817125614175561e-05  1.5700374880162705e-05  1.3277724921761047e-05  8.6541563940632192e-06  0.0000000000000000e+00  -5.3894298759629702e-06  0.0000000000000000e+00  -8.3732374089008838e-06  -1.0031967361373489e-05  -1.0865476124527788e-05  -1.1134623372919324e-05  -1.0991683351202628e-05  -1.0534882045642064e-05  -9.8331713499704341e-06  -8.9382457238816497e-06  -7.8907041113482287e-06  -6.7234180538949835e-06  -5.4636167511307183e-06  -4.1343702165760681e-06  -2.7557111918678015e-06  -1.3455306679583930e-06  7.9672379407568430e-08  1.5040729997190483e-06  2.9118158908244710e-06  4.2862882576715642e-06  5.6093872342130102e-06  6.8607412193745477e-06  8.0168123598936186e-06  9.0496872032607500e-06  9.9255155097765618e-06  1.0602355409919019e-05  1.1026532477040678e-05  1.1126331728500095e-05  1.0800541871966200e-05  9.8959740070577160e-06  8.1617462537792035e-06  5.1513404346356932e-06  0.0000000000000000e+00  0.0000000000000000e+00  0.0000000000000000e+00  0.0000000000000000e+00  0.0000000000000000e+00  0.0000000000000000e+00  0.0000000000000000e+00  0.0000000000000000e+00  0.0000000000000000e+00  0.0000000000000000e+00  0.0000000000000000e+00  0.0000000000000000e+00  0.0000000000000000e+00  0.0000000000000000e+00  0.0000000000000000e+00  0.0000000000000000e+00  0.0000000000000000e+00  0.0000000000000000e+00  0.0000000000000000e+00  0.0000000000000000e+00  0.0000000000000000e+00  0.0000000000000000e+00  0.0000000000000000e+00  0.0000000000000000e+