<?xml version="1.0"?>
<VTKFile type="UnstructuredGrid"  version="0.1"  >
<UnstructuredGrid>
<Piece  NumberOfPoints="759" NumberOfCells="1408">
<Points>
<DataArray  type="Float64"  NumberOfComponents="3"  format="ascii">0 0.46875 0  0.03125 0.46875 0  0.03125 0.515625 0  0 0.515625 0  0.0625 0.46875 0  0.0625 0.515625 0  0.09375 0.46875 0  0.09375 0.515625 0  0.125 0.46875 0  0.125 0.515625 0  0.15625 0.46875 0  0.15625 0.515625 0  0.1875 0.46875 0  0.1875 0.515625 0  0.21875 0.46875 0  0.21875 0.515625 0  0.25 0.46875 0  0.25 0.515625 0  0.28125 0.46875 0  0.28125 0.515625 0  0.3125 0.46875 0  0.3125 0.515625 0  0.34375 0.46875 0  0.34375 0.515625 0  0.375 0.46875 0  0.375 0.515625 0  0.40625 0.46875 0  0.40625 0.515625 0  0.4375 0.46875 0  0.4375 0.515625 0  0.46875 0.46875 0  0.46875 0.515625 0  0.5 0.46875 0  0.5 0.515625 0  0.53125 0.46875 0  0.53125 0.515625 0  0.5625 0.46875 0  0.5625 0.515625 0  0.59375 0.46875 0  0.59375 0.515625 0  0.625 0.46875 0  0.625 0.515625 0  0.65625 0.46875 0  0.65625 0.515625 0  0.6875 0.46875 0  0.6875 0.515625 0  0.71875 0.46875 0  0.71875 0.515625 0  0.75 0.46875 0  0.75 0.515625 0  0.78125 0.46875 0  0.78125 0.515625 0  0.8125 0.46875 0  0.8125 0.515625 0  0.84375 0.46875 0  0.84375 0.515625 0  0.875 0.46875 0  0.875 0.515625 0  0.90625 0.46875 0  0.90625 0.515625 0  0.9375 0.46875 0  0.9375 0.515625 0  0.96875 0.46875 0  0.96875 0.515625 0  1 0.46875 0  1 0.515625 0  0.03125 0.5625 0  0 0.5625 0  0.0625 0.5625 0  0.09375 0.5625 0  0.125 0.5625 0  0.15625 0.5625 0  0.1875 0.5625 0  0.21875 0.5625 0  0.25 0.5625 0  0.28125 0.5625 0  0.3125 0.5625 0  0.34375 0.5625 0  0.375 0.5625 0  0.40625 0.5625 0  0.4375 0.5625 0  0.46875 0.5625 0  0.5 0.5625 0  0.53125 0.5625 0  0.5625 0.5625 0  0.59375 0.5625 0  0.625 0.5625 0  0.65625 0.5625 0  0.6875 0.5625 0  0.71875 0.5625 0  0.75 0.5625 0  0.78125 0.5625 0  0.8125 0.5625 0  0.84375 0.5625 0  0.875 0.5625 0  0.90625 0.5625 0  0.9375 0.5625 0  0.96875 0.5625 0  1 0.5625 0  0.03125 0.609375 0  0 0.609375 0  0.0625 0.609375 0  0.09375 0.609375 0  0.125 0.609375 0  0.15625 0.609375 0  0.1875 0.609375 0  0.21875 0.609375 0  0.25 0.609375 0  0.28125 0.609375 0  0.3125 0.609375 0  0.34375 0.609375 0  0.375 0.609375 0  0.40625 0.609375 0  0.4375 0.609375 0  0.46875 0.609375 0  0.5 0.609375 0  0.53125 0.609375 0  0.5625 0.609375 0  0.59375 0.609375 0  0.625 0.609375 0  0.65625 0.609375 0  0.6875 0.609375 0  0.71875 0.609375 0  0.75 0.609375 0  0.78125 0.609375 0  0.8125 0.609375 0  0.84375 0.609375 0  0.875 0.609375 0  0.90625 0.609375 0  0.9375 0.609375 0  0.96875 0.609375 0  1 0.609375 0  0.03125 0.65625 0  0 0.65625 0  0.0625 0.65625 0  0.09375 0.65625 0  0.125 0.65625 0  0.15625 0.65625 0  0.1875 0.65625 0  0.21875 0.65625 0  0.25 0.65625 0  0.28125 0.65625 0  0.3125 0.65625 0  0.34375 0.65625 0  0.375 0.65625 0  0.40625 0.65625 0  0.4375 0.65625 0  0.46875 0.65625 0  0.5 0.65625 0  0.53125 0.65625 0  0.5625 0.65625 0  0.59375 0.65625 0  0.625 0.65625 0  0.65625 0.65625 0  0.6875 0.65625 0  0.71875 0.65625 0  0.75 0.65625 0  0.78125 0.65625 0  0.8125 0.65625 0  0.84375 0.65625 0  0.875 0.65625 0  0.90625 0.65625 0  0.9375 0.65625 0  0.96875 0.65625 0  1 0.65625 0  0.03125 0.703125 0  0 0.703125 0  0.0625 0.703125 0  0.09375 0.703125 0  0.125 0.703125 0  0.15625 0.703125 0  0.1875 0.703125 0  0.21875 0.703125 0  0.25 0.703125 0  0.28125 0.703125 0  0.3125 0.703125 0  0.34375 0.703125 0  0.375 0.703125 0  0.40625 0.703125 0  0.4375 0.703125 0  0.46875 0.703125 0  0.5 0.703125 0  0.53125 0.703125 0  0.5625 0.703125 0  0.59375 0.703125 0  0.625 0.703125 0  0.65625 0.703125 0  0.6875 0.703125 0  0.71875 0.703125 0  0.75 0.703125 0  0.78125 0.703125 0  0.8125 0.703125 0  0.84375 0.703125 0  0.875 0.703125 0  0.90625 0.703125 0  0.9375 0.703125 0  0.96875 0.703125 0  1 0.703125 0  0.03125 0.75 0  0 0.75 0  0.0625 0.75 0  0.09375 0.75 0  0.125 0.75 0  0.15625 0.75 0  0.1875 0.75 0  0.21875 0.75 0  0.25 0.75 0  0.28125 0.75 0  0.3125 0.75 0  0.34375 0.75 0  0.375 0.75 0  0.40625 0.75 0  0.4375 0.75 0  0.46875 0.75 0  0.5 0.75 0  0.53125 0.75 0  0.5625 0.75 0  0.59375 0.75 0  0.625 0.75 0  0.65625 0.75 0  0.6875 0.75 0  0.71875 0.75 0  0.75 0.75 0  0.78125 0.75 0  0.8125 0.75 0  0.84375 0.75 0  0.875 0.75 0  0.90625 0.75 0  0.9375 0.75 0  0.96875 0.75 0  1 0.75 0  0.03125 0.796875 0  0 0.796875 0  0.0625 0.796875 0  0.09375 0.796875 0  0.125 0.796875 0  0.15625 0.796875 0  0.1875 0.796875 0  0.21875 0.796875 0  0.25 0.796875 0  0.28125 0.796875 0  0.3125 0.796875 0  0.34375 0.796875 0  0.375 0.796875 0  0.40625 0.796875 0  0.4375 0.796875 0  0.46875 0.796875 0  0.5 0.796875 0  0.53125 0.796875 0  0.5625 0.796875 0  0.59375 0.796875 0  0.625 0.796875 0  0.65625 0.796875 0  0.6875 0.796875 0  0.71875 0.796875 0  0.75 0.796875 0  0.78125 0.796875 0  0.8125 0.796875 0  0.84375 0.796875 0  0.875 0.796875 0  0.90625 0.796875 0  0.9375 0.796875 0  0.96875 0.796875 0  1 0.796875 0  0.03125 0.84375 0  0 0.84375 0  0.0625 0.84375 0  0.09375 0.84375 0  0.125 0.84375 0  0.15625 0.84375 0  0.1875 0.84375 0  0.21875 0.84375 0  0.25 0.84375 0  0.28125 0.84375 0  0.3125 0.84375 0  0.34375 0.84375 0  0.375 0.84375 0  0.40625 0.84375 0  0.4375 0.84375 0  0.46875 0.84375 0  0.5 0.84375 0  0.53125 0.84375 0  0.5625 0.84375 0  0.59375 0.84375 0  0.625 0.84375 0  0.65625 0.84375 0  0.6875 0.84375 0  0.71875 0.84375 0  0.75 0.84375 0  0.78125 0.84375 0  0.8125 0.84375 0  0.84375 0.84375 0  0.875 0.84375 0  0.90625 0.84375 0  0.9375 0.84375 0  0.96875 0.84375 0  1 0.84375 0  0.03125 0.890625 0  0 0.890625 0  0.0625 0.890625 0  0.09375 0.890625 0  0.125 0.890625 0  0.15625 0.890625 0  0.1875 0.890625 0  0.21875 0.890625 0  0.25 0.890625 0  0.28125 0.890625 0  0.3125 0.890625 0  0.34375 0.890625 0  0.375 0.890625 0  0.40625 0.890625 0  0.4375 0.890625 0  0.46875 0.890625 0  0.5 0.890625 0  0.53125 0.890625 0  0.5625 0.890625 0  0.59375 0.890625 0  0.625 0.890625 0  0.65625 0.890625 0  0.6875 0.890625 0  0.71875 0.890625 0  0.75 0.890625 0  0.78125 0.890625 0  0.8125 0.890625 0  0.84375 0.890625 0  0.875 0.890625 0  0.90625 0.890625 0  0.9375 0.890625 0  0.96875 0.890625 0  1 0.890625 0  0.03125 0.9375 0  0 0.9375 0  0.0625 0.9375 0  0.09375 0.9375 0  0.125 0.9375 0  0.15625 0.9375 0  0.1875 0.9375 0  0.21875 0.9375 0  0.25 0.9375 0  0.28125 0.9375 0  0.3125 0.9375 0  0.34375 0.9375 0  0.375 0.9375 0  0.40625 0.9375 0  0.4375 0.9375 0  0.46875 0.9375 0  0.5 0.9375 0  0.53125 0.9375 0  0.5625 0.9375 0  0.59375 0.9375 0  0.625 0.9375 0  0.65625 0.9375 0  0.6875 0.9375 0  0.71875 0.9375 0  0.75 0.9375 0  0.78125 0.9375 0  0.8125 0.9375 0  0.84375 0.9375 0  0.875 0.9375 0  0.90625 0.9375 0  0.9375 0.9375 0  0.96875 0.9375 0  1 0.9375 0  0.03125 0.984375 0  0 0.984375 0  0.0625 0.984375 0  0.09375 0.984375 0  0.125 0.984375 0  0.15625 0.984375 0  0.1875 0.984375 0  0.21875 0.984375 0  0.25 0.984375 0  0.28125 0.984375 0  0.3125 0.984375 0  0.34375 0.984375 0  0.375 0.984375 0  0.40625 0.984375 0  0.4375 0.984375 0  0.46875 0.984375 0  0.5 0.984375 0  0.53125 0.984375 0  0.5625 0.984375 0  0.59375 0.984375 0  0.625 0.984375 0  0.65625 0.984375 0  0.6875 0.984375 0  0.71875 0.984375 0  0.75 0.984375 0  0.78125 0.984375 0  0.8125 0.984375 0  0.84375 0.984375 0  0.875 0.984375 0  0.90625 0.984375 0  0.9375 0.984375 0  0.96875 0.984375 0  1 0.984375 0  0.03125 1.03125 0  0 1.03125 0  0.0625 1.03125 0  0.09375 1.03125 0  0.125 1.03125 0  0.15625 1.03125 0  0.1875 1.03125 0  0.21875 1.03125 0  0.25 1.03125 0  0.28125 1.03125 0  0.3125 1.03125 0  0.34375 1.03125 0  0.375 1.03125 0  0.40625 1.03125 0  0.4375 1.03125 0  0.46875 1.03125 0  0.5 1.03125 0  0.53125 1.03125 0  0.5625 1.03125 0  0.59375 1.03125 0  0.625 1.03125 0  0.65625 1.03125 0  0.6875 1.03125 0  0.71875 1.03125 0  0.75 1.03125 0  0.78125 1.03125 0  0.8125 1.03125 0  0.84375 1.03125 0  0.875 1.03125 0  0.90625 1.03125 0  0.9375 1.03125 0  0.96875 1.03125 0  1 1.03125 0  0.03125 1.078125 0  0 1.078125 0  0.0625 1.078125 0  0.09375 1.078125 0  0.125 1.078125 0  0.15625 1.078125 0  0.1875 1.078125 0  0.21875 1.078125 0  0.25 1.078125 0  0.28125 1.078125 0  0.3125 1.078125 0  0.34375 1.078125 0  0.375 1.078125 0  0.40625 1.078125 0  0.4375 1.078125 0  0.46875 1.078125 0  0.5 1.078125 0  0.53125 1.078125 0  0.5625 1.078125 0  0.59375 1.078125 0  0.625 1.078125 0  0.65625 1.078125 0  0.6875 1.078125 0  0.71875 1.078125 0  0.75 1.078125 0  0.78125 1.078125 0  0.8125 1.078125 0  0.84375 1.078125 0  0.875 1.078125 0  0.90625 1.078125 0  0.9375 1.078125 0  0.96875 1.078125 0  1 1.078125 0  0.03125 1.125 0  0 1.125 0  0.0625 1.125 0  0.09375 1.125 0  0.125 1.125 0  0.15625 1.125 0  0.1875 1.125 0  0.21875 1.125 0  0.25 1.125 0  0.28125 1.125 0  0.3125 1.125 0  0.34375 1.125 0  0.375 1.125 0  0.40625 1.125 0  0.4375 1.125 0  0.46875 1.125 0  0.5 1.125 0  0.53125 1.125 0  0.5625 1.125 0  0.59375 1.125 0  0.625 1.125 0  0.65625 1.125 0  0.6875 1.125 0  0.71875 1.125 0  0.75 1.125 0  0.78125 1.125 0  0.8125 1.125 0  0.84375 1.125 0  0.875 1.125 0  0.90625 1.125 0  0.9375 1.125 0  0.96875 1.125 0  1 1.125 0  0.03125 1.171875 0  0 1.171875 0  0.0625 1.171875 0  0.09375 1.171875 0  0.125 1.171875 0  0.15625 1.171875 0  0.1875 1.171875 0  0.21875 1.171875 0  0.25 1.171875 0  0.28125 1.171875 0  0.3125 1.171875 0  0.34375 1.171875 0  0.375 1.171875 0  0.40625 1.171875 0  0.4375 1.171875 0  0.46875 1.171875 0  0.5 1.171875 0  0.53125 1.171875 0  0.5625 1.171875 0  0.59375 1.171875 0  0.625 1.171875 0  0.65625 1.171875 0  0.6875 1.171875 0  0.71875 1.171875 0  0.75 1.171875 0  0.78125 1.171875 0  0.8125 1.171875 0  0.84375 1.171875 0  0.875 1.171875 0  0.90625 1.171875 0  0.9375 1.171875 0  0.96875 1.171875 0  1 1.171875 0  0.03125 1.21875 0  0 1.21875 0  0.0625 1.21875 0  0.09375 1.21875 0  0.125 1.21875 0  0.15625 1.21875 0  0.1875 1.21875 0  0.21875 1.21875 0  0.25 1.21875 0  0.28125 1.21875 0  0.3125 1.21875 0  0.34375 1.21875 0  0.375 1.21875 0  0.40625 1.21875 0  0.4375 1.21875 0  0.46875 1.21875 0  0.5 1.21875 0  0.53125 1.21875 0  0.5
[...]
<PointData  Scalars="p"> 
<DataArray  type="Float64"  Name="p"  format="ascii">0.0000000000000000e+00  -9.4048224112706115e-03  -9.8530450529861393e-03  0.0000000000000000e+00  -1.6219011150134865e-02  -1.6967823155658774e-02  -2.0912867821901483e-02  -2.1869350075029981e-02  -2.3885013156439466e-02  -2.4980452218610921e-02  -2.5464510256644167e-02  -2.6643089901896986e-02  -2.5919790892349640e-02  -2.7134072876043483e-02  -2.5468705001701720e-02  -2.6677507131021835e-02  -2.4287746729082856e-02  -2.5455154492374361e-02  -2.2520137068190855e-02  -2.3614838546960306e-02  -2.0282553081248107e-02  -2.1277529177667724e-02  -1.7670823846673702e-02  -1.8543026627721105e-02  -1.4764614236316937e-02  -1.5494847439639688e-02  -1.1631373979974165e-02  -1.2204109259849005e-02  -8.3296014036971563e-03  -8.7329458930608308e-03  -4.9116881672419729e-03  -5.1373065883318992e-03  -1.4263481355710412e-03  -1.4695093836560782e-03  2.0791619879710231e-03  2.2195564913620063e-03  5.5569693466208225e-03  5.8782523252808999e-03  8.9565056443594807e-03  9.4521134170099021e-03  1.2222389479276683e-02  1.2881643855441362e-02  1.5292107790478680e-02  1.6100005585926270e-02  1.8093412163720513e-02  1.9030342908355563e-02  2.0541285100578805e-02  2.1582766099842662e-02  2.2534371985572985e-02  2.3650720962404271e-02  2.3950627946187433e-02  2.5106670885852469e-02  2.4642065785663827e-02  2.5796779366656072e-02  2.4428262249159012e-02  2.5534502851605932e-02  2.3088428361528652e-02  2.4092693870942625e-02  2.0351589010542140e-02  2.1194236110403948e-02  1.5884144906257249e-02  1.6500935021314306e-02  9.2730649642420154e-03  9.6013616054363270e-03  0.0000000000000000e+00  0.0000000000000000e+00  -1.0898469789195548e-02  0.0000000000000000e+00  -1.8788885044224220e-02  -2.4248668879852341e-02  -2.7739816526871828e-02  -2.9633449458886942e-02  -3.0228600996481156e-02  -2.9767267668097966e-02  -2.8445994232267211e-02  -2.6425567513909991e-02  -2.3838379425214846e-02  -2.0794852065018705e-02  -1.7388269368189792e-02  -1.3699175296407478e-02  -9.7986644144564452e-03  -5.7515912908621706e-03  -1.6190244654842726e-03  2.5392176738708258e-03  6.6624287110129479e-03  1.0686661677358654e-02  1.4542540026031248e-02  1.8152701296683418e-02  2.1429139472082453e-02  2.4269944796488932e-02  2.6555693278812017e-02  2.8144837859435667e-02  2.8868313841229801e-02  2.8522665317527750e-02  2.6861756221270711e-02  2.3586389056090548e-02  1.8331724867181140e-02  1.0651711976828578e-02  0.0000000000000000e+00  -1.2486678489321928e-02  0.0000000000000000e+00  -2.1539364157381967e-02  -2.7822354603699112e-02  -3.1862054325261513e-02  -3.4077875038322838e-02  -3.4806223692099902e-02  -3.4318438290276004e-02  -3.2835285622419184e-02  -3.0537619030748721e-02  -2.7575528665174532e-02  -2.4074799668349137e-02  -2.0143023732050819e-02  -1.5873671978629506e-02  -1.1350409077451976e-02  -6.6499231581529017e-03  -1.8452312421393044e-03  2.9920902001766740e-03  7.7890526418400701e-03  1.2469104564398502e-02  1.6949338480075501e-02  2.1138056871405329e-02  2.4931549071896892e-02  2.8210894389865390e-02  3.0837710890402555e-02  3.2649445465049720e-02  3.3453052161670750e-02  3.3017519148726679e-02  3.1063866916336485e-02  2.7252842380229722e-02  2.1168566405911894e-02  1.2297471363802971e-02  0.0000000000000000e+00  -1.4605296417047732e-02  0.0000000000000000e+00  -2.5183956607594964e-02  -3.2526768588744329e-02  -3.7254136546648602e-02  -3.9856595834855915e-02  -4.0724819096335310e-02  -4.0172982376880675e-02  -3.8455720431312186e-02  -3.5782142412005703e-02  -3.2325514337820681e-02  -2.8232117149669809e-02  -2.3626940042572372e-02  -1.8619741662139769e-02  -1.3308545866893550e-02  -7.7842607388071625e-03  -2.1331031048128189e-03  3.5595705774310264e-03  9.2071689773059132e-03  1.4718314387470142e-02  1.9994617896295343e-02  2.4927022016434871e-02  2.9392922981003568e-02  3.3251789053999184e-02  3.6340980131045905e-02  3.8469630768422053e-02  3.9411821395702928e-02  3.8897027563948687e-02  3.6598340427076284e-02  3.2116430104249485e-02  2.4958737662359370e-02  1.4511126899296531e-02  0.0000000000000000e+00  -1.7276669762715514e-02  0.0000000000000000e+00  -2.9754505744412255e-02  -3.8393132861964697e-02  -4.3940057974404138e-02  -4.6982041724656087e-02  -4.7983918356197627e-02  -4.7317267816350768e-02  -4.5282595251480574e-02  -4.2125405981657621e-02  -3.8049395074158103e-02  -3.3225494201956654e-02  -2.7800456104776172e-02  -2.1902024442005428e-02  -1.5645222410966400e-02  -9.1355084510551104e-03  -2.4740334586999522e-03  4.2401894366897955e-03  1.0905424309610754e-02  1.7415181375397649e-02  2.3653482763291191e-02  2.9492349061815786e-02  3.4786722821340203e-02  3.9370660222577507e-02  4.3051067043884873e-02  4.5601386023755054e-02  4.6752311237699247e-02  4.6180768100267708e-02  4.3494466078413389e-02  3.8212072674231150e-02  2.9736004933240825e-02  1.7316062188853967e-02  0.0000000000000000e+00  -2.0548901468829230e-02  0.0000000000000000e+00  -3.5327605288853266e-02  -4.5511856608022309e-02  -5.2012855447843433e-02  -5.5542349042804383e-02  -5.6661334701797274e-02  -5.5816365445904029e-02  -5.3366717659654637e-02  -4.9604916905631541e-02  -4.4772046101610383e-02  -3.9069929234847985e-02  -3.2670043178440945e-02  -2.5721653682320728e-02  -1.8357122318605333e-02  -1.0698477733752087e-02  -2.8606966962559112e-03  5.0421533128032102e-03  1.2894559517482120e-02  2.0573316407072630e-02  2.7945191798623547e-02  3.4860510847499172e-02  4.1149713886878811e-02  4.6616263872014542e-02  5.1030792477978135e-02  5.4121803052907008e-02  5.5565233261768994e-02  5.4969869946834650e-02  5.1858521799569741e-02  4.5642565991439787e-02  3.5587677754491114e-02  2.0767346259577883e-02  0.0000000000000000e+00  -2.4489361537328981e-02  0.0000000000000000e+00  -4.2011427895874184e-02  -5.4011950550548277e-02  -6.1607686578169785e-02  -6.5668142914356187e-02  -6.6876187153414909e-02  -6.5773433586706301e-02  -6.2793601379703148e-02  -5.8287997602207542e-02  -5.2544172159876570e-02  -4.5800763248461697e-02  -3.8258748488924091e-02  -3.0090672198504878e-02  -2.1448483423929975e-02  -1.2469739881368402e-02  -3.2843897521905429e-03  5.9809019781280406e-03  1.5195734180881380e-02  2.4222474524457995e-02  3.2908620236328866e-02  4.1083043669887284e-02  4.8547579838350792e-02  5.5071337686199547e-02  6.0380806126574989e-02  6.4149951858745738e-02  6.5986043810281392e-02  6.5412075843066506e-02  6.1842933693869534e-02  5.4553623830538828e-02  4.2636285358901675e-02  2.4941662176018675e-02  0.0000000000000000e+00  -2.9181056118816332e-02  0.0000000000000000e+00  -4.9938064748749171e-02  -6.4049123406685546e-02  -7.2885194154383340e-02  -7.7511846164286663e-02  -7.8764159594670563e-02  -7.7302662339647069e-02  -7.3654173380397536e-02  -6.8242896210684245e-02  -6.1413288139794131e-02  -5.3448056772243679e-02  -4.4582158609613960e-02  -3.5014116863973627e-02  -2.4915747342638517e-02  -1.4440367296949344e-02  -3.7305507110034497e-03  7.0748176302545766e-03  1.7833761939532181e-02  2.8393741051790215e-02  3.8585365171906652e-02  4.8213504474613707e-02  5.7050414972094017e-02  6.4824690177337024e-02  7.1211678798839342e-02  7.5818716650634277e-02  7.8168907189899606e-02  7.7678304910136067e-02  7.3626885624829941e-02  6.5118879809046154e-02  5.1029548236534106e-02  2.9932281426955951e-02  0.0000000000000000e+00  -3.4721275173765463e-02  0.0000000000000000e+00  -5.9259635845092799e-02  -7.5798268135734467e-02  -8.6020016934654830e-02  -9.1231931485070902e-02  -9.2458224910172249e-02  -9.0506875102462012e-02  -8.6020834704126706e-02  -7.9513772956738615e-02  -7.1399799562924943e-02  -6.2013499691895888e-02  -5.1628985380942773e-02  -4.0472583543658250e-02  -2.8736086904542789e-02  -1.6586849383960392e-02  -4.1774978080528985e-03  8.3442185154958392e-03  2.0827563161230925e-02  3.3108387048923625e-02  4.5001101063073201e-02  5.6288067616804174e-02  6.6708525193130655e-02  7.5947280416216456e-02  8.3618736177629632e-02  8.9251637689628224e-02  9.2265592518999670e-02  9.1945331126319613e-02  8.7402988320785857e-02  7.7530942318739623e-02  6.0935351798879073e-02  3.5847223293758702e-02  0.0000000000000000e+00  -4.1221176753257413e-02  0.0000000000000000e+00  -7.0145039451241634e-02  -8.9446314683285968e-02  -1.0118824030223975e-01  -1.0697579043050993e-01  -1.0806651225416088e-01  -1.0545275332430198e-01  -9.9920140572065969e-02  -9.2093869246717253e-02  -8.2470532918660300e-02  -7.1447242662547289e-02  -5.9340431769126817e-02  -4.6406699357223906e-02  -3.2855502587804730e-02  -1.8865301271145780e-02  -4.5944952985677232e-03  9.8061553009045413e-03  2.4181438861846961e-02  3.8361330664752114e-02  5.2147092699624281e-02  6.5300259654963916e-02  7.7527344684951913e-02  8.8463501672500583e-02  9.7655406076491216e-02  1.0453654205818771e-01  1.0840299843085735e-01  1.0837666390182595e-01  1.0336321274535339e-01  9.1991776249845045e-02  7.2536597060042285e-02  4.2807263520959878e-02  0.0000000000000000e+00  -4.8805078520417440e-02  0.0000000000000000e+00  -8.2775791837734411e-02  -1.0518127653979903e-01  -1.1855001019172333e-01  -1.2485418500086415e-01  -1.2564230447037969e-01  -1.2213541741104651e-01  -1.1529764454504862e-01  -1.0588897706951432e-01  -9.4506875720109643e-02  -8.1618126431185975e-02  -6.7587526900181133e-02  -5.2699083200716007e-02  -3.7178170907450792e-02  -2.1207117079868665e-02  -4.9437188190937110e-03  1.1465890279107443e-02  2.7870673339929812e-02  4.4101191413564660e-02  5.9953337177021261e-02  7.5171595355340334e-02  8.9431036311405823e-02  1.0231565333415535e-01  1.1329362339667393e-01  1.2168959980630019e-01  1.2664830263382051e-01  1.2709436391469217e-01  1.2167647752328903e-01  1.0869854258864210e-01  8.6023630500699111e-02  5.0943874304155805e-02  0.0000000000000000e+00  -5.7609356017356089e-02  0.0000000000000000e+00  -9.7337811277039124e-02  -1.2317431243147317e-01  -1.3821917725798979e-01  -1.4490174924732357e-01  -1.4513534630746164e-01  -1.4042804886678933e-01  -1.3196496532723301e-01  -1.2067080151538014e-01  -1.0726044031332072e-01  -9.2279891744898479e-02  -7.6142039340934400e-02  -5.9156215563812613e-02  -4.1554788302244433e-02  -2.3516470078763979e-02  -5.1861331540209391e-03  1.3304227022517575e-02  3.1820263684742750e-02  5.0203150332153737e-02  6.8253870559401700e-02  8.5708568381663713e-02  1.0221548653865849e-01  1.1730757840227644e-01  1.3036858612656013e-01  1.4059629428551543e-01  1.4695723651289078e-01  1.4813293013341844e-01  1.4245512465883042e-01  1.2782116457913495e-01  1.0158357842926460e-01  6.0396044210290538e-02  0.0000000000000000e+00  -6.7778904520840441e-02  0.0000000000000000e+00  -1.1400527368931099e-01  -1.4354513908093286e-01  -1.6021020205173109e-01  -1.6700766325111147e-01  -1.6631417092847922e-01  -1.6000009682611235e-01  -1.4952377341915751e-01  -1.3600698472595904e-01  -1.2029774922780558e-01  -1.0302547251838305e-01  -8.4646760520638201e-02  -6.5487225740616772e-02  -4.5774607797444841e-02  -2.5669475286236369e-02  -5.2911815269958027e-03  1.5259826727622163e-02  3.5877607675805917e-02  5.6431787067401852e-02  7.6740119673900695e-02  9.6544731119706670e-02  1.1547836519183304e-01  1.3302766313025535e-01  1.4849121064723228e-01  1.6092579614021651e-01  1.6908836588692300e-01  1.7136620866881513e-01  1.6569530147597047e-01  1.4946290159818601e-01  1.1937905366012418e-01  7.1303726744672655e-02  0.0000000000000000e+00  -7.9460021509025480e-02  0.0000000000000000e+00  -1.3290952768385772e-01  -1.6629850976273566e-01  -1.8434357890441055e-01  -1.9079910320014282e-01  -1.8863953583520940e-01  -1.8019389547917158e-01  -1.6725357144538702e-01  -1.5116736144416854e-01  -1.3292543837249393e-01  -1.1323361152664116e-01  -9.2579455503679339e-02  -7.1285813493440917e-02  -4.9558079874182481e-02  -2.7520828185964102e-02  -5.2488947895493240e-03  1.7203954248617245e-02  3.9780747728254344e-02  6.2394262712244124e-02  8.4900710925264383e-02  1.0706554118541844e-01  1.2852535040913027e-01  1.4873788420977574e-01  1.6692296283692712e-01  1.8199248485036559e-01  1.9246604988147253e-01  1.9637832460052965e-01  1.9117403326867935e-01  1.7358953160103804e-01  1.3951329669024171e-01  8.3799026354910919e-02  0.0000000000000000e+00  -9.2783272396395666e-02  0.0000000000000000e+00  -1.5407331769199806e-01  -1.9119885303758430e-01  -2.1007093980960834e-01  -2.1543892594934316e-01  -2.1106010611103906e-01  -1.9983839511020218e-01  -1.8395645225454899e-01  -1.6500490118538064e-01  -1.4410420797347570e-01  -1.2201277945063062e-01  -9.9218710836345286e-02  -7.6014612083734445e-02  -5.2556421339818381e-02  -2.8910752475784656e-02  -5.0900443993326366e-03  1.8917578602048100e-02  4.3120145439318677e-02  6.7494480125736389e-02  9.1955628705214315e-02  1.1632029602497992e-01  1.4025719167280334e-01  1.6322590779128301e-01  1.8439638384622986e-01  2.0254947240126950e-01  2.1595841670417407e-01  2.2225171602928490e-01  2.1826678369064390e-01  1.9990172367608755e-01  1.6196246866445815e-01  9.7988298417025443e-02  0.0000000000000000e+00  -1.0781954763518765e-01  0.0000000000000000e+00  -1.7726431858229288e-01  -2.1751360198149561e-01  -2.3614250917675925e-01  -2.3927174412303331e-01  -2.3168414555504624e-01  -2.1697693611368671e-01  -1.9775151980973033e-01  -1.7581345765729475e-01  -1.5236228891850040e-01  -1.2815296112814167e-01  -1.0362462213889218e-01  -7.8999737577450449e-02  -5.4355134589055859e-02  -2.9676414848728658e-02  -4.8974426421549240e-03  2.0071803910801166e-02  4.5317691899285001e-02  7.0897111126697096e-02  9.6806688985186795e-02  1.2294304277486377e-01  1.4904886484513916e-01  1.7463575904409243e-01  1.9888246461115661e-01  2.2049568292470242e-01  2.3753415800822564e-01  2.4719970566253510e-01  2.4560861562191133e-01  2.2757429213876043e-01  1.8643137159656911e-01  1.1391022817523772e-01  0.0000000000000000e+00  -1.2447004783940978e-01  0.0000000000000000e+00  -2.0166168246844496e-01  -2.4347927704432198e-01  -2.5998308987999430e-01  -2.5922586398311476e-01  -2.4728656258649712e-01  -2.2850841858463114e-01  -2.0584179668840485e-01  -1.8119414376098142e-01  -1.5572871856917253e-01  -1.3010253312311734e-01  -1.0463742775624331e-01  -7.9439375447229454e-02  -5.4480534433268737e-02  -2.9652133665159230e-02  -4.8021343492637520e-03  2.0238701345842627e-02  4.5637850114449284e-02  7.1537829542734313e-02  9.8030828143984033e-02  1.2512136119075501e-01  1.5267050222744077e-01  1.8031414570845247e-01  2.0733621621908110e-01  2.3248834217903053e-01  2.5373879719275649e-01  2.6794302760320532e-01  2.7045340636713977e-01  2.5472549683541751e-01  2.1203628279328313e-01  1.3144430094753157e-01  0.0000000000000000e+00  -1.4216517377358634e-01  0.0000000000000000e+00  -2.2504542326591706e-01  -2.6516254650353277e-01  -2.7653781243248093e-01  -2.6987285288926693e-01  -2.5266271854884853e-01  -2.2980954027575023e-01  -2.0433558239334895e-01  -1.7799732183770342e-01  -1.5173684615225283e-01  -1.2599121198227692e-01  -1.0089597791825765e-01  -7.6409678089473049e-02  -5.2389860595950299e-02  -2.8639762931407246e-02  -4.9359323224970582e-03  1.8955453912984335e-02  4.3265409822141748e-02  6.8210307896281352e-02  9.3973014136428099e-02  1.2067564621012869e-01  1.4833379537101518e-01  1.7677668993106802e-01  2.0551872964991788e-01  2.3355167713240516e-01  2.5901955724750841e-01  2.7873147796344683e-01  2.8748785455313908e-01  2.7727200705004768e-01  2.3653416831090635e-01  1.5006316004133896e-01  0.0000000000000000e+00  -1.5892761101230390e-01  0.0000000000000000e+00  -2.4171136964027945e-01  -2.7406992225936166e-01  -2.7633998165532941e-01  -2.6222324605503189e-01  -2.4006047910378514e-01  -2.1458023859167874e-01  -1.8829620266986269e-01  -1.6244041250135471e-01  -1.3752993658809590e-01  -1.1369247388671401e-01  -9.0851995584884368e-02  -6.8830153565999419e-02  -4.7399301158135294e-02  -2.6310242176396832e-02  -5.3061328326201437e-03  1.5871114784820790e-02  3.7478729199294812e-02  5.9768503032728494e-02  8.2980800873336868e-02  1.0733062867030910e-01  1.3297904349860618e-01  1.5997823379809559e-01  1.8816961158528378e-01  2.1699857993462995e-01  2.4517693489263792e-01  2.7009098237246992e-01  2.8679886766856683e-01  2.8645960717021851e-01  2.5429187489392419e-01  1.6807959733479458e-01  0.0000000000000000e+00  -1.6791749294815861e-01  0.0000000000000000e+00  -2.3696269736284059e-01  -2.5271009001492623e-01  -2.4321995827681991e-01  -2.2313180647292777e-01  -1.9947087512142897e-01  -1.7540743206248277e-01  -1.5225273945077308e-01  -1.3044382849758793e-01  -1.1001672109895888e-01  -9.0829844874267110e-02  -7.2669733845387580e-02  -5.5299663098847741e-02  -3.8480095763808668e-02  -2.1975952392131671e-02  -5.5578264950825844e-03  1.1000440539458034e-02  2.7924473629094074e-02  4.5442704821715224e-02  6.3787780292498097e-02  8.3195658229154507e-02  1.0389722481680892e-01  1.2609698128508856e-01  1.4992682762356807e-01  1.7534243135777344e-01  2.0190489827701266e-01  2.2831653151166473e-01  2.5141538858075924e-01  2.6402251632853463e-01  2.5056691598663000e-01  1.7976561482232134e-01  0.0000000000000000e+00  -1.4306308758520705e-01  0.0000000000000000e+00  -1.7503271475450766e-01  -1.7054074381945644e-01  -1.5539676988137188e-01  -1.3803636289373447e-01  -1.2113584108260154e-01  -1.0544947971721899e-01  -9.1080007952091591e-02  -7.7913011340406818e-02  -6.5769960283786039e-02  -5.4462053099314289e-02  -4.3809116007181043e-02  -3.3644546551883897e-02  -2.3814366067681853e-02  -1.4174640970620480e-02  -4.5880936781981171e-03  5.0793513962149447e-03  1.4962294246510148e-02  2.5199122518128201e-02  3.5935814171017384e-02  4.7328834458905046e-02  5.9547301325643814e-02  7.2773708154236769e-02  8.7199692725205183e-02  1.0300981948235502e-01  1.2033714087142924e-01  1.3914184042878328e-01  1.5885898369740931e-01  1.7730995973816455e-01  1.8698927118962522e-01  1.6120199986435552e-01  0.0000000000000000e+00  0.0000000000000000e+00  0.0000000000000000e+00  0.0000000000000000e+00  0.0000000000000000e+00  0.0000000000000000e+00  0.0000000000000000e+00  0.0000000000000000e+00  0.0000000000000000e+00  0.0000000000000000e+00  0.0000000000000000e+00  0.0000000000000000e+00  0.0000000000000000e+00  0.0000000000000000e+00  0.0000000000000000e+00  0.0000000000000000e+00  0.0000000000000000e+00  0.0000000000000000e+00  0.0000000000000000e+00  0.0000000000000000e+00  0.0000000000000000e+00  0.0000000000000000e+00  0.0000000000000000e+00  0.0000000000000000e+00  0.0000000000000000e+00  0.0000000000000000e+00  0.0000000000000000e+00  0.0000000000000000e+00  0.0000000000000000e+00  0.0000000000000000e+00  0.0000000000000000e+00  0.0000000000000000e+00  0.0000000000000000e+00  0.0000000000000000e+00  </DataArray> 
</PointData> 
</Piece>
</UnstructuredGrid>
</VTKFile>