<?xml version="1.0"?>
<VTKFile type="UnstructuredGrid"  version="0.1"  >
<UnstructuredGrid>
<Piece  NumberOfPoints="759" NumberOfCells="1408">
<Points>
<DataArray  type="Float64"  NumberOfComponents="3"  format="ascii">0 0.46875 0  0.03125 0.46875 0  0.03125 0.515625 0  0 0.515625 0  0.0625 0.46875 0  0.0625 0.515625 0  0.09375 0.46875 0  0.09375 0.515625 0  0.125 0.46875 0  0.125 0.515625 0  0.15625 0.46875 0  0.15625 0.515625 0  0.1875 0.46875 0  0.1875 0.515625 0  0.21875 0.46875 0  0.21875 0.515625 0  0.25 0.46875 0  0.25 0.515625 0  0.28125 0.46875 0  0.28125 0.515625 0  0.3125 0.46875 0  0.3125 0.515625 0  0.34375 0.46875 0  0.34375 0.515625 0  0.375 0.46875 0  0.375 0.515625 0  0.40625 0.46875 0  0.40625 0.515625 0  0.4375 0.46875 0  0.4375 0.515625 0  0.46875 0.46875 0  0.46875 0.515625 0  0.5 0.46875 0  0.5 0.515625 0  0.53125 0.46875 0  0.53125 0.515625 0  0.5625 0.46875 0  0.5625 0.515625 0  0.59375 0.46875 0  0.59375 0.515625 0  0.625 0.46875 0  0.625 0.515625 0  0.65625 0.46875 0  0.65625 0.515625 0  0.6875 0.46875 0  0.6875 0.515625 0  0.71875 0.46875 0  0.71875 0.515625 0  0.75 0.46875 0  0.75 0.515625 0  0.78125 0.46875 0  0.78125 0.515625 0  0.8125 0.46875 0  0.8125 0.515625 0  0.84375 0.46875 0  0.84375 0.515625 0  0.875 0.46875 0  0.875 0.515625 0  0.90625 0.46875 0  0.90625 0.515625 0  0.9375 0.46875 0  0.9375 0.515625 0  0.96875 0.46875 0  0.96875 0.515625 0  1 0.46875 0  1 0.515625 0  0.03125 0.5625 0  0 0.5625 0  0.0625 0.5625 0  0.09375 0.5625 0  0.125 0.5625 0  0.15625 0.5625 0  0.1875 0.5625 0  0.21875 0.5625 0  0.25 0.5625 0  0.28125 0.5625 0  0.3125 0.5625 0  0.34375 0.5625 0  0.375 0.5625 0  0.40625 0.5625 0  0.4375 0.5625 0  0.46875 0.5625 0  0.5 0.5625 0  0.53125 0.5625 0  0.5625 0.5625 0  0.59375 0.5625 0  0.625 0.5625 0  0.65625 0.5625 0  0.6875 0.5625 0  0.71875 0.5625 0  0.75 0.5625 0  0.78125 0.5625 0  0.8125 0.5625 0  0.84375 0.5625 0  0.875 0.5625 0  0.90625 0.5625 0  0.9375 0.5625 0  0.96875 0.5625 0  1 0.5625 0  0.03125 0.609375 0  0 0.609375 0  0.0625 0.609375 0  0.09375 0.609375 0  0.125 0.609375 0  0.15625 0.609375 0  0.1875 0.609375 0  0.21875 0.609375 0  0.25 0.609375 0  0.28125 0.609375 0  0.3125 0.609375 0  0.34375 0.609375 0  0.375 0.609375 0  0.40625 0.609375 0  0.4375 0.609375 0  0.46875 0.609375 0  0.5 0.609375 0  0.53125 0.609375 0  0.5625 0.609375 0  0.59375 0.609375 0  0.625 0.609375 0  0.65625 0.609375 0  0.6875 0.609375 0  0.71875 0.609375 0  0.75 0.609375 0  0.78125 0.609375 0  0.8125 0.609375 0  0.84375 0.609375 0  0.875 0.609375 0  0.90625 0.609375 0  0.9375 0.609375 0  0.96875 0.609375 0  1 0.609375 0  0.03125 0.65625 0  0 0.65625 0  0.0625 0.65625 0  0.09375 0.65625 0  0.125 0.65625 0  0.15625 0.65625 0  0.1875 0.65625 0  0.21875 0.65625 0  0.25 0.65625 0  0.28125 0.65625 0  0.3125 0.65625 0  0.34375 0.65625 0  0.375 0.65625 0  0.40625 0.65625 0  0.4375 0.65625 0  0.46875 0.65625 0  0.5 0.65625 0  0.53125 0.65625 0  0.5625 0.65625 0  0.59375 0.65625 0  0.625 0.65625 0  0.65625 0.65625 0  0.6875 0.65625 0  0.71875 0.65625 0  0.75 0.65625 0  0.78125 0.65625 0  0.8125 0.65625 0  0.84375 0.65625 0  0.875 0.65625 0  0.90625 0.65625 0  0.9375 0.65625 0  0.96875 0.65625 0  1 0.65625 0  0.03125 0.703125 0  0 0.703125 0  0.0625 0.703125 0  0.09375 0.703125 0  0.125 0.703125 0  0.15625 0.703125 0  0.1875 0.703125 0  0.21875 0.703125 0  0.25 0.703125 0  0.28125 0.703125 0  0.3125 0.703125 0  0.34375 0.703125 0  0.375 0.703125 0  0.40625 0.703125 0  0.4375 0.703125 0  0.46875 0.703125 0  0.5 0.703125 0  0.53125 0.703125 0  0.5625 0.703125 0  0.59375 0.703125 0  0.625 0.703125 0  0.65625 0.703125 0  0.6875 0.703125 0  0.71875 0.703125 0  0.75 0.703125 0  0.78125 0.703125 0  0.8125 0.703125 0  0.84375 0.703125 0  0.875 0.703125 0  0.90625 0.703125 0  0.9375 0.703125 0  0.96875 0.703125 0  1 0.703125 0  0.03125 0.75 0  0 0.75 0  0.0625 0.75 0  0.09375 0.75 0  0.125 0.75 0  0.15625 0.75 0  0.1875 0.75 0  0.21875 0.75 0  0.25 0.75 0  0.28125 0.75 0  0.3125 0.75 0  0.34375 0.75 0  0.375 0.75 0  0.40625 0.75 0  0.4375 0.75 0  0.46875 0.75 0  0.5 0.75 0  0.53125 0.75 0  0.5625 0.75 0  0.59375 0.75 0  0.625 0.75 0  0.65625 0.75 0  0.6875 0.75 0  0.71875 0.75 0  0.75 0.75 0  0.78125 0.75 0  0.8125 0.75 0  0.84375 0.75 0  0.875 0.75 0  0.90625 0.75 0  0.9375 0.75 0  0.96875 0.75 0  1 0.75 0  0.03125 0.796875 0  0 0.796875 0  0.0625 0.796875 0  0.09375 0.796875 0  0.125 0.796875 0  0.15625 0.796875 0  0.1875 0.796875 0  0.21875 0.796875 0  0.25 0.796875 0  0.28125 0.796875 0  0.3125 0.796875 0  0.34375 0.796875 0  0.375 0.796875 0  0.40625 0.796875 0  0.4375 0.796875 0  0.46875 0.796875 0  0.5 0.796875 0  0.53125 0.796875 0  0.5625 0.796875 0  0.59375 0.796875 0  0.625 0.796875 0  0.65625 0.796875 0  0.6875 0.796875 0  0.71875 0.796875 0  0.75 0.796875 0  0.78125 0.796875 0  0.8125 0.796875 0  0.84375 0.796875 0  0.875 0.796875 0  0.90625 0.796875 0  0.9375 0.796875 0  0.96875 0.796875 0  1 0.796875 0  0.03125 0.84375 0  0 0.84375 0  0.0625 0.84375 0  0.09375 0.84375 0  0.125 0.84375 0  0.15625 0.84375 0  0.1875 0.84375 0  0.21875 0.84375 0  0.25 0.84375 0  0.28125 0.84375 0  0.3125 0.84375 0  0.34375 0.84375 0  0.375 0.84375 0  0.40625 0.84375 0  0.4375 0.84375 0  0.46875 0.84375 0  0.5 0.84375 0  0.53125 0.84375 0  0.5625 0.84375 0  0.59375 0.84375 0  0.625 0.84375 0  0.65625 0.84375 0  0.6875 0.84375 0  0.71875 0.84375 0  0.75 0.84375 0  0.78125 0.84375 0  0.8125 0.84375 0  0.84375 0.84375 0  0.875 0.84375 0  0.90625 0.84375 0  0.9375 0.84375 0  0.96875 0.84375 0  1 0.84375 0  0.03125 0.890625 0  0 0.890625 0  0.0625 0.890625 0  0.09375 0.890625 0  0.125 0.890625 0  0.15625 0.890625 0  0.1875 0.890625 0  0.21875 0.890625 0  0.25 0.890625 0  0.28125 0.890625 0  0.3125 0.890625 0  0.34375 0.890625 0  0.375 0.890625 0  0.40625 0.890625 0  0.4375 0.890625 0  0.46875 0.890625 0  0.5 0.890625 0  0.53125 0.890625 0  0.5625 0.890625 0  0.59375 0.890625 0  0.625 0.890625 0  0.65625 0.890625 0  0.6875 0.890625 0  0.71875 0.890625 0  0.75 0.890625 0  0.78125 0.890625 0  0.8125 0.890625 0  0.84375 0.890625 0  0.875 0.890625 0  0.90625 0.890625 0  0.9375 0.890625 0  0.96875 0.890625 0  1 0.890625 0  0.03125 0.9375 0  0 0.9375 0  0.0625 0.9375 0  0.09375 0.9375 0  0.125 0.9375 0  0.15625 0.9375 0  0.1875 0.9375 0  0.21875 0.9375 0  0.25 0.9375 0  0.28125 0.9375 0  0.3125 0.9375 0  0.34375 0.9375 0  0.375 0.9375 0  0.40625 0.9375 0  0.4375 0.9375 0  0.46875 0.9375 0  0.5 0.9375 0  0.53125 0.9375 0  0.5625 0.9375 0  0.59375 0.9375 0  0.625 0.9375 0  0.65625 0.9375 0  0.6875 0.9375 0  0.71875 0.9375 0  0.75 0.9375 0  0.78125 0.9375 0  0.8125 0.9375 0  0.84375 0.9375 0  0.875 0.9375 0  0.90625 0.9375 0  0.9375 0.9375 0  0.96875 0.9375 0  1 0.9375 0  0.03125 0.984375 0  0 0.984375 0  0.0625 0.984375 0  0.09375 0.984375 0  0.125 0.984375 0  0.15625 0.984375 0  0.1875 0.984375 0  0.21875 0.984375 0  0.25 0.984375 0  0.28125 0.984375 0  0.3125 0.984375 0  0.34375 0.984375 0  0.375 0.984375 0  0.40625 0.984375 0  0.4375 0.984375 0  0.46875 0.984375 0  0.5 0.984375 0  0.53125 0.984375 0  0.5625 0.984375 0  0.59375 0.984375 0  0.625 0.984375 0  0.65625 0.984375 0  0.6875 0.984375 0  0.71875 0.984375 0  0.75 0.984375 0  0.78125 0.984375 0  0.8125 0.984375 0  0.84375 0.984375 0  0.875 0.984375 0  0.90625 0.984375 0  0.9375 0.984375 0  0.96875 0.984375 0  1 0.984375 0  0.03125 1.03125 0  0 1.03125 0  0.0625 1.03125 0  0.09375 1.03125 0  0.125 1.03125 0  0.15625 1.03125 0  0.1875 1.03125 0  0.21875 1.03125 0  0.25 1.03125 0  0.28125 1.03125 0  0.3125 1.03125 0  0.34375 1.03125 0  0.375 1.03125 0  0.40625 1.03125 0  0.4375 1.03125 0  0.46875 1.03125 0  0.5 1.03125 0  0.53125 1.03125 0  0.5625 1.03125 0  0.59375 1.03125 0  0.625 1.03125 0  0.65625 1.03125 0  0.6875 1.03125 0  0.71875 1.03125 0  0.75 1.03125 0  0.78125 1.03125 0  0.8125 1.03125 0  0.84375 1.03125 0  0.875 1.03125 0  0.90625 1.03125 0  0.9375 1.03125 0  0.96875 1.03125 0  1 1.03125 0  0.03125 1.078125 0  0 1.078125 0  0.0625 1.078125 0  0.09375 1.078125 0  0.125 1.078125 0  0.15625 1.078125 0  0.1875 1.078125 0  0.21875 1.078125 0  0.25 1.078125 0  0.28125 1.078125 0  0.3125 1.078125 0  0.34375 1.078125 0  0.375 1.078125 0  0.40625 1.078125 0  0.4375 1.078125 0  0.46875 1.078125 0  0.5 1.078125 0  0.53125 1.078125 0  0.5625 1.078125 0  0.59375 1.078125 0  0.625 1.078125 0  0.65625 1.078125 0  0.6875 1.078125 0  0.71875 1.078125 0  0.75 1.078125 0  0.78125 1.078125 0  0.8125 1.078125 0  0.84375 1.078125 0  0.875 1.078125 0  0.90625 1.078125 0  0.9375 1.078125 0  0.96875 1.078125 0  1 1.078125 0  0.03125 1.125 0  0 1.125 0  0.0625 1.125 0  0.09375 1.125 0  0.125 1.125 0  0.15625 1.125 0  0.1875 1.125 0  0.21875 1.125 0  0.25 1.125 0  0.28125 1.125 0  0.3125 1.125 0  0.34375 1.125 0  0.375 1.125 0  0.40625 1.125 0  0.4375 1.125 0  0.46875 1.125 0  0.5 1.125 0  0.53125 1.125 0  0.5625 1.125 0  0.59375 1.125 0  0.625 1.125 0  0.65625 1.125 0  0.6875 1.125 0  0.71875 1.125 0  0.75 1.125 0  0.78125 1.125 0  0.8125 1.125 0  0.84375 1.125 0  0.875 1.125 0  0.90625 1.125 0  0.9375 1.125 0  0.96875 1.125 0  1 1.125 0  0.03125 1.171875 0  0 1.171875 0  0.0625 1.171875 0  0.09375 1.171875 0  0.125 1.171875 0  0.15625 1.171875 0  0.1875 1.171875 0  0.21875 1.171875 0  0.25 1.171875 0  0.28125 1.171875 0  0.3125 1.171875 0  0.34375 1.171875 0  0.375 1.171875 0  0.40625 1.171875 0  0.4375 1.171875 0  0.46875 1.171875 0  0.5 1.171875 0  0.53125 1.171875 0  0.5625 1.171875 0  0.59375 1.171875 0  0.625 1.171875 0  0.65625 1.171875 0  0.6875 1.171875 0  0.71875 1.171875 0  0.75 1.171875 0  0.78125 1.171875 0  0.8125 1.171875 0  0.84375 1.171875 0  0.875 1.171875 0  0.90625 1.171875 0  0.9375 1.171875 0  0.96875 1.171875 0  1 1.171875 0  0.03125 1.21875 0  0 1.21875 0  0.0625 1.21875 0  0.09375 1.21875 0  0.125 1.21875 0  0.15625 1.21875 0  0.1875 1.21875 0  0.21875 1.21875 0  0.25 1.21875 0  0.28125 1.21875 0  0.3125 1.21875 0  0.34375 1.21875 0  0.375 1.21875 0  0.40625 1.21875 0  0.4375 1.21875 0  0.46875 1.21875 0  0.5 1.21875 0  0.53125 1.21875 0  0.5
[...]
<PointData  Scalars="p"> 
<DataArray  type="Float64"  Name="p"  format="ascii">0.0000000000000000e+00  -9.3691236289781387e-03  -9.8172092301879402e-03  0.0000000000000000e+00  -1.6160225301835706e-02  -1.6909011337648962e-02  -2.0840284635404011e-02  -2.1796900195999992e-02  -2.3805444167407201e-02  -2.4901163252455828e-02  -2.5382943693015737e-02  -2.6561921497566258e-02  -2.5839881666981052e-02  -2.7054649641657137e-02  -2.5393135366099519e-02  -2.6602483513607434e-02  -2.4218489499351206e-02  -2.5386478927680596e-02  -2.2458646622446857e-02  -2.3553944369183562e-02  -2.0229903381039298e-02  -2.1225472275574205e-02  -1.7627807653675706e-02  -1.8500584304072941e-02  -1.4731813841855000e-02  -1.5462588833723440e-02  -1.1609211069952450e-02  -1.2182444994389079e-02  -8.3183714365920973e-03  -8.7221622852569538e-03  -4.9115829550902068e-03  -5.1375881165162561e-03  -1.4374691566519445e-03  -1.4809519089397794e-03  2.0567980545633776e-03  2.1969402645608707e-03  5.5234323146580193e-03  5.8445346332595023e-03  8.9119609961934437e-03  9.4074607104239465e-03  1.2167115996279518e-02  1.2826334585708206e-02  1.5226525601688355e-02  1.6034458451188401e-02  1.8018124414224995e-02  1.8955158793542159e-02  2.0457137764378814e-02  2.1498788268291449e-02  2.2442538355163227e-02  2.3559119970124151e-02  2.3852727017460395e-02  2.5009063461878957e-02  2.4540327110582762e-02  2.5695393702784421e-02  2.4325755086737687e-02  2.5432407698629391e-02  2.2989379785976191e-02  2.3994115265660809e-02  2.0261826011197262e-02  2.1104993879660975e-02  1.5811712240459384e-02  1.6429042689560462e-02  9.2290991517081436e-03  9.5578454025323535e-03  0.0000000000000000e+00  0.0000000000000000e+00  -1.0862975755695031e-02  0.0000000000000000e+00  -1.8730718476220265e-02  -2.4177128624109402e-02  -2.7661655589542998e-02  -2.9553578956517650e-02  -3.0150598126694086e-02  -2.9693742464969596e-02  -2.8378854477224581e-02  -2.6366209776587865e-02  -2.3787826653707232e-02  -2.0753852286325213e-02  -1.7357366006046596e-02  -1.3678756753391081e-02  -9.7889982812377225e-03  -5.7528468166528693e-03  -1.6312858514966760e-03  2.5159457679572706e-03  6.6282229143715199e-03  1.0641689175154897e-02  1.4487076364076123e-02  1.8087158719205791e-02  2.1354108969277558e-02  2.4186256474432781e-02  2.6464501372545083e-02  2.8047739595611854e-02  2.8767514406388400e-02  2.8421205890136341e-02  2.6763828291531604e-02  2.3497766127947673e-02  1.8260353946501984e-02  1.0608521379387319e-02  0.0000000000000000e+00  -1.2451788554710670e-02  0.0000000000000000e+00  -2.1482262223233982e-02  -2.7752233281255510e-02  -3.1785581117282170e-02  -3.3999888619012417e-02  -3.4730238124751317e-02  -3.4247007783079958e-02  -3.2770268189413178e-02  -3.0480366737263370e-02  -2.7527024619272113e-02  -2.4035756396862468e-02  -2.0113953259021787e-02  -1.5854935367640544e-02  -1.1342250618124767e-02  -6.6524929548486900e-03  -1.8585986024177979e-03  2.9679310849042937e-03  7.7541843404142158e-03  1.2423695519393001e-02  1.6893660711214085e-02  2.1072514221981010e-02  2.4856719185435906e-02  2.8127588944708952e-02  3.0747060454125282e-02  3.2553017972508431e-02  3.3353017223489420e-02  3.2916874870800535e-02  3.0966752350847639e-02  2.7164966445221116e-02  2.1097796123478046e-02  1.2254637456865064e-02  0.0000000000000000e+00  -1.4571196393658664e-02  0.0000000000000000e+00  -2.5128223614720026e-02  -3.2458439287465446e-02  -3.7179759200579400e-02  -3.9780914705075873e-02  -4.0651271059485690e-02  -4.0104056748451911e-02  -3.8393219519656720e-02  -3.5727369622538967e-02  -3.2279409897827273e-02  -2.8195355576093251e-02  -2.3599999796789516e-02  -1.8602954397127350e-02  -1.3302130628573760e-02  -7.7883465627570734e-03  -2.1477426261562625e-03  3.5343953020224037e-03  9.1715478123405043e-03  1.4672418050607124e-02  1.9938715339148962e-02  2.4861508429546177e-02  2.9318361434953207e-02  3.3168970386066879e-02  3.6251007251415023e-02  3.8374036489652007e-02  3.9312731748672503e-02  3.8797387238335292e-02  3.6502223335744551e-02  3.2029465989030184e-02  2.4888697635170820e-02  1.4468726473775152e-02  0.0000000000000000e+00  -1.7243513869946606e-02  0.0000000000000000e+00  -2.9700393197962544e-02  -3.8326902328603217e-02  -4.3868108920604137e-02  -4.6909004181104011e-02  -4.7913139254611638e-02  -4.7251163787539074e-02  -4.5222908271510535e-02  -4.2073388256836666e-02  -3.8005942509409120e-02  -3.3191242525061407e-02  -2.7775849575749297e-02  -2.1887364733072148e-02  -1.5640702516640136e-02  -9.1412354225821144e-03  -2.4900420456727972e-03  4.2139305882670699e-03  1.0869013791366186e-02  1.7368793462343310e-02  2.3597384480262485e-02  2.9426927609786956e-02  3.4712526720622361e-02  3.9288458465940118e-02  4.2961932621260995e-02  4.5506812584114507e-02  4.6654375048408414e-02  4.6082351604847922e-02  4.3399566085611005e-02  3.8126223921509259e-02  2.9666861908931846e-02  1.7274197603186648e-02  0.0000000000000000e+00  -2.0516830561951617e-02  0.0000000000000000e+00  -3.5275340917870414e-02  -4.5448000372798739e-02  -5.1943630646626854e-02  -5.5472253011383602e-02  -5.6593612576446191e-02  -5.5753353962206445e-02  -5.3310094472846688e-02  -4.9555881022537142e-02  -4.4731448375127110e-02  -3.9038366411110748e-02  -3.2647925409530612e-02  -2.5709252577655224e-02  -1.8354604615876201e-02  -1.0705927823495156e-02  -2.8781305691978009e-03  5.0147817606012845e-03  1.2857359028014399e-02  2.0526466487876475e-02  2.7888959015066293e-02  3.4795275708052915e-02  4.1076011021163532e-02  4.6534840255682684e-02  5.0942689636214858e-02  5.4028472205062357e-02  5.5468695203999357e-02  5.4872936068326425e-02  5.1765098921763848e-02  4.5558075687246256e-02  3.5519632700589242e-02  2.0726141728032822e-02  0.0000000000000000e+00  -2.4458511023786010e-02  0.0000000000000000e+00  -4.1961228764141913e-02  -5.3950729246403713e-02  -6.1541463881875383e-02  -6.5601265807945494e-02  -6.6811787660088773e-02  -6.5713761725778766e-02  -6.2740266739250095e-02  -5.8242144270827849e-02  -5.2506605393151648e-02  -4.5772040926256058e-02  -3.8239246914969743e-02  -3.0080633152926459e-02  -2.1448047236937502e-02  -1.2478967884883837e-02  -3.3032781797736597e-03  5.9524151918229377e-03  1.5157769668812236e-02  2.4175218770387630e-02  3.2852341313666940e-02  4.1018116970897807e-02  4.8474527314467178e-02  5.4990884534744787e-02  6.0293961364013389e-02  6.4058121236463803e-02  6.5891186974709401e-02  6.5316923798509605e-02  6.1751289092544154e-02  5.4470774408175014e-02  4.2569572654235562e-02  2.4901263109407861e-02  0.0000000000000000e+00  -2.9151558548725292e-02  0.0000000000000000e+00  -4.9890141550590628e-02  -6.3990788049300279e-02  -7.2822239099590097e-02  -7.7448450944094430e-02  -7.8703332231596104e-02  -7.7246559636221929e-02  -7.3604333341437289e-02  -6.8200406450161136e-02  -6.1378907942856616e-02  -5.3422305380885368e-02  -4.4565378910157126e-02  -3.5006521115803851e-02  -2.4917449518309695e-02  -1.4451405230268404e-02  -3.7509000802268436e-03  7.0452362654421265e-03  1.7795082757094478e-02  2.8346159645707102e-02  3.8529153168652470e-02  4.8149034267405334e-02  5.6978197305049966e-02  6.4745429206296570e-02  7.1126350268623573e-02  7.5728678055372742e-02  7.8076051239142893e-02  7.7585272358848628e-02  7.3537359507211464e-02  6.5037991032634912e-02  5.0964434048825967e-02  2.9892853556627668e-02  0.0000000000000000e+00  -3.4693259502751463e-02  0.0000000000000000e+00  -5.9214191679821185e-02  -7.5743058435399732e-02  -8.5960580562662342e-02  -9.1172263986428664e-02  -9.2401199892981276e-02  -9.0454550068949605e-02  -8.5974672868961058e-02  -7.9474804205195482e-02  -7.1368737051573913e-02  -6.1990824511938672e-02  -5.1615007628765829e-02  -4.0467486502734323e-02  -2.8739958413887212e-02  -1.6599703547794397e-02  -4.1992890080556058e-03  8.3135883546029583e-03  2.0788243546458512e-02  3.3060584793505307e-02  4.4945093776621051e-02  5.6224226942183174e-02  6.6637352700454677e-02  7.5869460234855218e-02  8.3535210509749255e-02  8.9163713188157634e-02  9.2175089271680818e-02  9.1854789398997966e-02  8.7315955122712577e-02  7.7452366794193581e-02  6.0872130437253792e-02  3.5808950477546078e-02  0.0000000000000000e+00  -4.1194765503748267e-02  0.0000000000000000e+00  -7.0102265166131425e-02  -8.9394453031071103e-02  -1.0113255208778119e-01  -1.0692007132128299e-01  -1.0801349170867995e-01  -1.0540438391729068e-01  -9.9877808099819360e-02  -9.2058544961464539e-02  -8.2442884249699366e-02  -7.1427713367229376e-02  -5.9329300318249047e-02  -4.6404120968624056e-02  -3.2861539616738496e-02  -1.8879944229729429e-02  -4.6176767686378350e-03  9.7745530588602587e-03  2.4141582416404739e-02  3.8313440168292717e-02  5.2091454264075250e-02  6.5237246791268952e-02  7.7457452028832544e-02  8.8387394989864171e-02  9.7573994075601994e-02  1.0445107858435795e-01  1.0831522546247423e-01  1.0828901108693148e-01  1.0327907408233457e-01  9.1915892881968761e-02  7.2475585612140542e-02  4.2770344487315093e-02  0.0000000000000000e+00  -4.8780383855254086e-02  0.0000000000000000e+00  -8.2735859523983796e-02  -1.0513295971214524e-01  -1.1849826823202048e-01  -1.2480259879219133e-01  -1.2559345026127017e-01  -1.2209113804254848e-01  -1.1525924629850579e-01  -1.0585737252432666e-01  -9.4482687485349645e-02  -8.1601762682470630e-02  -6.7579236167189777e-02  -5.2698994427262412e-02  -3.7186322169909011e-02  -2.1223476085960074e-02  -4.9681963996737249e-03  1.1433432257233639e-02  2.7830419869719545e-02  4.4053378126196016e-02  5.9898261160020595e-02  7.5109634792172947e-02  8.9362681620361775e-02  1.0224155390447436e-01  1.1321465539440144e-01  1.2160696277299878e-01  1.2656365582235923e-01  1.2701001651952187e-01  1.2159565370947333e-01  1.0862574853180912e-01  8.5965162201835033e-02  5.0908518547116630e-02  0.0000000000000000e+00  -5.7586475538866429e-02  0.0000000000000000e+00  -9.7300867340927341e-02  -1.2312970261917607e-01  -1.3817153769495913e-01  -1.4485443219490529e-01  -1.4509076672000870e-01  -1.4038793582655756e-01  -1.3193054450062316e-01  -1.2064292756035909e-01  -1.0723969310369727e-01  -9.2266646453714130e-02  -7.6136517511400187e-02  -5.9158522462156075e-02  -4.1564940093069290e-02  -2.3534413194333248e-02  -5.2117576145656406e-03  1.3271079827764589e-02  3.1779798039001862e-02  5.0155619134842580e-02  6.8199584349497855e-02  8.5647912904932538e-02  1.0214895107403482e-01  1.1723579868063973e-01  1.3029240731819361e-01  1.4051686131366625e-01  1.4687612202955014e-01  1.4805231413872341e-01  1.4237804519179936e-01  1.2775186616710099e-01  1.0152799502518327e-01  6.0362467261320225e-02  0.0000000000000000e+00  -6.7757917631661599e-02  0.0000000000000000e+00  -1.1397143276794278e-01  -1.4350435591335298e-01  -1.6016676942799915e-01  -1.6696469220456395e-01  -1.6627390806452458e-01  -1.5996415447154891e-01  -1.4949329655480953e-01  -1.3598277202951969e-01  -1.2028034109144722e-01  -1.0301521508336195e-01  -8.4643852557456989e-02  -6.5491752920103508e-02  -4.5786567904647205e-02  -2.5688796414116668e-02  -5.3177347228189082e-03  1.5226219431510755e-02  3.5837170130803744e-02  5.6384790485870750e-02  7.6686890356189363e-02  9.6485665359047901e-02  1.1541395448030485e-01  1.3295853293702614e-01  1.4841817761241918e-01  1.6084995123522358e-01  1.6901119275175044e-01  1.7128975059705492e-01  1.6562239557384129e-01  1.4939750506286101e-01  1.1932669757974242e-01  7.1272145248159960e-02  0.0000000000000000e+00  -7.9440987173153677e-02  0.0000000000000000e+00  -1.3287886879404104e-01  -1.6626162500830038e-01  -1.8430439941082161e-01  -1.9076048739543400e-01  -1.8860355600416034e-01  -1.8016204529686378e-01  -1.6722691632713366e-01  -1.5114664735030264e-01  -1.3291117078772374e-01  -1.1322611304358696e-01  -9.2578907790209428e-02  -7.1292288341179524e-02  -4.9571561904029518e-02  -2.7541231538197333e-02  -5.2760750953507714e-03  1.7170192191950179e-02  3.9740646157617500e-02  6.2348111666919177e-02  8.4848853980075634e-02  1.0700838805428294e-01  1.2846339842519730e-01  1.4867175233544269e-01  1.6685344269829680e-01  1.8192061536504359e-01  1.9239322476643225e-01  1.9630644482040427e-01  1.9110572195069847e-01  1.7352843496099224e-01  1.3946450379933500e-01  8.3769653376628853e-02  0.0000000000000000e+00  -9.2766229540106326e-02  0.0000000000000000e+00  -1.5404588465895946e-01  -1.9116589057008981e-01  -2.1003600035950046e-01  -2.1540460499798206e-01  -2.1102829658917086e-01  -1.9981047120226067e-01  -1.8393340204049183e-01  -1.6498742237842795e-01  -1.4409277717263611e-01  -1.2200770249236137e-01  -9.9220159616913398e-02  -7.6022651689381271e-02  -5.2571030214311802e-02  -2.8931837144328319e-02  -5.1174502572067021e-03  1.8884059882572479e-02  4.3080772028464845e-02  6.7449559795845382e-02  9.1905523012097562e-02  1.1626543010015922e-01  1.4019807206145476e-01  1.6316315112150792e-01  1.8433076078017444e-01  2.0248197298534573e-01  2.1589034530929668e-01  2.2218482752397184e-01  2.1820347668396639e-01  1.9984531233594185e-01  1.6191756386496761e-01  9.7961340346365250e-02  0.0000000000000000e+00  -1.0780451977580149e-01  0.0000000000000000e+00  -1.7724012740140332e-01  -2.1748454648194837e-01  -2.3611174664808671e-01  -2.3924159714109616e-01  -2.3165632320433993e-01  -2.1695269280562202e-01  -1.9773176913115365e-01  -1.7579885418695115e-01  -1.5235328711214247e-01  -1.2814985793896916e-01  -1.0362758813532905e-01  -7.9008839811096021e-02  -5.4370353767713334e-02  -2.9697657997043644e-02  -4.9245522869126677e-03  2.0039043091101865e-02  4.5279549220721409e-02  7.0853908986236197e-02  9.6758805465180217e-02  1.2289091895024649e-01  1.4899301855885339e-01  1.7457680806622500e-01  1.9882116273771461e-01  2.2043297490923153e-01  2.3747126080438605e-01  2.4713822623598952e-01  2.4555071984196883e-01  2.2752294413291002e-01  1.8639067123581721e-01  1.1388588543881760e-01  0.0000000000000000e+00  -1.2445705394743324e-01  0.0000000000000000e+00  -2.0164073924767695e-01  -2.4345409669210558e-01  -2.5995641707187994e-01  -2.5919973776212291e-01  -2.4726250294450716e-01  -2.2848755902224499e-01  -2.0582497835754118e-01  -1.8118198235694236e-01  -1.5572165248183109e-01  -1.3010085788567269e-01  -1.0464132105479874e-01  -7.9448915564492281e-02  -5.4495713869465903e-02  -2.9672869445630263e-02  -4.8282755467096653e-03  2.0207368275500258e-02  4.5601597769722724e-02  7.1496988373036280e-02  9.7985787823839959e-02  1.2507257556258802e-01  1.5261849935235783e-01  1.8025954507552580e-01  2.0727975688852351e-01  2.3243092645406230e-01  2.5368155648103802e-01  2.6788741988479059e-01  2.7040135810387000e-01  2.5467960656660238e-01  2.1200011022303644e-01  1.3142277566650429e-01  0.0000000000000000e+00  -1.4215424879067040e-01  0.0000000000000000e+00  -2.2502775956211762e-01  -2.6514123975160137e-01  -2.7651517379996310e-01  -2.6985062392088527e-01  -2.5264222128001806e-01  -2.2979178213933854e-01  -2.0432132995519051e-01  -1.7798715240342777e-01  -1.5173118446559852e-01  -1.2599035655852578e-01  -1.0090011972507164e-01  -7.6418914212369973e-02  -5.2404204425370506e-02  -2.8659151673133914e-02  -4.9602325438116652e-03  1.8926442203370728e-02  4.3231950556757319e-02  6.8172727718205609e-02  9.3931703101891598e-02  1.2063106089101217e-01  1.4828646544099697e-01  1.7672723030008214e-01  2.0546786049218108e-01  2.3350025579214193e-01  2.5896862770320150e-01  2.7868234602854397e-01  2.8744220007615207e-01  2.7723204789849870e-01  2.3650289656817325e-01  1.5004467808574415e-01  0.0000000000000000e+00  -1.5891884142150089e-01  0.0000000000000000e+00  -2.4169710671113706e-01  -2.7405260666776610e-01  -2.7632146196037111e-01  -2.6220494312210818e-01  -2.4004349811059525e-01  -2.1456544546519080e-01  -1.8828427690861904e-01  -1.6243188354473581e-01  -1.3752520901546775e-01  -1.1369184538255558e-01  -9.0855669596304603e-02  -6.8838248299712537e-02  -4.7411856192053216e-02  -2.6327223355596525e-02  -5.3274358120718656e-03  1.5845662044832905e-02  3.7449364724067860e-02  5.9735530190963983e-02  8.2944588787513332e-02  1.0729161415853955e-01  1.3293773538024675e-01  1.5993522066759217e-01  1.8812557478256170e-01  2.1695431446587266e-01  2.4513338279252159e-01  2.7004928440533377e-01  2.8676044258841427e-01  2.8642627198475989e-01  2.5426602345895277e-01  1.6806445789221050e-01  0.0000000000000000e+00  -1.6791107876047920e-01  0.0000000000000000e+00  -2.3695216479227080e-01  -2.5269716965236177e-01  -2.4320598786479758e-01  -2.2311784225301579e-01  -1.9945776489279327e-01  -1.7539586310945965e-01  -1.5224327033166501e-01  -1.3043691043041919e-01  -1.1001271244077938e-01  -9.0829021201482840e-02  -7.2672294990033817e-02  -5.5305738061738913e-02  -3.8489746241211528e-02  -2.1989175307805399e-02  -5.5745557632752921e-03  1.0980332811338884e-02  2.7901176529665436e-02  4.5416468532468668e-02  6.3758916662571608e-02  8.3164542239486577e-02  1.0386429744479130e-01  1.2606275436046507e-01  1.4989189149150925e-01  1.7530746729669469e-01  2.0187069788368289e-01  2.2828402650754812e-01  2.5138569750046758e-01  2.6399701724158048e-01  2.5054735943568274e-01  1.7975429664244252e-01  0.0000000000000000e+00  -1.4305945740330145e-01  0.0000000000000000e+00  -1.7502667181104811e-01  -1.7053321868770666e-01  -1.5538850349830469e-01  -1.3802796347347512e-01  -1.2112781699023660e-01  -1.0544225923221398e-01  -9.1073951824571328e-02  -7.7908420980754872e-02  -6.5767083246118102e-02  -5.4461086921048021e-02  -4.3810210847410401e-02  -3.3647806993276158e-02  -2.3819852388816398e-02  -1.4182370017322645e-02  -4.5980394149524508e-03  5.0672576242735213e-03  1.4948163701501246e-02  2.5183109367186096e-02  3.5918116085361530e-02  4.7309693722481325e-02  5.9527006643315165e-02  7.2752597345732070e-02  8.7178156806539051e-02  1.0298830889260804e-01  1.2031617467027214e-01  1.3912201989654591e-01  1.5884101295021513e-01  1.7729467643684577e-01  1.8697769289500116e-01  1.6119539551854128e-01  0.0000000000000000e+00  0.0000000000000000e+00  0.0000000000000000e+00  0.0000000000000000e+00  0.0000000000000000e+00  0.0000000000000000e+00  0.0000000000000000e+00  0.0000000000000000e+00  0.0000000000000000e+00  0.0000000000000000e+00  0.0000000000000000e+00  0.0000000000000000e+00  0.0000000000000000e+00  0.0000000000000000e+00  0.0000000000000000e+00  0.0000000000000000e+00  0.0000000000000000e+00  0.0000000000000000e+00  0.0000000000000000e+00  0.0000000000000000e+00  0.0000000000000000e+00  0.0000000000000000e+00  0.0000000000000000e+00  0.0000000000000000e+00  0.0000000000000000e+00  0.0000000000000000e+00  0.0000000000000000e+00  0.0000000000000000e+00  0.0000000000000000e+00  0.0000000000000000e+00  0.0000000000000000e+00  0.0000000000000000e+00  0.0000000000000000e+00  0.0000000000000000e+00  </DataArray> 
</PointData> 
</Piece>
</UnstructuredGrid>
</VTKFile>