<?xml version="1.0"?>
<VTKFile type="UnstructuredGrid"  version="0.1"  >
<UnstructuredGrid>
<Piece  NumberOfPoints="825" NumberOfCells="1536">
<Points>
<DataArray  type="Float64"  NumberOfComponents="3"  format="ascii">-1.384639268076398e-22 0.5 0  0.06249999645931104 0.5000001289331131 0  0.06249982072154679 0.562500153736868 0  -1.752461704746522e-07 0.562500012313197 0  0.1249999815658017 0.5000002579330586 0  0.124999805680657 0.5625002714415677 0  0.1874999519927684 0.5000003842270596 0  0.1874997789404954 0.5625003794329148 0  0.2499999033098465 0.5000004947743822 0  0.2499997392148436 0.5625004744099904 0  0.3124998325811305 0.5000005845453457 0  0.3124996849142438 0.5625005505134302 0  0.3749997395917367 0.5000006463329505 0  0.3749996151180267 0.5625006009632769 0  0.4374996155770195 0.5000006620286239 0  0.437499529481063 0.5625006181665639 0  0.4999994631674655 0.5000006308638352 0  0.4999994292610519 0.5625005998149893 0  0.5624993009600743 0.5000005694005625 0  0.5624993196026729 0.562500552021458 0  0.6249991446358587 0.5000004908059849 0  0.6249992081496144 0.5625004833660736 0  0.6874989986096609 0.5000003979339086 0  0.6874991013170461 0.562500399403452 0  0.7499988691346516 0.5000002967315665 0  0.7499990036639798 0.5625003048052197 0  0.8124987588708619 0.5000001898459223 0  0.8124989191555568 0.562500203515974 0  0.8749986701767947 0.5000000793149233 0  0.8749988503780733 0.5625000980702123 0  0.9374986063622938 0.4999999686668089 0  0.9374987991914687 0.562499991861416 0  0.9999985698265056 0.4999998619656298 0  0.9999987671357211 0.5624998891452302 0  1.062498562620404 0.4999997680021392 0  1.062498754847462 0.5624997927634331 0  1.124998575483187 0.4999996754722498 0  1.124998761593241 0.5624997025364749 0  1.18749860955334 0.4999995887772329 0  1.187498786153785 0.5624996208835761 0  1.249998673766059 0.4999995246650874 0  1.249998828084444 0.5624995522168225 0  1.312498753803827 0.4999994684664594 0  1.312498885939228 0.5624994968382162 0  1.374998850458544 0.4999994261730658 0  1.374998957169663 0.5624994572534237 0  1.437498970556812 0.4999994141333006 0  1.437499040037407 0.5624994380328018 0  1.499999098550102 0.4999994193799195 0  1.499999131908696 0.562499439560328 0  1.562499233163814 0.4999994478789113 0  1.562499229365413 0.5624994631807068 0  1.624999380006882 0.4999995123053069 0  1.624999330054113 0.5624995102539905 0  1.687499522085931 0.4999995920212542 0  1.687499430539049 0.5624995757328991 0  1.749999655488718 0.4999996826483045 0  1.749999526022831 0.5624996546808407 0  1.812499783739612 0.4999997900736268 0  1.8124996126819 0.5624997437620038 0  1.874999888456519 0.4999998891168204 0  1.874999685863588 0.5624998357164683 0  1.937499962902675 0.4999999634577681 0  1.937499738098291 0.5624999310079293 0  2 0.5 0  1.999999756331296 0.5625000870678012 0  0.0624996776584375 0.6250001832364804 0  -3.214130655233811e-07 0.6250000653219671 0  0.1249996682776874 0.6250002861179139 0  0.1874996491733823 0.625000378334355 0  0.2499996202612696 0.6250004584113981 0  0.3124995813395672 0.6250005218957743 0  0.3749995323650314 0.6250005634973715 0  0.4374994735096864 0.6250005784809847 0  0.4999994054781599 0.6250005650920835 0  0.5624993305052464 0.6250005259567806 0  0.6249992524777317 0.6250004661390004 0  0.6874991756808836 0.6250003905713249 0  0.749999103885141 0.6250003035548258 0  0.8124990402777115 0.6250002088045268 0  0.8749989872539284 0.6250001094992307 0  0.9374989464884929 0.6250000089085603 0  0.9999989192156582 0.6249999103833589 0  1.062498906233917 0.6249998165237085 0  1.124998907506479 0.6249997290647474 0  1.187498922274143 0.6249996501248213 0  1.249998949802643 0.6249995823155913 0  1.312498988973478 0.6249995276193459 0  1.374999037985193 0.6249994881323313 0  1.437499095125847 0.6249994662954624 0  1.49999915849183 0.6249994635263268 0  1.562499225759136 0.6249994804618081 0  1.624999294811164 0.6249995167908132 0  1.687499363166095 0.6249995700332082 0  1.749999427489069 0.6249996367037168 0  1.8124994842068 0.6249997136345051 0  1.874999528768832 0.6249997988931162 0  1.93749955476461 0.6249998985229624 0  1.99999956048854 0.6250000340789114 0  0.06249957085261398 0.6875002174633513 0  -4.28845343187146e-07 0.6875001277448822 0  0.1249995656672326 0.6875003018375778 0  0.1874995536835008 0.6875003783180211 0  0.2499995345993188 0.6875004442860257 0  0.3124995085325618 0.6875004959682671 0  0.3749994756571609 0.6875005292508202 0  0.4374994361691 0.6875005407692912 0  0.4999993904954266 0.6875005291291517 0  0.5624993397769363 0.6875004954951252 0  0.6249992860883286 0.6875004429017444 0  0.6874992320643685 0.6875003750568646 0  0.7499991803799697 0.6875002956436466 0  0.8124991334455675 0.6875002080946693 0  0.8749990932201864 0.6875001156007929 0  0.9374990611864917 0.6875000212541705 0  0.9999990384426142 0.6874999280079379 0  1.062499025688953 0.6874998384252851 0  1.124999023085398 0.6874997546828965 0  1.187499030288663 0.6874996789186352 0  1.249999046681466 0.6874996133162734 0  1.312499071357338 0.6874995598956981 0  1.374999103084511 0.6874995205606906 0  1.437499140509261 0.6874994970410587 0  1.499999182171299 0.6874994904954308 0  1.562499226454154 0.6874995013109922 0  1.624999271662053 0.6874995289136911 0  1.687499315832167 0.6874995715739053 0  1.749999356512413 0.6874996268457387 0  1.812499390805735 0.6874996924086901 0  1.874999415405621 0.6874997672785904 0  1.937499427716054 0.6874998534658868 0  1.999999430037726 0.6874999524661184 0  0.06249949629912222 0.7500002534446214 0  -5.035994042254397e-07 0.7500001893552773 0  0.1249994936355618 0.7500003186177774 0  0.1874994868525487 0.7500003794584582 0  0.2499994753906244 0.7500004320943947 0  0.3124994591957029 0.7500004728637447 0  0.3749994383438662 0.7500004983459929 0  0.4374994129288179 0.7500005059096786 0  0.4999993831709575 0.7500004943311012 0  0.5624993496683028 0.7500004640752598 0  0.624999313556224 0.7500004170163954 0  0.6874992764102582 0.7500003558439245 0  0.7499992399941525 0.7500002835546726 0  0.8124992060213939 0.7500002031731823 0  0.874999175990929 0.7500001176514289 0  0.9374991511185395 0.7500000298482028 0  0.9999991323290837 0.7499999424743486 0  1.062499120228017 0.7499998580040173 0  1.124999115048206 0.7499997786759156 0  1.187499116662332 0.7499997065930432 0  1.249999124662136 0.7499996437621758 0  1.312499138401595 0.7499995920430074 0  1.374999157032092 0.7499995530979815 0  1.437499179579749 0.7499995282878965 0  1.499999204982072 0.749999518480863 0  1.5624992320822 0.7499995238798938 0  1.624999259610227 0.7499995438987795 0  1.687499286098527 0.749999577150459 0  1.749999309807922 0.7499996216840014 0  1.812499328809542 0.7499996754145062 0  1.874999341365073 0.7499997365137863 0  1.937499346995714 0.7499998029551325 0  1.999999347981142 0.7499998690472393 0  0.06249944791677558 0.8125002885288762 0  -5.520845270303128e-07 0.8125002460259032 0  0.12499944675534 0.8125003358430227 0  0.1874994434250396 0.8125003818175163 0  0.2499994373421737 0.8125004219896804 0  0.3124994282646822 0.8125004526975973 0  0.3749994160938726 0.8125004708928829 0  0.4374994007797232 0.8125004743371976 0  0.4999993823658682 0.8125004618874528 0  0.562499361120418 0.812500433626562 0  0.6249993376380926 0.8125003907286801 0  0.6874993128267104 0.8125003351396721 0  0.7499992877919123 0.812500269241788 0  0.8124992636901571 0.8125001956084782 0  0.8749992416049843 0.8125001168611602 0  0.9374992224694789 0.8125000355870774 0  0.9999992070233866 0.8124999542728977 0  1.062499195777814 0.8124998752496502 0  1.124999188986176 0.8124998006770316 0  1.187499186646154 0.8124997325617258 0  1.249999188533251 0.8124996727614568 0  1.312499194239363 0.8124996229527908 0  1.37499920321279 0.8124995845716875 0  1.437499214802332 0.81249955871993 0  1.499999228284743 0.8124995460412041 0  1.56249924286748 0.8124995466020714 0  1.624999257671951 0.812499559813061 0  1.687499271705362 0.8124995844282911 0  1.749999283871737 0.8124996186429848 0  1.812499293107779 0.81249966021021 0  1.874999298729225 0.8124997063359366 0  1.937499300984562 0.8124997528765499 0  1.999999301355797 0.8124997922851906 0  0.06249942007919717 0.8750003210815939 0  -5.799824140999717e-07 0.8750002960942632 0  0.1249994198001793 0.8750003527542346 0  0.1874994186417074 0.875000385215853 0  0.2499994161256354 0.8750004139783593 0  0.312499411922443 0.8750004354782145 0  0.3749994057983078 0.8750004469066647 0  0.4374993975731253 0.8750004462508626 0  0.499999387143839 0.8750004324059028 0  0.562499374555501 0.8750004052232211 0  0.6249993600651953 0.8750003654289943 0  0.6874993441518478 0.875000314435462 0  0.7499993274658547 0.8750002541184321 0  0.8124993107455587 0.8750001866232974 0  0.8749992947325733 0.8750001142222681 0  0.9374992801047054 0.8750000392141313 0  0.9999992674278623 0.8749999638498834 0  1.062499257120507 0.8749998902785993 0  1.124999249430756 0.874999820516152 0  1.187499244432873 0.8749997564296352 0  1.249999242043012 0.8749996997184193 0  1.312499242045485 0.8749996518780923 0  1.374999244123106 0.8749996141438101 0  1.437499247886428 0.8749995874130666 0  1.499999252893565 0.8749995721554016 0  1.562499258656749 0.8749995683268402 0  1.624999264640064 0.8749995753091787 0  1.687499270263523 0.8749995918872528 0  1.749999274945357 0.8749996162500454 0  1.812499278220479 0.8749996459431713 0  1.874999279941742 0.8749996776260235 0  1.937499280466497 0.8749997064626736 0  1.999999280553544 0.874999725089963 0  0.06249940806779939 0.9375003502708998 0  -5.920292491307778e-07 0.9375003391750482 0  0.1249994082877246 0.9375003687339221 0  0.1874994084279105 0.9375003893335385 0  0.2499994081525429 0.9375004078931294 0  0.3124994071278691 0.9375004210746277 0  0.3749994050500743 0.937500426284118 0  0.4374994016492773 0.9375004216680669 0  0.4999993967136598 0.9375004061479777 0  0.5624993901346195 0.9375003794270665 0  0.6249993819492947 0.9375003419304557 0  0.687499372355921 0.9375002
[...]
<PointData  Scalars="p"> 
<DataArray  type="Float64"  Name="p"  format="ascii">0.0000000000000000e+00  -5.6281308848636657e-04  -5.9098253068217484e-04  0.0000000000000000e+00  -9.8405127310469934e-04  -1.0016447475754483e-03  -1.2807881682025211e-03  -1.2838419461303179e-03  -1.4743764193354343e-03  -1.4657353162193913e-03  -1.5830730044465926e-03  -1.5663682433223285e-03  -1.6212289797885838e-03  -1.5997283130303889e-03  -1.6007263717645575e-03  -1.5769107038811651e-03  -1.5313358809749805e-03  -1.5070650084731253e-03  -1.4211950362683003e-03  -1.3978734050743480e-03  -1.2772928098096123e-03  -1.2559719163312271e-03  -1.1057513698872409e-03  -1.0872246695544702e-03  -9.1212071882003365e-04  -8.9693337875518264e-04  -7.0136561947368103e-04  -6.8990288241836835e-04  -4.7798820547708185e-04  -4.7052785140003168e-04  -2.4623702424952709e-04  -2.4295225611537725e-04  -1.0205942263882061e-05  -1.1182297940709668e-05  2.2597833273627790e-04  2.2080280882072831e-04  4.5837388984745856e-04  4.4909559676310529e-04  6.8298236416773769e-04  6.6973896751119607e-04  8.9531729068049136e-04  8.7846534362401264e-04  1.0908475923856202e-03  1.0708170488157903e-03  1.2646908392010367e-03  1.2420330007165560e-03  1.4111644733441483e-03  1.3867538729719702e-03  1.5241816065284836e-03  1.4991055592940231e-03  1.5968542353109951e-03  1.5725056641622628e-03  1.6208655835501054e-03  1.5992144224165042e-03  1.5865810368787319e-03  1.5701400324759946e-03  1.4822213029868348e-03  1.4741462879643706e-03  1.2926603949898669e-03  1.2966809756227752e-03  9.9900351420600052e-04  1.0176739727128321e-03  5.7786379748548029e-04  6.0581343043121462e-04  0.0000000000000000e+00  0.0000000000000000e+00  -6.4333095835650918e-04  0.0000000000000000e+00  -1.0449841418975483e-03  -1.3021700547748071e-03  -1.4597641062909616e-03  -1.5415629577802345e-03  -1.5622064593521984e-03  -1.5320424360595881e-03  -1.4591758002610396e-03  -1.3503573447237269e-03  -1.2114488552272670e-03  -1.0476903248599610e-03  -8.6385619535550540e-04  -6.6433531856699749e-04  -4.5320968367408939e-04  -2.3435643464045892e-04  -1.1535842184918225e-05  2.1153868369291250e-04  4.3117106207245383e-04  6.4360104636670696e-04  8.4488785158395364e-04  1.0308948423593354e-03  1.1972166121354865e-03  1.3390429608171432e-03  1.4511087740085441e-03  1.5275428951799475e-03  1.5615596275440164e-03  1.5450304652349983e-03  1.4674807543268358e-03  1.3138151216136359e-03  1.0591464108467210e-03  6.5576360195995754e-04  0.0000000000000000e+00  -6.9783232867419540e-04  0.0000000000000000e+00  -1.0999565249806133e-03  -1.3359860438774691e-03  -1.4681526399723489e-03  -1.5276489498556396e-03  -1.5315284044950651e-03  -1.4903405164406185e-03  -1.4115493544353008e-03  -1.3010519106981112e-03  -1.1638766046745519e-03  -1.0045244933770700e-03  -8.2713150973129921e-04  -6.3555201651814661e-04  -4.3342810911417378e-04  -2.2425730635841908e-04  -1.1450329153744685e-05  2.0162067554963035e-04  4.1158201328651855e-04  6.1500543370165322e-04  8.0834760753491458e-04  9.8791617978210297e-04  1.1498153434217908e-03  1.2898672676865878e-03  1.4035319175659795e-03  1.4857430666750453e-03  1.5305634738827429e-03  1.5304837650498739e-03  1.4748277664793617e-03  1.3461646137326389e-03  1.1123219233778465e-03  7.0863845911262274e-04  0.0000000000000000e+00  -7.5198599011124185e-04  0.0000000000000000e+00  -1.1617902207140831e-03  -1.3829654568447000e-03  -1.4927377447587931e-03  -1.5302160870784814e-03  -1.5159494920628585e-03  -1.4615850669341247e-03  -1.3745250678761122e-03  -1.2601223044169413e-03  -1.1227105688926759e-03  -9.6609308120515600e-04  -7.9376087056692575e-04  -6.0899701148710978e-04  -4.1494530225696745e-04  -2.1465964272532985e-04  -1.1139506507984770e-05  1.9263912255582051e-04  3.9369394658636422e-04  5.8900267373878225e-04  7.7547206144833246e-04  9.4990876999542144e-04  1.1089792628477776e-03  1.2491437615748931e-03  1.3665526983336498e-03  1.4568282687692381e-03  1.5145819035600634e-03  1.5323775795369886e-03  1.4984724455515189e-03  1.3920045787539235e-03  1.1729818734297120e-03  7.6192493550591577e-04  0.0000000000000000e+00  -8.0749607465789835e-04  0.0000000000000000e+00  -1.2299614512275511e-03  -1.4414790144615520e-03  -1.5323905600463700e-03  -1.5494037186911727e-03  -1.5169601809054236e-03  -1.4483513606745385e-03  -1.3513795656578912e-03  -1.2311731611031043e-03  -1.0915666095699138e-03  -9.3577170766667977e-04  -7.6668454051371572e-04  -5.8702915843288897e-04  -3.9943790939990509e-04  -2.0649474511779631e-04  -1.0757106737251130e-05  1.8522753326928568e-04  3.7890373104884948e-04  5.6769136886879016e-04  7.4896892393012927e-04  9.2005675322379750e-04  1.0781775554271336e-03  1.2203840359663390e-03  1.3434189981090900e-03  1.4434091505448317e-03  1.5152032934903914e-03  1.5509882138379650e-03  1.5374132582568968e-03  1.4497726837251850e-03  1.2405269279418905e-03  8.1710322743340394e-04  0.0000000000000000e+00  -8.6629078161989264e-04  0.0000000000000000e+00  -1.3049961582432040e-03  -1.5104038194508282e-03  -1.5851898308339150e-03  -1.5833005614268318e-03  -1.5331164822192788e-03  -1.4498127209490602e-03  -1.3418659687737670e-03  -1.2144126821718774e-03  -1.0709574820434021e-03  -9.1423328128908922e-04  -7.4660986751318289e-04  -5.7028865238142488e-04  -3.8740414051533666e-04  -2.0006979302277130e-04  -1.0393067966311190e-05  1.7951771271527755e-04  3.6754677861664019e-04  5.5156398825050230e-04  7.2942126816269383e-04  8.9893782930684275e-04  1.0578609673859412e-03  1.2037710876074571e-03  1.3338933672859743e-03  1.4446947091652678e-03  1.5310326613139557e-03  1.5844429579780319e-03  1.5897241805340619e-03  1.5182706073813043e-03  1.3153253659547537e-03  8.7591942425811655e-04  0.0000000000000000e+00  -9.2952210712898776e-04  0.0000000000000000e+00  -1.3870796990419292e-03  -1.5885031911395753e-03  -1.6488737864256493e-03  -1.6292090915888094e-03  -1.5617555103603867e-03  -1.4636199848139660e-03  -1.3440670790218524e-03  -1.2083681042454456e-03  -1.0598103983439915e-03  -9.0073639427626362e-04  -7.3305416225703541e-04  -5.5848608137514454e-04  -3.7869571236144909e-04  -1.9534160934616971e-04  -1.0090204378715737e-05  1.7538396594568369e-04  3.5939870670593577e-04  5.4026652034249118e-04  7.1629492959273571e-04  8.8577773013120953e-04  1.0469427627758986e-03  1.1978355127696826e-03  1.3360773034398674e-03  1.4583612077091706e-03  1.5594255218586330e-03  1.6300412260855449e-03  1.6531034015097998e-03  1.5961715952444579e-03  1.3974254224047957e-03  9.3938762283409178e-04  0.0000000000000000e+00  -9.9733883665071394e-04  0.0000000000000000e+00  -1.4755081507234430e-03  -1.6739817827822379e-03  -1.7207888799285896e-03  -1.6840194458213923e-03  -1.5996859264976356e-03  -1.4867695877860678e-03  -1.3553223057580261e-03  -1.2107886306420895e-03  -1.0562925086439530e-03  -8.9384222807034120e-04  -7.2493448724982913e-04  -5.5085389322314521e-04  -3.7282544540537358e-04  -1.9207794581607514e-04  -9.8572551712299226e-06  1.7257736670373353e-04  3.5395967690036290e-04  5.3302300452822858e-04  7.0850692363906770e-04  8.7914421544171221e-04  1.0436048213559325e-03  1.2003479723269291e-03  1.3473330391986257e-03  1.4814249958745233e-03  1.5972009100432699e-03  1.6846618288996087e-03  1.7248561921754261e-03  1.6816032152200079e-03  1.4860126861765881e-03  1.0075450229557847e-03  0.0000000000000000e+00  -1.0688571842998225e-03  0.0000000000000000e+00  -1.5684871113438635e-03  -1.7642356938021081e-03  -1.7977558599337582e-03  -1.7442670829186538e-03  -1.6434296548016815e-03  -1.5159753659640971e-03  -1.3726707933942430e-03  -1.2191069821762437e-03  -1.0582534493532168e-03  -8.9181157312719973e-04  -7.2090194424486549e-04  -5.4640758517143578e-04  -3.6914897340666920e-04  -1.8995640715123487e-04  -9.6841194670397959e-06  1.7079640257600849e-04  3.5060672582455643e-04  5.2887292594325154e-04  7.0473309665023776e-04  8.7732717937354739e-04  1.0457264913976377e-03  1.2087707630230511e-03  1.3647283661514377e-03  1.5106220125013726e-03  1.6408909598183365e-03  1.7448350052987457e-03  1.8017708602911652e-03  1.7718981579560216e-03  1.5791981696911706e-03  1.0794097948764634e-03  0.0000000000000000e+00  -1.1421880886904187e-03  0.0000000000000000e+00  -1.6630827314844316e-03  -1.8557504023628407e-03  -1.8759847849043935e-03  -1.8061242446261495e-03  -1.6893017402238792e-03  -1.5478295093134598e-03  -1.3930636789757265e-03  -1.2306779099673483e-03  -1.0634646712438659e-03  -8.9282686684887262e-04  -7.1953322098198831e-04  -5.4409798735486270e-04  -3.6697263230379859e-04  -1.8862493371836847e-04  -9.5529933633220068e-06  1.6972433137731952e-04  3.4868163614310970e-04  5.2680150924385653e-04  7.0358579981493147e-04  8.7854258645376636e-04  1.0511145741757431e-03  1.2204911651739344e-03  1.3852424083093387e-03  1.5425669740673344e-03  1.6868236683962499e-03  1.8067286099614894e-03  1.8800331646759694e-03  1.8634846423770505e-03  1.6739611353487503e-03  1.1529980684860353e-03  0.0000000000000000e+00  -1.2144939418126737e-03  0.0000000000000000e+00  -1.7552659622529806e-03  -1.9441120126485597e-03  -1.9510805873057054e-03  -1.8654190918125199e-03  -1.7334694632215935e-03  -1.5788940043395391e-03  -1.4134876551962084e-03  -1.2429154375075756e-03  -1.0697599283891412e-03  -8.9512347946139902e-04  -7.1944516121317950e-04  -5.4290319546878121e-04  -3.6561912942496122e-04  -1.8773904990850303e-04  -9.4462978629257043e-06  1.6905163645662162e-04  3.4754094323104445e-04  5.2581979967458357e-04  7.0371184285065449e-04  8.8105592329873938e-04  1.0576279150195775e-03  1.2329484101442658e-03  1.4058809019126888e-03  1.5738354893395877e-03  1.7311708884960903e-03  1.8661647277384886e-03  1.9552204543779742e-03  1.9518961534343089e-03  1.7661865935493257e-03  1.2253779981629125e-03  0.0000000000000000e+00  -1.2820843300754105e-03  0.0000000000000000e+00  -1.8400322649609168e-03  -2.0241190538187325e-03  -2.0181306387245840e-03  -1.9177192997093580e-03  -1.7720281718091803e-03  -1.6057889399467031e-03  -1.4310524484580298e-03  -1.2533862826052072e-03  -1.0751228902052146e-03  -8.9707097550565621e-04  -7.1936411010203329e-04  -5.4188451909728736e-04  -3.6446796636785118e-04  -1.8698574859275468e-04  -9.3533538417742472e-06  1.6848618760311682e-04  3.4658385828252987e-04  5.2500614907030336e-04  7.0385232566327720e-04  8.8324576085939269e-04  1.0632583547682184e-03  1.2437089573802548e-03  1.4237548781992604e-03  1.6010410111887265e-03  1.7700197634418061e-03  1.9186928909512989e-03  2.0223902663815399e-03  2.0318763935945842e-03  1.8507866729522680e-03  1.2927638009540513e-03  0.0000000000000000e+00  -1.3405647301615283e-03  0.0000000000000000e+00  -1.9116063323296529e-03  -2.0899814521556630e-03  -2.0718816116227210e-03  -1.9584712492601436e-03  -1.8011208086196665e-03  -1.6252820194649421e-03  -1.4430737265589224e-03  -1.2598723493590005e-03  -1.0777450976394390e-03  -8.9721871614673488e-04  -7.1816452035919668e-04  -5.4021583069269316e-04  -3.6297665898363458e-04  -1.8609618578223163e-04  -9.2746388478121158e-06  1.6775772422887502e-04  3.4526478422809682e-04  5.2352903295413531e-04  7.0287163084790515e-04  8.8364854839761227e-04  1.0661761982334946e-03  1.2505353918031458e-03  1.4361511532964594e-03  1.6209286352036364e-03  1.7994839653640874e-03  1.9597302923478025e-03  2.0762489348513597e-03  2.0975769840884898e-03  1.9219010300612280e-03  1.3506658784553270e-03  0.0000000000000000e+00  -1.3850536956190767e-03  0.0000000000000000e+00  -1.9637359589865008e-03  -2.1356157144777716e-03  -2.1069967218987000e-03  -1.9832102636159069e-03  -1.8170940890028340e-03  -1.6344095893553326e-03  -1.4471490757509502e-03  -1.2604327695464128e-03  -1.0760599967294118e-03  -8.9432348900104553e-04  -7.1488436380669565e-04  -5.3719432625937223e-04  -3.6068625490862951e-04  -1.8484794174331720e-04  -9.2209442395751127e-06  1.6662161804820161e-04  3.4310117920730444e-04  5.2065891959032719e-04  6.9977868679689688e-04  8.8098559792163477e-04  1.0647796982255367e-03  1.2514420713195570e-03  1.4406281131742822e-03  1.6304872919628577e-03  1.8158670355011319e-03  1.9847639559984866e-03  2.1114063893424408e-03  2.1428490530896469e-03  1.9731924105714357e-03  1.3941139721775396e-03  0.0000000000000000e+00  -1.4104691342546865e-03  0.0000000000000000e+00  -1.9900695552299073e-03  -2.1550181990716813e-03  -2.1183752012500466e-03  -1.9878139694579277e-03  -1.8166830872994725e-03  -1.6305984219867934e-03  -1.4412394666895732e-03  -1.2534368758112494e-03  -1.0687643290852725e-03  -8.8734568973608834e-04  -7.0871919010944448e-04  -5.3222852051569797e-04  -3.5721099099587673e-04  -1.8305652067054991e-04  -9.2084783950205538e-06  1.6486057816527557e-04  3.3967245813022051e-04  5.1576774310859526e-04  6.9372730608942008e-04  8.7417517284686826e-04  1.0577143079471103e-03  1.2447493035154563e-03  1.4350875852489758e-03  1.6270851183849370e-03  1.8158408260136275e-03  1.9896072908051981e-03  2.1226978361851044e-03  2.1616210978397158e-03  1.9982358443430613e-03  1.4179551280532612e-03  0.0000000000000000e+00  -1.4118640399717365e-03  0.0000000000000000e+00  -1.9845835411534548e-03  -2.1426650578649765e-03  -2.1014769011503450e-03  -1.9687291460653298e-03  -1.7971525508940381e-03  -1.6117276279049018e-03  -1.4236724970925951e-03  -1.2375371738067289e-03  -1.0547550185932772e-03  -8.7538993007186042e-04  -6.9895505396501921e-04  -5.2478464208764795e-04  -3.5219555817178508e-04  -1.8054964264824507e-04  -9.2499736033259819e-06  1.6227592013960042e-04  3.3459573410912590e-04  5.0828985877853145e-04  6.8397026951643196e-04  8.6227924962180443e-04  1.0438337372637579e-03  1.2290535316094565e-03  1.4177961626462084e-03  1.6085327655327517e-03  1.7965958895464617e-03  1.9706346361342583e-03  2.1055134567665155e-03  2.1483061411913455e-03  1.9909520440499094e-03  1.4171978286599426e-03  0.0000000000000000e+00  -1.3847757023964936e-03  0.0000000000000000e+00  -1.9420003070869136e-03  -2.0938714604861750e-03  -2.0525685638372411e-03  -1.9230932379948797e-03  -1.7562997429536951e-03  -1.5760482343563531e-03  -1.3929957602937981e-03  -1.2114887158333112e-03  -1.0329497049188618e-03  -8.5752105298642176e-04  -6.8481727827007528e-04  -5.1425839036636192e-04  -3.4522571647992108e-04  -1.7711413666564833e-04  -9.3415041048761428e-06  1.5866225968279871e-04  3.2746173871709490e-04  4.9762452091226103e-04  6.6972808067869178e-04  8.4435540745467794e-04  1.0220331356143753e-03  1.2030781256308978e-03  1.3872554158804854e-03  1.5730190513977272e-03  1.7558599800389198e-03  1.9249083443338489e-03  2.0560484705628677e-03  2.0981619947169571e-03  1.9460254719101807e-03  1.3873646933152360e-03  0.0000000000000000e+00  -1.3255177809352295e-03  0.0000000000000000e+00  -1.8580911770502446e-03  -2.0049749901313316e-03  -1.9687352956403886e-03  -1.8485785021291983e-03  -1.6921602386484884e-03  -1.5217923154014245e-03  -1.3475493178628434e-03  -1.1737112651970603e-03  -1.0018700440275643e-03  -8.3240533620985925e-04  -6.6515969880903225e-04  -4.9974049239107988e-04  -3.3566056874982880e-04  -1.7240421966342728e-04  -9.4436967643976002e-06  1.5375124071113176e-04  3.1770647659718274e-04  4.8293352360630686e-04  6.4992346141673257e-04  8.1912461489322614e-04  9.9087892384433279e-04  1.1652672728549149e-03  1.3418042090700983e-03  1.5187528009780529e-03  1.6916192961614063e-03  1.8500336589709701e-03  1.9713189468505503e-03  2.0074706524897657e-03  1.8592052351707933e-03  1.3247816094995304e-03  0.0000000000000000e+00  -1.2312657398824537e-03  0.0000000000000000e+00  -1.7296151993515209e-03  -1.8730198042495015e-03  -1.8472869087350859e-03  -1.7425616952720547e-03  -1.6020290541309027e-03  -1.4461289864404895e-03  -1.2844268668789681e-03  -1.1213280389874936e-03  -9.5878526377828868e-04  -7.9757409716807134e-04  -6.3787761302218327e-04  -4.7956296396817308e-04  -3.2232827151602590e-04  -1.6577706700626987e-04  -9.4616853779094417e-06  1.4709007729371375e-04  3.0434441123199394e-04  4.6273356467822833e-04  6.2262530820385439e-04  7.8428416872534316e-04  9.4778561532469683e-04  1.1128633057150197e-03  1.2786250777937838e-03  1.4429481107201179e-03  1.6011697293060860e-03  1.7433515136838216e-03  1.8485774148341615e-03  1.8732293643375060e-03  1.7272447419663113e-03  1.2266593226340440e-03  0.0000000000000000e+00  -1.0996991874856114e-03  0.0000000000000000e+00  -1.5534616534159645e-03  -1.6943492940131371e-03  -1.6838785147590617e-03  -1.5999310753009768e-03  -1.4801352654275222e-03  -1.3428771051084917e-03  -1.1973413735263214e-03  -1.0482459697420108e-03  -8.9805924645874587e-04  -7.4805209002631629e-04  -5.9880721632545953e-04  -4.5048358010617984e-04  -3.0297455501663288e-04  -1.5601081161148960e-04  -9.2243588445739440e-06  1.3779665998037865e-04  2.8545860345784954e-04  4.3410987182679106e-04  5.8398972295563073e-04  7.3515924704728116e-04  8.8739607695246701e-04  1.0400228289671070e-03  1.1916356796393397e-03  1.3395770432228309e-03  1.4788331659466851e-03  1.5997810702603715e-03  1.6834708080684542e-03  1.6917766641477467e-03  1.5470679848371470e-03  1.0907449775882428e-03  0.0000000000000000e+00  -9.2769747883304039e-04  0.0000000000000000e+00  -1.3240521380992777e-03  -1.4608552971939327e-03  -1.4679598563350244e-03  -1.4081779604710218e-03  -1.3127555675235339e-03  -1.1979034754665096e-03  -1.0724747367619571e-03  -9.4153985300283397e-04  -8.0808152765908948e-04  -6.7383709931319574e-04  -5.3974452744705488e-04  -4.0620987486012986e-04  -2.7328852880513841e-04  -1.4080991666965542e-04  -8.4700537045534100e-06  1.2409658912936649e-04  2.5724770749785192e-04  3.9126590884863867e-04  5.2628388744936519e-04  6.6219426341622802e-04  7.9851432609344256e-04  9.3419597666949460e-04  1.0673532498711065e-03  1.1947904165707237e-03  1.3111097695176228e-03  1.4069810977272894e-03  1.4655827471977991e-03  1.4551471570181148e-03  1.3132873901519752e-03  9.1410627992319186e-04  0.0000000000000000e+00  -7.0778913998507291e-04  0.0000000000000000e+00  -1.0266188472821294e-03  -1.1509353833816531e-03  -1.1725452545684645e-03  -1.1369838321771486e-03  -1.0683152253143815e-03  -9.8012862808571129e-04  -8.8055543346433039e-04  -7.7464788672443764e-04  -6.6557209482790770e-04  -5.5526027000641221e-04  -4.4480433135898867e-04  -3.3471960112896299e-04  -2.2513565522050405e-04  -1.1593615002829378e-04  -6.8592235566900682e-06  1.0242091691701132e-04  2.1222256680482115e-04  3.2278286889647086e-04  4.3417770532260094e-04  5.4621709696954914e-04  6.5830001778548327e-04  7.6921322259272023e-04  8.7686044368356312e-04  9.7784666634007545e-04  1.0667783262281877e-03  1.1350410234909328e-03  1.1684432625616405e-03  1.1424295637059796e-03  1.0120121434305110e-03  6.9006458596957928e-04  0.0000000000000000e+00  -4.1885755242082297e-04  0.0000000000000000e+00  -6.2072573678212015e-04  -7.0895432219803705e-04  -7.3249509347823839e-04  -7.1723870485716572e-04  -6.7815653711784311e-04  -6.2447135475433846e-04  -5.6208398611595669e-04  -4.9481898092194540e-04  -4.2512345102439385e-04  -3.5449801836953020e-04  -2.8378512109783824e-04  -2.1337644074243515e-04  -1.4336589873682035e-04  -7.3659916159712649e-05  -4.0577519604782006e-06  6.5688112200247708e-05  1.3581856464272839e-04  2.0651481355738664e-04  2.7783567940470175e-04  3.4963603488930321e-04  4.2144936628054724e-04  4.9232750241186361e-04  5.6062720792318340e-04  6.2370156209662711e-04  6.7743631148304943e-04  7.1553226217565668e-04  7.2827776980449038e-04  7.0029537543183436e-04  6.0611649722110757e-04  4.0092547520217758e-04  0.0000000000000000e+00  0.0000000000000000e+00  0.0000000000000000e+00  0.0000000000000000e+00  0.0000000000000000e+00  0.0000000000000000e+00  0.0000000000000000e+00  0.0000000000000000e+00  0.0000000000000000e+00  0.0000000000000000e+00  0.0000000000000000e+00  0.0000000000000000e+00  0.0000000000000000e+00  0.0000000000000000e+00  0.0000000000000000e+00  0.0000000000000000e+00  0.0000000000000000e+00  0.0000000000000000e+00  0.0000000000000000e+00  0.0000000000000000e+00  0.0000000000000000e+00  0.0000000000000000e+00  0.0000000000000000e+00  0