<?xml version="1.0"?>
<VTKFile type="UnstructuredGrid"  version="0.1"  >
<UnstructuredGrid>
<Piece  NumberOfPoints="825" NumberOfCells="1536">
<Points>
<DataArray  type="Float64"  NumberOfComponents="3"  format="ascii">-1.044513332946241e-21 0.5 0  0.06250000002059546 0.4999999998867466 0  0.06249999926547972 0.5625000008542534 0  -2.125686200868377e-09 0.5625000000653639 0  0.1249999999993596 0.4999999996398478 0  0.1249999997427773 0.5625000005562336 0  0.1874999997893309 0.4999999991447753 0  0.1874999996999657 0.5624999998806035 0  0.2499999994188917 0.4999999985773953 0  0.2499999993463922 0.5624999990925303 0  0.3124999988703425 0.4999999979268896 0  0.3124999987409028 0.5624999981142879 0  0.3749999975663045 0.4999999965048724 0  0.3749999978058727 0.5624999969270008 0  0.43749999625134 0.4999999953771093 0  0.4374999967829593 0.5624999959064094 0  0.4999999950874571 0.499999994492391 0  0.4999999958659699 0.5624999949575579 0  0.5624999938279944 0.4999999931042267 0  0.5624999951251719 0.5624999941826507 0  0.6249999939008503 0.4999999932492148 0  0.6249999948738494 0.5624999941714633 0  0.6874999947722883 0.499999994158792 0  0.6874999951092439 0.5624999943715863 0  0.7499999947767095 0.4999999933868592 0  0.7499999953943 0.5624999943059281 0  0.8124999955614775 0.4999999939167221 0  0.8124999959098326 0.5624999946192949 0  0.8749999967792917 0.4999999946980416 0  0.8749999966093388 0.5624999948337209 0  0.9374999969278563 0.4999999937474381 0  0.9374999971676373 0.562499994722261 0  0.9999999978604429 0.4999999942780927 0  0.9999999978269012 0.5624999949896695 0  1.0624999990297 0.4999999949442833 0  1.062499998540153 0.562499995128627 0  1.124999999010349 0.4999999939464258 0  1.124999999022525 0.5624999949469606 0  1.187499999685669 0.4999999943310572 0  1.187499999518946 0.5624999951465437 0  1.250000000642988 0.4999999950347669 0  1.250000000014366 0.5624999952898053 0  1.312500000375462 0.4999999941516384 0  1.312500000231127 0.5624999951706967 0  1.375000000678211 0.4999999945907287 0  1.375000000397137 0.5624999954390754 0  1.437500001094902 0.4999999952552887 0  1.437500000499998 0.5624999957269423 0  1.500000000576707 0.499999994917242 0  1.500000000317098 0.5624999960243993 0  1.562500000524153 0.4999999961382819 0  1.562500000114508 0.5624999968826476 0  1.625000000740516 0.4999999977353944 0  1.624999999972673 0.5624999978562041 0  1.687500000581928 0.4999999984122527 0  1.687499999735611 0.5624999987197151 0  1.75000000071803 0.4999999994488178 0  1.749999999521318 0.5624999996938203 0  1.812500000918107 0.5000000002228309 0  1.812499999315527 0.5625000005588628 0  1.875000000767149 0.5000000003367321 0  1.874999999000382 0.5625000013872776 0  1.937500000503953 0.5000000003749695 0  1.937499998886279 0.5625000024771458 0  2 0.5 0  2.000000001197575 0.562500003371624 0  0.06249999869402846 0.6250000009551928 0  -2.252485179128468e-09 0.6250000004461246 0  0.1249999992385109 0.6250000007720031 0  0.1874999993563306 0.6250000001765305 0  0.2499999991399092 0.624999999375727 0  0.312499998668703 0.6249999984324559 0  0.3749999979831822 0.6249999974233783 0  0.4374999972025385 0.6249999964813859 0  0.4999999964683165 0.6249999956627966 0  0.5624999958665503 0.6249999950772516 0  0.6249999955278336 0.6249999948543983 0  0.6874999955141757 0.6249999948478522 0  0.7499999957030499 0.6249999949049696 0  0.8124999960537321 0.6249999950535554 0  0.8749999965474955 0.624999995197132 0  0.9374999970697562 0.6249999952881626 0  0.9999999976130546 0.6249999954179084 0  1.062499998180026 0.624999995516605 0  1.124999998676719 0.6249999955550826 0  1.187499999107504 0.6249999956433887 0  1.249999999488515 0.6249999957374017 0  1.312499999740328 0.6249999958187721 0  1.374999999870022 0.6249999959978669 0  1.437499999892972 0.6249999962694316 0  1.499999999761897 0.6249999966731302 0  1.562499999535813 0.624999997306609 0  1.624999999280721 0.6249999980929424 0  1.68749999898474 0.6249999989580644 0  1.749999998680413 0.6249999999097898 0  1.812499998409143 0.6250000009225815 0  1.874999998248014 0.6250000020263917 0  1.937499998551585 0.6250000031581608 0  1.999999999743158 0.6250000034007188 0  0.06249999841927651 0.6875000006920029 0  -2.103374261284082e-09 0.6875000003724006 0  0.1249999988249301 0.6875000005813077 0  0.1874999989746958 0.6875000001159424 0  0.249999998862451 0.6874999994262511 0  0.3124999985288161 0.6874999986084963 0  0.3749999980276952 0.6874999977490784 0  0.4374999974407854 0.6874999969361754 0  0.49999999686094 0.6874999962420572 0  0.5624999963700715 0.687499995737524 0  0.6249999960499036 0.6874999954626781 0  0.6874999959437299 0.687499995370482 0  0.7499999960254832 0.6874999953890215 0  0.8124999962606373 0.6874999954758888 0  0.8749999966139935 0.687499995586234 0  0.9374999970319515 0.6874999956941319 0  0.9999999974828788 0.6874999958026839 0  1.062499997942844 0.6874999958986143 0  1.124999998370855 0.6874999959783821 0  1.187499998746101 0.6874999960649972 0  1.249999999055535 0.687499996164175 0  1.312499999269238 0.6874999962870455 0  1.374999999374342 0.6874999964700003 0  1.437499999367889 0.6874999967415539 0  1.499999999245602 0.6874999971345412 0  1.562499999033773 0.687499997678973 0  1.624999998769993 0.6874999983625681 0  1.687499998480774 0.6874999991585673 0  1.749999998206196 0.6875000000501006 0  1.812499998008252 0.6875000010110138 0  1.874999997990327 0.6875000019798894 0  1.937499998292699 0.6875000027504696 0  1.999999998790231 0.6875000029438264 0  0.06249999828047729 0.7500000002844973 0  -1.982872296619218e-09 0.750000000077667 0  0.1249999985316838 0.7500000002138997 0  0.187499998648802 0.7499999998685308 0  0.2499999985882795 0.7499999993207178 0  0.3124999983583665 0.7499999986528449 0  0.3749999979959103 0.7499999979436506 0  0.4374999975576123 0.7499999972660919 0  0.4999999971095108 0.7499999966826822 0  0.5624999967167325 0.7499999962420483 0  0.6249999964371106 0.7499999959651293 0  0.687499996305008 0.7499999958338203 0  0.7499999963217232 0.7499999958093732 0  0.8124999964694538 0.7499999958538118 0  0.8749999967205739 0.7499999959343182 0  0.9374999970409892 0.7499999960290109 0  0.9999999974001417 0.7499999961272777 0  1.062499997770256 0.7499999962220768 0  1.124999998122578 0.7499999963131725 0  1.187499998433908 0.749999996408915 0  1.249999998685124 0.7499999965193627 0  1.31249999885709 0.7499999966592747 0  1.374999998937072 0.7499999968511556 0  1.437499998920326 0.749999997119558 0  1.499999998810773 0.7499999974883671 0  1.562499998626877 0.7499999979737261 0  1.624999998397461 0.7499999985745143 0  1.687499998156198 0.7499999992757199 0  1.74999999794591 0.7500000000517447 0  1.812499997821088 0.7500000008562357 0  1.87499999783976 0.7500000016000209 0  1.937499998013115 0.7500000021350511 0  1.999999998193299 0.750000002358344 0  0.06249999818031426 0.8124999998479595 0  -1.9400612267508e-09 0.8124999997062589 0  0.1249999983175698 0.8124999998029532 0  0.1874999983881241 0.8124999995529325 0  0.2499999983464594 0.8124999991355591 0  0.3124999981847347 0.8124999986107064 0  0.3749999979224366 0.8124999980424628 0  0.4374999975970862 0.8124999974909718 0  0.4999999972556874 0.8124999970071611 0  0.5624999969468747 0.8124999966277212 0  0.6249999967134009 0.8124999963688739 0  0.687499996583452 0.8124999962241506 0  0.7499999965659707 0.8124999961718148 0  0.8124999966539027 0.8124999961852692 0  0.8749999968294716 0.8124999962398397 0  0.9374999970688936 0.8124999963168235 0  0.9999999973470051 0.8124999964042793 0  1.06249999763898 0.8124999964957815 0  1.124999997920834 0.8124999965906023 0  1.187499998171212 0.8124999966934947 0  1.249999998371758 0.8124999968132557 0  1.312499998507151 0.8124999969627725 0  1.374999998567173 0.8124999971587908 0  1.437499998548603 0.8124999974195893 0  1.499999998456846 0.8124999977616378 0  1.562499998307379 0.812499998194756 0  1.624999998124454 0.8124999987175288 0  1.687499997938775 0.8124999993155056 0  1.74999999778599 0.8124999999591727 0  1.812499997702003 0.8125000005987082 0  1.8749999977083 0.8125000011602137 0  1.937499997782264 0.8125000015633854 0  1.999999997836398 0.8125000017924324 0  0.06249999807931682 0.8749999994390169 0  -1.968677275925753e-09 0.874999999332142 0  0.1249999981450289 0.874999999413563 0  0.1874999981770917 0.8749999992359402 0  0.2499999981399645 0.8749999989255366 0  0.3124999980212909 0.8749999985233488 0  0.3749999978295246 0.8749999980781362 0  0.4374999975883513 0.8749999976375618 0  0.4999999973303796 0.8749999972423191 0  0.5624999970908705 0.8749999969216579 0  0.6249999969016105 0.8749999966900821 0  0.6874999967853127 0.874999996547025 0  0.7499999967524442 0.8749999964806265 0  0.812499996801647 0.8749999964735045 0  0.8749999969223267 0.8749999965078269 0  0.9374999970979039 0.8749999965686566 0  0.9999999973088368 0.8749999966454075 0  1.062499997534641 0.8749999967321115 0  1.124999997755245 0.8749999968274598 0  1.187499997952222 0.8749999969345187 0  1.24999999810967 0.8749999970601373 0  1.31249999821506 0.8749999972144124 0  1.374999998260546 0.8749999974097707 0  1.437499998244364 0.8749999976591396 0  1.499999998171965 0.874999997973224 0  1.562499998056437 0.8749999983571084 0  1.62499999791758 0.8749999988069984 0  1.687499997779804 0.8749999993078217 0  1.749999997668771 0.8749999998313663 0  1.812499997605233 0.8750000003355727 0  1.874999997594745 0.8750000007693712 0  1.937499997617212 0.8750000010914532 0  1.999999997632667 0.8750000013050506 0  0.06249999796487905 0.9374999990815832 0  -2.05111615034827e-09 0.93749999899081 0  0.1249999979909887 0.9374999990730108 0  0.1874999979980527 0.9374999989500273 0  0.2499999979618865 0.9374999987232449 0  0.3124999978712489 0.9374999984204159 0  0.3749999977290341 0.9374999980773622 0  0.4374999975497958 0.9374999977306875 0  0.4999999973556616 0.9374999974124426 0  0.5624999971717117 0.9374999971463627 0  0.6249999970213842 0.9374999969456813 0  0.6874999969225246 0.937499996813
[...]
<PointData  Scalars="p"> 
<DataArray  type="Float64"  Name="p"  format="ascii">0.0000000000000000e+00  -2.0564724866456374e-06  -2.2039852166130064e-06  0.0000000000000000e+00  -3.5003115909507370e-06  -3.6198527845075486e-06  -4.4161093929618408e-06  -4.4862172269316074e-06  -4.9191241511161986e-06  -4.9495011828900131e-06  -5.1100511671057698e-06  -5.1141947725397304e-06  -5.0685787658461232e-06  -5.0574547475537382e-06  -4.8557871799956240e-06  -4.8369831498203169e-06  -4.5173810630782334e-06  -4.4959139993508360e-06  -4.0876939669747234e-06  -4.0666110282482416e-06  -3.5926687811974862e-06  -3.5734540739216814e-06  -3.0503745463241305e-06  -3.0342026372000787e-06  -2.4751842943637558e-06  -2.4624496288609899e-06  -1.8782689763856774e-06  -1.8687725804818146e-06  -1.2668968810195681e-06  -1.2606639386737682e-06  -6.4676419221510276e-07  -6.4380120162994263e-07  -2.3062365879379821e-08  -2.3079837806001364e-08  6.0080379204963097e-07  5.9765202725294559e-07  1.2210623338712535e-06  1.2145593979612595e-06  1.8326659997500109e-06  1.8228829547488105e-06  2.4305842563584543e-06  2.4172247289515507e-06  3.0075140233638525e-06  2.9904034399244789e-06  3.5527149929068589e-06  3.5322982971044626e-06  4.0529136150352143e-06  4.0297828684576248e-06  4.4894293895415670e-06  4.4650637530333290e-06  4.8361542062402351e-06  4.8137836274221421e-06  5.0593642818597500e-06  5.0439482915286435e-06  5.1134073320873146e-06  5.1128140447947542e-06  4.9367427916855855e-06  4.9627176585979555e-06  4.4496610548556578e-06  4.5162688539892513e-06  3.5494449830681235e-06  3.6662656105687389e-06  2.1116602559074522e-06  2.2536280736039074e-06  0.0000000000000000e+00  0.0000000000000000e+00  -2.4893956135633526e-06  0.0000000000000000e+00  -3.8994124880406642e-06  -4.6823052732669628e-06  -5.0615143049370674e-06  -5.1623299691997645e-06  -5.0632704639814727e-06  -4.8177424949173407e-06  -4.4639953994787776e-06  -4.0302574019833546e-06  -3.5377124859922710e-06  -3.0022555766192737e-06  -2.4360490866680884e-06  -1.8485113932612736e-06  -1.2467677604604747e-06  -6.3637248820629477e-07  -2.1960932836730094e-08  5.9246911924576327e-07  1.2029572535295322e-06  1.8049821708345314e-06  2.3931847728101748e-06  2.9607095769192881e-06  3.4984499823284045e-06  3.9945029739338446e-06  4.4330791002592285e-06  4.7931048525019248e-06  5.0466238720325416e-06  5.1557677580654612e-06  5.0673937127991121e-06  4.7027323199803906e-06  3.9337703107077549e-06  2.5264644168040155e-06  0.0000000000000000e+00  -2.7967426457004275e-06  0.0000000000000000e+00  -4.2427339236840185e-06  -4.9578719190659397e-06  -5.2481057826802638e-06  -5.2711127700253091e-06  -5.1141321060913534e-06  -4.8297486639061530e-06  -4.4524034720002200e-06  -4.0061889497771556e-06  -3.5087770498141006e-06  -2.9734899450820151e-06  -2.4105774365226745e-06  -1.8280571015302759e-06  -1.2322448513680983e-06  -6.2823451125735054e-07  -2.0329564287437101e-08  5.8761256741454878e-07  1.1917635969576739e-06  1.7879032219528187e-06  2.3710789738586664e-06  2.9351571356777737e-06  3.4723108225755532e-06  3.9724483701291719e-06  4.4223682847750910e-06  4.8045409020024715e-06  5.0951290212630900e-06  5.2601044093915919e-06  5.2473070408047786e-06  4.9694436672144072e-06  4.2666989905642274e-06  2.8247296161268513e-06  0.0000000000000000e+00  -3.0945346753180862e-06  0.0000000000000000e+00  -4.6014419584746684e-06  -5.2716774858676796e-06  -5.4836400468122454e-06  -5.4293960626841540e-06  -5.2092622168886743e-06  -4.8784631943802560e-06  -4.4697034701232787e-06  -4.0039792884302355e-06  -3.4958589103631828e-06  -2.9560650366931412e-06  -2.3928042394200703e-06  -1.8125644275136103e-06  -1.2206118209242505e-06  -6.2133414513141649e-07  -1.8528757721741943e-08  5.8432332299409911e-07  1.1837591363263336e-06  1.7760387777507405e-06  2.3568663523699071e-06  2.9210927277031168e-06  3.4623381732313503e-06  3.9724949195820179e-06  4.4409536315536126e-06  4.8533066260192309e-06  5.1888350459221548e-06  5.4153002803941327e-06  5.4780261515563842e-06  5.2768460796125192e-06  4.6180784902737123e-06  3.1163446068533153e-06  0.0000000000000000e+00  -3.3732522592037170e-06  0.0000000000000000e+00  -4.9519701229706193e-06  -5.5953402309804314e-06  -5.7429467719081193e-06  -5.6185813475063140e-06  -5.3367837220808793e-06  -4.9574630764908851e-06  -4.5133539583242492e-06  -4.0235659398180467e-06  -3.5002669893865581e-06  -2.9519064872312760e-06  -2.3847700281977849e-06  -1.8038272821334105e-06  -1.2132065238409660e-06  -6.1645257890086589e-07  -1.6713626963521620e-08  5.8307247393740624e-07  1.1799794516197222e-06  1.7708921393812248e-06  2.3523246464730812e-06  2.9202157611665723e-06  3.4696614725926063e-06  3.9944398226034695e-06  4.4862031757831528e-06  4.9329606486570337e-06  5.3159052328701101e-06  5.6027989771879727e-06  5.7343453075386245e-06  5.5962940730202374e-06  4.9635989306239358e-06  3.3906797275086783e-06  0.0000000000000000e+00  -3.6286579248060627e-06  0.0000000000000000e+00  -5.2812285450128453e-06  -5.9097734677239397e-06  -6.0056821346301058e-06  -5.8204618842757903e-06  -5.4821460573471066e-06  -5.0560484518336135e-06  -4.5760212188382954e-06  -4.0602549070886665e-06  -3.5192197495640135e-06  -2.9595363193939020e-06  -2.3858242620480367e-06  -1.8016584808407456e-06  -1.2100525822396462e-06  -6.1367033833745668e-07  -1.4940587831545905e-08  5.8383268901156869e-07  1.1803503494014080e-06  1.7722022169829109e-06  2.3567546683422694e-06  2.9310374115675886e-06  3.4915111753496805e-06  4.0336047359221035e-06  4.5507919683511013e-06  5.0327793447134956e-06  5.4616889721277867e-06  5.8041711754462182e-06  5.9955280239007096e-06  5.9080793659648102e-06  5.2893353806634652e-06  3.6427300197793940e-06  0.0000000000000000e+00  -3.8574056259743218e-06  0.0000000000000000e+00  -5.5802849950487659e-06  -6.2013767372423728e-06  -6.2560814350888891e-06  -6.0195037234831067e-06  -5.6315998996328888e-06  -5.1629445208910218e-06  -4.6489803236130814e-06  -4.1076054748246641e-06  -3.5481552521114832e-06  -2.9758528949745222e-06  -2.3939522283900043e-06  -1.8048207101252080e-06  -1.2104585491093780e-06  -6.1268885598335696e-07  -1.3225014228747558e-08  5.8627752190418733e-07  1.1841652148615211e-06  1.7787305164852941e-06  2.3681671396624115e-06  2.9504943146698352e-06  3.5233729556669803e-06  4.0835838806110031e-06  4.6259883294390059e-06  5.1414226307901095e-06  5.6122849171578360e-06  6.0036064049911661e-06  6.2454014868032024e-06  6.1980763210028807e-06  5.5857616778537937e-06  3.8686668248156722e-06  0.0000000000000000e+00  -4.0560230403678863e-06  0.0000000000000000e+00  -5.8418975468422931e-06  -6.4596959090639701e-06  -6.4818330511364113e-06  -6.2030514866564484e-06  -5.7733377387209019e-06  -5.2678983053085539e-06  -4.7238103381366031e-06  -4.1590046102198414e-06  -3.5820785981903419e-06  -2.9972224123431799e-06  -2.4066150558199085e-06  -1.8116330135262060e-06  -1.2134120138510743e-06  -6.1303385086547452e-07  -1.1563290236177507e-08  5.8994299993206190e-07  1.1904274137126917e-06  1.7888253684238920e-06  2.3840575052419118e-06  2.9750003567570852e-06  3.5602888687821298e-06  4.1377793973622270e-06  4.7033521938989597e-06  5.2485568855187918e-06  5.7557322004064442e-06  6.1882196186914797e-06  6.4713378796554638e-06  6.4554572656749673e-06  5.8452544007143752e-06  4.0647224254157108e-06  0.0000000000000000e+00  -4.2208515396220400e-06  0.0000000000000000e+00  -6.0596696719059936e-06  -6.6762281743677212e-06  -6.6731575550897171e-06  -6.3609800322536806e-06  -5.8976936005679957e-06  -5.3622622683318483e-06  -4.7931675797007245e-06  -4.2084852392162110e-06  -3.6163283481460805e-06  -3.0201381368200837e-06  -2.4212830928904109e-06  -1.8203695090326032e-06  -1.2178465114964956e-06  -6.1419567221528746e-07  -9.9488347669216782e-09  5.9433350809090704e-07  1.1980889804753156e-06  1.8007809060268352e-06  2.4019248746654537e-06  3.0010699775100263e-06  3.5976200573246990e-06  4.1902238410616467e-06  4.7755045325600702e-06  5.3454653559100595e-06  5.8822444434167179e-06  6.3477130614709682e-06  6.6633472953118127e-06  6.6714734565146969e-06  6.0611780858303478e-06  4.2270586480630384e-06  0.0000000000000000e+00  -4.3482440944488752e-06  0.0000000000000000e+00  -6.2278697527057297e-06  -6.8439094225930750e-06  -6.8222564418679993e-06  -6.4853247516943062e-06  -5.9970520218361817e-06  -5.4391426849142895e-06  -4.8511059515932798e-06  -4.2511312497797802e-06  -3.6469953026882703e-06  -3.0416092129038059e-06  -2.4357631902323815e-06  -1.8295121453351141e-06  -1.2228126513689959e-06  -6.1571656648436472e-07  -8.3752689287762357e-09  5.9900462053486015e-07  1.2062138620498556e-06  1.8130947431134553e-06  2.4195869341574612e-06  3.0257275072092756e-06  3.6314559704210093e-06  4.2359966563623348e-06  4.8364697230552991e-06  5.4251905078796434e-06  5.9841163726786459e-06  6.4739995177340362e-06  6.8134810194929113e-06  6.8389035085185928e-06  6.2276475840512710e-06  4.3519236862084086e-06  0.0000000000000000e+00  -4.4348071104504666e-06  0.0000000000000000e+00  -6.3415035315922806e-06  -6.9569635338824298e-06  -6.9230335603522346e-06  -6.5700415452960795e-06  -6.0657096594937954e-06  -5.4934070489429822e-06  -4.8931945914329435e-06  -4.2832684679792177e-06  -3.6711443770932014e-06  -3.0593782734228915e-06  -2.4483910852930170e-06  -1.8379018840385720e-06  -1.2275801259509795e-06  -6.1723923507886122e-07  -6.8291513215085940e-09  6.0362534776955322e-07  1.2140971238181794e-06  1.8246292452309439e-06  2.4353981132437535e-06  3.0467206295244144e-06  3.6588657969882378e-06  4.2714019760070260e-06  4.8817899403688447e-06  5.4825446933558723e-06  6.0555656448153679e-06  6.5609361477693923e-06  6.9155316341337561e-06  6.9518540096803460e-06  6.3395709665237994e-06  4.4358625466182659e-06  0.0000000000000000e+00  -4.4776079551284046e-06  0.0000000000000000e+00  -6.3964633768149802e-06  -7.0108934762683702e-06  -6.9710018419872618e-06  -6.6108706638790733e-06  -6.0997955763294014e-06  -5.5216573636275994e-06  -4.9165665216777785e-06  -4.3025557413243344e-06  -3.6869341728164200e-06  -3.0720467484223198e-06  -2.4581479835277578e-06  -1.8448357113924257e-06  -1.2317074983711881e-06  -6.1854473745307068e-07  -5.2940356838663177e-09  6.0800898366720819e-07  1.2213265962269582e-06  1.8347059235378411e-06  2.4483537031660502e-06  3.0626555567164481e-06  3.6779885984200006e-06  4.2940747154191652e-06  4.9085399453064871e-06  5.5140754126881969e-06  6.0926410801108587e-06  6.6041857065663726e-06  6.9649270538329085e-06  7.0057552619043391e-06  6.3927814980662867e-06  4.4759170285310415e-06  0.0000000000000000e+00  -4.4743210722234412e-06  0.0000000000000000e+00  -6.3896394366487350e-06  -7.0025248158121862e-06  -6.9632379230824605e-06  -6.6052764378929905e-06  -6.0971874659155753e-06  -5.5221913599107840e-06  -4.9198892425233781e-06  -4.3079992734643531e-06  -3.6936435609978981e-06  -3.0791177865584325e-06  -2.4647055424435296e-06  -1.8501092683946922e-06  -1.2350769523522474e-06  -6.1957632976478760e-07  -3.7613398413216790e-09  6.1211486869987714e-07  1.2277977622791817e-06  1.8431275808531126e-06  2.4581248323032087e-06  3.0730188234407687e-06  3.6880770232439392e-06  4.3029649178731358e-06  4.9153379490663198e-06  5.5179987100938073e-06  6.0931627734266953e-06  6.6011400146716640e-06  6.9586958300474037e-06  6.9973886161319630e-06  6.3841454841621990e-06  4.4697541626179532e-06  0.0000000000000000e+00  -4.4232803070175551e-06  0.0000000000000000e+00  -6.3189627096088432e-06  -6.9300000180044490e-06  -6.8983379792834353e-06  -6.5523456985687253e-06  -6.0574064718483121e-06  -5.4948557546575778e-06  -4.9032531065902592e-06  -4.2998223733201383e-06  -3.6915754381006872e-06  -3.0809050261415670e-06  -2.4683545322857218e-06  -1.8539581080551889e-06  -1.2378504286768501e-06  -6.2040968299359939e-07  -2.2154351118951178e-09  6.1604878268097313e-07  1.2336983055643679e-06  1.8501494229738694e-06  2.4650103412055087e-06  3.0781237566740176e-06  3.6894106899788176e-06  4.2982721636825374e-06  4.9022154509848344e-06  5.4941178046212278e-06  6.0565772539337989e-06  6.5508295995878277e-06  6.8953690520245538e-06  6.9248487528117159e-06  6.3115560752574487e-06  4.4156916645542774e-06  0.0000000000000000e+00  -4.3234234085939736e-06  0.0000000000000000e+00  -6.1833268200856554e-06  -6.7926769900211648e-06  -6.7762853517665942e-06  -6.4526189320810173e-06  -5.9813955588612642e-06  -5.4408179420380035e-06  -4.8678845733785105e-06  -4.2792146221721225e-06  -3.6817826012968579e-06  -3.0783000766329743e-06  -2.4697933135628824e-06  -1.8568890944973326e-06  -1.2403434602163743e-06  -6.2117554576290923e-07  -6.0643650101318990e-10  6.2003853185414220e-07  1.2394342847942812e-06  1.8563559341131290e-06  2.4697738950151610e-06  3.0789020936212556e-06  3.6830737047444774e-06  4.2811769299554627e-06  4.8703873420301053e-06  5.4435430522167138e-06  5.9837619955747005e-06  6.4537023838998975e-06  6.7748336388967133e-06  6.7874033943677451e-06  6.1738339352847861e-06  4.3126272186753456e-06  0.0000000000000000e+00  -4.1740971181495491e-06  0.0000000000000000e+00  -5.9823182789602727e-06  -6.5908291922612246e-06  -6.5980957262551131e-06  -6.3076852395524418e-06  -5.8710454777753188e-06  -5.3620310673792901e-06  -4.8156069033124538e-06  -4.2477439343096578e-06  -3.6655473633903220e-06  -3.0722723020851576e-06  -2.4697188635461556e-06  -1.8593533595176151e-06  -1.2428039316343626e-06  -6.2194675994834680e-07  1.1489034456669224e-09  6.2432056470421319e-07  1.2454059744330782e-06  1.8623362843204807e-06  2.4732226136002047e-06  3.0764150649555657e-06  3.6703922107044421e-06  4.2532747336690367e-06  4.8216474160121962e-06  5.3681699710584141e-06  5.8765144461644028e-06  6.3112267618100098e-06  6.5979799843081612e-06  6.5852012673432827e-06  5.9704616722339545e-06  4.1598382809605950e-06  0.0000000000000000e+00  -3.9746535157970371e-06  0.0000000000000000e+00  -5.7156436888935546e-06  -6.3249511221651561e-06  -6.3649933528784042e-06  -6.1191947700376575e-06  -5.7280846908369909e-06  -5.2600084565488577e-06  -4.7475661002155067e-06  -4.2061328940129854e-06  -3.6431886452873575e-06  -3.0628420151559233e-06  -2.4679399495681813e-06  -1.8610683699667445e-06  -1.2449429457342539e-06  -6.2249887439433472e-07  3.1751547281413338e-09  6.2891460904920444e-07  1.2515579307298951e-06  1.8680167582522536e-06  2.4753515195235960e-06  3.0708177988536939e-06  3.6517901320583505e-06  4.2153196042049232e-06  4.7571239441557340e-06  5.2694356734360983e-06  5.7364272103653220e-06  6.1248881830244348e-06  6.3658367263396252e-06  6.3185303330086020e-06  5.7009502407818157e-06  3.9565268575819358e-06  0.0000000000000000e+00  -3.7237018009479237e-06  0.0000000000000000e+00  -5.3819820730467299e-06  -5.9942768622800567e-06  -6.0765886545163429e-06  -5.8867037308429033e-06  -5.5516441490059575e-06  -5.1332574738142890e-06  -4.6616165792888116e-06  -4.1517257670640031e-06  -3.6117627092156838e-06  -3.0470179500877504e-06  -2.4616887761802609e-06  -1.8596970973786516e-06  -1.2450402894411931e-06  -6.2184670847415702e-07  5.6557499982727700e-09  6.3319907783201248e-07  1.2565170413981735e-06  1.8713877733199161e-06  2.4736746751479003e-06  3.0593654326121921e-06  3.6244882028367588e-06  4.1647537586324741e-06  4.6746748574890523e-06  5.1457444989786280e-06  5.5624470570394152e-06  5.8939722883511190e-06  6.0776819731665961e-06  5.9862639666343359e-06  5.3636185927536936e-06  3.7010216466755623e-06  0.0000000000000000e+00  -3.4177124089620456e-06  0.0000000000000000e+00  -4.9766475482216897e-06  -5.5935753584569301e-06  -5.7268382452556308e-06  -5.6029578885200334e-06  -5.3330811179984433e-06  -4.9718988220940850e-06  -4.5470452198514558e-06  -4.0734975590209143e-06  -3.5605192160472673e-06  -3.0148917506414827e-06  -2.4423761060878043e-06  -1.8483892401641284e-06  -1.2382815793011719e-06  -6.1742352858347983e-07  8.8077091520092822e-09  6.3503519752870626e-07  1.2558865086702799e-06  1.8659866990919487e-06  2.4599641149005208e-06  3.0324440523596757e-06  3.5779732349123735e-06  4.0906877616011567e-06  4.5636014626778900e-06  4.9871112564328290e-06  5.3456769622828976e-06  5.6108385346116695e-06  5.7269939021176542e-06  5.5826344532818892e-06  4.9532454947675689e-06  3.3893612878391555e-06  0.0000000000000000e+00  -3.0483229985250870e-06  0.0000000000000000e+00  -4.4866929770087100e-06  -5.1061769698746650e-06  -5.2952603474866435e-06  -5.2437860063318310e-06  -5.0451873670143208e-06  -4.7467554277071016e-06  -4.3739991289839204e-06  -3.9422512838510800e-06  -3.4621340839273257e-06  -2.9420753020681918e-06  -2.3894433208117688e-06  -1.8110942920675394e-06  -1.2136425380462906e-06  -6.0355827376625721e-07  1.2780215271841277e-08  6.2905019452315127e-07  1.2389296913448156e-06  1.8360436599526026e-06  2.4139091918470870e-06  2.9658916900568524e-06  3.4850838401809941e-06  3.9640140566491786e-06  4.3940476412733554e-06  4.7642136255799590e-06  5.0586114222521374e-06  5.2508685122986301e-06  5.2927105147578844e-06  5.0903232452238197e-06  4.4562425129721836e-06  3.0126390309234680e-06  0.0000000000000000e+00  -2.5968771275312728e-06  0.0000000000000000e+00  -3.8803869754298743e-06  -4.4888231426383185e-06  -4.7282252186793514e-06  -4.7471963423559899e-06  -4.6204052300396483e-06  -4.3878207672612108e-06  -4.0730453819440538e-06  -3.6918339270431808e-06  -3.2560513573809506e-06  -2.7755016953982887e-06  -2.2588037650152511e-06  -1.7138599930306438e-06  -1.1481183554436120e-06  -5.6872927945053096e-07  1.7357506996892204e-08  6.0329310147944656e-07  1.1822294502116284e-06  1.7472090282650784e-06  2.2910633652485300e-06  2.8063027792301606e-06  3.2849652507649549e-06  3.7183111426923677e-06  4.0963194492263194e-06  4.4067898255597352e-06  4.6334118596586794e-06  4.7517351107164648e-06  4.7208358912515133e-06  4.4657348567937127e-06  3.8405890014527369e-06  2.5519009778936267e-06  0.0000000000000000e+00  -2.0222463310396233e-06  0.0000000000000000e+00  -3.0833789968562135e-06  -3.6382348331477778e-06  -3.8991574744948557e-06  -3.9704574427321244e-06  -3.9073658255860545e-06  -3.7421005602219489e-06  -3.4956525914317296e-06  -3.1832305409660014e-06  -2.8168406173018090e-06  -2.4065468380778521e-06  -1.9611353379775835e-06  -1.4885247524575624e-06  -9.9604233584616243e-07  -4.9060610092690647e-07  2.1127504342097526e-08  5.3263381095117610e-07  1.0373836000988361e-06  1.5287064609581480e-06  1.9996477526895660e-06  2.4428254740644279e-06  2.8502342758666741e-06  3.2129486222288384e-06  3.5206834913998973e-06  3.7611019557669259e-06  3.9184749745486147e-06  3.9710446201009158e-06  3.8857534200672927e-06  3.6071740393648255e-06  3.0339586151758635e-06  1.9676685570601152e-06  0.0000000000000000e+00  -1.2313158564930440e-06  0.0000000000000000e+00  -1.9233641175441973e-06  -2.3178555748517338e-06  -2.5255719953571448e-06  -2.6037504486222586e-06  -2.5855094114605488e-06  -2.4921198251027147e-06  -2.3385648493313904e-06  -2.1362267183547485e-06  -1.8942558053501902e-06  -1.6203089896025416e-06  -1.3209952959608290e-06  -1.0021813566478496e-06  -6.6921104109865796e-07  -3.2707038251909386e-07  1.9483957585840263e-08  3.6580545236744875e-07  7.0724285840708479e-07  1.0390201143772113e-06  1.3561139754321448e-06  1.6531185416808586e-06  1.9240796935514191e-06  2.1622551952621273e-06  2.3597920786080990e-06  2.5072654940371899e-06  2.5928781833149810e-06  2.6010586698359553e-06  2.5098996183656362e-06  2.2861124553699615e-06  1.8747397391701247e-06  1.1770400370986393e-06  0.0000000000000000e+00  0.0000000000000000e+00  0.0000000000000000e+00  0.0000000000000000e+00  0.0000000000000000e+00  0.0000000000000000e+00  0.0000000000000000e+00  0.0000000000000000e+00  0.0000000000000000e+00  0.0000000000000000e+00  0.0000000000000000e+00  0.0000000000000000e+00  0.0000000000000000e+00  0.0000000000000000e+00  0.0000000000000000e+00  0.0000000000000000e+00  0.0000000000000000e+00  0.0000000000000000e+00  0.0000000000000000e+00  0.0000000000000000e+00  0.0000000000000000e+00  0.0000000000000000e+00  0.0000000000000000e+00  0.0000000