<?xml version="1.0"?>
<VTKFile type="UnstructuredGrid"  version="0.1"  >
<UnstructuredGrid>
<Piece  NumberOfPoints="759" NumberOfCells="1408">
<Points>
<DataArray  type="Float64"  NumberOfComponents="3"  format="ascii">0 0.46875 0  0.03125 0.46875 0  0.03125 0.515625 0  0 0.515625 0  0.0625 0.46875 0  0.0625 0.515625 0  0.09375 0.46875 0  0.09375 0.515625 0  0.125 0.46875 0  0.125 0.515625 0  0.15625 0.46875 0  0.15625 0.515625 0  0.1875 0.46875 0  0.1875 0.515625 0  0.21875 0.46875 0  0.21875 0.515625 0  0.25 0.46875 0  0.25 0.515625 0  0.28125 0.46875 0  0.28125 0.515625 0  0.3125 0.46875 0  0.3125 0.515625 0  0.34375 0.46875 0  0.34375 0.515625 0  0.375 0.46875 0  0.375 0.515625 0  0.40625 0.46875 0  0.40625 0.515625 0  0.4375 0.46875 0  0.4375 0.515625 0  0.46875 0.46875 0  0.46875 0.515625 0  0.5 0.46875 0  0.5 0.515625 0  0.53125 0.46875 0  0.53125 0.515625 0  0.5625 0.46875 0  0.5625 0.515625 0  0.59375 0.46875 0  0.59375 0.515625 0  0.625 0.46875 0  0.625 0.515625 0  0.65625 0.46875 0  0.65625 0.515625 0  0.6875 0.46875 0  0.6875 0.515625 0  0.71875 0.46875 0  0.71875 0.515625 0  0.75 0.46875 0  0.75 0.515625 0  0.78125 0.46875 0  0.78125 0.515625 0  0.8125 0.46875 0  0.8125 0.515625 0  0.84375 0.46875 0  0.84375 0.515625 0  0.875 0.46875 0  0.875 0.515625 0  0.90625 0.46875 0  0.90625 0.515625 0  0.9375 0.46875 0  0.9375 0.515625 0  0.96875 0.46875 0  0.96875 0.515625 0  1 0.46875 0  1 0.515625 0  0.03125 0.5625 0  0 0.5625 0  0.0625 0.5625 0  0.09375 0.5625 0  0.125 0.5625 0  0.15625 0.5625 0  0.1875 0.5625 0  0.21875 0.5625 0  0.25 0.5625 0  0.28125 0.5625 0  0.3125 0.5625 0  0.34375 0.5625 0  0.375 0.5625 0  0.40625 0.5625 0  0.4375 0.5625 0  0.46875 0.5625 0  0.5 0.5625 0  0.53125 0.5625 0  0.5625 0.5625 0  0.59375 0.5625 0  0.625 0.5625 0  0.65625 0.5625 0  0.6875 0.5625 0  0.71875 0.5625 0  0.75 0.5625 0  0.78125 0.5625 0  0.8125 0.5625 0  0.84375 0.5625 0  0.875 0.5625 0  0.90625 0.5625 0  0.9375 0.5625 0  0.96875 0.5625 0  1 0.5625 0  0.03125 0.609375 0  0 0.609375 0  0.0625 0.609375 0  0.09375 0.609375 0  0.125 0.609375 0  0.15625 0.609375 0  0.1875 0.609375 0  0.21875 0.609375 0  0.25 0.609375 0  0.28125 0.609375 0  0.3125 0.609375 0  0.34375 0.609375 0  0.375 0.609375 0  0.40625 0.609375 0  0.4375 0.609375 0  0.46875 0.609375 0  0.5 0.609375 0  0.53125 0.609375 0  0.5625 0.609375 0  0.59375 0.609375 0  0.625 0.609375 0  0.65625 0.609375 0  0.6875 0.609375 0  0.71875 0.609375 0  0.75 0.609375 0  0.78125 0.609375 0  0.8125 0.609375 0  0.84375 0.609375 0  0.875 0.609375 0  0.90625 0.609375 0  0.9375 0.609375 0  0.96875 0.609375 0  1 0.609375 0  0.03125 0.65625 0  0 0.65625 0  0.0625 0.65625 0  0.09375 0.65625 0  0.125 0.65625 0  0.15625 0.65625 0  0.1875 0.65625 0  0.21875 0.65625 0  0.25 0.65625 0  0.28125 0.65625 0  0.3125 0.65625 0  0.34375 0.65625 0  0.375 0.65625 0  0.40625 0.65625 0  0.4375 0.65625 0  0.46875 0.65625 0  0.5 0.65625 0  0.53125 0.65625 0  0.5625 0.65625 0  0.59375 0.65625 0  0.625 0.65625 0  0.65625 0.65625 0  0.6875 0.65625 0  0.71875 0.65625 0  0.75 0.65625 0  0.78125 0.65625 0  0.8125 0.65625 0  0.84375 0.65625 0  0.875 0.65625 0  0.90625 0.65625 0  0.9375 0.65625 0  0.96875 0.65625 0  1 0.65625 0  0.03125 0.703125 0  0 0.703125 0  0.0625 0.703125 0  0.09375 0.703125 0  0.125 0.703125 0  0.15625 0.703125 0  0.1875 0.703125 0  0.21875 0.703125 0  0.25 0.703125 0  0.28125 0.703125 0  0.3125 0.703125 0  0.34375 0.703125 0  0.375 0.703125 0  0.40625 0.703125 0  0.4375 0.703125 0  0.46875 0.703125 0  0.5 0.703125 0  0.53125 0.703125 0  0.5625 0.703125 0  0.59375 0.703125 0  0.625 0.703125 0  0.65625 0.703125 0  0.6875 0.703125 0  0.71875 0.703125 0  0.75 0.703125 0  0.78125 0.703125 0  0.8125 0.703125 0  0.84375 0.703125 0  0.875 0.703125 0  0.90625 0.703125 0  0.9375 0.703125 0  0.96875 0.703125 0  1 0.703125 0  0.03125 0.75 0  0 0.75 0  0.0625 0.75 0  0.09375 0.75 0  0.125 0.75 0  0.15625 0.75 0  0.1875 0.75 0  0.21875 0.75 0  0.25 0.75 0  0.28125 0.75 0  0.3125 0.75 0  0.34375 0.75 0  0.375 0.75 0  0.40625 0.75 0  0.4375 0.75 0  0.46875 0.75 0  0.5 0.75 0  0.53125 0.75 0  0.5625 0.75 0  0.59375 0.75 0  0.625 0.75 0  0.65625 0.75 0  0.6875 0.75 0  0.71875 0.75 0  0.75 0.75 0  0.78125 0.75 0  0.8125 0.75 0  0.84375 0.75 0  0.875 0.75 0  0.90625 0.75 0  0.9375 0.75 0  0.96875 0.75 0  1 0.75 0  0.03125 0.796875 0  0 0.796875 0  0.0625 0.796875 0  0.09375 0.796875 0  0.125 0.796875 0  0.15625 0.796875 0  0.1875 0.796875 0  0.21875 0.796875 0  0.25 0.796875 0  0.28125 0.796875 0  0.3125 0.796875 0  0.34375 0.796875 0  0.375 0.796875 0  0.40625 0.796875 0  0.4375 0.796875 0  0.46875 0.796875 0  0.5 0.796875 0  0.53125 0.796875 0  0.5625 0.796875 0  0.59375 0.796875 0  0.625 0.796875 0  0.65625 0.796875 0  0.6875 0.796875 0  0.71875 0.796875 0  0.75 0.796875 0  0.78125 0.796875 0  0.8125 0.796875 0  0.84375 0.796875 0  0.875 0.796875 0  0.90625 0.796875 0  0.9375 0.796875 0  0.96875 0.796875 0  1 0.796875 0  0.03125 0.84375 0  0 0.84375 0  0.0625 0.84375 0  0.09375 0.84375 0  0.125 0.84375 0  0.15625 0.84375 0  0.1875 0.84375 0  0.21875 0.84375 0  0.25 0.84375 0  0.28125 0.84375 0  0.3125 0.84375 0  0.34375 0.84375 0  0.375 0.84375 0  0.40625 0.84375 0  0.4375 0.84375 0  0.46875 0.84375 0  0.5 0.84375 0  0.53125 0.84375 0  0.5625 0.84375 0  0.59375 0.84375 0  0.625 0.84375 0  0.65625 0.84375 0  0.6875 0.84375 0  0.71875 0.84375 0  0.75 0.84375 0  0.78125 0.84375 0  0.8125 0.84375 0  0.84375 0.84375 0  0.875 0.84375 0  0.90625 0.84375 0  0.9375 0.84375 0  0.96875 0.84375 0  1 0.84375 0  0.03125 0.890625 0  0 0.890625 0  0.0625 0.890625 0  0.09375 0.890625 0  0.125 0.890625 0  0.15625 0.890625 0  0.1875 0.890625 0  0.21875 0.890625 0  0.25 0.890625 0  0.28125 0.890625 0  0.3125 0.890625 0  0.34375 0.890625 0  0.375 0.890625 0  0.40625 0.890625 0  0.4375 0.890625 0  0.46875 0.890625 0  0.5 0.890625 0  0.53125 0.890625 0  0.5625 0.890625 0  0.59375 0.890625 0  0.625 0.890625 0  0.65625 0.890625 0  0.6875 0.890625 0  0.71875 0.890625 0  0.75 0.890625 0  0.78125 0.890625 0  0.8125 0.890625 0  0.84375 0.890625 0  0.875 0.890625 0  0.90625 0.890625 0  0.9375 0.890625 0  0.96875 0.890625 0  1 0.890625 0  0.03125 0.9375 0  0 0.9375 0  0.0625 0.9375 0  0.09375 0.9375 0  0.125 0.9375 0  0.15625 0.9375 0  0.1875 0.9375 0  0.21875 0.9375 0  0.25 0.9375 0  0.28125 0.9375 0  0.3125 0.9375 0  0.34375 0.9375 0  0.375 0.9375 0  0.40625 0.9375 0  0.4375 0.9375 0  0.46875 0.9375 0  0.5 0.9375 0  0.53125 0.9375 0  0.5625 0.9375 0  0.59375 0.9375 0  0.625 0.9375 0  0.65625 0.9375 0  0.6875 0.9375 0  0.71875 0.9375 0  0.75 0.9375 0  0.78125 0.9375 0  0.8125 0.9375 0  0.84375 0.9375 0  0.875 0.9375 0  0.90625 0.9375 0  0.9375 0.9375 0  0.96875 0.9375 0  1 0.9375 0  0.03125 0.984375 0  0 0.984375 0  0.0625 0.984375 0  0.09375 0.984375 0  0.125 0.984375 0  0.15625 0.984375 0  0.1875 0.984375 0  0.21875 0.984375 0  0.25 0.984375 0  0.28125 0.984375 0  0.3125 0.984375 0  0.34375 0.984375 0  0.375 0.984375 0  0.40625 0.984375 0  0.4375 0.984375 0  0.46875 0.984375 0  0.5 0.984375 0  0.53125 0.984375 0  0.5625 0.984375 0  0.59375 0.984375 0  0.625 0.984375 0  0.65625 0.984375 0  0.6875 0.984375 0  0.71875 0.984375 0  0.75 0.984375 0  0.78125 0.984375 0  0.8125 0.984375 0  0.84375 0.984375 0  0.875 0.984375 0  0.90625 0.984375 0  0.9375 0.984375 0  0.96875 0.984375 0  1 0.984375 0  0.03125 1.03125 0  0 1.03125 0  0.0625 1.03125 0  0.09375 1.03125 0  0.125 1.03125 0  0.15625 1.03125 0  0.1875 1.03125 0  0.21875 1.03125 0  0.25 1.03125 0  0.28125 1.03125 0  0.3125 1.03125 0  0.34375 1.03125 0  0.375 1.03125 0  0.40625 1.03125 0  0.4375 1.03125 0  0.46875 1.03125 0  0.5 1.03125 0  0.53125 1.03125 0  0.5625 1.03125 0  0.59375 1.03125 0  0.625 1.03125 0  0.65625 1.03125 0  0.6875 1.03125 0  0.71875 1.03125 0  0.75 1.03125 0  0.78125 1.03125 0  0.8125 1.03125 0  0.84375 1.03125 0  0.875 1.03125 0  0.90625 1.03125 0  0.9375 1.03125 0  0.96875 1.03125 0  1 1.03125 0  0.03125 1.078125 0  0 1.078125 0  0.0625 1.078125 0  0.09375 1.078125 0  0.125 1.078125 0  0.15625 1.078125 0  0.1875 1.078125 0  0.21875 1.078125 0  0.25 1.078125 0  0.28125 1.078125 0  0.3125 1.078125 0  0.34375 1.078125 0  0.375 1.078125 0  0.40625 1.078125 0  0.4375 1.078125 0  0.46875 1.078125 0  0.5 1.078125 0  0.53125 1.078125 0  0.5625 1.078125 0  0.59375 1.078125 0  0.625 1.078125 0  0.65625 1.078125 0  0.6875 1.078125 0  0.71875 1.078125 0  0.75 1.078125 0  0.78125 1.078125 0  0.8125 1.078125 0  0.84375 1.078125 0  0.875 1.078125 0  0.90625 1.078125 0  0.9375 1.078125 0  0.96875 1.078125 0  1 1.078125 0  0.03125 1.125 0  0 1.125 0  0.0625 1.125 0  0.09375 1.125 0  0.125 1.125 0  0.15625 1.125 0  0.1875 1.125 0  0.21875 1.125 0  0.25 1.125 0  0.28125 1.125 0  0.3125 1.125 0  0.34375 1.125 0  0.375 1.125 0  0.40625 1.125 0  0.4375 1.125 0  0.46875 1.125 0  0.5 1.125 0  0.53125 1.125 0  0.5625 1.125 0  0.59375 1.125 0  0.625 1.125 0  0.65625 1.125 0  0.6875 1.125 0  0.71875 1.125 0  0.75 1.125 0  0.78125 1.125 0  0.8125 1.125 0  0.84375 1.125 0  0.875 1.125 0  0.90625 1.125 0  0.9375 1.125 0  0.96875 1.125 0  1 1.125 0  0.03125 1.171875 0  0 1.171875 0  0.0625 1.171875 0  0.09375 1.171875 0  0.125 1.171875 0  0.15625 1.171875 0  0.1875 1.171875 0  0.21875 1.171875 0  0.25 1.171875 0  0.28125 1.171875 0  0.3125 1.171875 0  0.34375 1.171875 0  0.375 1.171875 0  0.40625 1.171875 0  0.4375 1.171875 0  0.46875 1.171875 0  0.5 1.171875 0  0.53125 1.171875 0  0.5625 1.171875 0  0.59375 1.171875 0  0.625 1.171875 0  0.65625 1.171875 0  0.6875 1.171875 0  0.71875 1.171875 0  0.75 1.171875 0  0.78125 1.171875 0  0.8125 1.171875 0  0.84375 1.171875 0  0.875 1.171875 0  0.90625 1.171875 0  0.9375 1.171875 0  0.96875 1.171875 0  1 1.171875 0  0.03125 1.21875 0  0 1.21875 0  0.0625 1.21875 0  0.09375 1.21875 0  0.125 1.21875 0  0.15625 1.21875 0  0.1875 1.21875 0  0.21875 1.21875 0  0.25 1.21875 0  0.28125 1.21875 0  0.3125 1.21875 0  0.34375 1.21875 0  0.375 1.21875 0  0.40625 1.21875 0  0.4375 1.21875 0  0.46875 1.21875 0  0.5 1.21875 0  0.53125 1.21875 0  0.5
[...]
<PointData  Scalars="p"> 
<DataArray  type="Float64"  Name="p"  format="ascii">0.0000000000000000e+00  -9.4262631137868955e-03  -9.8744914742576063e-03  0.0000000000000000e+00  -1.6254135931761716e-02  -1.7002826464515623e-02  -2.0955994745433717e-02  -2.1912213389400390e-02  -2.3931996289963370e-02  -2.5027048368669678e-02  -2.5512325497346423e-02  -2.6690420774847321e-02  -2.5966228488070061e-02  -2.7179953913991715e-02  -2.5512144878263157e-02  -2.6720340612076964e-02  -2.4326995683779124e-02  -2.5493766551919147e-02  -2.2554311498865227e-02  -2.3648362243897533e-02  -2.0310994897793762e-02  -2.1305320830280267e-02  -1.7693040539225026e-02  -1.8564606241293354e-02  -1.4780236582294883e-02  -1.5509856694580505e-02  -1.1640126615818525e-02  -1.2212282275467405e-02  -8.3312829257135429e-03  -8.7340894606362188e-03  -4.9061585013731607e-03  -5.1312876197075570e-03  -1.4135216621461390e-03  -1.4562480822873567e-03  2.0993184040873905e-03  2.2400885773059182e-03  5.5844336657430637e-03  5.9060295901614450e-03  8.9911930171650278e-03  9.4870485435645108e-03  1.2264138898481738e-02  1.2923574415013857e-02  1.5340661587085250e-02  1.6148673460273516e-02  1.8148386048772759e-02  1.9085364211457997e-02  2.0602125523526155e-02  2.1643588345659028e-02  2.2600296156736435e-02  2.3716562871065553e-02  2.4020539964634796e-02  2.5176438250593958e-02  2.4714439918879044e-02  2.5868948122370838e-02  2.4500980649027081e-02  2.5606956936587020e-02  2.3158555600514340e-02  2.4162500865633079e-02  2.0415058376077988e-02  2.1257337648456394e-02  1.5935319399410744e-02  1.6551720712005450e-02  9.3041154552049241e-03  9.6320864740228763e-03  0.0000000000000000e+00  0.0000000000000000e+00  -1.0919505536402410e-02  0.0000000000000000e+00  -1.8823145554001011e-02  -2.4290520237242135e-02  -2.7785188038822843e-02  -2.9679393807360149e-02  -3.0272978779294753e-02  -2.9808521093853027e-02  -2.8482984753362348e-02  -2.6457459556304876e-02  -2.3864557280670058e-02  -2.0814860764428074e-02  -1.7401772964107453e-02  -1.3705927803839576e-02  -9.7984901159778037e-03  -5.7443721985693929e-03  -1.6046934228666884e-03  2.5606790261109257e-03  6.6909873276453742e-03  1.0722225564022702e-02  1.4584944948569956e-02  1.8201690281593741e-02  2.1484332812101471e-02  2.4330797273414161e-02  2.6621434100940703e-02  2.8214386772833028e-02  2.8940164693710347e-02  2.8594724999090961e-02  2.6931122410134564e-02  2.3649044556666513e-02  1.8382118199252062e-02  1.0682183718482363e-02  0.0000000000000000e+00  -1.2507052084369686e-02  0.0000000000000000e+00  -2.1572474835786830e-02  -2.7862693517064437e-02  -3.1905645448775555e-02  -3.4121845887871698e-02  -3.4848496078238887e-02  -3.4357505874245131e-02  -3.2870054093573131e-02  -3.0567291530384684e-02  -2.7599523853271593e-02  -2.4092693334256784e-02  -2.0154507560619535e-02  -1.5878524718093926e-02  -1.1348476951961140e-02  -6.6411072786211056e-03  -1.8294806086181347e-03  3.0147809215720586e-03  7.8186406929512155e-03  1.2505491787340544e-02  1.6992358257718092e-02  2.1187453868817312e-02  2.4986949498720833e-02  2.8271763548296424e-02  3.0903293498798619e-02  3.2718682363643149e-02  3.3524464749058999e-02  3.3089049695443580e-02  3.1132658322723723e-02  2.7314935413461219e-02  2.1218483885074427e-02  1.2327647887366622e-02  0.0000000000000000e+00  -1.4624826367299225e-02  0.0000000000000000e+00  -2.5215621729888657e-02  -3.2565233028890160e-02  -3.7295551083721012e-02  -3.9898183657068528e-02  -4.0764576513068258e-02  -4.0209462995022788e-02  -3.8487879680417988e-02  -3.5809225919439483e-02  -3.2346977871621864e-02  -2.8247569495022072e-02  -2.3636102479120208e-02  -1.8622419563656019e-02  -1.3304609230460389e-02  -7.7736316068598554e-03  -2.1157483862535328e-03  3.5836415245612571e-03  9.2379022424558272e-03  1.4755604485218681e-02  2.0038295099237050e-02  2.4976832469776503e-02  2.9448499419221136e-02  3.3312608861951087e-02  3.6406306364600655e-02  3.8538429722643326e-02  3.9482648258592878e-02  3.8967868411197128e-02  3.6666394277385148e-02  3.2177809149579933e-02  2.5008055267992428e-02  1.4540931859889784e-02  0.0000000000000000e+00  -1.7295212513616858e-02  0.0000000000000000e+00  -2.9784493374951145e-02  -3.8429442003745588e-02  -4.3978993314611789e-02  -4.7020939946028434e-02  -4.8020861511668129e-02  -4.7350876190909108e-02  -4.5311877881320475e-02  -4.2149653028633466e-02  -3.8068100494641266e-02  -3.3238300330044587e-02  -2.7807114245846028e-02  -2.1902367015963400e-02  -1.5639143795118934e-02  -9.1229523510189623e-03  -2.4549856421169562e-03  4.2657038978409396e-03  1.0937339233557325e-02  1.7453382930915144e-02  2.3697797220615612e-02  2.9542523502957028e-02  3.4842396451637656e-02  3.9431323215055290e-02  4.3116002467582890e-02  4.5669588682898533e-02  4.6822374912256104e-02  4.6250729731469667e-02  4.3561590733218844e-02  3.8272557662792459e-02  2.9784572922372868e-02  1.7345402216960158e-02  0.0000000000000000e+00  -2.0566338045151077e-02  0.0000000000000000e+00  -3.5355725023940673e-02  -4.5545782372239919e-02  -5.2049069019536716e-02  -5.5578315900185006e-02  -5.6695232217397515e-02  -5.5846886198781136e-02  -5.3392927232298701e-02  -4.9626151297878396e-02  -4.4787837774065212e-02  -3.9079953969133212e-02  -3.2674082036695154e-02  -2.5719566005105929e-02  -1.8348826887485205e-02  -1.0683940286925092e-02  -2.8399224187765841e-03  5.0691227582581114e-03  1.2927644712076074e-02  2.0612394055168858e-02  2.7990083178317554e-02  3.4910963129360664e-02  4.1205372335824053e-02  4.6676631643670988e-02  5.1095173827589428e-02  5.4189223749376153e-02  5.5634329981782540e-02  5.5038737256412305e-02  5.1924500914430849e-02  4.5701953955114658e-02  3.5635327368127134e-02  2.0796116254292528e-02  0.0000000000000000e+00  -2.4505591737940383e-02  0.0000000000000000e+00  -4.2037520863456322e-02  -5.4043304508143604e-02  -6.1640980250778063e-02  -6.5700983620602671e-02  -6.6906855706985846e-02  -6.5800699533196894e-02  -6.2816589200102663e-02  -5.8306089998989001e-02  -5.2556940129896576e-02  -4.5807915629361248e-02  -3.8260095648183785e-02  -3.0086100032955383e-02  -2.1437935054950650e-02  -1.2453203248853115e-02  -3.2618900434579286e-03  6.0093057360229886e-03  1.5229948222084089e-02  2.4262364952007488e-02  3.2954002081455193e-02  4.1133663187482329e-02  4.8603087622253092e-02  5.5131249798807722e-02  6.0444448834138721e-02  6.4216384112473476e-02  6.6053949301714307e-02  6.5479613564103117e-02  6.1907531479613316e-02  5.4611693970168330e-02  4.2682833201305365e-02  2.4969748021347039e-02  0.0000000000000000e+00  -2.9195996604016453e-02  0.0000000000000000e+00  -4.9962000271326114e-02  -6.4077752378535011e-02  -7.2915408975508161e-02  -7.7541406850063888e-02  -7.8791457076601498e-02  -7.7326546877596311e-02  -7.3673830140210894e-02  -6.8257755135928994e-02  -6.1422958589629761e-02  -5.3452280152360816e-02  -4.4580774059205706e-02  -3.5007036460409244e-02  -2.4902938418565956e-02  -1.4421840230279471e-02  -3.7063512127208037e-03  7.1046122441586366e-03  1.7869042452485464e-02  2.8434361582577210e-02  3.8631133175755887e-02  4.8264163958399137e-02  5.7105620950808005e-02  6.4883971227029505e-02  7.1274383796349719e-02  7.5883939699131972e-02  7.8235382996651795e-02  7.7744263708215355e-02  7.3689852604490902e-02  6.5175398637536450e-02  5.1074800347552782e-02  2.9959562366498192e-02  0.0000000000000000e+00  -3.4734859879853620e-02  0.0000000000000000e+00  -5.9281312068423707e-02  -7.5824054966799712e-02  -8.6047034000335212e-02  -9.1258100100274256e-02  -9.2482051267346196e-02  -9.0527292898418321e-02  -8.6037090937827521e-02  -7.9525344937997275e-02  -7.1406334619857473e-02  -6.2014771155041469e-02  -5.1624860559864677e-02  -4.0463000261077631e-02  -2.8721036558569897e-02  -1.6566365000086219e-02  -4.1516461924670242e-03  8.3753408365892651e-03  2.0863830274302202e-02  3.3149639648109408e-02  4.5047137426666523e-02  5.6338628040400060e-02  6.6763267837759349e-02  7.6005745758734103e-02  8.3680295946541500e-02  8.9315422862289537e-02  9.2330392549998530e-02  9.2009454172871513e-02  8.7464067660833797e-02  7.7585669385786468e-02  6.0979108245239409e-02  3.5873574690772798e-02  0.0000000000000000e+00  -4.1233358702501305e-02  0.0000000000000000e+00  -7.0164386309071000e-02  -8.9469182039875333e-02  -1.0121198515957888e-01  -1.0699850163859496e-01  -1.0808681470716008e-01  -1.0546966578050997e-01  -9.9932972188171931e-02  -9.2102144355562007e-02  -8.2473935993382722e-02  -7.1445578107557139e-02  -5.9333594198048956e-02  -4.6394651763159940e-02  -3.2838260134595287e-02  -1.8842919721315611e-02  -4.5670630850084427e-03  9.8385215576941455e-03  2.4218595240690234e-02  3.8403102897035322e-02  5.2193268141224450e-02  6.5350573131216616e-02  7.7581456016634368e-02  8.8520962163729539e-02  9.7715610243397796e-02  1.0459865896068984e-01  1.0846587563347534e-01  1.0843869370846752e-01  1.0342214695632448e-01  9.2044470230778427e-02  7.2578656856935986e-02  4.2832559832201259e-02  0.0000000000000000e+00  -4.8815832327721818e-02  0.0000000000000000e+00  -8.2792775222159859e-02  -1.0520119224248162e-01  -1.1857045912323866e-01  -1.2487342718070288e-01  -1.2565908518892419e-01  -1.2214884077975460e-01  -1.1530708136837065e-01  -1.0589399757953197e-01  -9.4507200275588732e-02  -8.1613589085704180e-02  -6.7578048412397493e-02  -5.2684650701204566e-02  -3.7158822761934621e-02  -2.1182931576085185e-02  -4.9148063089173586e-03  1.1499392282053895e-02  2.7908601703804142e-02  4.4143355247205460e-02  5.9999511066164829e-02  7.5221506650764505e-02  8.9484344593556045e-02  1.0237191931267525e-01  1.1335226362788847e-01  1.2174982214706061e-01  1.2670901533017051e-01  1.2715404902528271e-01  1.2173301504145387e-01  1.0874896736419476e-01  8.6063796541460250e-02  5.0967992095178757e-02  0.0000000000000000e+00  -5.7618680582857143e-02  0.0000000000000000e+00  -9.7352437519855145e-02  -1.2319129528285055e-01  -1.3823636417241747e-01  -1.4491757236958566e-01  -1.4514867108890328e-01  -1.4043806373345138e-01  -1.3197110111614152e-01  -1.2067267246434117e-01  -1.0725780057268086e-01  -9.2272603030259526e-02  -7.6130046640752097e-02  -5.9139528633244509e-02  -4.1533467485575605e-02  -2.3490615560960375e-02  -5.1558770207159694e-03  1.3338725882016999e-02  3.1858821922563750e-02  5.0245558850917901e-02  6.8299889168576156e-02  8.5757914711632313e-02  1.0226781760240165e-01  1.1736246224285889e-01  1.3042545998744226e-01  1.4065440457947190e-01  1.4701555395613136e-01  1.4819003105382425e-01  1.4250902592135523e-01  1.2786909488366516e-01  1.0162166215148714e-01  6.0418865009854071e-02  0.0000000000000000e+00  -6.7786825461639583e-02  0.0000000000000000e+00  -1.1401759368441490e-01  -1.4355926431805133e-01  -1.6022422512095991e-01  -1.6702018661160337e-01  -1.6632417801013932e-01  -1.6000685787792809e-01  -1.4952677657345786e-01  -1.3600588533403213e-01  -1.2029233227203660e-01  -1.0301562446629658e-01  -8.4632447849719822e-02  -6.5468478375373756e-02  -4.5751506075354220e-02  -2.5642139778793923e-02  -5.2597652905544681e-03  1.5295143647393787e-02  3.5916621018807035e-02  5.6474268265357591e-02  7.6785811681484697e-02  9.6593339310552473e-02  1.1552954123153607e-01  1.3308097960023532e-01  1.4854612323993421e-01  1.6098158863364626e-01  1.6914407200505441e-01  1.7142050231375874e-01  1.6574634355061305e-01  1.4950812749014591e-01  1.1941487875900052e-01  7.1325139357709205e-02  0.0000000000000000e+00  -7.9466592956809801e-02  0.0000000000000000e+00  -1.3291964006353163e-01  -1.6630991348787383e-01  -1.8435460626335978e-01  -1.9080852243594895e-01  -1.8864644425242530e-01  -1.8019764121405937e-01  -1.6725369600460635e-01  -1.5116355732659145e-01  -1.3291751744608737e-01  -1.1322148103801695e-01  -9.2563099638149737e-02  -7.1265278736680773e-02  -4.9533463373874223e-02  -2.7492268323492389e-02  -5.2165636437329025e-03  1.7239856434391652e-02  3.9819995990506701e-02  6.2436608046025237e-02  8.4945877671652487e-02  1.0711321974853845e-01  1.2857518382990940e-01  1.4878944617480777e-01  1.6697572417443393e-01  1.8204576430331712e-01  1.9251894334063835e-01  1.9642960522467673e-01  1.9122201152539309e-01  1.7363186043154705e-01  1.3954670103446398e-01  8.3818928156378925e-02  0.0000000000000000e+00  -9.2788577637195890e-02  0.0000000000000000e+00  -1.5408137025376503e-01  -1.9120773471349933e-01  -2.1007921343565772e-01  -2.1544551852526614e-01  -2.1106422299139371e-01  -1.9983945705764242e-01  -1.8395404913950206e-01  -1.6499875766975619e-01  -1.4409415774756487e-01  -1.2199874549750145e-01  -9.9200689958952842e-02  -7.5992662465790312e-02  -5.2530652294511523e-02  -2.8881316041821089e-02  -5.0571283518890701e-03  1.8953756298290800e-02  4.3159340357172199e-02  6.7536422939881546e-02  9.2000023873218303e-02  1.1636681661728952e-01  1.4030546865786592e-01  1.6327551183539479e-01  1.8444679671765055e-01  2.0260004405282706e-01  2.1600830287414338e-01  2.2229978915657514e-01  2.1831150733425192e-01  1.9994097710512929e-01  1.6199330243974627e-01  9.8006594485839260e-02  0.0000000000000000e+00  -1.0782369801092632e-01  0.0000000000000000e+00  -1.7727050709932243e-01  -2.1752022401245766e-01  -2.3614834587901326e-01  -2.3927587232137160e-01  -2.3168587153461126e-01  -2.1697574709348516e-01  -1.9774704825132275e-01  -1.7580545465467212e-01  -1.5235060407896547e-01  -1.2813752699920272e-01  -1.0360544179813916e-01  -7.8976874493185023e-02  -5.4328703997315382e-02  -2.9646576483118001e-02  -4.8643946129758682e-03  2.0107830298936067e-02  4.5356435988266358e-02  7.0938285071013366e-02  9.6849977674726251e-02  1.2298810057342384e-01  1.4909530784115102e-01  1.7468315082297464e-01  1.9893029313127589e-01  2.2054332469890453e-01  2.3758082483990409e-01  2.4724436755204182e-01  2.4564989092538300e-01  2.2761029311088418e-01  1.8645948826801526e-01  1.1392682641233534e-01  0.0000000000000000e+00  -1.2447317929426618e-01  0.0000000000000000e+00  -2.0166624591359164e-01  -2.4348396024636182e-01  -2.5998687824255706e-01  -2.5922797429714112e-01  -2.4728639465180260e-01  -2.2850551990451914e-01  -2.0583583653060289e-01  -1.8118489385769751e-01  -1.5571603822310992e-01  -1.3008635765894772e-01  -1.0461775919456885e-01  -7.9416274688390201e-02  -5.4454114590456959e-02  -2.9622554164438767e-02  -4.7695958325901962e-03  2.0273961396037984e-02  4.5675561029469326e-02  7.1577689883675924e-02  9.8072506542744700e-02  1.2516449483471723e-01  1.5271469185034997e-01  1.8035894560376795e-01  2.0738111676560003e-01  2.3253274178848232e-01  2.5378195936595427e-01  2.6798401715200082e-01  2.7049099683243027e-01  2.5475803859750762e-01  2.1206151737431334e-01  1.3145910042469386e-01  0.0000000000000000e+00  -1.4216743983659946e-01  0.0000000000000000e+00  -2.2504863329097916e-01  -2.6516565871172793e-01  -2.7654000268716605e-01  -2.6987346916317134e-01  -2.5266124826126074e-01  -2.2980558676535720e-01  -2.0432884760367218e-01  -1.7798759353334281e-01  -1.5172398801797113e-01  -1.2597515572019780e-01  -1.0087671695704674e-01  -7.6387262235010495e-02  -5.2364391296471247e-02  -2.8611389080549103e-02  -4.9048464751323571e-03  1.8989018985953336e-02  4.3301184081487490e-02  6.8247986367315064e-02  9.4012258176629254e-02  1.2071608326703993e-01  1.4837501640891090e-01  1.7681824310437880e-01  2.0556010855168219e-01  2.3359230091825800e-01  2.5905873886219755e-01  2.7876837514527192e-01  2.8752139642956370e-01  2.7730078712590089e-01  2.3655629143984291e-01  1.5007602663411726e-01  0.0000000000000000e+00  -1.5892917046904553e-01  0.0000000000000000e+00  -2.4171351101585017e-01  -2.7407185538724760e-01  -2.7634106303246220e-01  -2.6222295075103152e-01  -2.4005838123478229e-01  -2.1457599769036473e-01  -1.8828955373493872e-01  -1.6243115874090827e-01  -1.3751794397408343e-01  -1.1367766672597315e-01  -9.0834352959034956e-02  -6.8809706344419963e-02  -4.7376129284420650e-02  -2.6284472132339320e-02  -5.2779352736199037e-03  1.5901527253233554e-02  3.7511104126546034e-02  5.9802549856118103e-02  8.3016192177259848e-02  1.0736700058668906e-01  1.3301599463230210e-01  1.6001532186928538e-01  1.8820634656574756e-01  2.1703441176636787e-01  2.4521123277203846e-01  2.7012300159507913e-01  2.8682769791362822e-01  2.8648409351307857e-01  2.5431050059543875e-01  1.6809031599687158e-01  0.0000000000000000e+00  -1.6791848841694840e-01  0.0000000000000000e+00  -2.3696403156303994e-01  -2.5271121503503485e-01  -2.4322041188443144e-01  -2.2313119756316219e-01  -1.9946887435484159e-01  -1.7540376587053941e-01  -1.5224718607132662e-01  -1.3043621525078938e-01  -1.1000692248914748e-01  -9.0817781097368641e-02  -7.2655369573356082e-02  -5.5283006436809522e-02  -3.8461197229761580e-02  -2.1954903877332937e-02  -5.5347602008676573e-03  1.1025353213887938e-02  2.7951023159709720e-02  4.5470644572508809e-02  6.3816827313663241e-02  8.3225493643901527e-02  1.0392749342234844e-01  1.2612728992592731e-01  1.4995674172555221e-01  1.7537146831034561e-01  2.0193251610942697e-01  2.2834211045719269e-01  2.5143820117262172e-01  2.6404167978904075e-01  2.5058131733284578e-01  1.7977379585865649e-01  0.0000000000000000e+00  -1.4306360575564411e-01  0.0000000000000000e+00  -1.7503340985831195e-01  -1.7054132106036837e-01  -1.5539696963746449e-01  -1.3803595538968660e-01  -1.2113462435117628e-01  -1.0544727898520230e-01  -9.1076675577446545e-02  -7.7908427019153945e-02  -6.5764031337233492e-02  -5.4454714690455271e-02  -4.3800331317607986e-02  -3.3634306898705092e-02  -2.3802690908081615e-02  -1.4161577801462519e-02  -4.5737178424992463e-03  5.0949369718934334e-03  1.4978959368320761e-02  2.5216710031538730e-02  3.5954140228806532e-02  4.7347688596687074e-02  5.9566446192634959e-02  7.2792878741780712e-02  8.7218594737964325e-02  1.0302812632213015e-01  1.2035448863285755e-01  1.3915781989881132e-01  1.5887312757995919e-01  1.7732172291373513e-01  1.8699800014193485e-01  1.6120688470818650e-01  0.0000000000000000e+00  0.0000000000000000e+00  0.0000000000000000e+00  0.0000000000000000e+00  0.0000000000000000e+00  0.0000000000000000e+00  0.0000000000000000e+00  0.0000000000000000e+00  0.0000000000000000e+00  0.0000000000000000e+00  0.0000000000000000e+00  0.0000000000000000e+00  0.0000000000000000e+00  0.0000000000000000e+00  0.0000000000000000e+00  0.0000000000000000e+00  0.0000000000000000e+00  0.0000000000000000e+00  0.0000000000000000e+00  0.0000000000000000e+00  0.0000000000000000e+00  0.0000000000000000e+00  0.0000000000000000e+00  0.0000000000000000e+00  0.0000000000000000e+00  0.0000000000000000e+00  0.0000000000000000e+00  0.0000000000000000e+00  0.0000000000000000e+00  0.0000000000000000e+00  0.0000000000000000e+00  0.0000000000000000e+00  0.0000000000000000e+00  0.0000000000000000e+00  </DataArray> 
</PointData> 
</Piece>
</UnstructuredGrid>
</VTKFile>