<?xml version="1.0"?>
<VTKFile type="UnstructuredGrid"  version="0.1"  >
<UnstructuredGrid>
<Piece  NumberOfPoints="825" NumberOfCells="1536">
<Points>
<DataArray  type="Float64"  NumberOfComponents="3"  format="ascii">-1.044723236187235e-21 0.5 0  0.06249999993281841 0.5000000010072474 0  0.06249999785361412 0.5625000019537669 0  -3.498232952890674e-09 0.562500000146832 0  0.1249999996496847 0.5000000015976706 0  0.1249999981968829 0.562500002409566 0  0.1874999990231275 0.500000001669341 0  0.1874999979143198 0.5625000022679429 0  0.2499999981437784 0.5000000014190588 0  0.249999997218259 0.5625000018183788 0  0.3124999969596866 0.5000000008764415 0  0.312499996173304 0.5625000010312586 0  0.3749999949696541 0.4999999995935973 0  0.3749999947279611 0.5624999999464754 0  0.4374999929211675 0.4999999984960874 0  0.4374999931508475 0.5624999989248252 0  0.4999999908919429 0.4999999973933532 0  0.4999999916446475 0.5624999978354865 0  0.5624999887900617 0.4999999956905709 0  0.5624999902972975 0.5624999968207246 0  0.6249999881544517 0.4999999955814484 0  0.624999989459351 0.5624999965318271 0  0.6874999883165863 0.4999999961511915 0  0.6874999891502306 0.5624999964130295 0  0.7499999876972342 0.4999999950005973 0  0.7499999889372865 0.5624999959950877 0  0.8124999879802924 0.4999999952068166 0  0.8124999890160695 0.5624999959434855 0  0.8749999887137925 0.4999999955639906 0  0.8749999893452244 0.5624999957627481 0  0.9374999884884762 0.499999994185934 0  0.93749998960019 0.5624999952422576 0  0.9999999891982144 0.4999999943711957 0  0.9999999900367149 0.5624999951102317 0  1.062499990176158 0.4999999946077449 0  1.062499990608749 0.5624999948367881 0  1.124999990075681 0.4999999931788496 0  1.124999991025964 0.5624999942392941 0  1.187499990821881 0.4999999932187086 0  1.187499991542049 0.5624999940405725 0  1.249999991884121 0.4999999935001631 0  1.249999992140212 0.5624999937812455 0  1.312499991833769 0.4999999922012704 0  1.312499992535129 0.5624999932662982 0  1.374999992505578 0.4999999923182789 0  1.374999992960628 0.5624999931685217 0  1.43749999332313 0.4999999925904416 0  1.437499993398274 0.5624999931028305 0  1.499999993315057 0.4999999918754248 0  1.499999993609881 0.5624999930870733 0  1.562499993919935 0.4999999928963914 0  1.562499993861108 0.5624999937328605 0  1.624999994819585 0.4999999943856628 0  1.624999994227618 0.56249999461261 0  1.687499995445678 0.499999995134855 0  1.687499994542222 0.562499995529423 0  1.74999999650358 0.4999999965095934 0  1.749999994918994 0.5624999967305572 0  1.812499997637729 0.4999999977287201 0  1.812499995320626 0.5624999979782167 0  1.874999998504377 0.4999999984756638 0  1.874999995583751 0.5624999993639962 0  1.93749999937891 0.499999999399097 0  1.937499995937221 0.5625000012635148 0  2 0.5 0  1.99999999838215 0.5625000036010657 0  0.06249999631763455 0.6250000021390876 0  -4.61965871863389e-09 0.625000000852306 0  0.1249999967982703 0.6250000025932004 0  0.1874999967773823 0.6250000024765862 0  0.2499999963415334 0.6250000020042744 0  0.3124999955741715 0.6250000012624538 0  0.3749999945320877 0.6250000003503351 0  0.437499993354406 0.6249999994033183 0  0.4999999921940657 0.6249999984732316 0  0.5624999911476908 0.6249999976876401 0  0.6249999903657222 0.624999997205575 0  0.6874999899289636 0.6249999968957045 0  0.7499999897259694 0.6249999966146976 0  0.8124999897270724 0.6249999963998872 0  0.8749999899208667 0.6249999961577876 0  0.9374999901963463 0.6249999958484034 0  0.9999999905531181 0.6249999955725254 0  1.062499990997452 0.6249999952607447 0  1.124999991434517 0.6249999948877542 0  1.187499991871136 0.6249999945709591 0  1.249999992323018 0.6249999942666372 0  1.31249999270604 0.6249999939619191 0  1.374999993025327 0.6249999937778895 0  1.437499993289994 0.6249999937167272 0  1.499999993440972 0.6249999938379092 0  1.562499993530262 0.6249999942708929 0  1.624999993617207 0.6249999949632461 0  1.687499993678698 0.6249999958609661 0  1.749999993733917 0.6249999969874522 0  1.812499993798762 0.624999998323677 0  1.874999993906012 0.6249999999181651 0  1.937499994354109 0.625000001757661 0  1.999999995563701 0.6250000029335515 0  0.06249999535865412 0.687500002019905 0  -5.160699333667529e-09 0.687500001133815 0  0.1249999957333158 0.6875000024174035 0  0.1874999958046055 0.6875000023589838 0  0.2499999955568998 0.687500001964539 0  0.3124999950310401 0.6875000013351752 0  0.374999994289358 0.6875000005655416 0  0.4374999934251624 0.6874999997479403 0  0.4999999925408866 0.6874999989583905 0  0.5624999917275707 0.6874999982792206 0  0.6249999910792445 0.6874999977673868 0  0.6874999906524434 0.6874999973900454 0  0.7499999904321605 0.6874999970858431 0  0.8124999903932235 0.6874999968208028 0  0.8749999905075307 0.6874999965565899 0  0.9374999907265873 0.6874999962740408 0  0.9999999910235756 0.6874999959828259 0  1.062499991377769 0.6874999956741581 0  1.12499999174923 0.6874999953490725 0  1.187499992117662 0.6874999950357883 0  1.249999992468864 0.6874999947446179 0  1.312499992769508 0.6874999944929955 0  1.374999993002316 0.687499994326235 0  1.437499993157642 0.6874999942840803 0  1.499999993222292 0.687499994415957 0  1.562499993214318 0.6874999947729068 0  1.624999993163151 0.6874999953623571 0  1.687499993085062 0.6874999961736363 0  1.749999993006841 0.6874999972015496 0  1.812499992971821 0.6874999984271939 0  1.874999993061384 0.6874999997943717 0  1.937499993405948 0.6875000010870652 0  1.999999993907627 0.6875000018314245 0  0.06249999475012748 0.7500000017844792 0  -5.511908268584058e-09 0.7500000011793393 0  0.1249999949860388 0.7500000020998627 0  0.1874999950599444 0.7500000020822556 0  0.249999994918981 0.7500000017829367 0  0.3124999945687168 0.7500000012777619 0  0.3749999940490204 0.7500000006454823 0  0.437499993422624 0.7499999999611021 0  0.4999999927621466 0.7499999992913468 0  0.5624999921397759 0.7499999986930205 0  0.6249999916218393 0.749999998198241 0  0.6874999912520563 0.7499999978001404 0  0.749999991040608 0.7499999974697442 0  0.8124999909774681 0.7499999971773411 0  0.8749999910413392 0.7499999968972644 0  0.9374999912030904 0.7499999966142875 0  0.9999999914361165 0.7499999963239605 0  1.062499991715327 0.7499999960246901 0  1.124999992013192 0.7499999957214831 0  1.187499992306507 0.7499999954281097 0  1.249999992574677 0.7499999951604192 0  1.312499992795447 0.7499999949401146 0  1.374999992951527 0.7499999947984491 0  1.437499993032108 0.7499999947709702 0  1.499999993033936 0.7499999948952998 0  1.562499992968184 0.7499999952030755 0  1.624999992856364 0.7499999957078988 0  1.687499992724219 0.749999996406522 0  1.749999992605754 0.7499999972805104 0  1.812499992546485 0.7499999982841271 0  1.874999992599145 0.7499999993172513 0  1.937499992780756 0.7500000001933662 0  1.999999992961417 0.7500000007120416 0  0.06249999434184952 0.8125000015262842 0  -5.778160244375767e-09 0.8125000011186821 0  0.1249999944720815 0.8125000017600361 0  0.1874999945202328 0.8125000017598345 0  0.2499999944332871 0.8125000015386745 0  0.3124999941995487 0.8125000011439079 0  0.3749999938383982 0.8125000006345349 0  0.4374999933898379 0.8125000000699382 0  0.4999999929047326 0.8124999995035421 0  0.5624999924365575 0.8124999989776023 0  0.6249999920339405 0.8124999985161683 0  0.6874999917316676 0.8124999981214267 0  0.7499999915453369 0.8124999977800222 0  0.8124999914740271 0.8124999974730425 0  0.8749999915052201 0.8124999971828307 0  0.9374999916194067 0.8124999968972159 0  0.9999999917947133 0.812499996610377 0  1.062499992008519 0.8124999963216546 0  1.124999992237861 0.8124999960359605 0  1.187499992461197 0.8124999957638374 0  1.249999992658712 0.8124999955203334 0  1.312499992812325 0.8124999953254671 0  1.374999992907864 0.8124999952043777 0  1.437499992937159 0.8124999951852092 0  1.499999992900075 0.812499995295634 0  1.562499992806507 0.8124999955571166 0  1.624999992675408 0.8124999959787016 0  1.687499992532586 0.8124999965533111 0  1.749999992409622 0.8124999972535698 0  1.812499992340346 0.8124999980234286 0  1.8749999923483 0.8124999987686051 0  1.937499992418377 0.8124999993642793 0  1.999999992471621 0.8124999997151464 0  0.0624999940553683 0.875000001289498 0  -5.992751915725712e-09 0.8750000010206546 0  0.1249999941186555 0.8750000014520585 0  0.1874999941406816 0.8750000014525461 0  0.2499999940804089 0.8750000012859491 0  0.3124999939216064 0.8750000009783111 0  0.3749999936711072 0.8750000005703733 0  0.4374999933529499 0.8750000001066441 0  0.4999999930015445 0.8749999996282912 0  0.5624999926550666 0.8749999991679145 0  0.6249999923491534 0.8749999987454504 0  0.6874999921110386 0.8749999983669143 0  0.7499999919559642 0.8749999980273852 0  0.8124999918871785 0.8749999977163111 0  0.8749999918982042 0.8749999974224141 0  0.9374999919758999 0.874999997137025 0  0.9999999921033726 0.8749999968555734 0  1.062499992261898 0.8749999965779267 0  1.124999992432196 0.8749999963085742 0  1.187499992595619 0.8749999960565369 0  1.249999992735013 0.8749999958350023 0  1.312499992835613 0.8749999956610259 0  1.374999992886479 0.8749999955547813 0  1.437499992882162 0.8749999955377171 0  1.499999992824189 0.8749999956294959 0  1.562499992721933 0.8749999958437755 0  1.624999992592072 0.8749999961836465 0  1.687499992456859 0.8749999966375313 0  1.749999992341261 0.8749999971751525 0  1.812499992267477 0.8749999977438365 0  1.8749999922451 0.8749999982691425 0  1.937499992259553 0.8749999986688501 0  1.999999992273683 0.8749999988853236 0  0.06249999384889433 0.937500001091446 0  -6.167474356293276e-09 0.9375000009200898 0  0.1249999938751476 0.9375000011955992 0  0.1874999938794717 0.9375000011873911 0  0.2499999938338841 0.9375000010550819 0  0.3124999937237753 0.9375000008111425 0  0.3749999935498712 0.9375000004819913 0  0.4374999933259098 0.937500000099427 0  0.4999999930744192 0.9374999996942679 0  0.5624999928219113 0.9374999992917884 0  0.6249999925941113 0.9374999989088011 0  0.6874999924117836 0.9374
[...]
<PointData  Scalars="p"> 
<DataArray  type="Float64"  Name="p"  format="ascii">0.0000000000000000e+00  -2.8678243131974602e-06  -3.0889840937565429e-06  0.0000000000000000e+00  -4.8559496030380860e-06  -5.0410760499289552e-06  -6.0901802596934492e-06  -6.2068049944011994e-06  -6.7370752293767112e-06  -6.7998360681501320e-06  -6.9469844353612012e-06  -6.9747866010133540e-06  -6.8407860215473389e-06  -6.8476001770828597e-06  -6.5072817007234877e-06  -6.5031130281748961e-06  -6.0126852435572943e-06  -6.0034620092138334e-06  -5.4040529202219760e-06  -5.3936859914708311e-06  -4.7156905993101893e-06  -4.7066158945190281e-06  -3.9749725607212677e-06  -3.9673159175329609e-06  -3.1985443104663314e-06  -3.1927817287020369e-06  -2.3981543850266843e-06  -2.3945704962043069e-06  -1.5834042831579661e-06  -1.5816832970253152e-06  -7.6047730112222081e-07  -7.6054501521738443e-07  6.6137017785065275e-08  6.4109005009498866e-08  8.9149726600913154e-07  8.8769422735041267e-07  1.7117115024604715e-06  1.7059112028988443e-06  2.5221610140025470e-06  2.5139051745132906e-06  3.3153531032932223e-06  3.3046893118703282e-06  4.0823764803874916e-06  4.0692211251308194e-06  4.8108435028195630e-06  4.7953246931316342e-06  5.4821529677501078e-06  5.4656146785506772e-06  6.0722219353560424e-06  6.0568684160272772e-06  6.5484430706695673e-06  6.5378844584015689e-06  6.8642343308563165e-06  6.8651997806326586e-06  6.9563521257750232e-06  6.9793875705332979e-06  6.7389998967659683e-06  6.7994858401326786e-06  6.0965885274786818e-06  6.2140987820479738e-06  4.8814213770755574e-06  5.0683772695927834e-06  2.9155430006949130e-06  3.1323844351107439e-06  0.0000000000000000e+00  0.0000000000000000e+00  -3.5156282154184027e-06  0.0000000000000000e+00  -5.4695756515135908e-06  -6.5225114729558622e-06  -7.0010997152807623e-06  -7.0896560529369805e-06  -6.9046890923985552e-06  -6.5248803021259469e-06  -6.0055465506335637e-06  -5.3864076001915373e-06  -4.6964998725529044e-06  -3.9574527020914639e-06  -3.1847277080784097e-06  -2.3892936516335659e-06  -1.5793907216484816e-06  -7.6122346090854235e-07  6.0342026217574521e-08  8.8089723655506634e-07  1.6960609223568534e-06  2.5008423957549253e-06  3.2887483692114329e-06  4.0513147953388725e-06  4.7772889715631633e-06  5.4513581377735944e-06  6.0530314478245931e-06  6.5547490373735271e-06  6.9186214122422788e-06  7.0919644169089033e-06  6.9995346643284015e-06  6.5279077676336337e-06  5.4914303337442390e-06  3.5494636440400993e-06  0.0000000000000000e+00  -3.9748393077155158e-06  0.0000000000000000e+00  -5.9930491028051663e-06  -6.9580604034471978e-06  -7.3164344165330161e-06  -7.2991492263950415e-06  -7.0346349060496155e-06  -6.6002026063483621e-06  -6.0458695815760270e-06  -5.4058520234814666e-06  -4.7045906283429638e-06  -3.9600116214911308e-06  -3.1851936390319360e-06  -2.3897197275041827e-06  -1.5808477536810612e-06  -7.6422142878278639e-07  5.5558455396259876e-08  8.7434461411633308e-07  1.6879667388197638e-06  2.4917170075383561e-06  3.2797831077675954e-06  4.0447494145130456e-06  4.7769723604276092e-06  5.4636669427978818e-06  6.0877735842509406e-06  6.6261532155500729e-06  7.0463477515351163e-06  7.3007447353872021e-06  7.3149123312961066e-06  6.9626533663747603e-06  6.0115705775051642e-06  4.0035508095849981e-06  0.0000000000000000e+00  -4.4191809512667180e-06  0.0000000000000000e+00  -6.5375930418686767e-06  -7.4479585510181229e-06  -7.7016493065677984e-06  -7.5792198238798155e-06  -7.2276808200908220e-06  -6.7280191353978550e-06  -6.1278615818376009e-06  -5.4572501936151343e-06  -4.7364649152095417e-06  -3.9798992566105308e-06  -3.1980132973856740e-06  -2.3985940817387235e-06  -1.5876535984279370e-06  -7.6999385030278502e-07  5.0361248856948907e-08  8.6975157747864267e-07  1.6844912498883441e-06  2.4904871609788445e-06  3.2828454380964169e-06  4.0555028012081895e-06  4.8007291541772892e-06  5.5083967286646257e-06  6.1648497281345400e-06  6.7509458147492307e-06  7.2382250758517433e-06  7.5811722135348219e-06  7.7012075624792260e-06  7.4530429626095904e-06  6.5547711800284404e-06  4.4450214057135908e-06  0.0000000000000000e+00  -4.8343466930312652e-06  0.0000000000000000e+00  -7.0676679763147888e-06  -7.9487462772480289e-06  -8.1172654409590897e-06  -7.8995009769110903e-06  -7.4628488793090466e-06  -6.8949882290256283e-06  -6.2436593304021481e-06  -5.5363654367613755e-06  -4.7901566741695477e-06  -4.0163807010265193e-06  -3.2230032761742634e-06  -2.4159265563067600e-06  -1.5997717988530967e-06  -7.7831766684278270e-07  4.5199702461290906e-08  8.6780362797595274e-07  1.6865027696911557e-06  2.4980220672827207e-06  3.2985570321388321e-06  4.0835032721521999e-06  4.8470905107087915e-06  5.5816835666037034e-06  6.2765766348495909e-06  6.9157152332524457e-06  7.4729721003721256e-06  7.9024084352633393e-06  8.1183561778828394e-06  7.9547999787117467e-06  7.0841812505587879e-06  4.8580151803486908e-06  0.0000000000000000e+00  -5.2142530818530847e-06  0.0000000000000000e+00  -7.5640810910748415e-06  -8.4321608299072430e-06  -8.5328951179463366e-06  -8.2324997569666957e-06  -7.7177697847820711e-06  -7.0841485409273181e-06  -6.3810324205539670e-06  -5.6347222613149410e-06  -4.8599890939831666e-06  -4.0657392568518483e-06  -3.2577625075032871e-06  -2.4401849122483478e-06  -1.6162362198505527e-06  -7.8860449668619892e-07  4.0364419817754732e-08  8.6849157164852987e-07  1.6935897281752456e-06  2.5133034534484767e-06  3.3249534606821416e-06  4.1253819991982251e-06  4.9106181726715170e-06  5.6751942728522099e-06  6.4107621931886623e-06  7.1033955501984892e-06  7.7279702923367580e-06  8.2366088841757793e-06  8.5355267791846876e-06  8.4390498345831019e-06  7.5798160682335084e-06  5.2357436337829531e-06  0.0000000000000000e+00  -5.5543075288840700e-06  0.0000000000000000e+00  -8.0141472454334821e-06  -8.8786581504528181e-06  -8.9257630170916771e-06  -8.5557028346376472e-06  -7.9724347926941148e-06  -7.2789732499296948e-06  -6.5270397207236486e-06  -5.7425929272659998e-06  -4.9388903805104285e-06  -4.1229791909374226e-06  -3.2988546669919043e-06  -2.4690896843752577e-06  -1.6356307367818169e-06  -8.0011372338420069e-07  3.6008631084731081e-08  8.7137250007872273e-07  1.7046139384724162e-06  2.5342844725334063e-06  3.3587854610545718e-06  4.1762551108081966e-06  4.9842966650246842e-06  5.7792008226519048e-06  6.5543987066204318e-06  7.2973451526240040e-06  7.9830517130928716e-06  8.5610569605201577e-06  8.9297241216296106e-06  8.8860026779060258e-06  8.0286898376483472e-06  5.5733414829784171e-06  0.0000000000000000e+00  -5.8497565193054263e-06  0.0000000000000000e+00  -8.4077717358113668e-06  -9.2735356090775765e-06  -9.2784926968312620e-06  -8.8512357419550000e-06  -8.2101752665391945e-06  -7.4649960179227653e-06  -6.6697908437872790e-06  -5.8506180956876133e-06  -5.0197601363804423e-06  -4.1828883641764598e-06  -3.3425861464052967e-06  -2.5001429712432316e-06  -1.6564055160643726e-06  -8.1207822377991227e-07  3.2195579422064263e-08  8.7580105197998106e-07  1.7181254373992655e-06  2.5585412221790301e-06  3.3963858650616192e-06  4.2309100181959536e-06  5.0609787325938690e-06  5.8842746047316699e-06  6.6955173278178700e-06  7.4830005215910315e-06  8.2214623513791975e-06  8.8578225147812315e-06  9.2835217130690734e-06  9.2809147764555019e-06  8.4206489741121331e-06  5.8659652970587037e-06  0.0000000000000000e+00  -6.0955125201071827e-06  0.0000000000000000e+00  -8.7360539343972069e-06  -9.6049511616595817e-06  -9.5774705421923564e-06  -9.1050345993336402e-06  -8.4176122205509233e-06  -7.6302954710789492e-06  -6.7992066455607023e-06  -5.9506451768523699e-06  -5.0962529614044868e-06  -4.2407076694770274e-06  -3.3855257280716388e-06  -2.5310015607887293e-06  -1.6771096118816480e-06  -8.2380514047218631e-07  2.8926337355829282e-08  8.8108019051474166e-07  1.7326567889371660e-06  2.5836885098973463e-06  3.4342661641076015e-06  4.2844976477418110e-06  5.1342348162900046e-06  5.9821686833313501e-06  6.8239530292171394e-06  7.6483915205629492e-06  8.4297992520394806e-06  9.1128594238362878e-06  9.5833689884897580e-06  9.6120043032677951e-06  8.7468324910114689e-06  6.1085119291031945e-06  0.0000000000000000e+00  -6.2864021006223795e-06  0.0000000000000000e+00  -8.9909418608899940e-06  -9.8630545176555490e-06  -9.8118915437761892e-06  -9.3061337473958052e-06  -8.5843297359549179e-06  -7.7655116080620123e-06  -6.9072794492656950e-06  -6.0361092751780942e-06  -5.1631979045935609e-06  -4.2925169259995144e-06  -3.4248268758107507e-06  -2.5597151469377327e-06  -1.6965412734468898e-06  -8.3473694728867498e-07  2.6165671789735521e-08  8.8657948553132347e-07  1.7469225675613999e-06  2.6076824741116264e-06  3.4694675331373030e-06  4.3329915368954710e-06  5.1987757538381269e-06  6.0662354726004366e-06  6.9316323299628153e-06  7.7841207564272596e-06  8.5976615275002125e-06  9.3152512000897275e-06  9.8185395271734071e-06  9.8695129097959326e-06  8.9992478020437380e-06  6.2958267496818661e-06  0.0000000000000000e+00  -6.4175232132063163e-06  0.0000000000000000e+00  -9.1653290287460819e-06  -1.0039742849844046e-05  -9.9733122737507175e-06  -9.4462593638208839e-06  -8.7026089931345184e-06  -7.8637817871775103e-06  -6.9881576898346701e-06  -6.1022269609492014e-06  -5.2168303452926203e-06  -4.3354695520671230e-06  -3.4584286387844149e-06  -2.5848793082501110e-06  -1.7138418575334602e-06  -8.4448321329137246e-07  2.3875409113859587e-08  8.9182938403749714e-07  1.7599799840722478e-06  2.6290243207869235e-06  3.4998311301916420e-06  4.3734346984987277e-06  5.2507474050527044e-06  6.1315967556073930e-06  7.0126563165531516e-06  7.8832949296692002e-06  8.7173343769055262e-06  9.4567614170282409e-06  9.9806497108911133e-06  1.0045399537842822e-05  9.1708416523430588e-06  6.4230311256614771e-06  0.0000000000000000e+00  -6.4845627378606816e-06  0.0000000000000000e+00  -9.2532852711823218e-06  -1.0128649316700793e-05  -1.0055504550302045e-05  -9.5196118358952225e-06  -8.7672849904143794e-06  -7.9206616493840485e-06  -7.0381775684393964e-06  -6.1460785469749868e-06  -5.2549200784292302e-06  -4.3679260035891162e-06  -3.4851823254480832e-06  -2.6057372370742867e-06  -1.7285665035208124e-06  -8.5285362831883797e-07  2.2019507563645280e-08  8.9656645941135902e-07  1.7713063633186639e-06  2.6468747959737353e-06  3.5241161252105654e-06  4.4040954322368900e-06  5.2878131966556692e-06  6.1752537236419603e-06  7.0632697477424932e-06  7.9414360174698970e-06  8.7836250008224166e-06  9.5316115075171973e-06  1.0063504641105357e-05  1.0133349853331322e-05  9.2557255981237677e-06  6.4858453718800894e-06  0.0000000000000000e+00  -6.4840297781318859e-06  0.0000000000000000e+00  -9.2502390848041865e-06  -1.0125223656626089e-05  -1.0054397908163054e-05  -9.5227829813532912e-06  -8.7756167847912450e-06  -7.9340651588004343e-06  -7.0558035011791426e-06  -6.1666161450362742e-06  -5.2767905513768358e-06  -4.3894987786356166e-06  -3.5048979225098685e-06  -2.6222261892131242e-06  -1.7407211489468973e-06  -8.5988455644179492e-07  2.0551029021203451e-08  9.0073205876046972e-07  1.7808107745157978e-06  2.6610694714196952e-06  3.5420286625124360e-06  4.4244728579709105e-06  5.3091910250121014e-06  6.1960361657451064e-06  7.0818608486518335e-06  7.9563669765794106e-06  8.7937775224042168e-06  9.5363804422492368e-06  1.0063077360567210e-05  1.0128857633777659e-05  9.2493819505616877e-06  6.4808151992215682e-06  0.0000000000000000e+00  -6.4133651220897361e-06  0.0000000000000000e+00  -9.1530857744646932e-06  -1.0026766297361796e-05  -9.9680583164026273e-06  -9.4546385387119091e-06  -8.7271700959673604e-06  -7.9040697736128544e-06  -7.0414896928003391e-06  -6.1644857724876323e-06  -5.2831896114653576e-06  -4.4009236224874039e-06  -3.5182421444188837e-06  -2.6348899594431224e-06  -1.7506963329604336e-06  -8.6579206912896051e-07  1.9436841606226076e-08  9.0447525168262808e-07  1.7888130077112730e-06  2.6720781758609992e-06  3.5541533383943999e-06  4.4352224358299564e-06  5.3155329619971244e-06  6.1945187053350372e-06  7.0687859179040159e-06  7.9281226053003351e-06  8.7472915088120532e-06  9.4699207688570429e-06  9.9774150996587047e-06  1.0029231887720805e-05  9.1487121002508408e-06  6.4053928444946660e-06  0.0000000000000000e+00  -6.2708944925056705e-06  0.0000000000000000e+00  -8.9601166517511475e-06  -9.8323258082749226e-06  -9.7965311006819021e-06  -9.3161096088111990e-06  -8.6235160234304832e-06  -7.8326122650036017e-06  -6.9972746046267431e-06  -6.1416779692912481e-06  -5.2758973992439152e-06  -4.4037269843034618e-06  -3.5264321837944692e-06  -2.6446340830494182e-06  -1.7590819843236311e-06  -8.7085775175800073e-07  1.8699430872306328e-08  9.0811954516695697e-07  1.7959386359779481e-06  2.6808287940026977e-06  3.5617207610884789e-06  4.4378590470259392e-06  5.3086117288315946e-06  6.1726426684770652e-06  7.0260555979149634e-06  7.8585632074853555e-06  8.6456732835778982e-06  9.3330709877449032e-06  9.8064744086593130e-06  9.8334394166077152e-06  8.9519412475296480e-06  6.2578688381159966e-06  0.0000000000000000e+00  -6.0555740990163785e-06  0.0000000000000000e+00  -8.6706649670684796e-06  -9.5423002584643028e-06  -9.5413606814932703e-06  -9.1096325709103734e-06  -8.4675714153957340e-06  -7.7227279138701168e-06  -6.9260214363211556e-06  -6.1006845688912547e-06  -5.2569852209443748e-06  -4.3995082391266965e-06  -3.5306499826824040e-06  -2.6522560432451850e-06  -1.7663499885705728e-06  -8.7526625276340240e-07  1.8415387452486431e-08  9.1199972818632732e-07  1.8027965885991808e-06  2.6882408486624004e-06  3.5660022281001624e-06  4.4340565759047787e-06  5.2905148780647179e-06  6.1329109727641116e-06  6.9564735871087787e-06  7.7506434378509470e-06  8.4917190845564030e-06  9.1281169085020896e-06  9.5516486495332529e-06  9.5417262026928615e-06  8.6582773482786689e-06  6.0371147399848041e-06  0.0000000000000000e+00  -5.7664346978763534e-06  0.0000000000000000e+00  -8.2843153114674984e-06  -9.1574741582551590e-06  -9.2044432378938556e-06  -8.8377628001588145e-06  -8.2620377573402568e-06  -7.5768224842604777e-06  -6.8296106153180506e-06  -6.0427722021700543e-06  -5.2271217970022121e-06  -4.3884878174492948e-06  -3.5307856583792611e-06  -2.6574869077524770e-06  -1.7721914885355141e-06  -8.7876910909143882e-07  1.8723361248597765e-08  9.1613853198347409e-07  1.8093372560639521e-06  2.6942744772086541e-06  3.5670928711979836e-06  4.4241746287779945e-06  5.2620214058992299e-06  6.0766032181324395e-06  6.8618790092200633e-06  7.6066539244002617e-06  8.2879383731977865e-06  8.8573917433391464e-06  9.2145702355596435e-06  9.1546020061855674e-06  8.2670453810327234e-06  5.7419615618062356e-06  0.0000000000000000e+00  -5.4015265406779559e-06  0.0000000000000000e+00  -7.7992836203308895e-06  -8.6769188476728696e-06  -8.7854368922533605e-06  -8.5001086441989839e-06  -8.0059254333058171e-06  -7.3930158145866764e-06  -6.7052148979905855e-06  -5.9643660226961330e-06  -5.1823013433225813e-06  -4.3665659262059045e-06  -3.5230345092368919e-06  -2.6571098862658239e-06  -1.7742433402337245e-06  -8.8002418998121050e-07  1.9850051244107562e-08  9.1964374534066249e-07  1.8136268452203651e-06  2.6961198748275247e-06  3.5615357643388740e-06  4.4044211144897696e-06  5.2193224161191980e-06  6.0002601403444212e-06  6.7394327429316030e-06  7.4245579193856892e-06  8.0330807203533065e-06  8.5201223614446136e-06  8.7944335169365847e-06  8.6706373015849196e-06  7.7759595972952008e-06  5.3700697099274619e-06  0.0000000000000000e+00  -4.9559223938977792e-06  0.0000000000000000e+00  -7.2090735892180694e-06  -8.0934111972332815e-06  -8.2759815300372887e-06  -8.0865861980451137e-06  -7.6871566681853010e-06  -7.1574453840455854e-06  -6.5377645228527591e-06  -5.8499298367081957e-06  -5.1073578666247536e-06  -4.3197593131485508e-06  -3.4952723629755403e-06  -2.6414597511465734e-06  -1.7657199034370692e-06  -8.7542638955645705e-07  2.2076115027704580e-08  9.1946372552880973e-07  1.8094215615055643e-06  2.6846149650320526e-06  3.5376797953404570e-06  4.3611955059155469e-06  5.1475643263422640e-06  5.8885184555050012e-06  6.5740728795016771e-06  7.1903389740645741e-06  7.7147033180247804e-06  8.1056760980122173e-06  8.2822018886881924e-06  8.0818477029178821e-06  7.1777665571420210e-06  4.9159032796403802e-06  0.0000000000000000e+00  -4.4178463197755818e-06  0.0000000000000000e+00  -6.4954419399686130e-06  -7.3834229530650674e-06  -7.6471024176028137e-06  -7.5629343872240389e-06  -7.2671178252927160e-06  -6.8286724356504989e-06  -6.2848440130606000e-06  -5.6579797923844431e-06  -4.9634747068604503e-06  -4.2134300727051964e-06  -3.4183121460484788e-06  -2.5877592389008087e-06  -1.7309876970376864e-06  -8.5694645488467081e-07  2.5588951051739435e-08  9.0794497225513744e-07  1.7814506960128811e-06  2.6373402435340802e-06  3.4666531727016717e-06  4.2601532842709606e-06  5.0081381766395454e-06  5.7000068775215333e-06  6.3233730695163758e-06  6.8623468659338568e-06  7.2937715405938371e-06  7.5791615411692401e-06  7.6480790872585066e-06  7.3637883615099801e-06  6.4533210609856163e-06  4.3669189467563220e-06  0.0000000000000000e+00  -3.7608149500941044e-06  0.0000000000000000e+00  -5.6132742305327372e-06  -6.4853599322411136e-06  -6.8223647356006630e-06  -6.8407577496230475e-06  -6.6494687291325776e-06  -6.3068890399384620e-06  -5.8475067758351584e-06  -5.2942913648881664e-06  -4.6644486224639345e-06  -3.9720796576173090e-06  -3.2294639225532018e-06  -2.4477536460406282e-06  -1.6373662468325571e-06  -8.0822846344996207e-07  3.0065565536980027e-08  8.6808911567222632e-07  1.6964177132986362e-06  2.5054483460515890e-06  3.2852322069131532e-06  4.0252951453521835e-06  4.7144045056820367e-06  5.3401132195779286e-06  5.8880129753504780e-06  6.3404166222480323e-06  6.6735542452239020e-06  6.8517129546544009e-06  6.8151183463307651e-06  6.4543982995617491e-06  5.5571070857101616e-06  3.6962168959674068e-06  0.0000000000000000e+00  -2.9260632619387461e-06  0.0000000000000000e+00  -4.4562414072703159e-06  -5.2514590063092773e-06  -5.6206818085428849e-06  -5.7159393446904769e-06  -5.6178792945028848e-06  -5.3736114638073735e-06  -5.0138218137928055e-06  -4.5606848743312528e-06  -4.0316147161788054e-06  -3.4411002625336099e-06  -2.8016792111284245e-06  -2.1245458860195906e-06  -1.4199657593222479e-06  -6.9755427983672747e-07  3.3490822725958158e-08  7.6418269033255701e-07  1.4855280067509455e-06  2.1883094887434243e-06  2.8628588425289108e-06  3.4988315925552933e-06  4.0849075343614299e-06  4.6083487856655450e-06  5.0543468745974772e-06  5.4050048697764189e-06  5.6373930154193306e-06  5.7197116730920402e-06  5.6036280267460885e-06  5.2082092497201063e-06  4.3857288155185953e-06  2.8474285467838706e-06  0.0000000000000000e+00  -1.7799717018048893e-06  0.0000000000000000e+00  -2.7770807088304141e-06  -3.3423953768875361e-06  -3.6371411491775906e-06  -3.7448022166331725e-06  -3.7137806858879227e-06  -3.5751964662136202e-06  -3.3509545166443184e-06  -3.0576481974585934e-06  -2.7085499917691362e-06  -2.3146868917988177e-06  -1.8854946596848350e-06  -1.4292701373270238e-06  -9.5349956305024701e-07  -4.6510965559636729e-07  2.9333379020553099e-08  5.2343691618930373e-07  1.0108012638185906e-06  1.4848311507693502e-06  1.9385443781846879e-06  2.3643619383179876e-06  2.7538572470862530e-06  3.0973985635667834e-06  3.3836704277557176e-06  3.5989963966631957e-06  3.7261758931518375e-06  3.7424443789213777e-06  3.6157512028178480e-06  3.2974430183073603e-06  2.7073383620264439e-06  1.7016761135063821e-06  0.0000000000000000e+00  0.0000000000000000e+00  0.0000000000000000e+00  0.0000000000000000e+00  0.0000000000000000e+00  0.0000000000000000e+00  0.0000000000000000e+00  0.0000000000000000e+00  0.0000000000000000e+00  0.0000000000000000e+00  0.0000000000000000e+00  0.0000000000000000e+00  0.0000000000000000e+00  0.0000000000000000e+00  0.0000000000000000e+00  0.0000000000000000e+00  0.0000000000000000e+00  0.0000000000000000e+00  0.0000000000000000e+00  0.0000000000000000e+00  0.0000000000000000e+00  0.0000000000000000e+00  0.0000000000000000e+00  0.0000000000000000e+00  0