<?xml version="1.0"?>
<VTKFile type="UnstructuredGrid"  version="0.1"  >
<UnstructuredGrid>
<Piece  NumberOfPoints="759" NumberOfCells="1408">
<Points>
<DataArray  type="Float64"  NumberOfComponents="3"  format="ascii">0 0.46875 0  0.03125 0.46875 0  0.03125 0.515625 0  0 0.515625 0  0.0625 0.46875 0  0.0625 0.515625 0  0.09375 0.46875 0  0.09375 0.515625 0  0.125 0.46875 0  0.125 0.515625 0  0.15625 0.46875 0  0.15625 0.515625 0  0.1875 0.46875 0  0.1875 0.515625 0  0.21875 0.46875 0  0.21875 0.515625 0  0.25 0.46875 0  0.25 0.515625 0  0.28125 0.46875 0  0.28125 0.515625 0  0.3125 0.46875 0  0.3125 0.515625 0  0.34375 0.46875 0  0.34375 0.515625 0  0.375 0.46875 0  0.375 0.515625 0  0.40625 0.46875 0  0.40625 0.515625 0  0.4375 0.46875 0  0.4375 0.515625 0  0.46875 0.46875 0  0.46875 0.515625 0  0.5 0.46875 0  0.5 0.515625 0  0.53125 0.46875 0  0.53125 0.515625 0  0.5625 0.46875 0  0.5625 0.515625 0  0.59375 0.46875 0  0.59375 0.515625 0  0.625 0.46875 0  0.625 0.515625 0  0.65625 0.46875 0  0.65625 0.515625 0  0.6875 0.46875 0  0.6875 0.515625 0  0.71875 0.46875 0  0.71875 0.515625 0  0.75 0.46875 0  0.75 0.515625 0  0.78125 0.46875 0  0.78125 0.515625 0  0.8125 0.46875 0  0.8125 0.515625 0  0.84375 0.46875 0  0.84375 0.515625 0  0.875 0.46875 0  0.875 0.515625 0  0.90625 0.46875 0  0.90625 0.515625 0  0.9375 0.46875 0  0.9375 0.515625 0  0.96875 0.46875 0  0.96875 0.515625 0  1 0.46875 0  1 0.515625 0  0.03125 0.5625 0  0 0.5625 0  0.0625 0.5625 0  0.09375 0.5625 0  0.125 0.5625 0  0.15625 0.5625 0  0.1875 0.5625 0  0.21875 0.5625 0  0.25 0.5625 0  0.28125 0.5625 0  0.3125 0.5625 0  0.34375 0.5625 0  0.375 0.5625 0  0.40625 0.5625 0  0.4375 0.5625 0  0.46875 0.5625 0  0.5 0.5625 0  0.53125 0.5625 0  0.5625 0.5625 0  0.59375 0.5625 0  0.625 0.5625 0  0.65625 0.5625 0  0.6875 0.5625 0  0.71875 0.5625 0  0.75 0.5625 0  0.78125 0.5625 0  0.8125 0.5625 0  0.84375 0.5625 0  0.875 0.5625 0  0.90625 0.5625 0  0.9375 0.5625 0  0.96875 0.5625 0  1 0.5625 0  0.03125 0.609375 0  0 0.609375 0  0.0625 0.609375 0  0.09375 0.609375 0  0.125 0.609375 0  0.15625 0.609375 0  0.1875 0.609375 0  0.21875 0.609375 0  0.25 0.609375 0  0.28125 0.609375 0  0.3125 0.609375 0  0.34375 0.609375 0  0.375 0.609375 0  0.40625 0.609375 0  0.4375 0.609375 0  0.46875 0.609375 0  0.5 0.609375 0  0.53125 0.609375 0  0.5625 0.609375 0  0.59375 0.609375 0  0.625 0.609375 0  0.65625 0.609375 0  0.6875 0.609375 0  0.71875 0.609375 0  0.75 0.609375 0  0.78125 0.609375 0  0.8125 0.609375 0  0.84375 0.609375 0  0.875 0.609375 0  0.90625 0.609375 0  0.9375 0.609375 0  0.96875 0.609375 0  1 0.609375 0  0.03125 0.65625 0  0 0.65625 0  0.0625 0.65625 0  0.09375 0.65625 0  0.125 0.65625 0  0.15625 0.65625 0  0.1875 0.65625 0  0.21875 0.65625 0  0.25 0.65625 0  0.28125 0.65625 0  0.3125 0.65625 0  0.34375 0.65625 0  0.375 0.65625 0  0.40625 0.65625 0  0.4375 0.65625 0  0.46875 0.65625 0  0.5 0.65625 0  0.53125 0.65625 0  0.5625 0.65625 0  0.59375 0.65625 0  0.625 0.65625 0  0.65625 0.65625 0  0.6875 0.65625 0  0.71875 0.65625 0  0.75 0.65625 0  0.78125 0.65625 0  0.8125 0.65625 0  0.84375 0.65625 0  0.875 0.65625 0  0.90625 0.65625 0  0.9375 0.65625 0  0.96875 0.65625 0  1 0.65625 0  0.03125 0.703125 0  0 0.703125 0  0.0625 0.703125 0  0.09375 0.703125 0  0.125 0.703125 0  0.15625 0.703125 0  0.1875 0.703125 0  0.21875 0.703125 0  0.25 0.703125 0  0.28125 0.703125 0  0.3125 0.703125 0  0.34375 0.703125 0  0.375 0.703125 0  0.40625 0.703125 0  0.4375 0.703125 0  0.46875 0.703125 0  0.5 0.703125 0  0.53125 0.703125 0  0.5625 0.703125 0  0.59375 0.703125 0  0.625 0.703125 0  0.65625 0.703125 0  0.6875 0.703125 0  0.71875 0.703125 0  0.75 0.703125 0  0.78125 0.703125 0  0.8125 0.703125 0  0.84375 0.703125 0  0.875 0.703125 0  0.90625 0.703125 0  0.9375 0.703125 0  0.96875 0.703125 0  1 0.703125 0  0.03125 0.75 0  0 0.75 0  0.0625 0.75 0  0.09375 0.75 0  0.125 0.75 0  0.15625 0.75 0  0.1875 0.75 0  0.21875 0.75 0  0.25 0.75 0  0.28125 0.75 0  0.3125 0.75 0  0.34375 0.75 0  0.375 0.75 0  0.40625 0.75 0  0.4375 0.75 0  0.46875 0.75 0  0.5 0.75 0  0.53125 0.75 0  0.5625 0.75 0  0.59375 0.75 0  0.625 0.75 0  0.65625 0.75 0  0.6875 0.75 0  0.71875 0.75 0  0.75 0.75 0  0.78125 0.75 0  0.8125 0.75 0  0.84375 0.75 0  0.875 0.75 0  0.90625 0.75 0  0.9375 0.75 0  0.96875 0.75 0  1 0.75 0  0.03125 0.796875 0  0 0.796875 0  0.0625 0.796875 0  0.09375 0.796875 0  0.125 0.796875 0  0.15625 0.796875 0  0.1875 0.796875 0  0.21875 0.796875 0  0.25 0.796875 0  0.28125 0.796875 0  0.3125 0.796875 0  0.34375 0.796875 0  0.375 0.796875 0  0.40625 0.796875 0  0.4375 0.796875 0  0.46875 0.796875 0  0.5 0.796875 0  0.53125 0.796875 0  0.5625 0.796875 0  0.59375 0.796875 0  0.625 0.796875 0  0.65625 0.796875 0  0.6875 0.796875 0  0.71875 0.796875 0  0.75 0.796875 0  0.78125 0.796875 0  0.8125 0.796875 0  0.84375 0.796875 0  0.875 0.796875 0  0.90625 0.796875 0  0.9375 0.796875 0  0.96875 0.796875 0  1 0.796875 0  0.03125 0.84375 0  0 0.84375 0  0.0625 0.84375 0  0.09375 0.84375 0  0.125 0.84375 0  0.15625 0.84375 0  0.1875 0.84375 0  0.21875 0.84375 0  0.25 0.84375 0  0.28125 0.84375 0  0.3125 0.84375 0  0.34375 0.84375 0  0.375 0.84375 0  0.40625 0.84375 0  0.4375 0.84375 0  0.46875 0.84375 0  0.5 0.84375 0  0.53125 0.84375 0  0.5625 0.84375 0  0.59375 0.84375 0  0.625 0.84375 0  0.65625 0.84375 0  0.6875 0.84375 0  0.71875 0.84375 0  0.75 0.84375 0  0.78125 0.84375 0  0.8125 0.84375 0  0.84375 0.84375 0  0.875 0.84375 0  0.90625 0.84375 0  0.9375 0.84375 0  0.96875 0.84375 0  1 0.84375 0  0.03125 0.890625 0  0 0.890625 0  0.0625 0.890625 0  0.09375 0.890625 0  0.125 0.890625 0  0.15625 0.890625 0  0.1875 0.890625 0  0.21875 0.890625 0  0.25 0.890625 0  0.28125 0.890625 0  0.3125 0.890625 0  0.34375 0.890625 0  0.375 0.890625 0  0.40625 0.890625 0  0.4375 0.890625 0  0.46875 0.890625 0  0.5 0.890625 0  0.53125 0.890625 0  0.5625 0.890625 0  0.59375 0.890625 0  0.625 0.890625 0  0.65625 0.890625 0  0.6875 0.890625 0  0.71875 0.890625 0  0.75 0.890625 0  0.78125 0.890625 0  0.8125 0.890625 0  0.84375 0.890625 0  0.875 0.890625 0  0.90625 0.890625 0  0.9375 0.890625 0  0.96875 0.890625 0  1 0.890625 0  0.03125 0.9375 0  0 0.9375 0  0.0625 0.9375 0  0.09375 0.9375 0  0.125 0.9375 0  0.15625 0.9375 0  0.1875 0.9375 0  0.21875 0.9375 0  0.25 0.9375 0  0.28125 0.9375 0  0.3125 0.9375 0  0.34375 0.9375 0  0.375 0.9375 0  0.40625 0.9375 0  0.4375 0.9375 0  0.46875 0.9375 0  0.5 0.9375 0  0.53125 0.9375 0  0.5625 0.9375 0  0.59375 0.9375 0  0.625 0.9375 0  0.65625 0.9375 0  0.6875 0.9375 0  0.71875 0.9375 0  0.75 0.9375 0  0.78125 0.9375 0  0.8125 0.9375 0  0.84375 0.9375 0  0.875 0.9375 0  0.90625 0.9375 0  0.9375 0.9375 0  0.96875 0.9375 0  1 0.9375 0  0.03125 0.984375 0  0 0.984375 0  0.0625 0.984375 0  0.09375 0.984375 0  0.125 0.984375 0  0.15625 0.984375 0  0.1875 0.984375 0  0.21875 0.984375 0  0.25 0.984375 0  0.28125 0.984375 0  0.3125 0.984375 0  0.34375 0.984375 0  0.375 0.984375 0  0.40625 0.984375 0  0.4375 0.984375 0  0.46875 0.984375 0  0.5 0.984375 0  0.53125 0.984375 0  0.5625 0.984375 0  0.59375 0.984375 0  0.625 0.984375 0  0.65625 0.984375 0  0.6875 0.984375 0  0.71875 0.984375 0  0.75 0.984375 0  0.78125 0.984375 0  0.8125 0.984375 0  0.84375 0.984375 0  0.875 0.984375 0  0.90625 0.984375 0  0.9375 0.984375 0  0.96875 0.984375 0  1 0.984375 0  0.03125 1.03125 0  0 1.03125 0  0.0625 1.03125 0  0.09375 1.03125 0  0.125 1.03125 0  0.15625 1.03125 0  0.1875 1.03125 0  0.21875 1.03125 0  0.25 1.03125 0  0.28125 1.03125 0  0.3125 1.03125 0  0.34375 1.03125 0  0.375 1.03125 0  0.40625 1.03125 0  0.4375 1.03125 0  0.46875 1.03125 0  0.5 1.03125 0  0.53125 1.03125 0  0.5625 1.03125 0  0.59375 1.03125 0  0.625 1.03125 0  0.65625 1.03125 0  0.6875 1.03125 0  0.71875 1.03125 0  0.75 1.03125 0  0.78125 1.03125 0  0.8125 1.03125 0  0.84375 1.03125 0  0.875 1.03125 0  0.90625 1.03125 0  0.9375 1.03125 0  0.96875 1.03125 0  1 1.03125 0  0.03125 1.078125 0  0 1.078125 0  0.0625 1.078125 0  0.09375 1.078125 0  0.125 1.078125 0  0.15625 1.078125 0  0.1875 1.078125 0  0.21875 1.078125 0  0.25 1.078125 0  0.28125 1.078125 0  0.3125 1.078125 0  0.34375 1.078125 0  0.375 1.078125 0  0.40625 1.078125 0  0.4375 1.078125 0  0.46875 1.078125 0  0.5 1.078125 0  0.53125 1.078125 0  0.5625 1.078125 0  0.59375 1.078125 0  0.625 1.078125 0  0.65625 1.078125 0  0.6875 1.078125 0  0.71875 1.078125 0  0.75 1.078125 0  0.78125 1.078125 0  0.8125 1.078125 0  0.84375 1.078125 0  0.875 1.078125 0  0.90625 1.078125 0  0.9375 1.078125 0  0.96875 1.078125 0  1 1.078125 0  0.03125 1.125 0  0 1.125 0  0.0625 1.125 0  0.09375 1.125 0  0.125 1.125 0  0.15625 1.125 0  0.1875 1.125 0  0.21875 1.125 0  0.25 1.125 0  0.28125 1.125 0  0.3125 1.125 0  0.34375 1.125 0  0.375 1.125 0  0.40625 1.125 0  0.4375 1.125 0  0.46875 1.125 0  0.5 1.125 0  0.53125 1.125 0  0.5625 1.125 0  0.59375 1.125 0  0.625 1.125 0  0.65625 1.125 0  0.6875 1.125 0  0.71875 1.125 0  0.75 1.125 0  0.78125 1.125 0  0.8125 1.125 0  0.84375 1.125 0  0.875 1.125 0  0.90625 1.125 0  0.9375 1.125 0  0.96875 1.125 0  1 1.125 0  0.03125 1.171875 0  0 1.171875 0  0.0625 1.171875 0  0.09375 1.171875 0  0.125 1.171875 0  0.15625 1.171875 0  0.1875 1.171875 0  0.21875 1.171875 0  0.25 1.171875 0  0.28125 1.171875 0  0.3125 1.171875 0  0.34375 1.171875 0  0.375 1.171875 0  0.40625 1.171875 0  0.4375 1.171875 0  0.46875 1.171875 0  0.5 1.171875 0  0.53125 1.171875 0  0.5625 1.171875 0  0.59375 1.171875 0  0.625 1.171875 0  0.65625 1.171875 0  0.6875 1.171875 0  0.71875 1.171875 0  0.75 1.171875 0  0.78125 1.171875 0  0.8125 1.171875 0  0.84375 1.171875 0  0.875 1.171875 0  0.90625 1.171875 0  0.9375 1.171875 0  0.96875 1.171875 0  1 1.171875 0  0.03125 1.21875 0  0 1.21875 0  0.0625 1.21875 0  0.09375 1.21875 0  0.125 1.21875 0  0.15625 1.21875 0  0.1875 1.21875 0  0.21875 1.21875 0  0.25 1.21875 0  0.28125 1.21875 0  0.3125 1.21875 0  0.34375 1.21875 0  0.375 1.21875 0  0.40625 1.21875 0  0.4375 1.21875 0  0.46875 1.21875 0  0.5 1.21875 0  0.53125 1.21875 0  0.5
[...]
<PointData  Scalars="p"> 
<DataArray  type="Float64"  Name="p"  format="ascii">0.0000000000000000e+00  -9.9834788440322916e-04  -1.0559027030340540e-03  0.0000000000000000e+00  -1.8841589879901881e-03  -1.9903620710785123e-03  -2.6401747297765598e-03  -2.7865628187486429e-03  -3.2526328672786912e-03  -3.4306167574640551e-03  -3.7115518155745098e-03  -3.9123736579778573e-03  -4.0109960959773712e-03  -4.2258987337361453e-03  -4.1492325657839059e-03  -4.3696426944881094e-03  -4.1287181032958866e-03  -4.3464663180313732e-03  -3.9559682165221455e-03  -4.1634468772076801e-03  -3.6412901342674797e-03  -3.8316210167745769e-03  -3.1984449810450576e-03  -3.3655779070227857e-03  -2.6442258149238923e-03  -2.7830422343078621e-03  -1.9980069064859719e-03  -2.1043679054454788e-03  -1.2812504721778316e-03  -1.3520496638328116e-03  -5.1700757874849161e-04  -5.5018708752852799e-04  2.7059866012786685e-04  2.7602699212691233e-04  1.0568875357533814e-03  1.1008427179944763e-03  1.8171440291602720e-03  1.8984722481719478e-03  2.5271392390580631e-03  2.6436256621537105e-03  3.1636543432014708e-03  3.3120337485957846e-03  3.7049964119091907e-03  3.8809830419397331e-03  4.1315079073772389e-03  4.3298299640479598e-03  4.4260493887611548e-03  4.6405147482572410e-03  4.5744524650585061e-03  4.7980267617190346e-03  4.5659139826990996e-03  4.7908441521882644e-03  4.3933233139029464e-03  4.6112795859271300e-03  4.0534797457431248e-03  4.2557517814569715e-03  3.5471818029512887e-03  3.7248962083799102e-03  2.8791236988490640e-03  3.0235266240424647e-03  2.0575586605280022e-03  2.1603624177980816e-03  1.0936058279623487e-03  1.1475518790978894e-03  0.0000000000000000e+00  0.0000000000000000e+00  -1.2186284716909546e-03  0.0000000000000000e+00  -2.2941055244968707e-03  -3.2076043492399561e-03  -3.9439233588204276e-03  -4.4923128655908074e-03  -4.8468596824143891e-03  -5.0067272245102375e-03  -4.9760035839720830e-03  -4.7635431964704617e-03  -4.3824959819480465e-03  -3.8499253671545187e-03  -3.1861983336641296e-03  -2.4145069983646981e-03  -1.5602393888218195e-03  -6.5047539008889822e-04  2.8661043493092132e-04  1.2222533569838595e-03  2.1276676955863491e-03  2.9745590825063419e-03  3.7356927583330523e-03  4.3854222064477347e-03  4.9002737756863729e-03  5.2594784645173375e-03  5.4455485483958597e-03  5.4447583017065340e-03  5.2476368317126197e-03  4.8492894158120642e-03  4.2496581792332037e-03  3.4535122898123804e-03  2.4702725898365784e-03  1.3134819501075348e-03  0.0000000000000000e+00  -1.4932905737873718e-03  0.0000000000000000e+00  -2.8053790212993995e-03  -3.9144354194199787e-03  -4.8034589274581225e-03  -5.4609806617989974e-03  -5.8816245701902407e-03  -6.0659976935635105e-03  -6.0206857143752643e-03  -5.7576253981245730e-03  -5.2937846751109924e-03  -4.6503085141424870e-03  -3.8520758928534699e-03  -2.9268318049775872e-03  -1.9047306762678491e-03  -8.1756100657728273e-04  3.0169368344082212e-04  1.4195254693047837e-03  2.5023430882573131e-03  3.5170953495235495e-03  4.4317479875740206e-03  5.2159331032749674e-03  5.8414841722885212e-03  6.2831496349329838e-03  6.5191648362509149e-03  6.5319931735415959e-03  6.3088511635913140e-03  5.8423372143723588e-03  5.1307254397206566e-03  4.1782215356713018e-03  2.9947496602782194e-03  1.5955175817091577e-03  0.0000000000000000e+00  -1.8981426004876204e-03  0.0000000000000000e+00  -3.5560724119227615e-03  -4.9484540409213303e-03  -6.0562990795308396e-03  -6.8680590406533263e-03  -7.3796859121244406e-03  -7.5948505116410622e-03  -7.5241059395144754e-03  -7.1846368889514935e-03  -6.5989902081163947e-03  -5.7946860130341513e-03  -4.8028821589960581e-03  -3.6580342814373484e-03  -2.3967182826006564e-03  -1.0573783077770080e-03  3.2062467392931891e-04  1.6972289004803377e-03  3.0324554003063678e-03  4.2866745668447438e-03  5.4213495680709633e-03  6.3994223643180905e-03  7.1861528883153374e-03  7.7496566815004496e-03  8.0618948681138967e-03  8.0993263741216282e-03  7.8439681331801334e-03  7.2840017252662984e-03  6.4146276472589478e-03  5.2382964830633124e-03  3.7649102414214512e-03  2.0112456221970322e-03  0.0000000000000000e+00  -2.4634978964232597e-03  0.0000000000000000e+00  -4.5998798516342669e-03  -6.3798857883471186e-03  -7.7832391619201292e-03  -8.7992682369145842e-03  -9.4274270181458047e-03  -9.6763632269583795e-03  -9.5636242952774932e-03  -9.1138963880571418e-03  -8.3585138002935221e-03  -7.3334676389162252e-03  -6.0791080014383674e-03  -4.6383133938442374e-03  -3.0565128373486188e-03  -1.3801846312817270e-03  3.4289863781255809e-04  2.0648490913938106e-03  3.7374051892363246e-03  5.3129260381065500e-03  6.7443127257122964e-03  7.9860181561100547e-03  8.9942755771591706e-03  9.7283180334899865e-03  1.0150959016036173e-02  1.0230076901373543e-02  9.9394667956310759e-03  9.2603907219249056e-03  8.1823727759613909e-03  6.7043031601999575e-03  4.8345883973697898e-03  2.5911067261058999e-03  0.0000000000000000e+00  -3.2337945317468765e-03  0.0000000000000000e+00  -6.0149366959463130e-03  -8.3106535774872675e-03  -1.0100543714563806e-02  -1.1377594002954572e-02  -1.2147521963215958e-02  -1.2428186238687760e-02  -1.2247470018327008e-02  -1.1642186958265641e-02  -1.0655465402236153e-02  -9.3359767776192183e-03  -7.7354295777993971e-03  -5.9085302184288561e-03  -3.9108504824895245e-03  -1.7995158924296740e-03  3.6853703172040094e-04  2.5354554588314445e-03  4.6439390556023653e-03  6.6361870662235770e-03  8.4552592909244387e-03  1.0044482454474918e-02  1.1348924833580274e-02  1.2315502443307421e-02  1.2894797213749100e-02  1.3041922029336298e-02  1.2718715724507230e-02  1.1895127490886434e-02  1.0551382409382536e-02  8.6791993475944153e-03  6.2830601964107601e-03  3.3802291513277114e-03  0.0000000000000000e+00  -4.2706404154243607e-03  0.0000000000000000e+00  -7.9087180892828193e-03  -1.0879131843214191e-02  -1.3164638225863782e-02  -1.4765979330842555e-02  -1.5700938862647344e-02  -1.6001969085512633e-02  -1.5713892854809088e-02  -1.4890658776728372e-02  -1.3593212551148296e-02  -1.1886466797674760e-02  -9.8382605319116065e-03  -7.5169372378116770e-03  -4.9917099502879547e-03  -2.3307314208491484e-03  3.9730414905888824e-04  3.1248726493386452e-03  5.7833549335216602e-03  8.3047494744510099e-03  1.0619602410689604e-02  1.2658812983865873e-02  1.4352567637092764e-02  1.5632389716861723e-02  1.6431499443205263e-02  1.6687404267555717e-02  1.6343672174465446e-02  1.5353053838575445e-02  1.3680022224808118e-02  1.1303674288272362e-02  8.2196850668707841e-03  4.4415343285412953e-03  0.0000000000000000e+00  -5.6572712855555369e-03  0.0000000000000000e+00  -1.0424365583774430e-02  -1.4267238581888771e-02  -1.7177460007404215e-02  -1.9171464678544230e-02  -2.0287689848076822e-02  -2.0582838812461323e-02  -2.0127278657855269e-02  -1.9000922242518172e-02  -1.7289039734386384e-02  -1.5079442856148068e-02  -1.2459667479648951e-02  -9.5161026753943952e-03  -6.3324463615892336e-03  -2.9907437190533639e-03  4.2957072761819562e-04  3.8490826736413504e-03  7.1894635244062720e-03  1.0370073983055126e-02  1.3309499585825191e-02  1.5922662287033040e-02  1.8122853100998232e-02  1.9820691884762556e-02  2.0926782970409487e-02  2.1353129251662654e-02  2.1016877741341710e-02  1.9843898737079837e-02  1.7773452676779416e-02  1.4762565582066586e-02  1.0790126203733088e-02  5.8596390530108421e-03  0.0000000000000000e+00  -7.5050240823930645e-03  0.0000000000000000e+00  -1.3750406353123378e-02  -1.8709846110315044e-02  -2.2394404574760256e-02  -2.4849156931986360e-02  -2.6147876272963364e-02  -2.6385737768716049e-02  -2.5672608992563014e-02  -2.4125845557006982e-02  -2.1865375854050278e-02  -1.9008815224100604e-02  -1.5669476305252884e-02  -1.1954212380828624e-02  -7.9640093921496923e-03  -3.7938960486982075e-03  4.6472534606690292e-04  4.7232158884675454e-03  8.8922870327084510e-03  1.2881346559401374e-02  1.6594516819198945e-02  1.9931139742430097e-02  2.2782686120167660e-02  2.5034799235059715e-02  2.6566934830066533e-02  2.7256232892748568e-02  2.6980804941438456e-02  2.5625932405834176e-02  2.3090439974417738e-02  1.9294377615102113e-02  1.4186015021167904e-02  7.7478998327000122e-03  0.0000000000000000e+00  -9.9625574667835375e-03  0.0000000000000000e+00  -1.8133179143190726e-02  -2.4506621910962510e-02  -2.9131986017261927e-02  -3.2105281358228009e-02  -3.3558547945120330e-02  -3.3648274474016457e-02  -3.2543448232324586e-02  -3.0416363098524111e-02  -2.7433991489893415e-02  -2.3754052055571757e-02  -1.9520614276264083e-02  -1.4865075058272219e-02  -9.9052230523220021e-03  -4.7490709221052812e-03  5.0345937381980578e-04  5.7560200408557725e-03  1.0912466887862246e-02  1.5872748369478010e-02  2.0529521882231221e-02  2.4763987442815494e-02  2.8444920178410986e-02  3.1425531118321769e-02  3.3546156756315802e-02  3.4634917856024287e-02  3.4514454717001652e-02  3.3008323577558882e-02  2.9951973687509483e-02  2.5203994996163027e-02  1.8658969173408327e-02  1.0258629452277394e-02  0.0000000000000000e+00  -1.3226221166892968e-02  0.0000000000000000e+00  -2.3889692768940481e-02  -3.2031069641715995e-02  -3.7770160740033872e-02  -4.1290614277417412e-02  -4.2819906968840069e-02  -4.2609870191937786e-02  -4.0918290231490635e-02  -3.7994980235804894e-02  -3.4071734643271845e-02  -2.9356223836437410e-02  -2.4030696102395905e-02  -1.8251320143464433e-02  -1.2153144076875674e-02  -5.8521276006625236e-03  5.4695387158165242e-04  6.9465611254809143e-03  1.3248738330747422e-02  1.9349302450584891e-02  2.5132092625193461e-02  3.0463055133514820e-02  3.5184901750816198e-02  3.9115032005181002e-02  4.2042024100621238e-02  4.3729718788971125e-02  4.3920531048914649e-02  4.2346915044999926e-02  3.8744880877598996e-02  3.2873066657348210e-02  2.4533653870101053e-02  1.3593268829073090e-02  0.0000000000000000e+00  -1.7551947394033731e-02  0.0000000000000000e+00  -3.1419508146762296e-02  -4.1734136786363431e-02  -4.8743032307295146e-02  -5.2777978552623735e-02  -5.4220840479670088e-02  -5.3470034937777751e-02  -5.0913974805351876e-02  -4.6910661808224952e-02  -4.1776908617907872e-02  -3.5782291075521264e-02  -2.9150723729708825e-02  -2.2063608966186261e-02  -1.4667063392997386e-02  -7.0800364918580114e-03  5.9804366364232656e-04  8.2760139808538448e-03  1.5864356448758797e-02  2.3263195860164575e-02  3.0354919130163346e-02  3.6994624477028872e-02  4.3001616715830825e-02  4.8151722110448665e-02  5.2172778981742655e-02  5.4742168524224137e-02  5.5492295889430804e-02  5.4020984982589518e-02  4.9911961686705759e-02  4.2762680432008350e-02  3.2219321583431729e-02  1.8014324193941580e-02  0.0000000000000000e+00  -2.3269742765835086e-02  0.0000000000000000e+00  -4.1214185575418984e-02  -5.4136782913869440e-02  -6.2509428217857432e-02  -6.6912539440018209e-02  -6.7974072365782137e-02  -6.6315206047406108e-02  -6.2511577825386619e-02  -5.7067776979521506e-02  -5.0407226498209383e-02  -4.2871080755763090e-02  -3.4724501563718507e-02  -2.6168523540284025e-02  -1.7350525106854434e-02  -8.3803382018168438e-03  6.5922607876734687e-04  9.6985426613869358e-03  1.8667407284714131e-02  2.7485370532521012e-02  3.6044856753516138e-02  4.4200377285519336e-02  5.1754193655439359e-02  5.8441535419816830e-02  6.3919858166035778e-02  6.7759985439937429e-02  6.9445075980467424e-02  6.8381512889918755e-02  6.3921867561239798e-02  5.5407057709102883e-02  4.2221846054484848e-02  2.3862210472729944e-02  0.0000000000000000e+00  -3.0796142047626880e-02  0.0000000000000000e+00  -5.3852322318430693e-02  -6.9790934260594614e-02  -7.9477735809045227e-02  -8.3907487974465247e-02  -8.4095780713556778e-02  -8.0995034929764176e-02  -7.5440238840930110e-02  -6.8124744620956607e-02  -5.9595820157348059e-02  -5.0267805473538645e-02  -4.0438839718272120e-02  -3.0314500099216667e-02  -2.0028477359551877e-02  -9.6623207536889379e-03  7.3389429105498243e-04  1.1128326386198956e-02  2.1489462178941723e-02  3.1770471369525127e-02  4.1893684310432243e-02  5.1729654170420816e-02  6.1077457003283923e-02  6.9642383056747525e-02  7.7011298950870416e-02  8.2631494618659040e-02  8.5797337077536007e-02  8.5648778134725947e-02  8.1197125811132920e-02  7.1377945736108617e-02  5.5141543764585306e-02  3.1569333827344385e-02  0.0000000000000000e+00  -4.0637009206213423e-02  0.0000000000000000e+00  -6.9957635978264973e-02  -8.9173084685169643e-02  -9.9840787804449216e-02  -1.0364223297375855e-01  -1.0219396231669407e-01  -9.6923029639428102e-02  -8.9005177792478796e-02  -7.9355246459529988e-02  -6.8646847774333331e-02  -5.7350465816000021e-02  -4.5774178695768171e-02  -3.4102003243469063e-02  -2.2429676616457159e-02  -1.0789675889294860e-02  8.2320726745974029e-04  1.2431873508196094e-02  2.4062395843867605e-02  3.5722830587870971e-02  4.7385341133742875e-02  5.8962284302609462e-02  7.0276343619363565e-02  8.1027601503231766e-02  9.0750639368308100e-02  9.8770410308309145e-02  1.0415947544981424e-01  1.0571187072028310e-01  1.0194893885567896e-01  9.1180061970245099e-02  7.1634492719187148e-02  4.1666295981296626e-02  0.0000000000000000e+00  -5.3364436710339469e-02  0.0000000000000000e+00  -9.0072886780447503e-02  -1.1243827718893594e-01  -1.2324338306023419e-01  -1.2529861231367800e-01  -1.2112339666707762e-01  -1.1278491750809713e-01  -1.0186198318486413e-01  -8.9488265588079832e-02  -7.6429608025176551e-02  -6.3166254080782414e-02  -4.9971121521379544e-02  -3.6968866024451034e-02  -2.4184965785972571e-02  -1.1581040605464424e-02  9.2160606019383163e-04  1.3419410849668027e-02  2.6008821302797913e-02  3.8772390391862151e-02  5.1755598712970759e-02  6.4941572011712079e-02  7.8217287455033396e-02  9.1323020513805739e-02  1.0378946367297415e-01  1.1485730630217995e-01  1.2338454336278640e-01  1.2775924031400285e-01  1.2584525834698751e-01  1.1501039404169279e-01  9.2296918861890551e-02  5.4767834666739755e-02  0.0000000000000000e+00  -6.9519273503068260e-02  0.0000000000000000e+00  -1.1432891171758129e-01  -1.3887384952909007e-01  -1.4813435497903210e-01  -1.4673633554078377e-01  -1.3846871680582590e-01  -1.2616087053154790e-01  -1.1177332223019862e-01  -9.6573351553881179e-02  -8.1320798285805476e-02  -6.6421197501777496e-02  -5.2044871103277157e-02  -3.8212382224638734e-02  -2.4849950451568029e-02  -1.1828622875138630e-02  1.0117238012700999e-03  1.3845816371416212e-02  2.6849578184520519e-02  4.0186266661095454e-02  5.3992026006384690e-02  6.8351038111228973e-02  8.3257583588652442e-02  9.8559192636870296e-02  1.1387102544322723e-01  1.2845234541620262e-01  1.4104008586898772e-01  1.4964687724843231e-01  1.5135825193671812e-01  1.4221875101107209e-01  1.1735179295771761e-01  7.1493931126561189e-02  0.0000000000000000e+00  -8.9304893166966576e-02  0.0000000000000000e+00  -1.4161064299798370e-01  -1.6572567573390090e-01  -1.7057839164260397e-01  -1.6352890031992612e-01  -1.4989421547765136e-01  -1.3316737593060657e-01  -1.1546871350844254e-01  -9.7978488579776174e-02  -8.1277250647708993e-02  -6.5580097383427197e-02  -5.0886643504850074e-02  -3.7076246139049973e-02  -2.3964267071433898e-02  -1.1332518358059132e-02  1.0529716977666105e-03  1.3432568953203642e-02  2.6047145860828954e-02  3.9133738880175128e-02  5.2916476785436151e-02  6.7591040349967518e-02  8.3293506912948623e-02  1.0004649623982995e-01  1.1766679426054744e-01  1.3560974082751381e-01  1.5272478109451107e-01  1.6689260679432708e-01  1.7454119019027567e-01  1.7012524635512460e-01  1.4585209286154904e-01  9.2219015946407759e-02  0.0000000000000000e+00  -1.1161474365006067e-01  0.0000000000000000e+00  -1.6741374803308873e-01  -1.8576430299482088e-01  -1.8232286179655485e-01  -1.6781124941316083e-01  -1.4867766438699961e-01  -1.2844821972874157e-01  -1.0887529617439773e-01  -9.0706751332089497e-02  -7.4149927926905362e-02  -5.9138170876070796e-02  -4.5473668299747486e-02  -3.2902476063800368e-02  -2.1151878190808316e-02  -9.9474782404377071e-03  9.8272227160046380e-04  1.1908375027709741e-02  2.3099478503991435e-02  3.4829954237131713e-02  4.7379726844260936e-02  6.1029789239191015e-02  7.6048594321285579e-02  9.2658577882824306e-02  1.1096437526730871e-01  1.3081209943889771e-01  1.5152438484861136e-01  1.7141609079247244e-01  1.8695914673089842e-01  1.9148391591986735e-01  1.7357419033341176e-01  1.1627159342552007e-01  0.0000000000000000e+00  -1.3051516232729299e-01  0.0000000000000000e+00  -1.7831565232982610e-01  -1.8292460628236346e-01  -1.6869597198942293e-01  -1.4798124726899953e-01  -1.2638366189029973e-01  -1.0617677279528374e-01  -8.8096770629264173e-02  -7.2205911786609997e-02  -5.8292356567244567e-02  -4.6050633101256719e-02  -3.5158975797398115e-02  -2.5309497581612980e-02  -1.6217104505180456e-02  -7.6175280527778482e-03  7.3777558491300581e-04  9.0893330532411387e-03  1.7678087964473902e-02  2.6754143469234885e-02  3.6584547418029099e-02  4.7460649859127825e-02  5.9701318060884773e-02  7.3648372597899650e-02  8.9642258954600318e-02  1.0795482426067775e-01  1.2862508344022158e-01  1.5107393281146855e-01  1.7322981077568975e-01  1.8958925242977656e-01  1.8719741517591335e-01  1.3895096450829794e-01  0.0000000000000000e+00  -1.2091465145280239e-01  0.0000000000000000e+00  -1.4017052527366189e-01  -1.2877707559609003e-01  -1.1043634826993654e-01  -9.2328184689340023e-02  -7.6344796399086368e-02  -6.2729751501249015e-02  -5.1243037265164666e-02  -4.1535352968833851e-02  -3.3265218126386289e-02  -2.6131685225557161e-02  -1.9877540318284120e-02  -1.4283492241393862e-02  -9.1602189654715060e-03  -4.3405365508903211e-03  3.2867842772640074e-04  4.9935909693003336e-03  9.8004093202360108e-03  1.4902612351242798e-02  2.0468650051589349e-02  2.6689981189870215e-02  3.3790778299407541e-02  4.2037913361159814e-02  5.1750498799694261e-02  6.3305310380833965e-02  7.7122973782634524e-02  9.3592038806435851e-02  1.1279268510190228e-01  1.3352518050789863e-01  1.4978861686884229e-01  1.3726879106150094e-01  0.0000000000000000e+00  0.0000000000000000e+00  0.0000000000000000e+00  0.0000000000000000e+00  0.0000000000000000e+00  0.0000000000000000e+00  0.0000000000000000e+00  0.0000000000000000e+00  0.0000000000000000e+00  0.0000000000000000e+00  0.0000000000000000e+00  0.0000000000000000e+00  0.0000000000000000e+00  0.0000000000000000e+00  0.0000000000000000e+00  0.0000000000000000e+00  0.0000000000000000e+00  0.0000000000000000e+00  0.0000000000000000e+00  0.0000000000000000e+00  0.0000000000000000e+00  0.0000000000000000e+00  0.0000000000000000e+00  0.0000000000000000e+00  0.0000000000000000e+00  0.0000000000000000e+00  0.0000000000000000e+00  0.0000000000000000e+00  0.0000000000000000e+00  0.0000000000000000e+00  0.0000000000000000e+00  0.0000000000000000e+00  0.0000000000000000e+00  0.0000000000000000e+00  </DataArray> 
</PointData> 
</Piece>
</UnstructuredGrid>
</VTKFile>