<?xml version="1.0"?>
<VTKFile type="UnstructuredGrid"  version="0.1"  >
<UnstructuredGrid>
<Piece  NumberOfPoints="825" NumberOfCells="1536">
<Points>
<DataArray  type="Float64"  NumberOfComponents="3"  format="ascii">1.108245882701478e-23 0.5 0  0.06249998795385665 0.5000002252410355 0  0.06249967550216854 0.5625002506374869 0  -3.156162246170931e-07 0.562500004474818 0  0.1249999467867075 0.5000004246909328 0  0.1249996455037809 0.5625004420325582 0  0.187499878855339 0.50000059876801 0  0.1874995918374099 0.5625006109104779 0  0.2499997909128373 0.5000007870014862 0  0.2499995164163793 0.5625007682015154 0  0.3124996765385199 0.5000009607070335 0  0.3124994208309753 0.5625009034532571 0  0.3749995139252962 0.5000010646258449 0  0.3749993014687532 0.5625009943823123 0  0.4374993042212932 0.5000010960169332 0  0.4374991554231551 0.5625010294072392 0  0.4999990526876275 0.5000010568552113 0  0.4999989856319265 0.5625010081208555 0  0.5624987815589508 0.500000966540241 0  0.5624988004388626 0.5625009394542885 0  0.6249985223219261 0.5000008502106709 0  0.6249986113493614 0.5625008367425381 0  0.6874982738312995 0.5000007068060279 0  0.6874984283441372 0.5625007082180243 0  0.7499980484132579 0.5000005486630963 0  0.7499982587394486 0.5625005613567607 0  0.8124978580265118 0.5000003842144842 0  0.812498109299841 0.5625004034452143 0  0.8749977000054483 0.5000002124839152 0  0.8749979844433572 0.56250023815853 0  0.9374975790790324 0.5000000382025656 0  0.9374978867191132 0.5625000692303707 0  0.9999974953746565 0.4999998626278079 0  0.999997818279635 0.5624999015274115 0  1.062497454667296 0.4999997019512247 0  1.06249778113772 0.5624997404418488 0  1.12499746311169 0.4999995527831735 0  1.124997775730605 0.562499588863823 0  1.187497496244422 0.4999994035122539 0  1.187497800637926 0.5624994476366969 0  1.249997574611957 0.4999992815889837 0  1.249997854676947 0.5624993222981144 0  1.312497696192974 0.4999991794374108 0  1.312497936771285 0.562499216190337 0  1.374997836721404 0.4999990878028548 0  1.374998043429611 0.5624991304098611 0  1.437498013818346 0.4999990333763193 0  1.437498171444673 0.5624990711132142 0  1.499998224000715 0.4999990108869437 0  1.499998317495331 0.5624990434319556 0  1.562498440676084 0.4999990192424342 0  1.562498476490313 0.56249905085063 0  1.624998679550258 0.4999990875928914 0  1.624998644659231 0.5624990987211662 0  1.687498934971523 0.4999992003839265 0  1.687498818073516 0.5624991851359299 0  1.74999917712149 0.4999993367156747 0  1.749998989609856 0.5624993023742332 0  1.81249941873916 0.4999995096903921 0  1.812499151975355 0.5624994463244221 0  1.874999652494147 0.4999996975037542 0  1.874999296485217 0.5624996115857164 0  1.937499847941414 0.4999998654166292 0  1.937499405238674 0.5624998023865289 0  2 0.5 0  1.999999439614131 0.5625001258495438 0  0.0624994227087026 0.6250002925775435 0  -5.749331894789781e-07 0.6250000867920628 0  0.1249994045870818 0.6250004652910245 0  0.187499367423799 0.6250006165748836 0  0.2499993125953936 0.6250007504136269 0  0.3124992423192954 0.6250008608480865 0  0.3749991566259926 0.6250009362559864 0  0.4374990546790438 0.6250009678629492 0  0.49999893744681 0.6250009536652487 0  0.5624988085770565 0.6250008979311009 0  0.6249986741436578 0.6250008084342086 0  0.6874985408849543 0.6250006927655177 0  0.7499984147665851 0.6250005576684866 0  0.8124983010398382 0.6250004092552293 0  0.8749982038288723 0.6250002523451589 0  0.9374981259668721 0.6250000911951911 0  0.9999980694514675 0.624999930266854 0  1.062498035740633 0.624999773880399 0  1.124998025541766 0.6249996255268631 0  1.187498038371176 0.6249994880225692 0  1.249998073107688 0.6249993648432255 0  1.312498128389851 0.6249992594884325 0  1.374998201806926 0.6249991748809669 0  1.437498290363424 0.624999114894294 0  1.499998390998207 0.6249990837156705 0  1.562498500188533 0.6249990845084967 0  1.624998614444522 0.6249991192707006 0  1.687498730040574 0.6249991871833797 0  1.749998841567974 0.6249992845745825 0  1.812498941884218 0.6249994080805651 0  1.874999021461783 0.6249995574374483 0  1.937499066931029 0.6249997439617138 0  1.999999075405494 0.6249999945993385 0  0.06249923229605256 0.687500346978159 0  -7.666992645108387e-07 0.6875001886713805 0  0.1249992220625444 0.6875004916617744 0  0.1874991987506961 0.6875006207128405 0  0.2499991623904913 0.6875007327290397 0  0.3124991143275261 0.687500822745637 0  0.3749990552973629 0.6875008834970177 0  0.4374989853753286 0.6875009089573696 0  0.4999989050659412 0.6875008968747727 0  0.5624988161774169 0.6875008491101378 0  0.6249987220121426 0.6875007703448897 0  0.6874986267623262 0.6875006662972387 0  0.7499985347160061 0.6875005427044885 0  0.812498449847822 0.6875004049455035 0  0.8749983755109879 0.6875002578284642 0  0.9374983142650217 0.6875001057462813 0  0.9999982679659821 0.6874999529282035 0  1.062498237884739 0.6874998033759016 0  1.124998224655826 0.6874996606680185 0  1.187498228149691 0.6874995280568822 0  1.249998247592825 0.6874994088014376 0  1.312498281729345 0.6874993061354617 0  1.374998328710099 0.6874992231782585 0  1.437498386214082 0.687499163159586 0  1.49999845171412 0.6874991291869863 0  1.562498522502175 0.6874991236228046 0  1.624998595695713 0.6874991475725983 0  1.687498668003024 0.6874992003954624 0  1.749998735155757 0.6874992799350031 0  1.812498791713307 0.6874993838756628 0  1.874998831516617 0.6874995114429623 0  1.937498850356898 0.687499663909465 0  1.999998853463662 0.6874998338692045 0  0.06249909725726979 0.7500004069959147 0  -9.022729823578617e-07 0.7500002919929825 0  0.1249990917502145 0.7500005208167175 0  0.1874990782251338 0.7500006256689721 0  0.2499990559088967 0.7500007166206697 0  0.3124990252126775 0.7500007885253683 0  0.3749989866081109 0.7500008358939315 0  0.4374989403019715 0.7500008542755944 0  0.499998886614172 0.7500008415780746 0  0.5624988265008144 0.7500007984540106 0  0.6249987617987189 0.7500007277625828 0  0.6874986950579535 0.7500006336333268 0  0.7499986291559846 0.7500005206878393 0  0.8124985669461415 0.7500003935743387 0  0.8749985109864012 0.7500002567398681 0  0.9374984633724496 0.7500001143957746 0  0.9999984256973837 0.7499999705570948 0  1.062498399060153 0.7499998290201114 0  1.124998384039133 0.7499996933102717 0  1.187498380653611 0.7499995667196572 0  1.249998388398046 0.7499994524054994 0  1.312498406311192 0.7499993534127934 0  1.374998433009218 0.7499992726537545 0  1.437498466774305 0.7499992128784575 0  1.499998505688872 0.7499991764846877 0  1.562498547695105 0.7499991651636163 0  1.624998590567996 0.7499991795403731 0  1.687498631785716 0.7499992189503956 0  1.749998668375784 0.7499992815505995 0  1.812498697072872 0.749999364723107 0  1.874998715196826 0.7499994650823739 0  1.937498722647356 0.7499995763507423 0  1.999998723831095 0.7499996821383391 0  0.06249900740293302 0.8125004671293059 0  -9.924293909242384e-07 0.8125003889550316 0  0.1249990047515967 0.8125005514368178 0  0.1874989976716437 0.8125006322988684 0  0.2499989852042187 0.8125007031140312 0  0.312498967162171 0.8125007584201096 0  0.3749989436000483 0.8125007934408798 0  0.437498914552076 0.8125008045205407 0  0.4999988801364136 0.8125007897211837 0  0.5624988408195808 0.8125007490625542 0  0.6249987975981214 0.8125006842887358 0  0.6874987519799114 0.8125005983547539 0  0.7499987058077413 0.812500494897068 0  0.8124986610329445 0.8125003778338997 0  0.8749986195094515 0.8125002511207027 0  0.9374985828451444 0.8125001186328067 0  0.9999985523210012 0.812499984115392 0  1.06249852885168 0.8124998511453742 0  1.124998512955669 0.8124997231013229 0  1.187498504736819 0.8124996031656472 0  1.249998503898456 0.8124994943459656 0  1.312498509784007 0.8124993994744657 0  1.374998521428509 0.8124993211727591 0  1.437498537631914 0.8124992617700666 0  1.499998557042339 0.8124992231389643 0  1.562498578208147 0.8124992064562958 0  1.624998599583195 0.8124992119558084 0  1.687498619506897 0.8124992387496353 0  1.749998636248022 0.8124992847480828 0  1.812498648280944 0.8124993465226367 0  1.87499865492298 0.8124994186328699 0  1.93749865713611 0.8124994916884262 0  1.999998657469803 0.8124995488046309 0  0.06249895332485959 0.8750005240171052 0  -1.046683594699869e-06 0.8750004760414972 0  0.1249989523781856 0.8750005820205574 0  0.1874989493707401 0.8750006405538022 0  0.2499989434622143 0.8750006925966709 0  0.3124989341909352 0.8750007326156566 0  0.3749989212987215 0.8750007561801338 0  0.4374989045968425 0.8750007600343115 0  0.4999988839921558 0.8750007423240823 0  0.5624988596161589 0.8750007027012193 0  0.6249988319397715 0.8750006421972165 0  0.6874988017948543 0.87500056292215 0  0.7499987702976443 0.8750004677105043 0  0.8124987387164351 0.8750003598101198 0  0.8749987083299363 0.8750002426549215 0  0.9374986803083071 0.8750001197192083 0  0.9999986556296523 0.8749999944280581 0  1.062498635026596 0.8749998700975243 0  1.124998618952442 0.8749997498938337 0  1.187498607565399 0.8749996368100603 0  1.249998600735534 0.8749995336500923 0  1.312498598073271 0.8749994430012237 0  1.374998598974321 0.8749993671805202 0  1.437498602677711 0.8749993081421319 0  1.499998608326754 0.8749992673352776 0  1.56249861501731 0.8749992455209257 0  1.624998621830002 0.8749992425751785 0  1.687498627868562 0.8749992573032871 0  1.749998632356041 0.8749992872411102 0  1.812498634844164 0.8749993283215773 0  1.874998635504784 0.8749993741835901 0  1.937498635251745 0.8749994149756373 0  1.999998635209896 0.8749994358741726 0  0.06249892707773805 0.9375005758554911 0  -1.073030038642106e-06 0.9375005520835511 0  0.1249989271159434 0.9375006113482912 0  0.1874989265818672 0.9375006499631273 0  0.2499989248533644 0.9375006849708224 0  0.3124989214018833 0.9375007110435101 0  0.3749989157982463 0.9375007240252263 0  0.4374989076814157 0.9375007209019884 0  0.4999988967799547 0.9375006998646137 0  0.5624988829833121 0.9375006603307939 0  0.624998866413688 0.9375006028552324 0  0.6874988474535901 0.
[...]
<PointData  Scalars="p"> 
<DataArray  type="Float64"  Name="p"  format="ascii">0.0000000000000000e+00  -7.4561679569142795e-04  -7.7925634765829807e-04  0.0000000000000000e+00  -1.3102445540495867e-03  -1.3292835282484382e-03  -1.7127937399418105e-03  -1.7125768481139922e-03  -1.9782407049307245e-03  -1.9627358792150343e-03  -2.1287656314355418e-03  -2.1029555390166543e-03  -2.1830500615417710e-03  -2.1511591901484705e-03  -2.1564325820972769e-03  -2.1218658014113736e-03  -2.0620180409349894e-03  -2.0273700437590286e-03  -1.9112652368260042e-03  -1.8784380957023968e-03  -1.7142369123025437e-03  -1.6845983710143890e-03  -1.4798737587845671e-03  -1.4543401135355487e-03  -1.2159287836379785e-03  -1.1951654687864747e-03  -9.2931420608680722e-04  -9.1378734087644762e-04  -6.2639124242853364e-04  -6.1636320626359180e-04  -3.1296080648733545e-04  -3.0857003029441193e-04  5.5630730748336292e-06  4.2831021206294825e-06  3.2415154509804901e-04  3.1715105732918431e-04  6.3761230916984616e-04  6.2491612215214570e-04  9.4022516767368824e-04  9.2211667224669413e-04  1.2263793587206481e-03  1.2031375327290997e-03  1.4898182389596368e-03  1.4618992879440402e-03  1.7233573199627367e-03  1.6915932257403911e-03  1.9194933640063537e-03  1.8848825909168173e-03  2.0696390029167015e-03  2.0335805937778595e-03  2.1637776326575357e-03  2.1283432427979692e-03  2.1909826704723319e-03  2.1587699385442016e-03  2.1384125458871368e-03  2.1128270719521390e-03  1.9905006520802983e-03  1.9759822998163708e-03  1.7287500726182580e-03  1.7301655947557454e-03  1.3299658558891159e-03  1.3507319214980807e-03  7.6540874702837208e-04  7.9912684805711514e-04  0.0000000000000000e+00  0.0000000000000000e+00  -8.4338399019377643e-04  0.0000000000000000e+00  -1.3805538617834645e-03  -1.7310294717651070e-03  -1.9496332176295286e-03  -2.0656709363917817e-03  -2.0977400421475934e-03  -2.0594327035540496e-03  -1.9617422620257616e-03  -1.8141375494489481e-03  -1.6250218976483885e-03  -1.4019535137271149e-03  -1.1517459524408929e-03  -8.8058950531928119e-04  -5.9419482906402710e-04  -2.9788954261835511e-04  3.2869523176675795e-06  3.0446281030850934e-04  6.0073614203497671e-04  8.8701282142734201e-04  1.1579774031438216e-03  1.4079490853908276e-03  1.6307462190574961e-03  1.8196711222617425e-03  1.9673640989908625e-03  2.0656233385338446e-03  2.1052354542527704e-03  2.0754124352067422e-03  1.9625892245280934e-03  1.7478155137118331e-03  1.4002146767611307e-03  8.6059818032789592e-04  0.0000000000000000e+00  -9.1241068538383454e-04  0.0000000000000000e+00  -1.4501204031774260e-03  -1.7734904633438470e-03  -1.9594866974439202e-03  -2.0469657827066430e-03  -2.0576400544046721e-03  -2.0054030070252842e-03  -1.9004583130630096e-03  -1.7511375910671076e-03  -1.5646933288242532e-03  -1.3476552895336968e-03  -1.1059840908286829e-03  -8.4517245059706491e-04  -5.7034653920769564e-04  -2.8634913421400176e-04  2.1830559833378061e-06  2.9072456165308793e-04  5.7473863660761155e-04  8.4957035016467656e-04  1.1103780962245533e-03  1.3520508644097535e-03  1.5691243836288477e-03  1.7557225701511755e-03  1.9054545095676984e-03  2.0112345664266467e-03  2.0649269392345394e-03  2.0564947171648361e-03  1.9720593081789485e-03  1.7895123170192247e-03  1.4685206217905733e-03  9.2828114988850459e-04  0.0000000000000000e+00  -9.8415977049065529e-04  0.0000000000000000e+00  -1.5334725081758425e-03  -1.8388076012666379e-03  -1.9965049000185337e-03  -2.0557974002475576e-03  -2.0430557386406996e-03  -1.9737059850396151e-03  -1.8579463674603897e-03  -1.7034242870576732e-03  -1.5164742871087503e-03  -1.3026919200111470e-03  -1.0671827415932233e-03  -8.1468924101079840e-04  -5.4968589158333012e-04  -2.7644952294592805e-04  8.8260806240759241e-07  2.7824692651464751e-04  5.5157622549817755e-04  8.1672634430584332e-04  1.0694212132969945e-03  1.3051943365488114e-03  1.5193278673903581e-03  1.7067779221572852e-03  1.8620516508076571e-03  1.9789494136178238e-03  2.0499852723292818e-03  2.0651048449158950e-03  2.0088885152760505e-03  1.8545744235927569e-03  1.5515255424839547e-03  9.9973438274809467e-04  0.0000000000000000e+00  -1.0614063280691896e-03  0.0000000000000000e+00  -1.6307336559972319e-03  -1.9256412079616313e-03  -2.0598338856454785e-03  -2.0927614161801483e-03  -2.0561345335190421e-03  -1.9677207197842479e-03  -1.8383696299908020e-03  -1.6755047536725185e-03  -1.4848344405283395e-03  -1.2711846477109002e-03  -1.0388796163519200e-03  -7.9192702222676036e-04  -5.3413149757962331e-04  -2.6916327529148432e-04  -6.0185419951837177e-07  2.6802079416467087e-04  5.3317057962296878e-04  7.9126535929198286e-04  1.0386336500489166e-03  1.2714752532770033e-03  1.4857976505127681e-03  1.6773199553222432e-03  1.8412958517863140e-03  1.9721284885603554e-03  2.0625339791526818e-03  2.1017937535020310e-03  2.0721454342213456e-03  1.9414937062541230e-03  1.6490001494344634e-03  1.0772624068844537e-03  0.0000000000000000e+00  -1.1472032232621642e-03  0.0000000000000000e+00  -1.7432396962121807e-03  -2.0330529817264012e-03  -2.1472720009946991e-03  -2.1554386998121236e-03  -2.0948668345156813e-03  -1.9860919557280442e-03  -1.8410352128400891e-03  -1.6672362597447490e-03  -1.4700212090637216e-03  -1.2536056688828511e-03  -1.0216247479841059e-03  -7.7739479727321277e-04  -5.2406133575560033e-04  -2.6467572022185695e-04  -2.2321770078946181e-06  2.6030401840550585e-04  5.1996641375797478e-04  7.7375722101789097e-04  1.0186230950067496e-03  1.2514165533153094e-03  1.4688284635868533e-03  1.6672522349566526e-03  1.8425325058576249e-03  1.9894378851253829e-03  2.1005547156945246e-03  2.1640848179667305e-03  2.1595008003435800e-03  2.0491130569249148e-03  1.7619776906982419e-03  1.1636388462825955e-03  0.0000000000000000e+00  -1.2437159876022223e-03  0.0000000000000000e+00  -1.8719510802009450e-03  -2.1599526712392388e-03  -2.2561247189351518e-03  -2.2403171993888899e-03  -2.1555897901626687e-03  -2.0254316174224364e-03  -1.8630429458245026e-03  -1.6762712380169326e-03  -1.4702170731039092e-03  -1.2486014537010288e-03  -1.0144485471682261e-03  -7.7043073281332208e-04  -5.1905755611828723e-04  -2.6276776222874986e-04  -3.9649620099828105e-06  2.5496349908729713e-04  5.1162821152790010e-04  7.6362140351313493e-04  1.0084975411360454e-03  1.2437413817295662e-03  1.4666774415401911e-03  1.6742973658496313e-03  1.8629252278275759e-03  2.0275388410734710e-03  2.1604060244068235e-03  2.2484490651711506e-03  2.2681947560419789e-03  2.1762224877520226e-03  1.8912621814561421e-03  1.2608960542723287e-03  0.0000000000000000e+00  -1.3518975757119969e-03  0.0000000000000000e+00  -2.0167143647082629e-03  -2.3045056226289789e-03  -2.3831361548832487e-03  -2.3432888083536807e-03  -2.2339027090621882e-03  -2.0814684645714503e-03  -1.9005130058659212e-03  -1.6992546432974117e-03  -1.4826342661627668e-03  -1.2539400597912432e-03  -1.0156368122619173e-03  -7.6979125355208149e-04  -5.1830381503021336e-04  -2.6301754458710690e-04  -5.7556449708111728e-06  2.5166556935195787e-04  5.0742747886968194e-04  7.5969978997137506e-04  1.0066298749709071e-03  1.2463029593231569e-03  1.4766424384390010e-03  1.6951858741023535e-03  1.8986741463631524e-03  2.0822313044369331e-03  2.2377450203656664e-03  2.3508110617708917e-03  2.3949751212515623e-03  2.3209585840038242e-03  2.0366440176493241e-03  1.3699281894708250e-03  0.0000000000000000e+00  -1.4713250101479082e-03  0.0000000000000000e+00  -2.1758453666427075e-03  -2.4636608556834320e-03  -2.5241894218789598e-03  -2.4596217262727667e-03  -2.3249002569119695e-03  -2.1494660713464531e-03  -1.9491103993385778e-03  -1.7323819176872696e-03  -1.5040546114210925e-03  -1.2669967152499756e-03  -1.0231374173369178e-03  -7.7396540658178955e-04  -5.2079838008308561e-04  -2.6490782771251077e-04  -7.5582142763191116e-06  2.4998512987167877e-04  5.0645360757553049e-04  7.6057380625901751e-04  1.0110586766309520e-03  1.2565708695523896e-03  1.4955992815322617e-03  1.7262073760908540e-03  1.9455394564887553e-03  2.1488700374810809e-03  2.3277482433618187e-03  2.4665108464810145e-03  2.5357721710986950e-03  2.4802890445967001e-03  2.1964212413426196e-03  1.4902731653907470e-03  0.0000000000000000e+00  -1.6000476014043283e-03  0.0000000000000000e+00  -2.3458346603241311e-03  -2.6328057468196840e-03  -2.6740184165682619e-03  -2.5838102523408043e-03  -2.4231671419802795e-03  -2.2243494221956552e-03  -2.0042553449039825e-03  -1.7716573514815921e-03  -1.5310988992526160e-03  -1.2850072908972120e-03  -1.0347802675266529e-03  -7.8134825153651076e-04  -5.2547365922494063e-04  -2.6788703881526135e-04  -9.3255942212375430e-06  2.4946454652443679e-04  5.0773341394899239e-04  7.6473198346254810e-04  1.0197099626786475e-03  1.2718755440654659e-03  1.5202682282299423e-03  1.7634656385764713e-03  1.9990411791874206e-03  2.2224800129884295e-03  2.4250979102888918e-03  2.5901261243479923e-03  2.6853864255089372e-03  2.6496262113520938e-03  2.3670627405355691e-03  1.6199207306811911e-03  0.0000000000000000e+00  -1.7344330455290812e-03  0.0000000000000000e+00  -2.5211372764056853e-03  -2.8055422598953586e-03  -2.8260290666301045e-03  -2.7094582977704547e-03  -2.5227551234260561e-03  -2.3007493546184370e-03  -2.0612316997803124e-03  -1.8130333193702836e-03  -1.5603807023408991e-03  -1.3052179376119072e-03  -1.0484100641750436e-03  -7.9034833698551725e-04  -5.3127259334608240e-04  -2.7141114679456619e-04  -1.1015743802475624e-05  2.4964405213741796e-04  5.1029394310775854e-04  7.7066803027882346e-04  1.0305126237046493e-03  1.2895516523530035e-03  1.5473494727211532e-03  1.8030068843189586e-03  2.0545555642762815e-03  2.2977872051570770e-03  2.5239356127876346e-03  2.7153436253049544e-03  2.8372762325447544e-03  2.8225829962231046e-03  2.5429661898000791e-03  1.7551395110796660e-03  0.0000000000000000e+00  -1.8690532363574758e-03  0.0000000000000000e+00  -2.6940599951077071e-03  -2.9736116210150303e-03  -2.9722485536632297e-03  -2.8292799163220621e-03  -2.6172084668450507e-03  -2.3730763336205869e-03  -2.1152744736670313e-03  -1.8525201318481898e-03  -1.5886147366512132e-03  -1.3249895059996165e-03  -1.0619772519212831e-03  -7.9946156165652663e-04  -5.3720201366774171e-04  -2.7497512050531032e-04  -1.2600118125896436e-05  2.5007565212961430e-04  5.1319947202440631e-04  7.7693511151076631e-04  1.0414762993765083e-03  1.3070177031447043e-03  1.5736227218533121e-03  1.8409024613904950e-03  2.1073912177281889e-03  2.3692700990890951e-03  2.6178780817219830e-03  2.8349322017812029e-03  2.9834980618988235e-03  2.9908703069342125e-03  2.7163346254750254e-03  1.8903484267038197e-03  0.0000000000000000e+00  -1.9966605346142356e-03  0.0000000000000000e+00  -2.8548043642167235e-03  -3.1269830527798997e-03  -3.1034495005679698e-03  -2.9352194153508598e-03  -2.6996971457177205e-03  -2.4356296916017749e-03  -2.1616874952169944e-03  -1.8862773962303255e-03  -1.6127067247022674e-03  -1.3418685333231582e-03  -1.0735981035547573e-03  -8.0731635260789273e-04  -5.4236469717273267e-04  -2.7813130837454046e-04  -1.4069024438910899e-05  2.5033116757916692e-04  5.1557190787355274e-04  7.8218122252810137e-04  1.0507352983482069e-03  1.3218415004861040e-03  1.5960100110493447e-03  1.8733407996118460e-03  2.1528722489718381e-03  2.4312645387011863e-03  2.7001200702224098e-03  2.9408549499430649e-03  3.1148053381334778e-03  3.1443779227494843e-03  2.8772059823305497e-03  2.0180918082204893e-03  0.0000000000000000e+00  -2.1083215345280796e-03  0.0000000000000000e+00  -2.9917205388712495e-03  -3.2541690259319882e-03  -3.2094671289021044e-03  -3.0187438406244333e-03  -2.7632530178637277e-03  -2.4827982328625747e-03  -2.1959762860126594e-03  -1.9107300165767155e-03  -1.6298203444200870e-03  -1.3536433509265808e-03  -1.0815880792441953e-03  -8.1269799113475177e-04  -5.4597393939524058e-04  -2.8049808456458511e-04  -1.5434643872781435e-05  2.5000413767351551e-04  5.1659925918507419e-04  7.8516398170432359e-04  1.0565775810811350e-03  1.3317773396648868e-03  1.6116471849693824e-03  1.8967071197584337e-03  2.1864793080231572e-03  2.4781232942175636e-03  2.7636647549357826e-03  3.0245335055263246e-03  3.2209579829770270e-03  3.2714848222077492e-03  3.0137154755906434e-03  2.1291867869791346e-03  0.0000000000000000e+00  -2.1937653188970180e-03  0.0000000000000000e+00  -3.0918311818277757e-03  -3.3427974117241519e-03  -3.2797292187385137e-03  -3.0712935311771944e-03  -2.8011205896375387e-03  -2.5093089046021888e-03  -2.2140293405459944e-03  -1.9226599951716139e-03  -1.6374471519354302e-03  -1.3583641497278724e-03  -1.0844752645991888e-03  -8.1454751603731790e-04  -5.4735215810943687e-04  -2.8175838928939299e-04  -1.6732779156367865e-05  2.4870565919623969e-04  5.1552955056328358e-04  7.8474849109005094e-04  1.0574474607242981e-03  1.3347928266514888e-03  1.6179279461521520e-03  1.9076925313436122e-03  2.2039947197897481e-03  2.5044719688420950e-03  2.8016498127497011e-03  3.0772944713315467e-03  3.2912528018624512e-03  3.3596424667018893e-03  3.1126479021384187e-03  2.2131000602727538e-03  0.0000000000000000e+00  -2.2419665759554914e-03  0.0000000000000000e+00  -3.1416261362907697e-03  -3.3803993292215672e-03  -3.3039331210650818e-03  -3.0847899138642708e-03  -2.8071082192425694e-03  -2.5104265876502280e-03  -2.2122019192675050e-03  -1.9192275437181425e-03  -1.6333513739362224e-03  -1.3542869601673641e-03  -1.0809201964654932e-03  -8.1189692260270885e-04  -5.4587571728885811e-04  -2.8162537693975299e-04  -1.8008764332184984e-05  2.4605664471975385e-04  5.1164522297744448e-04  7.7986529451757160e-04  1.0519020489663927e-03  1.3290233749860571e-03  1.6124960720659083e-03  1.9033140863999574e-03  2.2016241368604337e-03  2.5054145780244327e-03  2.8077120431970505e-03  3.0908865541009168e-03  3.3152023528918340e-03  3.3961754089963953e-03  3.1602496030397670e-03  2.2585594160099308e-03  0.0000000000000000e+00  -2.2419323682338404e-03  0.0000000000000000e+00  -3.1280436792771944e-03  -3.3552976366238284e-03  -3.2727130895052032e-03  -3.0520487457457598e-03  -2.7757557541374586e-03  -2.4819459641010067e-03  -2.1871663397316993e-03  -1.8977410280358346e-03  -1.6153277594448592e-03  -1.3396064004240382e-03  -1.0694944349422934e-03  -8.0367373382764934e-04  -5.4083550081717596e-04  -2.7975393926082384e-04  -1.9286974401308712e-05  2.4166290937527378e-04  5.0418215289771266e-04  7.6938351463221434e-04  1.0384378887770514e-03  1.3125840503130516e-03  1.5930382697859631e-03  1.8807562923513343e-03  2.1758896250080161e-03  2.4765642891970176e-03  2.7761930393698162e-03  3.0579094671577215e-03  3.2832193415179654e-03  3.3691867108903823e-03  3.1432366123959202e-03  2.2543770332569494e-03  0.0000000000000000e+00  -2.1835930128180979e-03  0.0000000000000000e+00  -3.0394729762916331e-03  -3.2573710605067552e-03  -3.1780326181422526e-03  -2.9668063286442800e-03  -2.7020564411698996e-03  -2.4196940652979619e-03  -2.1353141422368726e-03  -1.8550107621111440e-03  -1.5805658146572331e-03  -1.3119018740270056e-03  -1.0481888908888560e-03  -7.8832656400763953e-04  -5.3116188409035067e-04  -2.7558373353943122e-04  -2.0526635823203546e-05  2.3504226779879418e-04  4.9214549001293153e-04  7.5181203046063914e-04  1.0150986761002481e-03  1.2830771022478687e-03  1.5567468782991495e-03  1.8367930237544951e-03  2.1230978889292909e-03  2.4136210687649797e-03  2.7019076733746875e-03  2.9718855841972093e-03  3.1870459003106861e-03  3.2683492444391692e-03  3.0498351295661238e-03  2.1903774681608125e-03  0.0000000000000000e+00  -2.0585385064278441e-03  0.0000000000000000e+00  -2.8663547147059253e-03  -3.0781526147908240e-03  -3.0126922889037490e-03  -2.8227118436125673e-03  -2.5801083505582593e-03  -2.3180024641725125e-03  -2.0511813868925241e-03  -1.7858640081362225e-03  -1.5243064886952113e-03  -1.2669642940593166e-03  -1.0134697354780744e-03  -7.6308150051219005e-04  -5.1491555924245260e-04  -2.6804819698987380e-04  -2.1559000528183926e-05  2.2546456436689096e-04  4.7392044232471442e-04  7.2469142210535866e-04  9.7863574517579894e-04  1.2365563767571352e-03  1.4990792314817797e-03  1.7664131852908713e-03  2.0378854384999843e-03  2.3109310788837680e-03  2.5788830514149636e-03  2.8263217706351101e-03  3.0192973838793994e-03  3.0850299365612569e-03  2.8703996579451671e-03  2.0581520238505120e-03  0.0000000000000000e+00  -1.8601041666347013e-03  0.0000000000000000e+00  -2.6005275882801104e-03  -2.8091512318210070e-03  -2.7677209490857089e-03  -2.6100753209030857e-03  -2.3995493358785632e-03  -2.1661383467173143e-03  -1.9240797909934589e-03  -1.6800836062624035e-03  -1.4371842130849182e-03  -1.1965722804768975e-03  -9.5847329677175891e-04  -7.2259015251634575e-04  -4.8835487794627490e-04  -2.5507702547648234e-04  -2.2012073414392260e-05  2.1159612684636966e-04  4.4648980115432073e-04  6.8336719043669109e-04  9.2285063817510100e-04  1.1654124008698538e-03  1.4112247707860782e-03  1.6598828977546800e-03  1.9099472722175135e-03  2.1580344823358207e-03  2.3969047661671042e-03  2.6115486090706849e-03  2.7709424211772682e-03  2.8106865928671080e-03  2.5968143267102281e-03  1.8511783559958090e-03  0.0000000000000000e+00  -1.5818192931105403e-03  0.0000000000000000e+00  -2.2315753391379191e-03  -2.4361734707237701e-03  -2.4252546698854400e-03  -2.3080736412728034e-03  -2.1377449507060482e-03  -1.9409147319859811e-03  -1.7314066170016637e-03  -1.5165536683387996e-03  -1.3002256263404462e-03  -1.0843521063318936e-03  -8.6972378483421008e-04  -6.5645525423531272e-04  -4.4427934361616179e-04  -2.3272698607190582e-04  -2.1236931173334022e-05  1.9078359300100302e-04  4.0390962192383739e-04  6.1865494809853648e-04  8.3540964516196060e-04  1.0543388235087138e-03  1.2751840139846500e-03  1.4969506968830716e-03  1.7174323957992589e-03  1.9323626621880060e-03  2.1338097392773290e-03  2.3070830741871587e-03  2.4243771941809943e-03  2.4314028865886745e-03  2.2190640596484383e-03  1.5634346010589405e-03  0.0000000000000000e+00  -1.2118946591293273e-03  0.0000000000000000e+00  -1.7360670741419935e-03  -1.9246890601352148e-03  -1.9419478810443834e-03  -1.8678898134042057e-03  -1.7437966020281716e-03  -1.5921810304860345e-03  -1.4258517009856687e-03  -1.2522290502767555e-03  -1.0755575767113193e-03  -8.9814019224567084e-04  -7.2107406290232185e-04  -5.4471823385611972e-04  -3.6900547875499403e-04  -1.9364519832064695e-04  -1.8241078489571373e-05  1.5763563022211548e-04  3.3439817021955304e-04  5.1239365834637263e-04  6.9183638666059680e-04  8.7268504104785630e-04  1.0544296337559390e-03  1.2357561980621255e-03  1.4140611116703152e-03  1.5846742496145795e-03  1.7395433337058820e-03  1.8649608916741086e-03  1.9372302817087616e-03  1.9139060671704690e-03  1.7153442314209108e-03  1.1846868477383959e-03  0.0000000000000000e+00  -7.1758413260552905e-04  0.0000000000000000e+00  -1.0499524581459930e-03  -1.1857092387058340e-03  -1.2132453157170757e-03  -1.1785166476618004e-03  -1.1074145579232954e-03  -1.0153107867010233e-03  -9.1154624998690526e-04  -8.0177046911482028e-04  -6.8929498398526221e-04  -5.7594119262484886e-04  -4.6259234353729389e-04  -3.4956459967159522e-04  -2.3685618582556595e-04  -1.2430415447999316e-04  -1.1676923887616489e-05  1.0127679717827692e-04  2.1479608836107874e-04  3.2907778616103156e-04  4.4422576805472049e-04  5.6015808269038823e-04  6.7643553560604159e-04  7.9199473329776276e-04  9.0476063049118520e-04  1.0110549858940068e-03  1.1046902249499441e-03  1.1755721887758042e-03  1.2073464986740211e-03  1.1731482666309887e-03  1.0273406216363909e-03  6.8828146114842175e-04  0.0000000000000000e+00  0.0000000000000000e+00  0.0000000000000000e+00  0.0000000000000000e+00  0.0000000000000000e+00  0.0000000000000000e+00  0.0000000000000000e+00  0.0000000000000000e+00  0.0000000000000000e+00  0.0000000000000000e+00  0.0000000000000000e+00  0.0000000000000000e+00  0.0000000000000000e+00  0.0000000000000000e+00  0.0000000000000000e+00  0.0000000000000000e+00  0.0000000000000000e+00  0.0000000000000000e+00  0.0000000000000000e+00  0.0000000000000000e+00  0.0000000000000000e+00  0.0000000000000000e+00  0.0000000000000000e+00  0.0000