<?xml version="1.0"?>
<VTKFile type="UnstructuredGrid"  version="0.1"  >
<UnstructuredGrid>
<Piece  NumberOfPoints="825" NumberOfCells="1536">
<Points>
<DataArray  type="Float64"  NumberOfComponents="3"  format="ascii">1.480335566347746e-22 0.5 0  0.06249999725794293 0.5000001740167263 0  0.06249977356197602 0.5625001943775642 0  -2.219973213090687e-07 0.5625000155758628 0  0.1249999775006507 0.500000321375676 0  0.1249997550407098 0.562500338882679 0  0.1874999382100728 0.5000004669354965 0  0.1874997197585338 0.5625004728625115 0  0.2499998891182847 0.5000006353315654 0  0.2499996693311965 0.5625005983866767 0  0.3124997942766786 0.5000007421580532 0  0.3124996007893435 0.5625006945341029 0  0.3749996570601444 0.5000007909485035 0  0.3749995088517711 0.5625007538152316 0  0.4374995155757925 0.5000008436538748 0  0.4374993978234838 0.5625007818859026 0  0.4999993217471311 0.5000008085132709 0  0.4999992708314233 0.562500765397534 0  0.5624991038055192 0.5000007215297446 0  0.5624991297499764 0.5625007100889293 0  0.6249989271030753 0.5000006709006718 0  0.6249989878966339 0.5625006335803594 0  0.6874987249448102 0.500000529337022 0  0.6874988513165817 0.5625005235695556 0  0.7499985345562028 0.5000003651235589 0  0.7499987206944465 0.5625003914978172 0  0.812498407337313 0.5000002528759968 0  0.8124986078524502 0.5625002596675938 0  0.874998287546958 0.5000001004447829 0  0.8749985175239606 0.5625001190681406 0  0.9374981825122884 0.4999999233146031 0  0.937498446799748 0.5624999724016773 0  0.9999981509886023 0.4999998144692922 0  0.9999984021237514 0.5624998385249921 0  1.062498131075111 0.4999996748390291 0  1.062498385336134 0.5624997076385944 0  1.124998129015316 0.4999995224177884 0  1.124998390812484 0.5624995818960749 0  1.187498199581053 0.4999994482846817 0  1.187498422479588 0.5624994795048306 0  1.249998277750862 0.4999993525148391 0  1.249998479674678 0.5624993900862775 0  1.312498367693679 0.4999992540973061 0  1.312498554571626 0.562499315841681 0  1.374998522867142 0.4999992454812489 0  1.374998649292121 0.5624992753815097 0  1.437498676631046 0.4999992278143541 0  1.437498761624623 0.5624992585561026 0  1.499998831222273 0.4999992209403717 0  1.499998882419053 0.5624992667191629 0  1.56249903710089 0.4999993133318446 0  1.562499012503663 0.5624993151926755 0  1.624999225169574 0.4999993997456846 0  1.624999148442204 0.5624993881879273 0  1.687499395342745 0.4999994896774686 0  1.687499279769309 0.5624994789656699 0  1.749999594140988 0.4999996559116559 0  1.749999405402408 0.5624995935543915 0  1.812499749539109 0.4999997829649279 0  1.812499519951404 0.5624997090898286 0  1.874999858438914 0.4999998711728029 0  1.874999611427789 0.5624998160169451 0  1.937499960119486 0.4999999786097871 0  1.937499676339516 0.5624999318079604 0  2 0.5 0  1.999999699626054 0.5625001264346671 0  0.06249959088199622 0.6250002282008805 0  -4.077583054158779e-07 0.6250000784319536 0  0.1249995786119797 0.6250003573388258 0  0.1874995531561782 0.6250004736730919 0  0.2499995156038904 0.6250005765898925 0  0.3124994657022552 0.6250006577606168 0  0.3749994016886499 0.6250007105962009 0  0.437499324823726 0.6250007324648312 0  0.4999992372025608 0.6250007201671989 0  0.5624991406939492 0.6250006752818035 0  0.6249990410019727 0.6250006032921939 0  0.6874989429417659 0.6250005063645993 0  0.7499988489946133 0.6250003904385433 0  0.8124987647501412 0.6250002648315648 0  0.8749986946549351 0.6250001327705429 0  0.937498639615435 0.624999997817189 0  0.9999986022319169 0.6249998664925523 0  1.062498584248 0.6249997407868384 0  1.124998584173809 0.6249996234359514 0  1.187498602430743 0.6249995203129718 0  1.249998638690174 0.6249994328580076 0  1.312498689578114 0.6249993634876769 0  1.374998753924088 0.6249993178496445 0  1.437498830138157 0.6249992968464303 0  1.499998913919097 0.62499930142119 0  1.562499003367672 0.6249993342184565 0  1.624999096180027 0.6249993914722149 0  1.68749918713287 0.6249994681620112 0  1.749999272891862 0.6249995608793082 0  1.81249934912765 0.6249996619163183 0  1.874999407717541 0.6249997680301552 0  1.937499441120087 0.6249998921488636 0  1.999999448177894 0.6250000660032022 0  0.06249945310954575 0.6875002697138083 0  -5.46285138144487e-07 0.6875001545252394 0  0.1249994459851811 0.6875003769117837 0  0.1874994298390723 0.6875004741616804 0  0.2499994046560444 0.6875005586431442 0  0.3124993706002466 0.6875006251133716 0  0.3749993274545921 0.6875006684832359 0  0.4374992756923161 0.687500685292825 0  0.499999216359781 0.6875006736337819 0  0.5624991509723561 0.687500634068119 0  0.6249990822538994 0.6875005692314908 0  0.6874990131278964 0.6875004824390304 0  0.7499989461830096 0.6875003784285297 0  0.8124988846728025 0.6875002628668822 0  0.8749988315978654 0.6875001402845918 0  0.9374987888332408 0.687500014818503 0  0.9999987580528833 0.6874998907946056 0  1.06249874036496 0.6874997716435047 0  1.124998735768151 0.6874996606782187 0  1.187498744159385 0.687499561540091 0  1.249998764979571 0.68749947705113 0  1.312498796721317 0.6874994099643605 0  1.374998838014618 0.6874993632806662 0  1.437498887324592 0.6874993388228916 0  1.499998942446805 0.6874993376176266 0  1.562499001479245 0.6874993599196462 0  1.624999062330143 0.6874994037745868 0  1.687499121983634 0.6874994658154374 0  1.749999177252618 0.6874995422604856 0  1.812499224206998 0.6874996290939429 0  1.874999257728983 0.6874997252030323 0  1.937499274252102 0.687499835487995 0  1.999999277203594 0.687499964930229 0  0.06249935592056131 0.7500003141938772 0  -6.438145854549266e-07 0.750000231046869 0  0.1249993521241242 0.7500003977910767 0  0.1874993428102725 0.7500004756790467 0  0.2499993274033111 0.7500005433023521 0  0.3124993058721206 0.750000596052294 0  0.3749992782466233 0.7500006296938346 0  0.437499244753546 0.7500006410740961 0  0.4999992059109384 0.7500006285050546 0  0.5624991626197425 0.750000592034037 0  0.6249991163139317 0.7500005332773366 0  0.6874990687409254 0.7500004550041901 0  0.7499990217907586 0.7500003609662002 0  0.8124989775788245 0.7500002554549798 0  0.8749989381515871 0.7500001426488904 0  0.9374989051566832 0.7500000265211534 0  0.9999988798944205 0.7499999108799359 0  1.062498863227934 0.7499997992156667 0  1.124998855479489 0.7499996948203274 0  1.187498856615677 0.7499996008454961 0  1.249998866229622 0.7499995201212413 0  1.312498883498702 0.7499994552228579 0  1.374998907429194 0.7499994084185683 0  1.437498936871969 0.7499993813077962 0  1.499998970458178 0.7499993746828251 0  1.562499006750199 0.7499993883482275 0  1.624999044108141 0.7499994208261324 0  1.687499080465274 0.7499994695719938 0  1.749999113388556 0.7499995314737268 0  1.812499140080903 0.7499996034837186 0  1.874999157833397 0.7499996836005239 0  1.937499165795917 0.7499997705400858 0  1.999999167134671 0.7499998588393807 0  0.06249929206958876 0.8125003580121911 0  -7.078591634408154e-07 0.8125003022045514 0  0.124999290320764 0.812500419281769 0  0.1874992855886665 0.8125004785830678 0  0.2499992771866568 0.8125005305085276 0  0.3124992648555943 0.8125005705294663 0  0.3749992485050107 0.8125005948481906 0  0.4374992281602906 0.812500600642534 0  0.4999992040094917 0.8125005863164906 0  0.5624991764836361 0.8125005516301719 0  0.6249991463204509 0.8125004976282874 0  0.6874991145278933 0.8125004264315022 0  0.7499990823239348 0.8125003409924112 0  0.8124990510849925 0.8125002447670236 0  0.874999022199771 0.8125001413726523 0  0.9374989969045673 0.8125000343991579 0  0.9999989762034923 0.8124999273194814 0  1.062498960804746 0.8124998234245209 0  1.124998951085788 0.8124997258150571 0  1.187498947126534 0.8124996373823995 0  1.249998948728126 0.8124995607474133 0  1.312498955441348 0.8124994982147882 0  1.374998966647009 0.8124994516758516 0  1.437498981594612 0.8124994224379949 0  1.499998999408745 0.8124994110727847 0  1.562499019101525 0.8124994172767362 0  1.624999039515759 0.8124994397874558 0  1.6874990592533 0.8124994764851945 0  1.749999076704623 0.8124995246474439 0  1.812499090221914 0.8124995812419258 0  1.874999098620239 0.8124996429751381 0  1.93749910206685 0.8124997052992171 0  1.999999102619667 0.8124997595154789 0  0.06249925458788762 0.8750003989366882 0  -7.454528736469262e-07 0.8750003654896099 0  0.1249992540604979 0.8750004404512086 0  0.1874992522440241 0.8750004827316876 0  0.2499992485527092 0.8750005202421719 0  0.3124992426115009 0.8750005485572001 0  0.3749992341772669 0.8750005641520071 0  0.437499223094995 0.875000564444762 0  0.4999992093156679 0.875000547907377 0  0.5624991929472519 0.875000514125824 0  0.6249991743001423 0.8750004637563115 0  0.6874991538962325 0.8750003983882351 0  0.7499991324482003 0.875000320346133 0  0.8124991108119226 0.8750002324496847 0  0.8749990898998227 0.8750001377779462 0  0.9374990705812238 0.8750000394917431 0  0.9999990536040928 0.874999940715866 0  1.062499039539554 0.8749998444615064 0  1.124999028753336 0.8749997535762859 0  1.187499021406563 0.8749996706973602 0  1.249999017469397 0.8749995981944272 0  1.31249901674709 0.8749995381023938 0  1.37499901891792 0.87499949202868 0  1.437499023560305 0.8749994610359743 0  1.499999030163131 0.8749994455259198 0  1.562499038121837 0.8749994451437052 0  1.624999046715999 0.8749994587348675 0  1.687499055099142 0.8749994843840241 0  1.749999062355919 0.8749995195052325 0  1.812499067675181 0.8749995608759097 0  1.874999070667494 0.8749996043956824 0  1.937499071704354 0.8749996442750657 0  1.999999071869927 0.8749996715223268 0  0.06249923751913091 0.9375004357946191 0  -7.625850086698196e-07 0.9375004201754266 0  0.1249992376919614 0.9375004605108382 0  0.187499237643023 0.9375004877584178 0  0.2499992369529167 0.9375005123215482 0  0.3124992352304025 0.9375005300217188 0  0.374999232136867 0.9375005375825161 0  0.4374992273855244 0.9375005326144084 0  0.4999992207597204 0.9375005136507143 0  0.5624992121494103 0.9375004801657799 0  0.6249992015877779 0.9375004325365934 0  0.6874991892710232 0.9375003719
[...]
<PointData  Scalars="p"> 
<DataArray  type="Float64"  Name="p"  format="ascii">0.0000000000000000e+00  -8.5921858580903271e-04  -9.0413284846750706e-04  0.0000000000000000e+00  -1.5065653971333233e-03  -1.5379477992160011e-03  -1.9644517800159987e-03  -1.9759963862428921e-03  -2.2630865326908230e-03  -2.2586356758286675e-03  -2.4295579046261992e-03  -2.4140139673772543e-03  -2.4856848699188637e-03  -2.4634377158665286e-03  -2.4496204159076252e-03  -2.4241010506090132e-03  -2.3370093247215293e-03  -2.3105681203308306e-03  -2.1601979332791072e-03  -2.1349649937613450e-03  -1.9306896364758501e-03  -1.9082146962680019e-03  -1.6603206829965717e-03  -1.6408309788341420e-03  -1.3568069219143575e-03  -1.3410645872920705e-03  -1.0274857611359653e-03  -1.0160559009706866e-03  -6.7982726924361279e-04  -6.7284123319998914e-04  -3.2004102183837575e-04  -3.1773150913933922e-04  4.5872850100943351e-05  4.3295966261735722e-05  4.1136340864292986e-04  4.0406806988013092e-04  7.7063520584555272e-04  7.5864588172293106e-04  1.1175439293646418e-03  1.1009273682224291e-03  1.4448311479744774e-03  1.4241007538845544e-03  1.7454966754242669e-03  1.7211258800953345e-03  2.0117531838678964e-03  1.9843861310101536e-03  2.2342387400721502e-03  2.2051541472642880e-03  2.4033969641616571e-03  2.3740879216048983e-03  2.5085469278393275e-03  2.4809153298729772e-03  2.5367932248172229e-03  2.5136644738552524e-03  2.4737443847650423e-03  2.4585946231794223e-03  2.3018931951510817e-03  2.2991020411962711e-03  1.9989105290337274e-03  2.0137448525466232e-03  1.5378791961686920e-03  1.5734803271443983e-03  8.8602453474644158e-04  9.3279412231122671e-04  0.0000000000000000e+00  0.0000000000000000e+00  -9.9090356494151936e-04  0.0000000000000000e+00  -1.6187105787005720e-03  -2.0250900812960183e-03  -2.2755068681430271e-03  -2.4053148585968776e-03  -2.4369601237481382e-03  -2.3868021312576267e-03  -2.2679930598609919e-03  -2.0916211158759131e-03  -1.8675526431879369e-03  -1.6048387571429949e-03  -1.3112875667740552e-03  -9.9380409044548534e-04  -6.5887887827711749e-04  -3.1256772709574129e-04  3.9333471810558088e-05  3.9104854612008743e-04  7.3683323554631064e-04  1.0707861552467803e-03  1.3866108450941604e-03  1.6776595497706378e-03  1.9367846019261504e-03  2.1561220239750198e-03  2.3271511079637234e-03  2.4405086211798650e-03  2.4855174440937579e-03  2.4496157156928106e-03  2.3168890631541372e-03  2.0647448911665146e-03  1.6562377120777291e-03  1.0201431583564289e-03  0.0000000000000000e+00  -1.0874011579801927e-03  0.0000000000000000e+00  -1.7281817396694167e-03  -2.1119662972957660e-03  -2.3304458045694284e-03  -2.4304398180925212e-03  -2.4384203621968747e-03  -2.3714649685925467e-03  -2.2421209356168498e-03  -2.0605368581082151e-03  -1.8355000110244126e-03  -1.5749006701418912e-03  -1.2857792551652226e-03  -9.7450030618975237e-04  -6.4699814621312589e-04  -3.0888647378722194e-04  3.4420717321463688e-05  3.7757634090465142e-04  7.1522074474164924e-04  1.0418621718242672e-03  1.3517494488916740e-03  1.6388203309390763e-03  1.8966028271399347e-03  2.1181000741452502e-03  2.2957194594541964e-03  2.4210562775890182e-03  2.4843834157653255e-03  2.4736269886168247e-03  2.3720216069012734e-03  2.1528011667546008e-03  1.7672171299449363e-03  1.1176513063704185e-03  0.0000000000000000e+00  -1.1906743178336707e-03  0.0000000000000000e+00  -1.8597683807995678e-03  -2.2330541267965580e-03  -2.4253899455819752e-03  -2.4962432090416689e-03  -2.4780498527798502e-03  -2.3901600453291043e-03  -2.2455421003062200e-03  -2.0539354348892949e-03  -1.8233533239731541e-03  -1.5607901343583294e-03  -1.2724998688796441e-03  -9.6418146158381451e-04  -6.4115750651495341e-04  -3.0849540185894564e-04  2.8896863653092065e-05  3.6617756564485997e-04  6.9848976126113166e-04  1.0208714376906973e-03  1.3281744228628867e-03  1.6149951959370380e-03  1.8755919969995344e-03  2.1037730783681793e-03  2.2927486213022855e-03  2.4348059733492787e-03  2.5205735506406732e-03  2.5374646372662265e-03  2.4663212756470625e-03  2.2742596826204461e-03  1.8996751297575842e-03  1.2216417076656271e-03  0.0000000000000000e+00  -1.3044772993088378e-03  0.0000000000000000e+00  -2.0140525679284995e-03  -2.3868179563486980e-03  -2.5588606449545217e-03  -2.6024333080387728e-03  -2.5569553391097148e-03  -2.4451433256872357e-03  -2.2812487715853230e-03  -2.0751755610362421e-03  -1.8345334717035516e-03  -1.5656628399765915e-03  -1.2741113154687597e-03  -9.6489485508174813e-04  -6.4268773756099131e-04  -3.1194779219869182e-04  2.2999404027295342e-05  3.5788785473995686e-04  6.8843914907005025e-04  1.0102940190322058e-03  1.3189450668233166e-03  1.6096730842248741e-03  1.8774459723082469e-03  2.1167751082101236e-03  2.3214778031695948e-03  2.4841838393330606e-03  2.5952931471427817e-03  2.6408555735426844e-03  2.5982461577075473e-03  2.4274715185942466e-03  2.0540060237407972e-03  1.3356259961031275e-03  0.0000000000000000e+00  -1.4336157504083785e-03  0.0000000000000000e+00  -2.1941768083330150e-03  -2.5735531793786332e-03  -2.7292498947234910e-03  -2.7466609925101667e-03  -2.6728214216690739e-03  -2.5345086358027746e-03  -2.3478543986003861e-03  -2.1233692197515229e-03  -1.8685624641378467e-03  -1.5893135045427257e-03  -1.2905541204873154e-03  -9.7663700286860122e-04  -6.5157241874739299e-04  -3.1917097834479962e-04  1.6874121055617344e-05  3.5292304584547092e-04  6.8532829474703811e-04  1.0103739328961305e-03  1.3242209955908991e-03  1.6228304877668465e-03  1.9018451540008413e-03  2.1563807495486847e-03  2.3806784493992485e-03  2.5674207944279704e-03  2.7063439212671593e-03  2.7815476610645513e-03  2.7662718488784890e-03  2.6128306887030399e-03  2.2334865211975827e-03  1.4645665461344118e-03  0.0000000000000000e+00  -1.5825069454722918e-03  0.0000000000000000e+00  -2.4036689524543384e-03  -2.7942134021023851e-03  -2.9351678595234006e-03  -2.9260440801647065e-03  -2.8220986337702228e-03  -2.6546284968138423e-03  -2.4420058295631865e-03  -2.1956139994569147e-03  -1.9230467080198997e-03  -1.6298397302703935e-03  -1.3203696782820263e-03  -9.9834283756663556e-04  -6.6709668958696245e-04  -3.2976994942188014e-04  1.0608947501264596e-05  3.5106165047144267e-04  6.8860376419219898e-04  1.0201926334039871e-03  1.3426684738564790e-03  1.6526755332483001e-03  1.9464995768476115e-03  2.2197973262504766e-03  2.4671226969513243e-03  2.6810286684654642e-03  2.8503306611791963e-03  2.9568423397507526e-03  2.9692383204043497e-03  2.8315832411183639e-03  2.4419981229753269e-03  1.6132139463615244e-03  0.0000000000000000e+00  -1.7546821673015216e-03  0.0000000000000000e+00  -2.6453080355688637e-03  -3.0493176377802684e-03  -3.1748817079858636e-03  -3.1372336366503289e-03  -3.0005577009045909e-03  -2.8010062914243647e-03  -2.5593636670909093e-03  -2.2879857571066007e-03  -1.9946077573514739e-03  -1.6844550726966235e-03  -1.3613610764328602e-03  -1.0283828998033588e-03  -6.8817161620481743e-04  -3.4317511817010188e-04  4.2644955004074031e-06  3.5185217839090946e-04  6.9728901324093507e-04  1.0382210875703234e-03  1.3721850570175098e-03  1.6965083859223648e-03  2.0081229635169218e-03  2.3032088076568582e-03  2.5765997928025239e-03  2.8206708316372738e-03  3.0232266904228569e-03  3.1636391399204131e-03  3.2057258581895355e-03  3.0846301183428391e-03  2.6827461441112318e-03  1.7854615244427355e-03  0.0000000000000000e+00  -1.9523970216539161e-03  0.0000000000000000e+00  -2.9203060219518888e-03  -3.3379912346576178e-03  -3.4455345574066895e-03  -3.3759554498490611e-03  -3.2031670823648097e-03  -2.9684081208307994e-03  -2.6949005238006540e-03  -2.3959202237318019e-03  -2.0792879245726406e-03  -1.7498687175941943e-03  -1.4109167447557962e-03  -1.0648113468436373e-03  -7.1349630692587641e-04  -3.5871237841268830e-04  -2.1022425313157084e-06  3.5473376929630725e-04  7.1019174766100363e-04  1.0626197339271761e-03  1.4102597000268940e-03  1.7511452201004322e-03  2.0828709463287434e-03  2.4021824790751937e-03  2.7042428985231308e-03  2.9813075081917490e-03  3.2202340549242047e-03  3.3979523975523657e-03  3.4732098848829006e-03  3.3714739328386143e-03  2.9573224101234826e-03  1.9838621693783762e-03  0.0000000000000000e+00  -2.1761324320599216e-03  0.0000000000000000e+00  -3.2274946002411316e-03  -3.6570632630809584e-03  -3.7423333659653054e-03  -3.6364214147538128e-03  -3.4237326117094475e-03  -3.1507201281948901e-03  -2.8429076109076643e-03  -2.5143229578592466e-03  -2.1727097829059034e-03  -1.8224602283335625e-03  -1.4661700609139628e-03  -1.1054946540935665e-03  -7.4164392911121499e-04  -3.7563997091304672e-04  -8.4228757699348821e-06  3.5910050877664874e-04  7.2602062548005508e-04  1.0913881102407803e-03  1.4541633777571386e-03  1.8131044190084536e-03  2.1665220830574768e-03  2.5117944452044817e-03  2.8445388147503329e-03  3.1570501517169253e-03  3.4354203582998167e-03  3.6542787675303582e-03  3.7672117140311492e-03  3.6892460545979787e-03  3.2648268756293613e-03  2.2090673641192386e-03  0.0000000000000000e+00  -2.4239363177589114e-03  0.0000000000000000e+00  -3.5624470370017925e-03  -4.0001805161555531e-03  -4.0578115975575544e-03  -3.9107637270210842e-03  -3.6545506684842553e-03  -3.3407557366911637e-03  -2.9969479282214058e-03  -2.6376012408166481e-03  -2.2701633127646123e-03  -1.8983836122650575e-03  -1.5241038011801513e-03  -1.1481989206665959e-03  -7.7112400387291445e-04  -3.9318060769358754e-04  -1.4617561701081971e-05  3.6433529558843272e-04  7.4344552978246033e-04  1.1224558722282916e-03  1.5010439891168000e-03  1.8787179575513741e-03  2.2545502601992377e-03  2.6266620735017174e-03  2.9912731841035076e-03  3.3409631897236129e-03  3.6613431764375053e-03  3.9250275263550656e-03  4.0805123417098112e-03  4.0317978667139525e-03  3.6009382282609272e-03  2.4591402166231043e-03  0.0000000000000000e+00  -2.6906421414848894e-03  0.0000000000000000e+00  -3.9165368437394966e-03  -4.3569902355015660e-03  -4.3811824800832431e-03  -4.1886177521646669e-03  -3.8861382778658570e-03  -3.5301579264470930e-03  -3.1498309682047518e-03  -2.7597227942616682e-03  -2.3666852466034246e-03  -1.9736642247360041e-03  -1.5816388755487060e-03  -1.1906660702045090e-03  -8.0043781520010271e-04  -4.1055396847544011e-04  -2.0602719775877457e-05  3.6982548159129544e-04  7.6113823330253741e-04  1.1537384949057256e-03  1.5480048233435103e-03  1.9441980393925260e-03  2.3422012202243252e-03  2.7409647730919765e-03  3.1375029619654144e-03  3.5249335747196014e-03  3.8887831598999707e-03  4.2000627053272828e-03  4.4025068501905504e-03  4.3888396828837420e-03  3.9569552723949138e-03  2.7287366824744145e-03  0.0000000000000000e+00  -2.9670248894078056e-03  0.0000000000000000e+00  -4.2760482695392817e-03  -4.7124422912311207e-03  -4.6979049622083643e-03  -4.4568650842501433e-03  -4.1071578569600361e-03  -3.7093773262645135e-03  -3.2936885524541028e-03  -2.8742808004781593e-03  -2.4571575708750310e-03  -2.0442782043677229e-03  -1.6357096508443966e-03  -1.2306707180140563e-03  -8.2812069828083203e-04  -4.2700170676223135e-04  -2.6300115817322200e-05  3.7497052219709803e-04  7.7779444947339617e-04  1.1831773817341765e-03  1.5921508880437981e-03  2.0057063378149760e-03  2.4245413869640694e-03  2.8485133460383850e-03  3.2755652089770655e-03  3.6996516501276349e-03  4.1066092594699739e-03  4.4664441745348978e-03  4.7187227485103551e-03  4.7452309969040979e-03  4.3188677608308086e-03  3.0082370108238192e-03  0.0000000000000000e+00  -3.2390573543016432e-03  0.0000000000000000e+00  -4.6215192572750417e-03  -5.0464347548843554e-03  -4.9895912176551559e-03  -4.6997301326275722e-03  -4.3045755604669209e-03  -3.8678917417363473e-03  -3.4201309189631659e-03  -2.9746748076219269e-03  -2.5364137975900413e-03  -2.1062580658937815e-03  -1.6833308348937735e-03  -1.2660748884344339e-03  -8.5277843771876141e-04  -4.4181340761305777e-04  -3.1652070493890566e-05  3.7917577280253967e-04  7.9213903877345534e-04  1.2087549236995635e-03  1.6306259478070864e-03  2.0593992385243374e-03  2.4965503355407629e-03  2.9428343116884590e-03  3.3972301744262978e-03  3.8547249959088301e-03  4.3019138839789795e-03  4.7084515239785548e-03  5.0107067221329448e-03  5.0806048096865590e-03  4.6666978668964089e-03  3.2829957380347396e-03  0.0000000000000000e+00  -3.4874953208224851e-03  0.0000000000000000e+00  -4.9276044453768399e-03  -5.3340342637978409e-03  -5.2344485878373396e-03  -4.8993137755352469e-03  -4.4641767582250247e-03  -3.9946278230113125e-03  -3.5206098450868729e-03  -3.0543231538178910e-03  -2.5994327216294806e-03  -2.1557860130348261e-03  -1.7216787252999253e-03  -1.2948720649170215e-03  -8.7312356902775792e-04  -4.5435327294932504e-04  -3.6645996976831460e-05  3.8183132582926153e-04  8.0290824629593717e-04  1.2284903581987348e-03  1.6606212383483609e-03  2.1014838351089329e-03  2.5532040440150771e-03  3.0173625872547292e-03  3.4939308464085792e-03  3.9790613806949876e-03  4.4604289397962103e-03  4.9080708027948207e-03  5.2564405285124381e-03  5.3695905515510753e-03  4.9743998622424779e-03  3.5329516772537343e-03  0.0000000000000000e+00  -3.6880499138878930e-03  0.0000000000000000e+00  -5.1637232920091185e-03  -5.5464214616798542e-03  -5.4082997493719214e-03  -5.0364876097243050e-03  -4.5712823039645925e-03  -4.0784498056502623e-03  -3.5867075432349286e-03  -3.1068439369546248e-03  -2.6413539240994709e-03  -2.1892022692240869e-03  -1.7480294101674496e-03  -1.3151402030765048e-03  -8.8792720052773553e-04  -4.6403577478638578e-04  -4.1312581770951909e-05  3.8228679727114886e-04  8.0880473297166209e-04  1.2403764600954297e-03  1.6793234599822395e-03  2.1281721392688159e-03  2.5895138121826504e-03  3.0655343570485140e-03  3.5570482238296798e-03  4.0612887791559174e-03  4.5671935208242845e-03  5.0458501731036305e-03  5.4313174114718225e-03  5.5827610478402781e-03  5.2105264484716730e-03  3.7328424425745036e-03  0.0000000000000000e+00  -3.8124069368537573e-03  0.0000000000000000e+00  -5.2956768338506882e-03  -5.6526126955472435e-03  -5.4860654210105051e-03  -5.0919745164585625e-03  -4.6113738868467820e-03  -4.1084371503941029e-03  -3.6101096724847873e-03  -3.1258349797289031e-03  -2.6572063605768501e-03  -2.2026403327396146e-03  -1.7594570072261360e-03  -1.3247550687964216e-03  -8.9581528771318672e-04  -4.7019378915488775e-04  -4.5682811287254201e-05  3.7981032392723216e-04  8.0837039921910850e-04  1.2421879635704134e-03  1.6836562152162857e-03  2.1354236069556871e-03  2.6002560847751622e-03  3.0806464283919268e-03  3.5778957354575050e-03  4.0900334256545705e-03  4.6071862854090394e-03  5.1019406725149865e-03  5.5096110863946234e-03  5.6883616120189801e-03  5.3399064361187923e-03  3.8533203904735215e-03  0.0000000000000000e+00  -3.8302694490066303e-03  0.0000000000000000e+00  -5.2882719978017472e-03  -5.6217846594359116e-03  -5.4433600336732686e-03  -5.0471476344998711e-03  -4.5701882123496381e-03  -4.0734367909814381e-03  -3.5818704482414808e-03  -3.1039589462564920e-03  -2.6409379439134239e-03  -2.1911621312762949e-03  -1.7520279689578900e-03  -1.3207712056042000e-03  -8.9479843575822283e-04  -4.7180231531830343e-04  -4.9695423393653800e-05  3.7348713603428544e-04  7.9970488946470603e-04  1.2310142634945618e-03  1.6696765713792967e-03  2.1181919108861995e-03  2.5791938853668601e-03  3.0550586097238806e-03  3.5470926690628008e-03  4.0535980652682243e-03  4.5654748413021459e-03  5.0569549073263787e-03  5.4661229420184922e-03  5.6546959331771427e-03  5.3264010592560425e-03  3.8631584453396217e-03  0.0000000000000000e+00  -3.7122165673437370e-03  0.0000000000000000e+00  -5.1083730307855861e-03  -5.4252838602021833e-03  -5.2570877997105674e-03  -4.8833201333033996e-03  -4.4320832037741181e-03  -3.9598674739192187e-03  -3.4899491985355964e-03  -3.0305222318123596e-03  -2.5831567767648747e-03  -2.1467293779052366e-03  -1.7191457889574420e-03  -1.2980832659342729e-03  -8.8133579438069460e-04  -4.6691450682641631e-04  -5.3031022587226910e-05  3.6199982671912111e-04  7.7984972128457037e-04  1.2022777235972963e-03  1.6312078519607554e-03  2.0687609818076736e-03  2.5171028590165547e-03  2.9780756399040730e-03  3.4524220083977418e-03  3.9380068150197565e-03  4.4258197876953726e-03  4.8914475646107316e-03  5.2768943242866738e-03  5.4522509514418156e-03  5.1360982411122625e-03  3.7322961800750356e-03  0.0000000000000000e+00  -3.4324941225505065e-03  0.0000000000000000e+00  -4.7267314409506836e-03  -5.0361362500640191e-03  -4.9026284720765350e-03  -4.5772057483597309e-03  -4.1745010348672269e-03  -3.7458768915490251e-03  -3.3135165081594723e-03  -2.8861700600322062e-03  -2.4664417842572587e-03  -2.0542170233698092e-03  -1.6482528446053202e-03  -1.2469175651210378e-03  -8.4855871075163107e-04  -4.5166725232277161e-04  -5.4876680917813414e-05  3.4308716800261952e-04  7.4348890886687265e-04  1.1476532644444052e-03  1.5570299284941595e-03  1.9731676766351733e-03  2.3975361847121323e-03  2.8310966680811160e-03  3.2735301452602263e-03  3.7215933507052574e-03  4.1655391476884043e-03  4.5817066766005348e-03  4.9166955123074113e-03  5.0534675941264103e-03  4.7393857836072013e-03  3.4348820856941430e-03  0.0000000000000000e+00  -2.9695352887304763e-03  0.0000000000000000e+00  -4.1148850994045666e-03  -4.4215533932444057e-03  -4.3429435521938559e-03  -4.0882082875353986e-03  -3.7548057590132250e-03  -3.3886300181058954e-03  -3.0112687288723111e-03  -2.6325233118019613e-03  -2.2563587033670933e-03  -1.8838673531566070e-03  -1.5147654614640572e-03  -1.1481834189729979e-03  -7.8310222855320309e-04  -4.1855118345381916e-04  -5.3665418354714859e-05  3.1235177192270153e-04  6.8028192997918071e-04  1.0509545803782429e-03  1.4252716472395505e-03  1.8041552367714872e-03  2.1882954132101131e-03  2.5776678289771548e-03  2.9707137290273882e-03  3.3627452495036277e-03  3.7428084940690628e-03  4.0875770144666026e-03  4.3486925004793146e-03  4.4257947091848292e-03  4.1084168811478640e-03  2.9502762151212328e-03  0.0000000000000000e+00  -2.2990088728792727e-03  0.0000000000000000e+00  -3.2285819200254086e-03  -3.5186264574928517e-03  -3.5001913288333136e-03  -3.3292112559196647e-03  -3.0824009061364301e-03  -2.7988605458705595e-03  -2.4987986706100527e-03  -2.1924459821060175e-03  -1.8846251045697851e-03  -1.5772590794992174e-03  -1.2707843707652987e-03  -9.6495676236034043e-04  -6.5931063155153609e-04  -3.5339033031514831e-04  -4.6814204041427569e-05  2.6073731381881716e-04  5.6957531255599325e-04  8.8004745900521287e-04  1.1925569625573884e-03  1.5074746003195865e-03  1.8248729451083032e-03  2.1440079391157056e-03  2.4624688970378331e-03  2.7746697589375265e-03  3.0691490488186589e-03  3.3238299539736426e-03  3.4969539119806465e-03  3.5087114733502347e-03  3.2022361112166360e-03  2.2576785102994502e-03  0.0000000000000000e+00  -1.3664189377631316e-03  0.0000000000000000e+00  -1.9583014724793551e-03  -2.1730961937161714e-03  -2.1920801488362206e-03  -2.1061502971633770e-03  -1.9639571466713839e-03  -1.7923811388720456e-03  -1.6062504575687245e-03  -1.4134606004070692e-03  -1.2179205643006042e-03  -1.0213305601538358e-03  -8.2424862486896069e-04  -6.2672266368227788e-04  -4.2864729075283732e-04  -2.2993207491058752e-04  -3.0553650370833391e-05  1.6946386126349597e-04  3.7009038776522277e-04  5.7133428749332597e-04  7.7325325733597231e-04  9.7589407556196483e-04  1.1790837563355925e-03  1.3820276585158595e-03  1.5826355186591178e-03  1.7763556705580204e-03  1.9542454809641932e-03  2.0998815649130595e-03  2.1841023226226728e-03  2.1555751394589451e-03  1.9226127430972144e-03  1.3152198879059019e-03  0.0000000000000000e+00  0.0000000000000000e+00  0.0000000000000000e+00  0.0000000000000000e+00  0.0000000000000000e+00  0.0000000000000000e+00  0.0000000000000000e+00  0.0000000000000000e+00  0.0000000000000000e+00  0.0000000000000000e+00  0.0000000000000000e+00  0.0000000000000000e+00  0.0000000000000000e+00  0.0000000000000000e+00  0.0000000000000000e+00  0.0000000000000000e+00  0.0000000000000000e+00  0.0000000000000000e+00  0.0000000000000000e+00  0.0000000000000000e+00  0.0000000000000000e+00  0.0000000000000000e+00  0.0000000000000000e+00  0.00000000