<?xml version="1.0"?>
<VTKFile type="UnstructuredGrid"  version="0.1"  >
<UnstructuredGrid>
<Piece  NumberOfPoints="759" NumberOfCells="1408">
<Points>
<DataArray  type="Float64"  NumberOfComponents="3"  format="ascii">0 0.46875 0  0.03125 0.46875 0  0.03125 0.515625 0  0 0.515625 0  0.0625 0.46875 0  0.0625 0.515625 0  0.09375 0.46875 0  0.09375 0.515625 0  0.125 0.46875 0  0.125 0.515625 0  0.15625 0.46875 0  0.15625 0.515625 0  0.1875 0.46875 0  0.1875 0.515625 0  0.21875 0.46875 0  0.21875 0.515625 0  0.25 0.46875 0  0.25 0.515625 0  0.28125 0.46875 0  0.28125 0.515625 0  0.3125 0.46875 0  0.3125 0.515625 0  0.34375 0.46875 0  0.34375 0.515625 0  0.375 0.46875 0  0.375 0.515625 0  0.40625 0.46875 0  0.40625 0.515625 0  0.4375 0.46875 0  0.4375 0.515625 0  0.46875 0.46875 0  0.46875 0.515625 0  0.5 0.46875 0  0.5 0.515625 0  0.53125 0.46875 0  0.53125 0.515625 0  0.5625 0.46875 0  0.5625 0.515625 0  0.59375 0.46875 0  0.59375 0.515625 0  0.625 0.46875 0  0.625 0.515625 0  0.65625 0.46875 0  0.65625 0.515625 0  0.6875 0.46875 0  0.6875 0.515625 0  0.71875 0.46875 0  0.71875 0.515625 0  0.75 0.46875 0  0.75 0.515625 0  0.78125 0.46875 0  0.78125 0.515625 0  0.8125 0.46875 0  0.8125 0.515625 0  0.84375 0.46875 0  0.84375 0.515625 0  0.875 0.46875 0  0.875 0.515625 0  0.90625 0.46875 0  0.90625 0.515625 0  0.9375 0.46875 0  0.9375 0.515625 0  0.96875 0.46875 0  0.96875 0.515625 0  1 0.46875 0  1 0.515625 0  0.03125 0.5625 0  0 0.5625 0  0.0625 0.5625 0  0.09375 0.5625 0  0.125 0.5625 0  0.15625 0.5625 0  0.1875 0.5625 0  0.21875 0.5625 0  0.25 0.5625 0  0.28125 0.5625 0  0.3125 0.5625 0  0.34375 0.5625 0  0.375 0.5625 0  0.40625 0.5625 0  0.4375 0.5625 0  0.46875 0.5625 0  0.5 0.5625 0  0.53125 0.5625 0  0.5625 0.5625 0  0.59375 0.5625 0  0.625 0.5625 0  0.65625 0.5625 0  0.6875 0.5625 0  0.71875 0.5625 0  0.75 0.5625 0  0.78125 0.5625 0  0.8125 0.5625 0  0.84375 0.5625 0  0.875 0.5625 0  0.90625 0.5625 0  0.9375 0.5625 0  0.96875 0.5625 0  1 0.5625 0  0.03125 0.609375 0  0 0.609375 0  0.0625 0.609375 0  0.09375 0.609375 0  0.125 0.609375 0  0.15625 0.609375 0  0.1875 0.609375 0  0.21875 0.609375 0  0.25 0.609375 0  0.28125 0.609375 0  0.3125 0.609375 0  0.34375 0.609375 0  0.375 0.609375 0  0.40625 0.609375 0  0.4375 0.609375 0  0.46875 0.609375 0  0.5 0.609375 0  0.53125 0.609375 0  0.5625 0.609375 0  0.59375 0.609375 0  0.625 0.609375 0  0.65625 0.609375 0  0.6875 0.609375 0  0.71875 0.609375 0  0.75 0.609375 0  0.78125 0.609375 0  0.8125 0.609375 0  0.84375 0.609375 0  0.875 0.609375 0  0.90625 0.609375 0  0.9375 0.609375 0  0.96875 0.609375 0  1 0.609375 0  0.03125 0.65625 0  0 0.65625 0  0.0625 0.65625 0  0.09375 0.65625 0  0.125 0.65625 0  0.15625 0.65625 0  0.1875 0.65625 0  0.21875 0.65625 0  0.25 0.65625 0  0.28125 0.65625 0  0.3125 0.65625 0  0.34375 0.65625 0  0.375 0.65625 0  0.40625 0.65625 0  0.4375 0.65625 0  0.46875 0.65625 0  0.5 0.65625 0  0.53125 0.65625 0  0.5625 0.65625 0  0.59375 0.65625 0  0.625 0.65625 0  0.65625 0.65625 0  0.6875 0.65625 0  0.71875 0.65625 0  0.75 0.65625 0  0.78125 0.65625 0  0.8125 0.65625 0  0.84375 0.65625 0  0.875 0.65625 0  0.90625 0.65625 0  0.9375 0.65625 0  0.96875 0.65625 0  1 0.65625 0  0.03125 0.703125 0  0 0.703125 0  0.0625 0.703125 0  0.09375 0.703125 0  0.125 0.703125 0  0.15625 0.703125 0  0.1875 0.703125 0  0.21875 0.703125 0  0.25 0.703125 0  0.28125 0.703125 0  0.3125 0.703125 0  0.34375 0.703125 0  0.375 0.703125 0  0.40625 0.703125 0  0.4375 0.703125 0  0.46875 0.703125 0  0.5 0.703125 0  0.53125 0.703125 0  0.5625 0.703125 0  0.59375 0.703125 0  0.625 0.703125 0  0.65625 0.703125 0  0.6875 0.703125 0  0.71875 0.703125 0  0.75 0.703125 0  0.78125 0.703125 0  0.8125 0.703125 0  0.84375 0.703125 0  0.875 0.703125 0  0.90625 0.703125 0  0.9375 0.703125 0  0.96875 0.703125 0  1 0.703125 0  0.03125 0.75 0  0 0.75 0  0.0625 0.75 0  0.09375 0.75 0  0.125 0.75 0  0.15625 0.75 0  0.1875 0.75 0  0.21875 0.75 0  0.25 0.75 0  0.28125 0.75 0  0.3125 0.75 0  0.34375 0.75 0  0.375 0.75 0  0.40625 0.75 0  0.4375 0.75 0  0.46875 0.75 0  0.5 0.75 0  0.53125 0.75 0  0.5625 0.75 0  0.59375 0.75 0  0.625 0.75 0  0.65625 0.75 0  0.6875 0.75 0  0.71875 0.75 0  0.75 0.75 0  0.78125 0.75 0  0.8125 0.75 0  0.84375 0.75 0  0.875 0.75 0  0.90625 0.75 0  0.9375 0.75 0  0.96875 0.75 0  1 0.75 0  0.03125 0.796875 0  0 0.796875 0  0.0625 0.796875 0  0.09375 0.796875 0  0.125 0.796875 0  0.15625 0.796875 0  0.1875 0.796875 0  0.21875 0.796875 0  0.25 0.796875 0  0.28125 0.796875 0  0.3125 0.796875 0  0.34375 0.796875 0  0.375 0.796875 0  0.40625 0.796875 0  0.4375 0.796875 0  0.46875 0.796875 0  0.5 0.796875 0  0.53125 0.796875 0  0.5625 0.796875 0  0.59375 0.796875 0  0.625 0.796875 0  0.65625 0.796875 0  0.6875 0.796875 0  0.71875 0.796875 0  0.75 0.796875 0  0.78125 0.796875 0  0.8125 0.796875 0  0.84375 0.796875 0  0.875 0.796875 0  0.90625 0.796875 0  0.9375 0.796875 0  0.96875 0.796875 0  1 0.796875 0  0.03125 0.84375 0  0 0.84375 0  0.0625 0.84375 0  0.09375 0.84375 0  0.125 0.84375 0  0.15625 0.84375 0  0.1875 0.84375 0  0.21875 0.84375 0  0.25 0.84375 0  0.28125 0.84375 0  0.3125 0.84375 0  0.34375 0.84375 0  0.375 0.84375 0  0.40625 0.84375 0  0.4375 0.84375 0  0.46875 0.84375 0  0.5 0.84375 0  0.53125 0.84375 0  0.5625 0.84375 0  0.59375 0.84375 0  0.625 0.84375 0  0.65625 0.84375 0  0.6875 0.84375 0  0.71875 0.84375 0  0.75 0.84375 0  0.78125 0.84375 0  0.8125 0.84375 0  0.84375 0.84375 0  0.875 0.84375 0  0.90625 0.84375 0  0.9375 0.84375 0  0.96875 0.84375 0  1 0.84375 0  0.03125 0.890625 0  0 0.890625 0  0.0625 0.890625 0  0.09375 0.890625 0  0.125 0.890625 0  0.15625 0.890625 0  0.1875 0.890625 0  0.21875 0.890625 0  0.25 0.890625 0  0.28125 0.890625 0  0.3125 0.890625 0  0.34375 0.890625 0  0.375 0.890625 0  0.40625 0.890625 0  0.4375 0.890625 0  0.46875 0.890625 0  0.5 0.890625 0  0.53125 0.890625 0  0.5625 0.890625 0  0.59375 0.890625 0  0.625 0.890625 0  0.65625 0.890625 0  0.6875 0.890625 0  0.71875 0.890625 0  0.75 0.890625 0  0.78125 0.890625 0  0.8125 0.890625 0  0.84375 0.890625 0  0.875 0.890625 0  0.90625 0.890625 0  0.9375 0.890625 0  0.96875 0.890625 0  1 0.890625 0  0.03125 0.9375 0  0 0.9375 0  0.0625 0.9375 0  0.09375 0.9375 0  0.125 0.9375 0  0.15625 0.9375 0  0.1875 0.9375 0  0.21875 0.9375 0  0.25 0.9375 0  0.28125 0.9375 0  0.3125 0.9375 0  0.34375 0.9375 0  0.375 0.9375 0  0.40625 0.9375 0  0.4375 0.9375 0  0.46875 0.9375 0  0.5 0.9375 0  0.53125 0.9375 0  0.5625 0.9375 0  0.59375 0.9375 0  0.625 0.9375 0  0.65625 0.9375 0  0.6875 0.9375 0  0.71875 0.9375 0  0.75 0.9375 0  0.78125 0.9375 0  0.8125 0.9375 0  0.84375 0.9375 0  0.875 0.9375 0  0.90625 0.9375 0  0.9375 0.9375 0  0.96875 0.9375 0  1 0.9375 0  0.03125 0.984375 0  0 0.984375 0  0.0625 0.984375 0  0.09375 0.984375 0  0.125 0.984375 0  0.15625 0.984375 0  0.1875 0.984375 0  0.21875 0.984375 0  0.25 0.984375 0  0.28125 0.984375 0  0.3125 0.984375 0  0.34375 0.984375 0  0.375 0.984375 0  0.40625 0.984375 0  0.4375 0.984375 0  0.46875 0.984375 0  0.5 0.984375 0  0.53125 0.984375 0  0.5625 0.984375 0  0.59375 0.984375 0  0.625 0.984375 0  0.65625 0.984375 0  0.6875 0.984375 0  0.71875 0.984375 0  0.75 0.984375 0  0.78125 0.984375 0  0.8125 0.984375 0  0.84375 0.984375 0  0.875 0.984375 0  0.90625 0.984375 0  0.9375 0.984375 0  0.96875 0.984375 0  1 0.984375 0  0.03125 1.03125 0  0 1.03125 0  0.0625 1.03125 0  0.09375 1.03125 0  0.125 1.03125 0  0.15625 1.03125 0  0.1875 1.03125 0  0.21875 1.03125 0  0.25 1.03125 0  0.28125 1.03125 0  0.3125 1.03125 0  0.34375 1.03125 0  0.375 1.03125 0  0.40625 1.03125 0  0.4375 1.03125 0  0.46875 1.03125 0  0.5 1.03125 0  0.53125 1.03125 0  0.5625 1.03125 0  0.59375 1.03125 0  0.625 1.03125 0  0.65625 1.03125 0  0.6875 1.03125 0  0.71875 1.03125 0  0.75 1.03125 0  0.78125 1.03125 0  0.8125 1.03125 0  0.84375 1.03125 0  0.875 1.03125 0  0.90625 1.03125 0  0.9375 1.03125 0  0.96875 1.03125 0  1 1.03125 0  0.03125 1.078125 0  0 1.078125 0  0.0625 1.078125 0  0.09375 1.078125 0  0.125 1.078125 0  0.15625 1.078125 0  0.1875 1.078125 0  0.21875 1.078125 0  0.25 1.078125 0  0.28125 1.078125 0  0.3125 1.078125 0  0.34375 1.078125 0  0.375 1.078125 0  0.40625 1.078125 0  0.4375 1.078125 0  0.46875 1.078125 0  0.5 1.078125 0  0.53125 1.078125 0  0.5625 1.078125 0  0.59375 1.078125 0  0.625 1.078125 0  0.65625 1.078125 0  0.6875 1.078125 0  0.71875 1.078125 0  0.75 1.078125 0  0.78125 1.078125 0  0.8125 1.078125 0  0.84375 1.078125 0  0.875 1.078125 0  0.90625 1.078125 0  0.9375 1.078125 0  0.96875 1.078125 0  1 1.078125 0  0.03125 1.125 0  0 1.125 0  0.0625 1.125 0  0.09375 1.125 0  0.125 1.125 0  0.15625 1.125 0  0.1875 1.125 0  0.21875 1.125 0  0.25 1.125 0  0.28125 1.125 0  0.3125 1.125 0  0.34375 1.125 0  0.375 1.125 0  0.40625 1.125 0  0.4375 1.125 0  0.46875 1.125 0  0.5 1.125 0  0.53125 1.125 0  0.5625 1.125 0  0.59375 1.125 0  0.625 1.125 0  0.65625 1.125 0  0.6875 1.125 0  0.71875 1.125 0  0.75 1.125 0  0.78125 1.125 0  0.8125 1.125 0  0.84375 1.125 0  0.875 1.125 0  0.90625 1.125 0  0.9375 1.125 0  0.96875 1.125 0  1 1.125 0  0.03125 1.171875 0  0 1.171875 0  0.0625 1.171875 0  0.09375 1.171875 0  0.125 1.171875 0  0.15625 1.171875 0  0.1875 1.171875 0  0.21875 1.171875 0  0.25 1.171875 0  0.28125 1.171875 0  0.3125 1.171875 0  0.34375 1.171875 0  0.375 1.171875 0  0.40625 1.171875 0  0.4375 1.171875 0  0.46875 1.171875 0  0.5 1.171875 0  0.53125 1.171875 0  0.5625 1.171875 0  0.59375 1.171875 0  0.625 1.171875 0  0.65625 1.171875 0  0.6875 1.171875 0  0.71875 1.171875 0  0.75 1.171875 0  0.78125 1.171875 0  0.8125 1.171875 0  0.84375 1.171875 0  0.875 1.171875 0  0.90625 1.171875 0  0.9375 1.171875 0  0.96875 1.171875 0  1 1.171875 0  0.03125 1.21875 0  0 1.21875 0  0.0625 1.21875 0  0.09375 1.21875 0  0.125 1.21875 0  0.15625 1.21875 0  0.1875 1.21875 0  0.21875 1.21875 0  0.25 1.21875 0  0.28125 1.21875 0  0.3125 1.21875 0  0.34375 1.21875 0  0.375 1.21875 0  0.40625 1.21875 0  0.4375 1.21875 0  0.46875 1.21875 0  0.5 1.21875 0  0.53125 1.21875 0  0.5
[...]
<PointData  Scalars="p"> 
<DataArray  type="Float64"  Name="p"  format="ascii">0.0000000000000000e+00  -9.4263807036070197e-03  -9.8746147581208026e-03  0.0000000000000000e+00  -1.6254342579135109e-02  -1.7003042732227688e-02  -2.0956267689426517e-02  -2.1912498872076955e-02  -2.3932317797846825e-02  -2.5027384673093758e-02  -2.5512682055975098e-02  -2.6690793907766328e-02  -2.5966610055320968e-02  -2.7180353456943609e-02  -2.5512544232138328e-02  -2.6720759030803148e-02  -2.4327407873173109e-02  -2.5494198624429493e-02  -2.2554733387443026e-02  -2.3648804590525936e-02  -2.0311424787668144e-02  -2.1305771528829832e-02  -1.7693477861090091e-02  -1.8565064511894248e-02  -1.4780681639430176e-02  -1.5510322640748957e-02  -1.1640580370255985e-02  -1.2212756668829913e-02  -8.3317468163107578e-03  -8.7345735587123861e-03  -4.9066342847341625e-03  -5.1317830072752767e-03  -1.4140112675444783e-03  -1.4567565273130134e-03  2.0988130145161068e-03  2.2395652621926250e-03  5.5839106404677666e-03  5.9054896897136099e-03  8.9906507726520164e-03  9.4864905959087444e-03  1.2263576302862631e-02  1.2922997394180385e-02  1.5340078185654037e-02  1.6148077000901432e-02  1.8147782351974853e-02  1.9084748896490460e-02  2.0601503384487938e-02  2.1642956084417995e-02  2.2599659275771747e-02  2.3715917404796217e-02  2.4019894571905578e-02  2.5175785836984939e-02  2.4713795703929755e-02  2.5868298467128469e-02  2.4500352033790692e-02  2.5606324466667628e-02  2.3157963488621851e-02  2.4161906472571437e-02  2.0414532565729233e-02  2.1256811073838588e-02  1.5934901934329521e-02  1.6551303805806022e-02  9.3038653367474421e-03  9.6318376155748314e-03  0.0000000000000000e+00  0.0000000000000000e+00  -1.0919641463727462e-02  0.0000000000000000e+00  -1.8823383975391714e-02  -2.4290835142833263e-02  -2.7785559398888944e-02  -2.9679806392953610e-02  -3.0273421201533580e-02  -2.9808985024470439e-02  -2.8483464294246915e-02  -2.6457950731294495e-02  -2.3865057625704213e-02  -2.0815368996766177e-02  -1.7402288714012410e-02  -1.3706451394559333e-02  -9.7990223798938743e-03  -5.7449143192898960e-03  -1.6052467933399084e-03  2.5601129388814511e-03  6.6904071209630675e-03  1.0721630051509353e-02  1.4584333338925568e-02  1.8201062399801085e-02  2.1483689384032650e-02  2.4330140301487994e-02  2.6620767367559715e-02  2.8213716522933339e-02  2.8939500564176358e-02  2.8594081287701030e-02  2.6930519810785158e-02  2.3648512529060795e-02  1.8381698201732598e-02  1.0681933606666335e-02  0.0000000000000000e+00  -1.2507205818210035e-02  0.0000000000000000e+00  -2.1572744188044463e-02  -2.7863049170194474e-02  -3.1906064987562974e-02  -3.4122312314771183e-02  -3.4848996647366424e-02  -3.4358031173933011e-02  -3.2870597323744970e-02  -3.0567847933134436e-02  -2.7600090263341752e-02  -2.4093267822986979e-02  -2.0155089152997747e-02  -1.5879113164902536e-02  -1.1349072543432471e-02  -6.6417106871768522e-03  -1.8300927501559050e-03  3.0141590185206488e-03  7.8180080202535831e-03  1.2504847503780867e-02  1.6991701862084558e-02  2.1186785416006670e-02  2.4986269879426485e-02  2.8271074860363232e-02  3.0902599546722784e-02  3.2717989337460278e-02  3.3523782150057156e-02  3.3088391601380759e-02  3.1132045119821875e-02  2.7314396165587070e-02  2.1218059575635956e-02  1.2327395853442332e-02  0.0000000000000000e+00  -1.4625001697759869e-02  0.0000000000000000e+00  -2.5215928262770873e-02  -3.2565637231184039e-02  -3.7296027541736582e-02  -3.9898713194293577e-02  -4.0765144752463671e-02  -4.0210059257053406e-02  -3.8488496135532076e-02  -3.5809856935858655e-02  -3.2347619511298886e-02  -2.8248219123702116e-02  -2.3636758462962426e-02  -1.8623081031256788e-02  -1.3305275882508330e-02  -7.7743035600002040e-03  -2.1164260379135454e-03  3.5829576211534645e-03  9.2372115050044345e-03  1.4754906441900488e-02  2.0037589555153130e-02  2.4976119716487978e-02  2.9447780508746111e-02  3.3311885972491927e-02  3.6405583295023268e-02  3.8537712566358635e-02  3.9481946324743840e-02  3.8967195485317387e-02  3.6665770350701357e-02  3.2177262789455714e-02  2.5007626870266302e-02  1.4540678110852849e-02  0.0000000000000000e+00  -1.7295412171139040e-02  0.0000000000000000e+00  -2.9784841495751294e-02  -3.8429900113276981e-02  -4.3979532514291653e-02  -4.7021538563587977e-02  -4.8021503338838208e-02  -4.7351549157461766e-02  -4.5312573055120924e-02  -4.2150363860698113e-02  -3.8068822248069303e-02  -3.3239029647228448e-02  -2.7807848820404994e-02  -2.1903105341317904e-02  -1.5639884969948784e-02  -9.1236959235979249e-03  -2.4557314801152584e-03  4.2649557262511755e-03  1.0936588578348871e-02  1.7452629692308385e-02  2.3697041507508898e-02  2.9541765835556920e-02  3.4841638028447787e-02  3.9430566272616110e-02  4.3115250768609094e-02  4.5668848183936933e-02  4.6821654677996066e-02  4.6250043188274664e-02  4.3560957390832364e-02  3.8272005478646613e-02  2.9784141550793272e-02  1.7345147474294331e-02  0.0000000000000000e+00  -2.0566563887537137e-02  0.0000000000000000e+00  -3.5356117670765276e-02  -4.5546297871231829e-02  -5.2049674630171065e-02  -5.5578987226630121e-02  -5.6695951082193469e-02  -5.5847639063475597e-02  -5.3393704022900737e-02  -4.9626944531983908e-02  -4.4788641911684295e-02  -3.9080764930789109e-02  -3.2674896845846346e-02  -2.5720382522171830e-02  -1.8349643609474681e-02  -1.0684756193574976e-02  -2.8407368469895292e-03  5.0683102250263512e-03  1.2926834354568590e-02  2.0611586140876121e-02  2.7989278112088584e-02  3.4910161647585890e-02  4.1204575766592616e-02  4.6675842258948594e-02  5.1094395324470882e-02  5.4188461909304403e-02  5.5633593575139480e-02  5.5038039283699845e-02  5.1923860312692159e-02  4.5701397943295377e-02  3.5634894673306911e-02  2.0795861548616370e-02  0.0000000000000000e+00  -2.4505844845015171e-02  0.0000000000000000e+00  -4.2037959688793307e-02  -5.4043879278485779e-02  -6.1641654160987228e-02  -6.5701729415075349e-02  -6.6907653162789057e-02  -6.5801533606888091e-02  -6.2817448663400499e-02  -5.8306966436933158e-02  -5.2557827206232990e-02  -4.5808808550527255e-02  -3.8260990774074181e-02  -3.0086994594622152e-02  -2.1438826949328204e-02  -1.2454090886249171e-02  -3.2627722289379352e-03  6.0084299052485151e-03  1.5229079456822087e-02  2.4261503884741180e-02  3.2953149406814181e-02  4.1132819848655487e-02  4.8602255062532213e-02  5.5130430306408192e-02  6.0443646014415583e-02  6.4215603537041463e-02  6.6053199399229434e-02  6.5478906843082732e-02  6.1906886209726099e-02  5.4611136493653852e-02  4.2682401113459729e-02  2.4969494545279542e-02  0.0000000000000000e+00  -2.9196277308870523e-02  0.0000000000000000e+00  -4.9962485705353665e-02  -6.4078386801751347e-02  -7.2916151435731977e-02  -7.7542227192795438e-02  -7.8792333022450131e-02  -7.7327461883668569e-02  -7.3674771837394723e-02  -6.8258714191958947e-02  -6.1423927885214918e-02  -5.3453254188873790e-02  -4.4581748536957892e-02  -3.5008007980461373e-02  -2.4903904272904166e-02  -1.4422798252611215e-02  -3.7072996672831205e-03  7.1036747546879189e-03  1.7868117076611217e-02  2.8433449322102785e-02  3.8630235016877588e-02  4.8263281048070567e-02  5.7104754840349325e-02  6.4883124207592902e-02  7.1273559361590230e-02  7.5883143181176269e-02  7.8234622439381826e-02  7.7743551064914346e-02  7.3689205383696388e-02  6.5174842164747157e-02  5.1074370876605178e-02  2.9959311358108611e-02  0.0000000000000000e+00  -3.4735167755279475e-02  0.0000000000000000e+00  -5.9281843301951215e-02  -7.5824747912336510e-02  -8.6047843624785333e-02  -9.1258993415317041e-02  -9.2483003997156990e-02  -9.0528287052155085e-02  -8.6038113046933276e-02  -7.9526384782861101e-02  -7.1407384317076203e-02  -6.2015824509292085e-02  -5.1625912611276040e-02  -4.0464046972570299e-02  -2.8722074603553145e-02  -1.6567391618170658e-02  -4.1526590877205716e-03  8.3743435757739765e-03  2.0862850252459028e-02  3.3148678252496094e-02  4.5046195947038015e-02  5.6337707835523401e-02  6.6762370569001500e-02  7.6004873716439450e-02  8.3679452500575943e-02  8.9314613083394750e-02  9.2329624060859566e-02  9.2008738314634742e-02  8.7463421093092159e-02  7.7585116283679131e-02  6.0978683319364353e-02  3.5873327337748381e-02  0.0000000000000000e+00  -4.1233692513257474e-02  0.0000000000000000e+00  -7.0164961217593427e-02  -8.9469930775614201e-02  -1.0121285883433648e-01  -1.0699946460873132e-01  -1.0808784083765589e-01  -1.0547073573508287e-01  -9.9934071470620403e-02  -9.2103261905854938e-02  -8.2475063189119388e-02  -7.1446708065322939e-02  -5.9334721292254006e-02  -4.6395771303189094e-02  -3.2839368151990088e-02  -1.8844012833326984e-02  -4.5681384043394927e-03  9.8374664895467118e-03  2.4217562515992695e-02  3.8402094318549816e-02  5.2192285328657106e-02  6.5349617676629029e-02  7.7580529707376708e-02  8.8520067297243515e-02  9.7714750065633446e-02  1.0459783826885598e-01  1.0846510160279796e-01  1.0843797702049780e-01  1.0342150334505903e-01  9.2043922600936232e-02  7.2578238193393679e-02  4.2832317194424908e-02  0.0000000000000000e+00  -4.8816189954037865e-02  0.0000000000000000e+00  -8.2793390242108661e-02  -1.0520199228397900e-01  -1.1857139184357621e-01  -1.2487445458258782e-01  -1.2566017950023722e-01  -1.2214998147597322e-01  -1.1530825303193970e-01  -1.0589518837499898e-01  -9.4508400875999279e-02  -8.1614791929103481e-02  -6.7579247200051429e-02  -5.2685840067324574e-02  -3.7159998065636878e-02  -2.1184088774202890e-02  -4.9159418802451216e-03  1.1498281388242637e-02  2.7907518114317732e-02  4.4142301226054267e-02  5.9998488606955995e-02  7.5220517618252311e-02  8.9483390934083848e-02  1.0237100335622637e-01  1.1335138851072921e-01  1.2174899239566354e-01  1.2670823765831382e-01  1.2715333342130339e-01  1.2173237625167467e-01  1.0874842692248271e-01  8.6063385551672214e-02  5.0967755047831222e-02  0.0000000000000000e+00  -5.7619058917492222e-02  0.0000000000000000e+00  -9.7353087481019729e-02  -1.2319214018777196e-01  -1.3823734881656158e-01  -1.4491865683836749e-01  -1.4514982628609233e-01  -1.4043926816303801e-01  -1.3197233858162488e-01  -1.2067393044163234e-01  -1.0725906907508956e-01  -9.2273873832500228e-02  -7.6131312763584341e-02  -5.9140784013176149e-02  -4.1534706774149902e-02  -2.3491834011011039e-02  -5.1570704255500827e-03  1.3337561222100046e-02  3.1857689230346639e-02  5.0244460915113871e-02  6.8298828420372923e-02  8.5756893349815164e-02  1.0226683778797832e-01  1.1736152638528245e-01  1.3042457114911651e-01  1.4065356703668866e-01  1.4701477396522639e-01  1.4818931789196876e-01  1.4250839330344472e-01  1.2786856289425996e-01  1.0162125988964815e-01  6.0418634212497949e-02  0.0000000000000000e+00  -6.7787220278442389e-02  0.0000000000000000e+00  -1.1401827159466960e-01  -1.4356014541909592e-01  -1.6022525215099628e-01  -1.6702131832079259e-01  -1.6632538438798478e-01  -1.6000811673585871e-01  -1.4952807111733787e-01  -1.3600720246148371e-01  -1.2029366139636462e-01  -1.0301695672319565e-01  -8.4633775578862550e-02  -6.5469794797031577e-02  -4.5752805101344704e-02  -2.5643415913729477e-02  -5.2610135881941151e-03  1.5293927600733340e-02  3.5915441114457020e-02  5.6473127897783179e-02  7.6784713803966051e-02  9.6592286541921230e-02  1.1552853603063633e-01  1.3308002453081785e-01  1.4854522135329715e-01  1.6098074400186752e-01  1.6914329045231344e-01  1.7141979240848543e-01  1.6574571795148671e-01  1.4950760477673872e-01  1.1941448593162007e-01  7.1324915260061170e-02  0.0000000000000000e+00  -7.9466998743872197e-02  0.0000000000000000e+00  -1.3292033683132817e-01  -1.6631081954078814e-01  -1.8435566331933703e-01  -1.9080968864746178e-01  -1.8864768920546299e-01  -1.8019894237040102e-01  -1.6725503619441656e-01  -1.5116492300638032e-01  -1.3291889750904826e-01  -1.1322286602159005e-01  -9.2564481215962405e-02  -7.1266649408223012e-02  -4.9534816291665285e-02  -2.7493597210349840e-02  -5.2178627653224749e-03  1.7238592268147196e-02  3.9818771418210275e-02  6.2435427159151888e-02  8.4944744049610679e-02  1.0711213654088375e-01  1.2857415390597582e-01  1.4878847236135992e-01  1.6697480960766617e-01  1.8204491292933314e-01  1.9251816060572888e-01  1.9642889901497421e-01  1.9122139343998321e-01  1.7363134750836437e-01  1.3954631810342175e-01  8.3818711059515272e-02  0.0000000000000000e+00  -9.2788987381264579e-02  0.0000000000000000e+00  -1.5408207432059617e-01  -1.9120865141545113e-01  -2.1008028475851812e-01  -2.1544670292338083e-01  -2.1106549026012683e-01  -1.9984078471635372e-01  -1.8395541990775546e-01  -1.6500015773288237e-01  -1.4409557558685299e-01  -1.2200017112184201e-01  -9.9202114419590356e-02  -7.5994077567304169e-02  -5.2532050439307101e-02  -2.8882690163660258e-02  -5.0584719034201878e-03  1.8952449329642834e-02  4.3158075424820988e-02  6.7535204923218337e-02  9.1998857089035921e-02  1.1636570487519025e-01  1.4030441537749708e-01  1.6327452024855693e-01  1.8444587018069916e-01  2.0259918650270167e-01  2.1600751946960456e-01  2.2229908715774280e-01  2.1831089729797393e-01  1.9994047450489924e-01  1.6199292987067881e-01  9.8006384686271514e-02  0.0000000000000000e+00  -1.0782410290771985e-01  0.0000000000000000e+00  -1.7727120392998338e-01  -2.1752113330776437e-01  -2.3614941144331097e-01  -2.3927705397268773e-01  -2.3168713998991228e-01  -2.1697708040185190e-01  -1.9774842933575704e-01  -1.7580686964354630e-01  -1.5235204119517845e-01  -1.2813897584022466e-01  -1.0360689288772629e-01  -7.8978319019382515e-02  -5.4330133675732382e-02  -2.9647983503668898e-02  -4.8657716389989263e-03  2.0106490104021654e-02  4.5355138923664558e-02  7.0937036866905015e-02  9.6848783481072787e-02  1.2298696498538796e-01  1.4909423497968230e-01  1.7468214449145492e-01  1.9892935707591294e-01  2.2054246300567507e-01  2.3758004250980641e-01  2.4724367130758809e-01  2.4564929031937066e-01  2.2760980203511080e-01  1.8645912700861927e-01  1.1392662447232588e-01  0.0000000000000000e+00  -1.2447356834047676e-01  0.0000000000000000e+00  -2.0166691724840172e-01  -2.4348483926135017e-01  -2.5998791237086555e-01  -2.5922912593474096e-01  -2.4728763624578923e-01  -2.2850683057812601e-01  -2.0583719979000475e-01  -1.8118629605734776e-01  -1.5571746755542987e-01  -1.3008780350759314e-01  -1.0461921173583240e-01  -7.9417724660100802e-02  -5.4455553174397549e-02  -2.9623972942853107e-02  -4.7709867926716961e-03  2.0272605829600596e-02  4.5674247950782974e-02  7.1576425861945542e-02  9.8071297592448592e-02  1.2516334641302862e-01  1.5271360889820196e-01  1.8035793265170791e-01  2.0738017812846371e-01  2.3253188188473101e-01  2.5378118320463267e-01  2.6798333104126387e-01  2.7049040938094837e-01  2.5475756209812245e-01  2.1206116969992367e-01  1.3145890763887211e-01  0.0000000000000000e+00  -1.4216779923557993e-01  0.0000000000000000e+00  -2.2504925599964504e-01  -2.6516647803945931e-01  -2.7654097173618264e-01  -2.6987455426150986e-01  -2.5266242450054943e-01  -2.2980683498815763e-01  -2.0433015238663929e-01  -1.7798894185585018e-01  -1.5172536839562412e-01  -1.2597655765284840e-01  -1.0087813059071683e-01  -7.6388678165767984e-02  -5.2365800469528233e-02  -2.8612782753491883e-02  -4.9062162229094614e-03  1.8987681240600695e-02  4.3299886023644756e-02  6.8246735242673898e-02  9.4011060750034875e-02  1.2071494579866060e-01  1.4837394466132578e-01  1.7681724239632451e-01  2.0555918388237435e-01  2.3359145719427765e-01  2.5905798126937152e-01  2.7876770972272763e-01  2.8752083092164676e-01  2.7730033220473582e-01  2.3655596241462953e-01  1.5007584581001329e-01  0.0000000000000000e+00  -1.5892948272533680e-01  0.0000000000000000e+00  -2.4171405524277559e-01  -2.7407257619346059e-01  -2.7634192141497688e-01  -2.6222391847684984e-01  -2.4005943711092204e-01  -2.1457712509378540e-01  -1.8829073898562576e-01  -1.6243239004078427e-01  -1.3751921072227438e-01  -1.1367895908258678e-01  -9.0835661575576737e-02  -6.8811022205453126e-02  -4.7377443623745685e-02  -2.6285776399736682e-02  -5.2792211359443328e-03  1.5900267888213540e-02  3.7509879073381144e-02  5.9801366608288484e-02  8.3015057864988806e-02  1.0736592194336052e-01  1.3301497797872255e-01  1.6001437312807837e-01  1.8820547132290369e-01  2.1703361540548149e-01  2.4521052071613608e-01  2.7012237970983899e-01  2.8682717314855655e-01  2.8648367488198329e-01  2.5431020062407672e-01  1.6809015277028405e-01  0.0000000000000000e+00  -1.6791873086042669e-01  0.0000000000000000e+00  -2.3696445751810508e-01  -2.5271178398752836e-01  -2.4322109515533671e-01  -2.2313197410031113e-01  -1.9946972801561602e-01  -1.7540468367215023e-01  -1.5224815706257208e-01  -1.3043722978210520e-01  -1.1000797174024070e-01  -9.0818856772987677e-02  -7.2656463711062130e-02  -5.5284111290191597e-02  -3.8462305203299886e-02  -2.1956007497183721e-02  -5.5358521109787001e-03  1.1024280238300524e-02  2.7949976186977268e-02  4.5469630483044955e-02  6.3815852766321124e-02  8.3224565045528442e-02  1.0392661690612343e-01  1.2612647134598606e-01  1.4995598667879900e-01  1.7537078220001087e-01  2.0193190427369198e-01  2.2834157839899680e-01  2.5143775494624393e-01  2.6404132663344193e-01  2.5058106669133412e-01  1.7977366095869354e-01  0.0000000000000000e+00  -1.4306374792303572e-01  0.0000000000000000e+00  -1.7503366219404792e-01  -1.7054166169606741e-01  -1.5539738291482827e-01  -1.3803642950931191e-01  -1.2113514996881702e-01  -1.0544784834904351e-01  -9.1077281976493146e-02  -7.7909064421224500e-02  -6.5764694148170599e-02  -5.4455397593545112e-02  -4.3801029168067190e-02  -3.3635014656409674e-02  -2.3803403597294527e-02  -1.4162290490179977e-02  -4.5744256361463361e-03  5.0942389262000126e-03  1.4978275870322872e-02  2.5216045811617321e-02  3.5953499929738619e-02  4.7347076755865684e-02  5.9565867227958966e-02  7.2792336945159047e-02  8.7218094281359113e-02  1.0302767128347368e-01  1.2035408305254518e-01  1.3915746788254421e-01  1.5887283347176123e-01  1.7732149157801266e-01  1.8699783741720011e-01  1.6120679813896491e-01  0.0000000000000000e+00  0.0000000000000000e+00  0.0000000000000000e+00  0.0000000000000000e+00  0.0000000000000000e+00  0.0000000000000000e+00  0.0000000000000000e+00  0.0000000000000000e+00  0.0000000000000000e+00  0.0000000000000000e+00  0.0000000000000000e+00  0.0000000000000000e+00  0.0000000000000000e+00  0.0000000000000000e+00  0.0000000000000000e+00  0.0000000000000000e+00  0.0000000000000000e+00  0.0000000000000000e+00  0.0000000000000000e+00  0.0000000000000000e+00  0.0000000000000000e+00  0.0000000000000000e+00  0.0000000000000000e+00  0.0000000000000000e+00  0.0000000000000000e+00  0.0000000000000000e+00  0.0000000000000000e+00  0.0000000000000000e+00  0.0000000000000000e+00  0.0000000000000000e+00  0.0000000000000000e+00  0.0000000000000000e+00  0.0000000000000000e+00  0.0000000000000000e+00  </DataArray> 
</PointData> 
</Piece>
</UnstructuredGrid>
</VTKFile>