<?xml version="1.0"?>
<VTKFile type="UnstructuredGrid"  version="0.1"  >
<UnstructuredGrid>
<Piece  NumberOfPoints="825" NumberOfCells="1536">
<Points>
<DataArray  type="Float64"  NumberOfComponents="3"  format="ascii">-9.792521050200182e-22 0.5 0  0.06249999953274472 0.5000000194337949 0  0.06249997376576321 0.562500023917712 0  -2.690623845490444e-08 0.5625000029835935 0  0.1249999972786632 0.5000000383295896 0  0.124999972112517 0.5625000407244082 0  0.1874999925767251 0.5000000558704069 0  0.1874999683062712 0.5625000556709969 0  0.249999985412092 0.5000000719352988 0  0.2499999624372794 0.5625000685860145 0  0.3124999749743619 0.5000000840076151 0  0.3124999543691878 0.5625000781708256 0  0.3749999601846961 0.5000000895906487 0  0.3749999437367965 0.562500083189025 0  0.4374999409864449 0.5000000888461157 0  0.4374999306852838 0.5625000833128745 0  0.4999999184090942 0.5000000821799759 0  0.4999999157191876 0.5625000785564687 0  0.5624998944905286 0.5000000709352979 0  0.5624998997240367 0.5625000699614755 0  0.6249998727912853 0.5000000587463586 0  0.6249998840552589 0.562500059328733 0  0.6874998538252017 0.5000000460555257 0  0.687499869652352 0.5625000471487824 0  0.7499998366169973 0.500000031103781 0  0.7499998567880939 0.5625000336372717 0  0.8124998228884032 0.5000000166555519 0  0.8124998461019938 0.562500019857902 0  0.8749998128997504 0.5000000026455348 0  0.8749998378769633 0.5625000058576901 0  0.9374998055537106 0.4999999876481901 0  0.9374998320590833 0.5624999919204768 0  0.9999998028749271 0.4999999752960869 0  0.9999998290218832 0.5624999790629832 0  1.062499803584826 0.4999999638238527 0  1.062499828691353 0.5624999666900572 0  1.12499980545429 0.4999999499240697 0  1.124999830550666 0.5624999544956715 0  1.187499811623636 0.499999939407887 0  1.187499834737207 0.5624999438219145 0  1.249999821215268 0.4999999310889164 0  1.24999984123471 0.5624999345703324 0  1.312499831559561 0.4999999215043199 0  1.312499849477575 0.562499926581871 0  1.374999845573764 0.4999999164846822 0  1.374999859444418 0.5624999212489776 0  1.437499862131215 0.499999914947306 0  1.437499870963 0.5624999186438291 0  1.499999878812939 0.4999999144010994 0  1.499999883379998 0.562499918852857 0  1.562499897911981 0.49999992028372 0  1.562499896597371 0.5624999229914915 0  1.624999918248426 0.4999999306956437 0  1.624999910407857 0.5624999305139347 0  1.687499937446081 0.4999999418621056 0  1.687499924041952 0.5624999404667376 0  1.74999995672341 0.4999999566679638 0  1.749999937017036 0.5624999527567726 0  1.812499974473107 0.4999999728165738 0  1.812499948800951 0.5624999663174671 0  1.874999988131288 0.4999999864284939 0  1.874999958485189 0.5624999799198313 0  1.93749999760758 0.499999997024538 0  1.937499965411856 0.5624999939300509 0  2 0.5 0  1.999999969927287 0.5625000155283668 0  0.06249995329986083 0.6250000283281055 0  -4.740213975098147e-08 0.6250000113653049 0  0.1249999525155302 0.6250000428161716 0  0.1874999500196188 0.6250000554201395 0  0.2499999458942268 0.6250000659750379 0  0.3124999401841339 0.6250000737396185 0  0.3749999328451288 0.6250000779471881 0  0.4374999239643638 0.6250000781919195 0  0.4999999138132449 0.6250000745035579 0  0.5624999028430379 0.6250000674915972 0  0.624999891742813 0.6250000580839982 0  0.6874998811948453 0.6250000469437502 0  0.7499998716369393 0.6250000345781639 0  0.8124998634577154 0.6250000215362245 0  0.8749998569523041 0.6250000081983393 0  0.9374998522463645 0.6249999949509023 0  0.9999998494948652 0.6249999821857564 0  1.062499848749463 0.6249999699645417 0  1.124999849822925 0.6249999583972501 0  1.187499852607029 0.6249999479115059 0  1.249999857031006 0.6249999387866702 0  1.312499862828039 0.6249999312855071 0  1.374999869787495 0.6249999259184629 0  1.437499877731178 0.6249999230420137 0  1.499999886337998 0.6249999229299331 0  1.562499895386485 0.624999925868208 0  1.624999904680798 0.6249999317152515 0  1.687499913825656 0.6249999400391051 0  1.749999922412053 0.6249999504135911 0  1.812499930016935 0.6249999622608013 0  1.874999936047993 0.6249999751755984 0  1.937499939938769 0.6249999898859099 0  1.999999941783595 0.6250000087417735 0  0.06249993840487843 0.6875000329979745 0  -6.201357396125647e-08 0.6875000203545601 0  0.1249999380832009 0.6875000447215294 0  0.1874999366373145 0.6875000550457495 0  0.2499999340151015 0.6875000635795638 0  0.3124999302515374 0.6875000697738203 0  0.3749999253769565 0.6875000730895651 0  0.4374999194589123 0.6875000731976127 0  0.4999999126451906 0.6875000700901855 0  0.562499905194901 0.6875000641103013 0  0.6249998974959599 0.6875000558142518 0  0.6874998899777353 0.6875000457555708 0  0.7499998830071586 0.6875000344312732 0  0.8124998768925855 0.6875000223022758 0  0.874999871874595 0.6875000097736708 0  0.9374998681148698 0.6874999972127894 0  0.9999998657327452 0.6874999849318432 0  1.062499864770668 0.6874999731458734 0  1.124999865163674 0.6874999620690905 0  1.187499866818056 0.6874999519892409 0  1.249999869624347 0.6874999431986746 0  1.312499873414237 0.6874999359986905 0  1.374999878010396 0.6874999307309668 0  1.437499883238503 0.6874999276996595 0  1.49999988890095 0.687499927135297 0  1.562499894819468 0.6874999291618634 0  1.624999900814195 0.687499933698453 0  1.687499906640824 0.6874999404769021 0  1.749999912011178 0.6874999491322819 0  1.812499916596766 0.6874999592624127 0  1.874999920022305 0.6874999706045944 0  1.937499922025613 0.6874999832493268 0  1.999999922785316 0.6874999972009351 0  0.06249992823225706 0.7500000376972383 0  -7.1988443461912e-08 0.7500000288335971 0  0.124999928122452 0.7500000466229416 0  0.1874999273706212 0.7500000547293255 0  0.2499999258549047 0.7500000614338858 0  0.3124999235558373 0.7500000662255172 0  0.3749999204873097 0.7500000686721718 0  0.4374999166878204 0.7500000685041152 0  0.4999999122396333 0.7500000656790421 0  0.5624999072927732 0.7500000603892168 0  0.6249999020727963 0.7500000529922479 0  0.6874998968476423 0.7500000439098505 0  0.7499998918801519 0.7500000335673963 0  0.812499887404496 0.7500000223721534 0  0.874999883613348 0.7500000107017174 0  0.9374998806519824 0.7499999988996393 0  0.999999878619576 0.7499999872666379 0  1.062499877557365 0.7499999760601136 0  1.124999877443349 0.7499999655265863 0  1.187499878214064 0.7499999559284481 0  1.249999879777633 0.7499999475375578 0  1.312499882014325 0.7499999406300419 0  1.374999884791759 0.749999935478888 0  1.437499887975372 0.7499999323231796 0  1.499999891429737 0.749999931334303 0  1.562499895024774 0.749999932580187 0  1.624999898625215 0.7499999359902922 0  1.687499902069475 0.7499999413576509 0  1.749999905166735 0.7499999483747314 0  1.812499907705454 0.7499999566813284 0  1.874999909488674 0.7499999659177805 0  1.937499910440845 0.7499999756832552 0  1.999999910736955 0.7499999851634893 0  0.06249992176984012 0.8125000421745798 0  -7.834018378300583e-08 0.8125000364181652 0  0.1249999217626861 0.8125000485448894 0  0.1874999214373844 0.8125000545731504 0  0.2499999206688535 0.812500059597472 0  0.3124999194008357 0.8125000631102869 0  0.3749999176149391 0.812500064726288 0  0.4374999153177355 0.8125000642053725 0  0.4999999125467294 0.8125000614794529 0  0.5624999093830306 0.8125000566514714 0  0.6249999059559284 0.8125000499579833 0  0.6874999024296604 0.8125000417137819 0  0.7499998989800944 0.8125000322660189 0  0.8124998957749789 0.8125000219659537 0  0.8749998929604397 0.8125000111526927 0  0.9374998906527009 0.8125000001436868 0  0.9999998889325402 0.8124999892290441 0  1.062499887839154 0.8124999786736793 0  1.124999887369031 0.8124999687297171 0  1.187499887483878 0.8124999596475314 0  1.249999888119666 0.8124999516766137 0  1.312499889193907 0.8124999450602229 0  1.374999890614885 0.812499940023772 0  1.437499892289424 0.8124999367543853 0  1.499999894126941 0.8124999353757555 0  1.562499896040241 0.8124999359224448 0  1.624999897939841 0.8124999383204909 0  1.687499899725638 0.8124999423842558 0  1.749999901285649 0.8124999478284692 0  1.812499902507414 0.8124999542832059 0  1.874999903310078 0.8124999612870303 0  1.937499903698702 0.8124999682052 0  1.999999903798933 0.8124999740078271 0  0.06249991815562762 0.8750000462727421 0  -8.189881613250811e-08 0.8750000429900562 0  0.1249999182011218 0.8750000504382469 0  0.1874999181280837 0.8750000545976481 0  0.2499999178366815 0.8750000580954835 0  0.3124999172586901 0.8750000604383803 0  0.3749999163527826 0.875000061266473 0  0.4374999150993726 0.875000060353069 0  0.4999999135029687 0.8750000576107593 0  0.5624999115984616 0.8750000530859084 0  0.6249999094539099 0.8750000469355439 0  0.6874999071649612 0.8750000393935422 0  0.749999904842789 0.875000030737782 0  0.8124999026008362 0.8750000212648658 0  0.8749999005435709 0.8750000112728394 0  0.9374998987580022 0.8750000010501326 0  0.99999989730734 0.8749999908695584 0  1.062499896226542 0.8749999809877679 0  1.124999895521498 0.8749999716491429 0  1.187499895172692 0.8749999630894953 0  1.249999895141203 0.8749999555355819 0  1.312499895375349 0.8749999491996521 0  1.374999895817548 0.874999944268819 0  1.437499896410128 0.8749999408894408 0  1.499999897098715 0.8749999391485078 0  1.562499897832644 0.874999939055216 0  1.624999898562324 0.8749999405268903 0  1.687499899236127 0.8749999433825063 0  1.74999989980147 0.8749999473418733 0  1.812499900213955 0.874999952021611 0  1.874999900455681 0.8749999569115704 0  1.937499900554738 0.8749999613119189 0  1.99999990058125 0.8749999642184818 0  0.06249991669959452 0.9375000499153417 0  -8.333086898006593e-08 0.9375000485632446 0  0.1249999167728387 0.9375000522429119 0  0.1874999168432639 0.9375000547764276 0  0.2499999168420266 0.9375000569149583 0  0.3124999167047774 0.9375000581974863 0  0.374999916379963 0.9375000582873008 0  0.4374999158310471 0.9375000569666682 0  0.499999915039536 0.9375000541347452 0  0.5624999140089814 0.9375000498002906 0  0.6249999127670178 0.9375000440655504 0  0.6874999113630372 0.9375000371037
[...]
<PointData  Scalars="p"> 
<DataArray  type="Float64"  Name="p"  format="ascii">0.0000000000000000e+00  -9.4740579198058443e-05  -1.0040618703506007e-04  0.0000000000000000e+00  -1.6328471609408001e-04  -1.6726290976596905e-04  -2.0914755300259301e-04  -2.1063718373897991e-04  -2.3686628145930510e-04  -2.3637329617222746e-04  -2.5037462561289231e-04  -2.4854136003526459e-04  -2.5276454227510215e-04  -2.5012317061302939e-04  -2.4640095590089812e-04  -2.4334785684223769e-04  -2.3308050639614099e-04  -2.2990864222598335e-04  -2.1421082277151132e-04  -2.1112852133001262e-04  -1.9090656443908674e-04  -1.8806535107018086e-04  -1.6407528983771672e-04  -1.6158568387805502e-04  -1.3448131209015462e-04  -1.3242087382521651e-04  -1.0277306620426123e-04  -1.0120048975229325e-04  -6.9530876602837566e-05  -6.8487733725473645e-05  -3.5297536588557087e-05  -3.4806717280475235e-05  -5.8345162439091435e-07  -6.5238437300022187e-07  3.4124483139215837e-05  3.3501145353848027e-05  6.8363081845651332e-05  6.7191550719069239e-05  1.0163612340577791e-04  9.9936115902970774e-05  1.3339458209032541e-04  1.3121096736827829e-04  1.6307852474641983e-04  1.6046100287909546e-04  1.9003801777741242e-04  1.8706075355474111e-04  2.1349723927274668e-04  2.1027591289765192e-04  2.3256959395140107e-04  2.2925092163768456e-04  2.4614428259401672e-04  2.4293885601568449e-04  2.5280447797008043e-04  2.5002015604974181e-04  2.5077638082852700e-04  2.4882464890172074e-04  2.3772235357600877e-04  2.3715636925612666e-04  2.1054978407159937e-04  2.1203755788673953e-04  1.6529504649922836e-04  1.6929910116882175e-04  9.7044942926376426e-05  1.0255347522154406e-04  0.0000000000000000e+00  0.0000000000000000e+00  -1.1112417292331452e-04  0.0000000000000000e+00  -1.7676945654837093e-04  -2.1585198539062118e-04  -2.3742067359911460e-04  -2.4640802659948562e-04  -2.4585449295956964e-04  -2.3782235042861280e-04  -2.2381252306584383e-04  -2.0497832874808510e-04  -1.8224458337028505e-04  -1.5637821000158807e-04  -1.2803340411350863e-04  -9.7783187292191341e-05  -6.6145920942702142e-05  -3.3604490060723500e-05  -6.1721587843781047e-07  3.2373015709571566e-05  6.4927419579215647e-05  9.6593448125181021e-05  1.2689076307068176e-04  1.5530478789080882e-04  1.8126520830780715e-04  2.0411992624667097e-04  2.2310979167363960e-04  2.3731975187045044e-04  2.4560754394004856e-04  2.4649405380056599e-04  2.3794264891912950e-04  2.1691021045036659e-04  1.7834813723799668e-04  1.1274828571983962e-04  0.0000000000000000e+00  -1.2233996782960122e-04  0.0000000000000000e+00  -1.8845100819968417e-04  -2.2388626722980541e-04  -2.4105770400987119e-04  -2.4624584560444202e-04  -2.4287102046920600e-04  -2.3298203139735522e-04  -2.1793771990309056e-04  -1.9872637236337780e-04  -1.7612423573494415e-04  -1.5077594572926036e-04  -1.2323729252322157e-04  -9.4003422052682124e-05  -6.3529279377046773e-05  -3.2242804022084358e-05  -5.5355609475765970e-07  3.1139358140546660e-05  6.2438202252388354e-05  9.2935723776547000e-05  1.2220594283619333e-04  1.4979586782032120e-04  1.7521223515665809e-04  1.9790217726451632e-04  2.1722766043590953e-04  2.3242195561431624e-04  2.4251034474006048e-04  2.4615588791520069e-04  2.4133318980700834e-04  2.2461933544952499e-04  1.8963425256481538e-04  1.2360035729230492e-04  0.0000000000000000e+00  -1.3307689074707572e-04  0.0000000000000000e+00  -2.0075710948326607e-04  -2.3359094805384587e-04  -2.4688444974296455e-04  -2.4834190578852162e-04  -2.4195128325383270e-04  -2.2989803841686355e-04  -2.1348907345488931e-04  -1.9359391497540711e-04  -1.7085896799980834e-04  -1.4580971180880005e-04  -1.1889952112829761e-04  -9.0537863201998532e-05  -6.1107538823123824e-05  -3.0973833651383185e-05  -4.9010618115771198e-07  2.9996801778799192e-05  6.0140405059756526e-05  8.9588261616244127e-05  1.1797606598925403e-04  1.4492231820092681e-04  1.7001876691423925e-04  1.9281478478583650e-04  2.1279109732734715e-04  2.2931103994503496e-04  2.4151987687519180e-04  2.4813323306520672e-04  2.4698945103584987e-04  2.3410103110815795e-04  2.0168106861884527e-04  1.3411356453296017e-04  0.0000000000000000e+00  -1.4321567565726625e-04  0.0000000000000000e+00  -2.1304453016165382e-04  -2.4412703837694053e-04  -2.5419675263603736e-04  -2.5227073488165897e-04  -2.4295441229591700e-04  -2.2865702236470490e-04  -2.1070842217195461e-04  -1.8991103631526283e-04  -1.6681231811717652e-04  -1.4183475622382821e-04  -1.1533629314933207e-04  -8.7642156988512236e-05  -5.9061560563537641e-05  -2.9894466215428536e-05  -4.3459078878721344e-07  2.9027717904673539e-05  5.8202208987374277e-05  8.6795331219694235e-05  1.1450773316075512e-04  1.4103090803745737e-04  1.6604082005564164e-04  1.8918196241256887e-04  2.1003766661339821e-04  2.2807061578932085e-04  2.4249381835578733e-04  2.5199994246959806e-04  2.5420380556162190e-04  2.4450347463856117e-04  2.1381087342014100e-04  1.4411578136667899e-04  0.0000000000000000e+00  -1.5277788994484760e-04  0.0000000000000000e+00  -2.2499895132253926e-04  -2.5490629611904460e-04  -2.6232125239359033e-04  -2.5742153366184228e-04  -2.4540297778516336e-04  -2.2892837298013304e-04  -2.0939482208225666e-04  -1.8757734983885292e-04  -1.6395397148626504e-04  -1.3886387978225375e-04  -1.1258174658615572e-04  -8.5355387889361661e-05  -5.7423774669104732e-05  -2.9022905901758919e-05  -3.8698922527020636e-07  2.8250788070549094e-05  5.6657138260951519e-05  8.4597844153016114e-05  1.1183705180890820e-04  1.3813656850046626e-04  1.6324947638234771e-04  1.8690354457300164e-04  2.0876512399458180e-04  2.2836599653999317e-04  2.4494660264590595e-04  2.5713198755264867e-04  2.6228272480647056e-04  2.5520821169755476e-04  2.2566869632168913e-04  1.5358968358481908e-04  0.0000000000000000e+00  -1.6174286816382667e-04  0.0000000000000000e+00  -2.3638103736863772e-04  -2.6546727462514080e-04  -2.7066987248596577e-04  -2.6318396554059496e-04  -2.4873714901935817e-04  -2.3023915291132973e-04  -2.0917159558343960e-04  -1.8630606265445822e-04  -1.6207347226732409e-04  -1.3674773083516639e-04  -1.1053355416646533e-04  -8.3610580086256069e-05  -5.6153802776720420e-05  -2.8339471365324791e-05  -3.4525133340090537e-07  2.7650482646847721e-05  5.5469267680977414e-05  8.2933202021361622e-05  1.0986617790099680e-04  1.3609356667540395e-04  1.6143695238321850e-04  1.8569372743750039e-04  2.0859505586016106e-04  2.2971937595391486e-04  2.4830963543541902e-04  2.6290513687194121e-04  2.7061874476687169e-04  2.6572886954767943e-04  2.3698569700903203e-04  1.6248857386951649e-04  0.0000000000000000e+00  -1.7001005944716231e-04  0.0000000000000000e+00  -2.4693112809340788e-04  -2.7539355818312865e-04  -2.7872085065575497e-04  -2.6899702205386122e-04  -2.5241239594248511e-04  -2.3209728639238635e-04  -2.0961664771911473e-04  -1.8574915543638899e-04  -1.6089318498573510e-04  -1.3527169217021024e-04  -1.0903171211977821e-04  -8.2294609545268733e-05  -5.5179126561614990e-05  -2.7807905183592351e-05  -3.0715381040905169e-07  2.7195042540196974e-05  5.4570453983020909e-05  8.1692641491578624e-05  1.0843880092362898e-04  1.3469065448588359e-04  1.6032755738687210e-04  1.8520481328551064e-04  2.0910383388937620e-04  2.3163433955840040e-04  2.5203110864805193e-04  2.6874818824016659e-04  2.7867613657808673e-04  2.7563166359026751e-04  2.4748256045899810e-04  1.7069439391159983e-04  0.0000000000000000e+00  -1.7740359116046067e-04  0.0000000000000000e+00  -2.5634250606546981e-04  -2.8427424380323096e-04  -2.8599440788775268e-04  -2.7435330159257369e-04  -2.5593089146831423e-04  -2.3404205154501780e-04  -2.1032251186579116e-04  -1.8555951163531909e-04  -1.6012707676256970e-04  -1.3420775797091559e-04  -1.0790156428891168e-04  -8.1281212230423634e-05  -5.4417606740848506e-05  -2.7387115088406118e-05  -2.7105935570632488e-07  2.6846578192791161e-05  5.3881687523015686e-05  8.0752626668473138e-05  1.0738284874763510e-04  1.3370144178130692e-04  1.5963653721022715e-04  1.8508963799859852e-04  2.0988232624654380e-04  2.3364728586272086e-04  2.5560843137438212e-04  2.7414697205620383e-04  2.8596657650034477e-04  2.8449443846964367e-04  2.5683951019366165e-04  1.7801920272493739e-04  0.0000000000000000e+00  -1.8368963861117822e-04  0.0000000000000000e+00  -2.6426462401640686e-04  -2.9169295825619192e-04  -2.9204007892930670e-04  -2.7879442149852934e-04  -2.5884947017231163e-04  -2.3566280173193492e-04  -2.1092270675218528e-04  -1.8542076443595743e-04  -1.5951054981699035e-04  -1.3334193009941799e-04  -1.0697699623784900e-04  -8.0449016325384541e-05  -5.3789767429853243e-05  -2.7037426540020134e-05  -2.3601764320315841e-07  2.6567283663371765e-05  5.3325168568033286e-05  7.9993310305769230e-05  1.0653317987480338e-04  1.3291289505548069e-04  1.5909932225876053e-04  1.8503182529801450e-04  2.1056311789953582e-04  2.3534539417983827e-04  2.5859555816728249e-04  2.7863898313455629e-04  2.9203394151955750e-04  2.9189374281025790e-04  2.6469710309753793e-04  1.8422093205479060e-04  0.0000000000000000e+00  -1.8859778871216265e-04  0.0000000000000000e+00  -2.7031983037062793e-04  -2.9723425070428812e-04  -2.9643585652482020e-04  -2.8191028422127018e-04  -2.6078199883189477e-04  -2.3660679858066223e-04  -2.1110365368607633e-04  -1.8506178715744495e-04  -1.5881563390910165e-04  -1.3248852472827545e-04  -1.0611279455704549e-04  -7.9691221299800486e-05  -5.3225346234505889e-05  -2.6723754548612192e-05  -2.0142048136948192e-07  2.6323233082127663e-05  5.2831674715066244e-05  7.9308627787201910e-05  1.0574513279589230e-04  1.3213922173506152e-04  1.5848798071705996e-04  1.8475932745559736e-04  2.1083193518799459e-04  2.3637440205764504e-04  2.6060411014826502e-04  2.8181119473642428e-04  2.9645243376753670e-04  2.9740911665352646e-04  2.7067193187503438e-04  1.8902370542880670e-04  0.0000000000000000e+00  -1.9184306024724225e-04  0.0000000000000000e+00  -2.7412619190983234e-04  -3.0049848600507192e-04  -2.9879697182943262e-04  -2.8334327433824166e-04  -2.6140382164281732e-04  -2.3658409633598511e-04  -2.1061147435106714e-04  -1.8426423560100630e-04  -1.5785893424379019e-04  -1.3149768023481886e-04  -1.0519123722156684e-04  -7.8920818960365313e-05  -5.2666907311961761e-05  -2.6417415156654244e-05  -1.6694396126721736e-07  2.6086349098893511e-05  5.2344215486867708e-05  7.8611802526407182e-05  1.0490075642707988e-04  1.3123004183554406e-04  1.5761768821456244e-04  1.8405259189730375e-04  2.1043251796444917e-04  2.3644270996966640e-04  2.6130698659933066e-04  2.8330385784706801e-04  2.9883466940889728e-04  3.0063821535151802e-04  2.7437884458481022e-04  1.9213979141084961e-04  0.0000000000000000e+00  -1.9314709473192447e-04  0.0000000000000000e+00  -2.7532091827090735e-04  -3.0112124033186173e-04  -2.9878842153533997e-04  -2.8279695326552943e-04  -2.6045643310857429e-04  -2.3537185652853238e-04  -2.0925477258049320e-04  -1.8286590220302555e-04  -1.5650448813464188e-04  -1.3025824221111511e-04  -1.0412456302492744e-04  -7.8072657366598961e-05  -5.2071312974456318e-05  -2.6096970780735013e-05  -1.3270574447048783e-07  2.5834908694934999e-05  5.1819245164636720e-05  7.7837004512653008e-05  1.0391132311912208e-04  1.3007259733289353e-04  1.5635064357258862e-04  1.8274644072854206e-04  2.0917123514174328e-04  2.3532409123570708e-04  2.6044383795791081e-04  2.8281823687411386e-04  2.9884453412079576e-04  3.0121544767779546e-04  2.7545427839486907e-04  1.9329014885784496e-04  0.0000000000000000e+00  -1.9225650167374115e-04  0.0000000000000000e+00  -2.7358248950893011e-04  -2.9879213529243929e-04  -2.9613905842943859e-04  -2.8004414041611419e-04  -2.5775232532856897e-04  -2.3281470070591747e-04  -2.0690464777076598e-04  -1.8075836948492353e-04  -1.5466194488304494e-04  -1.2869541608844827e-04  -1.0285302026528115e-04  -7.7101662730472096e-05  -5.1408346593215492e-05  -2.5747233103124893e-05  -9.8714656511634506e-08  2.5553669419260110e-05  5.1226337890592378e-05  7.6938756832054480e-05  1.0271626556269870e-04  1.2859106794696666e-04  1.5459461931419181e-04  1.8073084416851386e-04  2.0691624282594384e-04  2.3286134843008983e-04  2.5782426257881912e-04  2.8012554239348044e-04  2.9620917714910373e-04  2.9882977404758321e-04  2.7357655106469543e-04  1.9222188010171247e-04  0.0000000000000000e+00  -1.8895728595090923e-04  0.0000000000000000e+00  -2.6864854886754817e-04  -2.9327073749569937e-04  -2.9065320175193654e-04  -2.7493363403738536e-04  -2.5317636669323532e-04  -2.2882341311297546e-04  -2.0348882053037462e-04  -1.7788138806908773e-04  -1.5227873145140237e-04  -1.2676395982325625e-04  -1.0133823678361126e-04  -7.5977481092319907e-05  -5.0656609038098434e-05  -2.5356735597849698e-05  -6.3959628342270409e-08  2.5233105104570684e-05  5.0545867117045760e-05  7.5888098599799457e-05  1.0127833064219688e-04  1.2674052330577772e-04  1.5229735921295696e-04  1.7794443304450119e-04  2.0359450097943041e-04  2.2896288805147506e-04  2.5333092709682901e-04  2.7507170488312501e-04  2.9073056295832189e-04  2.9323936668805681e-04  2.6848331441715119e-04  1.8872229576816238e-04  0.0000000000000000e+00  -1.8308344774547016e-04  0.0000000000000000e+00  -2.6032596633866403e-04  -2.8439477190045099e-04  -2.8221404500950099e-04  -2.6738872563118911e-04  -2.4667884212957388e-04  -2.2336326775942715e-04  -1.9897817174884853e-04  -1.7420576277418963e-04  -1.4932475362216976e-04  -1.2443247299638460e-04  -9.9550350167405835e-05  -7.4673934466507627e-05  -4.9796346892289899e-05  -2.4913986282134458e-05  -2.6333270174397799e-08  2.4865873406652293e-05  4.9761910136238917e-05  7.4662344758883020e-05  9.9570297732140954e-05  1.2449189260226588e-04  1.4942947118248308e-04  1.7435858998105568e-04  1.9917547062411428e-04  2.2359189985087812e-04  2.4691106096692139e-04  2.6757648928949385e-04  2.8228908153367800e-04  2.8428033598677164e-04  2.5998186070958174e-04  1.8262732895891042e-04  0.0000000000000000e+00  -1.7451608199038117e-04  0.0000000000000000e+00  -2.4848766509806238e-04  -2.7207205738290376e-04  -2.7076884584336210e-04  -2.5738386930827730e-04  -2.3824560549365439e-04  -2.1641806306594807e-04  -1.9334764886789043e-04  -1.6969537908837618e-04  -1.4575425166467513e-04  -1.2165092174491888e-04  -9.7439564083491749e-05  -7.3147441715173156e-05  -4.8794433791806804e-05  -2.4399779414264975e-05  1.7758826801311999e-08  2.4439819136990901e-05  4.8848167921436275e-05  7.3224047822710136e-05  9.7548065238307942e-05  1.2179919704563293e-04  1.4594870468628067e-04  1.6993820607089869e-04  1.9363372168712658e-04  2.1673000236689831e-04  2.3854647973405398e-04  2.5760994284108641e-04  2.7082738348327233e-04  2.7185689851883058e-04  2.4794353137513257e-04  1.7381844241071224e-04  0.0000000000000000e+00  -1.6316715108654053e-04  0.0000000000000000e+00  -2.3304528216157221e-04  -2.5624128701751424e-04  -2.5627651094175218e-04  -2.4487916506191887e-04  -2.2782150868981695e-04  -2.0790859594484778e-04  -1.8649258150523935e-04  -1.6422619790563780e-04  -1.4143324145824660e-04  -1.1828549697988618e-04  -9.4883715767253145e-05  -7.1296073727941683e-05  -4.7576925606636225e-05  -2.3772974693248688e-05  7.3967710938082449e-08  2.3925085938813891e-05  4.7741612336012952e-05  7.1481932090786989e-05  9.5098894306029977e-05  1.1853748741447901e-04  1.4172738739100840e-04  1.6456380179775767e-04  1.8686617052477217e-04  2.0829601572066445e-04  2.2817760632711735e-04  2.4512508389160922e-04  2.5629593362072660e-04  2.5589978501976731e-04  2.3227371969215466e-04  1.6220447359241742e-04  0.0000000000000000e+00  -1.4893595971035662e-04  0.0000000000000000e+00  -2.1387445321161512e-04  -2.3676730265817929e-04  -2.3857373335929956e-04  -2.2966366289625025e-04  -2.1513906857748276e-04  -1.9751605087905055e-04  -1.7805820156324649e-04  -1.5742731608795865e-04  -1.3599685578327315e-04  -1.1399846563624795e-04  -9.1589394658361188e-05  -6.8885838162972975e-05  -4.5979482697142735e-05  -2.2946184975594283e-05  1.4937149878780605e-07  2.3248331395235281e-05  4.6291973574707893e-05  6.9215516608991297e-05  9.1942781791875251e-05  1.1438072588610753e-04  1.3641126835529479e-04  1.5787213457348531e-04  1.7852191239619384e-04  1.9797122449280707e-04  2.1553195407911422e-04  2.2990151851011705e-04  2.3851938370629967e-04  2.3626090976340054e-04  2.1283669317498363e-04  1.4767701478459586e-04  0.0000000000000000e+00  -1.3161233715671075e-04  0.0000000000000000e+00  -1.9063994867682128e-04  -2.1319435808994980e-04  -2.1706775204631898e-04  -2.1100702993190242e-04  -1.9935340030252909e-04  -1.8432045935773032e-04  -1.6709672165900907e-04  -1.4837049707637671e-04  -1.2857788054991461e-04  -1.0801836485872239e-04  -8.6908936157407022e-05  -6.5412826032812372e-05  -4.3656845623473802e-05  -2.1741607294185728e-05  2.4981825968422218e-07  2.2243604006939296e-05  4.4165823200678632e-05  6.5933170508380060e-05  8.7443881215275158e-05  1.0856954232486068e-04  1.2914379107921401e-04  1.4894387092717761e-04  1.6765952151103647e-04  1.8483724830047266e-04  1.9976093584328378e-04  2.1119992273321345e-04  2.1689140561032729e-04  2.1246923426128814e-04  1.8928330205326204e-04  1.3001474640307470e-04  0.0000000000000000e+00  -1.1066948281832465e-04  0.0000000000000000e+00  -1.6240443996029262e-04  -1.8419374975878167e-04  -1.9006840730600763e-04  -1.8693037737087630e-04  -1.7830138529890458e-04  -1.6608836190095408e-04  -1.5141003601359753e-04  -1.3498228473415871e-04  -1.1729896483198482e-04  -9.8717638966149370e-05  -7.9503132190941151e-05  -5.9853741838486119e-05  -3.9919021434444756e-05  -1.9813448385170405e-05  3.7219258464735626e-07  2.0558960413146091e-05  4.0667739193609123e-05  6.0606761767605818e-05  8.0259748110999912e-05  9.9473980066064384e-05  1.1804687461302233e-04  1.3570607543456509e-04  1.5208163554353515e-04  1.6666155967987297e-04  1.7870120444429637e-04  1.8703882085015436e-04  1.8971803161553827e-04  1.8319387158102380e-04  1.6067652294524552e-04  1.0868947041694600e-04  0.0000000000000000e+00  -8.4790481171682081e-05  0.0000000000000000e+00  -1.2672478375954675e-04  -1.4632639963773413e-04  -1.5335288514913622e-04  -1.5270257741989462e-04  -1.4702570833665225e-04  -1.3788640693179169e-04  -1.2629130735704428e-04  -1.1293594825654872e-04  -9.8323844838376544e-05  -8.2827103119932188e-05  -6.6720939525537852e-05  -5.0207572979781130e-05  -3.3434770026670423e-05  -1.6510649114184912e-05  4.8270503016233162e-07  1.7476189460742888e-05  3.4400201064923848e-05  5.1171156731630206e-05  6.7677882010387926e-05  8.3768263535504889e-05  9.9233783483610038e-05  1.1378989508236464e-04  1.2705080743853340e-04  1.3849377679690491e-04  1.4739468215352225e-04  1.5270617231482621e-04  1.5281872911542536e-04  1.4506306386252832e-04  1.2465986371438875e-04  8.2457185652287611e-05  0.0000000000000000e+00  -5.0701266371084716e-05  0.0000000000000000e+00  -7.7521361921177657e-05  -9.1299209075186195e-05  -9.7153491570371834e-05  -9.7810197623402859e-05  -9.4884511313084559e-05  -8.9421238970769493e-05  -8.2142525026476397e-05  -7.3569621948092636e-05  -6.4086895826047155e-05  -5.3978243332533665e-05  -4.3450877042915126e-05  -3.2653307708101133e-05  -2.1689892471683323e-05  -1.0633232526287089e-05  4.6485492530287649e-07  1.1562628520921553e-05  2.2617841425266191e-05  3.3576928371096522e-05  4.4364184612670661e-05  5.4870506864168362e-05  6.4940946929811864e-05  7.4359155416073359e-05  8.2828607582265804e-05  8.9948170753200370e-05  9.5172781254497608e-05  9.7747907076049239e-05  9.6593242803739193e-05  9.0077258953992742e-05  7.5563637826489007e-05  4.8448734846624293e-05  0.0000000000000000e+00  0.0000000000000000e+00  0.0000000000000000e+00  0.0000000000000000e+00  0.0000000000000000e+00  0.0000000000000000e+00  0.0000000000000000e+00  0.0000000000000000e+00  0.0000000000000000e+00  0.0000000000000000e+00  0.0000000000000000e+00  0.0000000000000000e+00  0.0000000000000000e+00  0.0000000000000000e+00  0.0000000000000000e+00  0.0000000000000000e+00  0.0000000000000000e+00  0.0000000000000000e+00  0.0000000000000000e+00  0.0000000000000000e+00  0.0000000000000000e+00  0.0000000000000000e+00  0.0000000000000000e+00  0.000000