<?xml version="1.0"?>
<VTKFile type="UnstructuredGrid"  version="0.1"  >
<UnstructuredGrid>
<Piece  NumberOfPoints="825" NumberOfCells="1536">
<Points>
<DataArray  type="Float64"  NumberOfComponents="3"  format="ascii">-1.045194497070424e-21 0.5 0  0.06249999999040989 0.5000000000534075 0  0.06249999905720783 0.5625000009702106 0  -2.327856431355149e-09 0.5625000000559882 0  0.1249999998970511 0.4999999998717445 0  0.1249999995092302 0.5625000007395042 0  0.1874999995958158 0.4999999993869177 0  0.1874999994223482 0.5625000000770534 0  0.2499999991128367 0.4999999987518032 0  0.2499999990104639 0.5624999992538147 0  0.3124999984483183 0.4999999979930789 0  0.3124999983367427 0.5624999982137588 0  0.3749999970635582 0.4999999965155493 0  0.374999997334832 0.5624999969664989 0  0.437499995670363 0.4999999953142524 0  0.4374999962528783 0.5624999958878174 0  0.4999999944235782 0.4999999943374984 0  0.4999999952834232 0.5624999948910095 0  0.5624999931612483 0.499999992978966 0  0.5624999945046054 0.5624999941078647 0  0.6249999932496605 0.4999999931776665 0  0.6249999942336949 0.5624999941139671 0  0.6874999940886968 0.4999999940684021 0  0.6874999944543518 0.5624999943332649 0  0.7499999941197432 0.4999999933807729 0  0.7499999947272962 0.562499994306592 0  0.8124999949091612 0.4999999939660763 0  0.8124999952348474 0.5624999946638031 0  0.8749999960936827 0.4999999947581744 0  0.8749999959207703 0.5624999949165034 0  0.9374999962532137 0.4999999938999338 0  0.9374999964627279 0.56249999485478 0  0.9999999971687193 0.4999999944846734 0  0.9999999971048771 0.5624999951666841 0  1.062499998279995 0.4999999951522494 0  1.062499997792516 0.5624999953357767 0  1.124999998247324 0.4999999942302342 0  1.124999998245759 0.5624999951874586 0  1.187499998883265 0.4999999946446183 0  1.18749999871329 0.5624999954063735 0  1.249999999761887 0.4999999953139411 0  1.249999999173685 0.5624999955439501 0  1.312499999462882 0.4999999944558536 0  1.31249999935543 0.5624999954092941 0  1.374999999712756 0.4999999948556698 0  1.374999999491534 0.5624999956327067 0  1.437500000044653 0.4999999953929729 0  1.437499999564294 0.5624999958334337 0  1.499999999498775 0.4999999949535797 0  1.499999999356092 0.5624999960209457 0  1.562499999410693 0.4999999960093026 0  1.562499999137145 0.5624999967455977 0  1.624999999577452 0.4999999974012185 0  1.62499999898567 0.5624999975738607 0  1.687499999450276 0.4999999979685858 0  1.687499998756514 0.5624999983147818 0  1.749999999641666 0.4999999988927473 0  1.749999998575745 0.5624999991901071 0  1.812499999923198 0.499999999560693 0  1.812499998424553 0.5624999999925838 0  1.874999999986002 0.499999999732017 0  1.874999998185429 0.5625000008440074 0  1.937500000049395 0.4999999999787407 0  1.937499998152769 0.5625000020725046 0  2 0.5 0  2.000000000483579 0.5625000032537031 0  0.06249999837703701 0.625000001048696 0  -2.568876326129821e-09 0.6250000004576395 0  0.1249999989133563 0.6250000009198323 0  0.1874999990117035 0.625000000341115 0  0.24999999876402 0.6249999995230852 0  0.3124999982514641 0.6249999985408686 0  0.3749999975199425 0.624999997485701 0  0.4374999966935721 0.6249999964992341 0  0.4999999959155313 0.6249999956464305 0  0.5624999952758093 0.6249999950469225 0  0.6249999949085471 0.6249999948289365 0  0.6874999948724215 0.6249999948388986 0  0.7499999950424583 0.6249999949230139 0  0.812499995377484 0.6249999951051484 0  0.8749999958552142 0.6249999952840486 0  0.9374999963605679 0.6249999954124364 0  0.9999999968867842 0.6249999955771469 0  1.062499997434161 0.6249999957039202 0  1.124999997909666 0.6249999957640398 0  1.187499998319778 0.6249999958627636 0  1.249999998679483 0.6249999959504664 0  1.312499998911135 0.6249999960080146 0  1.374999999024339 0.6249999961402541 0  1.43749999903288 0.6249999963375455 0  1.499999998889665 0.6249999966445714 0  1.562499998655088 0.6249999971656572 0  1.624999998394752 0.6249999978343047 0  1.687499998099491 0.6249999985924249 0  1.749999997803753 0.6249999994597757 0  1.812499997544301 0.6250000004251041 0  1.874999997392172 0.6250000015406375 0  1.937499997695682 0.625000002753698 0  1.999999998883474 0.6250000030923513 0  0.06249999803388564 0.6875000007760278 0  -2.488802773675632e-09 0.6875000004025125 0  0.1249999984370337 0.6875000007056634 0  0.1874999985781915 0.6875000002569152 0  0.2499999984490453 0.6874999995601907 0  0.3124999980901798 0.6874999987182634 0  0.3749999975576816 0.6874999978264201 0  0.4374999969360719 0.6874999969808535 0  0.4999999963205811 0.6874999962609446 0  0.5624999957959601 0.687499995742926 0  0.6249999954463034 0.6874999954678436 0  0.687499995314961 0.6874999953864104 0  0.7499999953750766 0.6874999954243697 0  0.812499995591406 0.6874999955365158 0  0.8749999959274758 0.6874999956750628 0  0.9374999963290445 0.6874999958118597 0  0.9999999967643235 0.6874999959471 0  1.062499997208827 0.6874999960645413 0  1.124999997621783 0.6874999961584027 0  1.187499997983111 0.6874999962485736 0  1.249999998279919 0.6874999963373973 0  1.312499998482854 0.687499996433488 0  1.374999998579575 0.6874999965706183 0  1.437499998566374 0.6874999967762357 0  1.499999998438156 0.68749999708598 0  1.56249999822076 0.6874999975357414 0  1.624999997951228 0.6874999981218793 0  1.687499997656119 0.6874999988284678 0  1.749999997375139 0.687499999649549 0  1.812499997168409 0.6875000005699917 0  1.874999997138556 0.6875000015369631 0  1.937499997429818 0.6875000023366103 0  1.999999997924566 0.6875000025420712 0  0.06249999785038218 0.7500000003661493 0  -2.413069759233477e-09 0.7500000001229612 0  0.1249999981007861 0.7500000003245999 0  0.1874999982138128 0.7499999999935831 0  0.2499999981437204 0.7499999994440579 0  0.3124999978978649 0.7499999987616178 0  0.3749999975136769 0.7499999980305403 0  0.4374999970493637 0.7499999973297267 0  0.4999999965728627 0.7499999967270274 0  0.5624999961514437 0.7499999962748963 0  0.6249999958447986 0.7499999959957259 0  0.6874999956882173 0.7499999958708331 0  0.7499999956831868 0.7499999958598855 0  0.8124999958117227 0.749999995922803 0  0.8749999960457794 0.7499999960244599 0  0.9374999963509286 0.7499999961406574 0  0.9999999966964248 0.7499999962583107 0  1.062499997054331 0.7499999963678761 0  1.124999997395956 0.7499999964667045 0  1.187499997698319 0.7499999965606076 0  1.249999997942391 0.7499999966571612 0  1.312499998109043 0.7499999967690781 0  1.374999998185269 0.7499999969175006 0  1.437499998165508 0.749999997127088 0  1.499999998052613 0.7499999974241399 0  1.562499997864056 0.7499999978295711 0  1.62499999762785 0.7499999983490324 0  1.687499997377219 0.7499999989755514 0  1.749999997154849 0.7499999996916288 0  1.812499997015695 0.7500000004574899 0  1.874999997020139 0.7500000011853086 0  1.93749999718408 0.7500000017158399 0  1.999999997362522 0.7500000019166458 0  0.06249999771991848 0.8124999999311636 0  -2.400529337688319e-09 0.8124999997645154 0  0.1249999978568405 0.8124999999068342 0  0.1874999979251456 0.812499999668304 0  0.2499999978775973 0.8124999992516704 0  0.312499997705278 0.812499998718279 0  0.3749999974275593 0.8124999981356065 0  0.4374999970826817 0.8124999975678862 0  0.4999999967189298 0.8124999970698898 0  0.5624999963865061 0.8124999966811725 0  0.6249999961296536 0.8124999964193866 0  0.6874999959776379 0.8124999962781183 0  0.7499999959400111 0.8124999962347074 0  0.8124999960099663 0.8124999962610336 0  0.8749999961697486 0.8124999963305715 0  0.9374999963955163 0.8124999964225946 0  0.9999999966620408 0.8124999965230258 0  1.062499996944438 0.8124999966232671 0  1.124999997218707 0.8124999967204449 0  1.187499997463472 0.812499996817227 0  1.249999997660248 0.8124999969205293 0  1.312499997793402 0.8124999970418142 0  1.374999997852136 0.8124999971971786 0  1.437499997832333 0.8124999974054768 0  1.49999999773834 0.8124999976853575 0  1.562499997584642 0.8124999980504711 0  1.624999997394774 0.8124999985045749 0  1.687499997199213 0.8124999990390606 0  1.749999997034085 0.8124999996298424 0  1.812499996936793 0.8125000002304349 0  1.874999996931598 0.8125000007655598 0  1.937499996999028 0.8125000011458799 0  1.999999997052065 0.8125000013391304 0  0.06249999759807601 0.8749999995260772 0  -2.449952596020347e-09 0.8749999994020812 0  0.1249999976635544 0.8749999995151498 0  0.1874999976941359 0.8749999993462528 0  0.2499999976530324 0.8749999990374411 0  0.3124999975269296 0.8749999986303165 0  0.3749999973239252 0.8749999981756651 0  0.4374999970679908 0.8749999977238559 0  0.4999999967925373 0.8749999973182723 0  0.5624999965339361 0.8749999969902846 0  0.6249999963251412 0.8749999967556191 0  0.687499996189868 0.8749999966139835 0  0.7499999961393159 0.8749999965529984 0  0.8124999961725916 0.8749999965541935 0  0.8749999962793584 0.8749999965982801 0  0.9374999964431597 0.8749999966686414 0  0.999999996644495 0.8749999967528871 0  1.062499996862862 0.874999996843207 0  1.124999997078121 0.8749999969364886 0  1.187499997271696 0.8749999970341236 0  1.249999997427403 0.8749999971415542 0  1.312499997532252 0.874999997267935 0  1.37499999757772 0.8749999974254644 0  1.437499997561188 0.8749999976278142 0  1.49999999748718 0.8749999978875874 0  1.562499997367986 0.874999998212894 0  1.624999997222937 0.8749999986037996 0  1.687499997076513 0.8749999990493442 0  1.749999996955172 0.874999999524767 0  1.812499996881285 0.8749999999895497 0  1.874999996862603 0.8750000003908106 0  1.937499996880803 0.8750000006812495 0  1.999999996895573 0.8750000008553541 0  0.06249999746949202 0.9374999991738975 0  -2.546510444650192e-09 0.9374999990716856 0  0.124999997495375 0.9374999991752374 0  0.187499997501313 0.9374999990585198 0  0.2499999974622376 0.9374999988333129 0  0.3124999973661488 0.9374999985275514 0  0.3749999972155524 0.9374999981782383 0  0.4374999970250723 0.9374999978237186 0  0.499999996817322 0.9374999974978772 0  0.562499996618155 0.9374999972259739 0  0.6249999964519001 0.9374999970222035 0  0.6874999963372567 0.9374999
[...]
<PointData  Scalars="p"> 
<DataArray  type="Float64"  Name="p"  format="ascii">0.0000000000000000e+00  -3.1153432256523958e-07  -3.3512393454672676e-07  0.0000000000000000e+00  -5.2843321590721135e-07  -5.4826552005911239e-07  -6.6387191913626145e-07  -6.7646825165148685e-07  -7.3580220691620226e-07  -7.4261710978010677e-07  -7.6016367613012956e-07  -7.6320891766974567e-07  -7.4965881172675446e-07  -7.5052963330093914e-07  -7.1394711204528044e-07  -7.1374264425230628e-07  -6.6030553508448213e-07  -6.5969612462686519e-07  -5.9415735729063994e-07  -5.9349533881612201e-07  -5.1940774616397954e-07  -5.1887425574995653e-07  -4.3889224924811950e-07  -4.3854969034334804e-07  -3.5468365045325887e-07  -3.5449791830826835e-07  -2.6814380130066995e-07  -2.6807811937220995e-07  -1.8022408468529434e-07  -1.8022662888743802e-07  -9.1579509153410249e-08  -9.1596065043524423e-08  -2.5892039224885371e-09  -2.6134726572334381e-09  8.6418779782053854e-08  8.6377346483377170e-08  1.7509210023681557e-07  1.7501376321868048e-07  2.6305446760892978e-07  2.6287252079620743e-07  3.4968342175948840e-07  3.4933021385892169e-07  4.3401863337262603e-07  4.3344760485618704e-07  5.1472516296240659e-07  5.1389635520211104e-07  5.8980998077038308e-07  5.8876475116991239e-07  6.5644136124515419e-07  6.5536218411673231e-07  7.1078478106879569e-07  7.1003247046205216e-07  7.4753651384189605e-07  7.4779553709044572e-07  7.5949615491787933e-07  7.6191222694352583e-07  7.3710162029014156e-07  7.4334363183316472e-07  6.6767237033666099e-07  6.7983533571002600e-07  5.3494617179640689e-07  5.5443817341613672e-07  3.1949483396753076e-07  3.4225735602783010e-07  0.0000000000000000e+00  0.0000000000000000e+00  -3.8081373114142371e-07  0.0000000000000000e+00  -5.9413704425119934e-07  -7.1025423916021461e-07  -7.6408826963896696e-07  -7.7536710300661449e-07  -7.5654819940712693e-07  -7.1612370109884378e-07  -6.6016603858719033e-07  -5.9312326534875268e-07  -5.1827130461482295e-07  -4.3802180305606154e-07  -3.5413832839612135e-07  -2.6788009369841774e-07  -1.8014045365859710e-07  -9.1557608789351670e-08  -2.5921583396851018e-09  8.6376930748593720e-08  1.7496543899718934e-07  2.6271651859376341e-07  3.4900619090356263e-07  4.3294950672035433e-07  5.1331049708758319e-07  5.8836626651302168e-07  6.5574593838378503e-07  7.1224026101055411e-07  7.5349797149291538e-07  7.7355722114031623e-07  7.6403869697306392e-07  7.1249270540728845e-07  5.9875564465925307e-07  3.8620690359793014e-07  0.0000000000000000e+00  -4.3019026892052744e-07  0.0000000000000000e+00  -6.5024282527871657e-07  -7.5674451045580642e-07  -7.9752293852604661e-07  -7.9734474010436670e-07  -7.6999288021173594e-07  -7.2380917210862126e-07  -6.6425655233036178e-07  -5.9513114332571564e-07  -5.1917368762966777e-07  -4.3840035789031589e-07  -3.5429684776514576e-07  -2.6795221327180651e-07  -1.8016649450957395e-07  -9.1533896628999689e-08  -2.5102579017519104e-09  8.6516463907172449e-08  1.7515757328933592e-07  2.6295997682066686e-07  3.4933766606537954e-07  4.3349951599509865e-07  5.1437270228625370e-07  5.9049844059409711e-07  6.5989812502459678e-07  7.1988637946393553e-07  7.6674598417932582e-07  7.9511871384487125e-07  7.9677208375877147e-07  7.5794144917105596e-07  6.5351955721337181e-07  4.3432827219906918e-07  0.0000000000000000e+00  -4.7811122047917127e-07  0.0000000000000000e+00  -7.0868329028000309e-07  -8.0901574862212173e-07  -8.3830621142028585e-07  -8.2668078774739353e-07  -7.8993308426570597e-07  -7.3678949500279965e-07  -6.7242348737023893e-07  -6.0013975666269305e-07  -5.2219803953280282e-07  -4.4021816059056741e-07  -3.5538752654319268e-07  -2.6859005478535818e-07  -1.8049532668657298e-07  -9.1620229741252633e-08  -2.3791724654412945e-09  8.6865020362382860e-08  1.7574949653330943e-07  2.6386198426049644e-07  3.5069037661698887e-07  4.3557255679917488e-07  5.1763499846581712e-07  5.9570878779041364e-07  6.6820540570468348e-07  7.3291229649608934e-07  7.8659447233138764e-07  8.2417848656511770e-07  8.3704860357403974e-07  8.0944835703921414e-07  7.1099388326885873e-07  4.8137134621257042e-07  0.0000000000000000e+00  -5.2293416644101994e-07  0.0000000000000000e+00  -7.6559254645395417e-07  -8.6243800485547659e-07  -8.8229450624887859e-07  -8.6024011937995038e-07  -8.1426361583234828e-07  -7.5379625247333699e-07  -6.8399704232612081e-07  -6.0786644237645306e-07  -5.2728945351445518e-07  -4.4353930405273884e-07  -3.5752093773588724e-07  -2.6990704558778712e-07  -1.8121881007255065e-07  -9.1872416271290654e-08  -2.2134691758281910e-09  8.7448323165790351e-08  1.7680343968775616e-07  2.6550715951142183e-07  3.5314670814536094e-07  4.3920562118773831e-07  5.2301880019755638e-07  6.0369429721113450e-07  6.7998425410620407e-07  7.5004577672619761e-07  8.1094250786200147e-07  8.5760976441457711e-07  8.8072578053996266e-07  8.6235376917861469e-07  7.6721694801269946e-07  5.2554534822040438e-07  0.0000000000000000e+00  -5.6389297669585795e-07  0.0000000000000000e+00  -8.1881930641541317e-07  -9.1394955173684054e-07  -9.2625629883111995e-07  -8.9514425878168906e-07  -8.4068780340610684e-07  -7.7313882318772587e-07  -6.9781325311538105e-07  -6.1755860409811786e-07  -5.3399367416301310e-07  -4.4811286143327806e-07  -3.6057531884771690e-07  -2.7185666932173831e-07  -1.8232883262937930e-07  -9.2297560666001376e-08  -2.0246072294260247e-09  8.8250841499418070e-08  1.7828938470814054e-07  2.6782971290984589e-07  3.5656754614612315e-07  4.4413489830663188e-07  5.3006088108376276e-07  6.1369659365012052e-07  6.9406874213676804e-07  7.6959519872006944e-07  8.3748748540687265e-07  8.9251766013851449e-07  9.2453702972381757e-07  9.1352982043207075e-07  8.1993888776476181e-07  5.6598825237928125e-07  0.0000000000000000e+00  -6.0040375881034676e-07  0.0000000000000000e+00  -8.6691427108479097e-07  -9.6140368111676892e-07  -9.6774144199923433e-07  -9.2900789922150248e-07  -8.6711925158215895e-07  -7.9312914493209043e-07  -7.1258728261330902e-07  -6.2828759766377598e-07  -5.4167076827151862e-07  -4.5351885668478350e-07  -3.6428970691613721e-07  -2.7428764979495889e-07  -1.8374740461997634e-07  -9.2866925076561521e-08  -1.8210914722392841e-09  8.9226941512039841e-08  1.8011382990102117e-07  2.7066424221119072e-07  3.6068117252312632e-07  4.4993167968727169e-07  5.3811593876890611e-07  6.2478349907093149e-07  7.0916966018638322e-07  7.8986603956160285e-07  8.6413060298650810e-07  9.2649254284017059e-07  9.6599333717208937e-07  9.6077514279600113e-07  8.6764253616354416e-07  6.0205679051841972e-07  0.0000000000000000e+00  -6.3190207286697288e-07  0.0000000000000000e+00  -9.0873652617976212e-07  -1.0031846240691650e-06  -1.0048733611238967e-06  -9.5992625931061818e-07  -8.9180469129806841e-07  -8.1226879061803390e-07  -7.2711208438367903e-07  -6.3912801675954062e-07  -5.4964221150815171e-07  -4.5928097705683725e-07  -3.6834496439551911e-07  -2.7699861807727992e-07  -1.8535985134589300e-07  -9.3531352129876302e-08  -1.6085525057699708e-09  9.0316584678050073e-08  1.8215166284073848e-07  2.7380060085592498e-07  3.6516030735531674e-07  4.5611434444640696e-07  5.4650035486727883e-07  6.3602472453920618e-07  7.2407461883916096e-07  8.0935047147408841e-07  8.8910379239945458e-07  9.5760828511194243e-07  1.0031866636562549e-06  1.0024343169814381e-06  9.0914333358847812e-07  6.3314979017182106e-07  0.0000000000000000e+00  -6.5783024802396945e-07  0.0000000000000000e+00  -9.4331767502713067e-07  -1.0380147491941610e-06  -1.0361949331024928e-06  -9.8640584499986714e-07  -9.1333587112586275e-07  -8.2931714055726633e-07  -7.4035407525632423e-07  -6.4925959289553483e-07  -5.5728519757447874e-07  -4.6494618176897373e-07  -3.7242649647545648e-07  -2.7978371231794790e-07  -1.8704468352943488e-07  -9.4236570251118323e-08  -1.3910614025889206e-09  9.1457345299460125e-08  1.8427373634505128e-07  2.7702534901506120e-07  3.6968427692044546e-07  4.6222329651896032e-07  5.5458682965737701e-07  6.4659453088042017e-07  7.3774267215730645e-07  8.2679937003143298e-07  9.1098614130511944e-07  9.8435381826788140e-07  1.0346383493956901e-06  1.0372024437403031e-06  9.4344462213190867e-07  6.5868677809217374e-07  0.0000000000000000e+00  -6.7766394344972225e-07  0.0000000000000000e+00  -9.6982913549471376e-07  -1.0648706321752286e-06  -1.0605786544417085e-06  -1.0073021056607215e-06  -9.3062958887113358e-07  -8.4330760132150160e-07  -7.5149512417377741e-07  -6.5802176888072143e-07  -5.6408945733407997e-07  -4.7013710020994814e-07  -3.7626798767408960e-07  -2.8246602037147273e-07  -1.8869595964028350e-07  -9.4934432919532986e-08  -1.1714485911319547e-09  9.2595488393748771e-08  1.8636841482403895e-07  2.8015621999634928e-07  3.7398085472832143e-07  4.6787665747941692e-07  5.6185915428537284e-07  6.5582792684851209e-07  7.4934960540744087e-07  8.4123723824240026e-07  9.2868395497147259e-07  1.0055707609885548e-06  1.0592035824698848e-06  1.0640374295418877e-06  9.6969840195900375e-07  6.7812975334293723e-07  0.0000000000000000e+00  -6.9094382655273831e-07  0.0000000000000000e+00  -9.8758685595559286e-07  -1.0829544313159190e-06  -1.0771795453925903e-06  -1.0217796427046689e-06  -9.4290422898407366e-07  -8.5354715060448072e-07  -7.5994921335833192e-07  -6.6494178403562698e-07  -5.6968999820526515e-07  -4.7458425253349520e-07  -3.7967970041550380e-07  -2.8491973455680105e-07  -1.9023819165384738e-07  -9.5589979003312389e-08  -9.5020294676691515e-10  9.3694962926181665e-08  1.8835895589319738e-07  2.8306554252679471e-07  3.7785824727767685e-07  4.7280118914008286e-07  5.6794934485291078e-07  6.6324615033906557e-07  7.5830409447725154e-07  8.5196267806608889e-07  9.4140487152472207e-07  1.0204107543982544e-06  1.0760227918602678e-06  1.0821255753286953e-06  9.8720720289374567e-07  6.9101095445071371e-07  0.0000000000000000e+00  -6.9730026063221181e-07  0.0000000000000000e+00  -9.9606586183399014e-07  -1.0916851264917413e-06  -1.0854155717234016e-06  -1.0292877759944142e-06  -9.4966594501130208e-07  -8.5961162340751254e-07  -7.6537037007794301e-07  -6.6974947815773409e-07  -5.7388661708114266e-07  -4.7814637881519003e-07  -3.8256746016101087e-07  -2.8708590257744149e-07  -1.9163775616101800e-07  -9.6187788312447081e-08  -7.2647089061957793e-10  9.4741942559329356e-08  1.9021286490577997e-07  2.8569484191270579e-07  3.8122126198065328e-07  4.7685352925491142e-07  5.7265177490801213e-07  6.6857372036260062e-07  7.6425011583478329e-07  8.5854305730626544e-07  9.4864297761109981e-07  1.0283119922797882e-06  1.0845015214563518e-06  1.0908751443089394e-06  9.9543705718301956e-07  6.9695699686874751e-07  0.0000000000000000e+00  -6.9646728780354029e-07  0.0000000000000000e+00  -9.9490690529274004e-07  -1.0906960851454600e-06  -1.0849534874035309e-06  -1.0295467004309721e-06  -9.5069279745377311e-07  -8.6133884800167820e-07  -7.6764798903366117e-07  -6.7238038791006174e-07  -5.7664914598960097e-07  -4.8081844757905546e-07  -3.8494085164084456e-07  -2.8898017915791224e-07  -1.9290915743331745e-07  -9.6736311350212353e-08  -5.0014286191931174e-10  9.5744940987261087e-08  1.9194431142098523e-07  2.8805853341756530e-07  3.8407723361993892e-07  4.8002411855649958e-07  5.7593068535579004e-07  6.7173628302284519e-07  7.6706896045931959e-07  8.6080323918411773e-07  9.5016772606431495e-07  1.0289835341948544e-06  1.0842991855722756e-06  1.0899122460533886e-06  9.9402443092606835e-07  6.9570024962174804e-07  0.0000000000000000e+00  -6.8828106301192279e-07  0.0000000000000000e+00  -9.8391135933806676e-07  -1.0798233231673782e-06  -1.0756935247108683e-06  -1.0225253219112584e-06  -9.4601450770054286e-07  -8.5880298968248333e-07  -7.6688833250699363e-07  -6.7295468320425691e-07  -5.7810238746122807e-07  -4.8271745719852098e-07  -3.8690227906033893e-07  -2.9068375760670437e-07  -1.9410827361363936e-07  -9.7263223427707345e-08  -2.6945563411735115e-10  9.6734979711134798e-08  1.9361183385933756e-07  2.9023956368080965e-07  3.8652855847945248e-07  4.8242883214761721e-07  5.7790631069278467e-07  6.7284981441922202e-07  7.6685728563723980e-07  8.5881070518863150e-07  9.4599707961922864e-07  1.0223854601107412e-06  1.0753052668732486e-06  1.0790644373780986e-06  9.8276332313103979e-07  6.8707302593349102e-07  0.0000000000000000e+00  -6.7266117278640350e-07  0.0000000000000000e+00  -9.6301654902650295e-07  -1.0590781781864063e-06  -1.0577392593715165e-06  -1.0084077964241154e-06  -9.3587238594865371e-07  -8.5227538359077217e-07  -7.6336671077412280e-07  -6.7173624650563594e-07  -5.7848165419022782e-07  -4.8404505384442641e-07  -3.8861299533534786e-07  -2.9231638571461049e-07  -1.9531214246153267e-07  -9.7803054322743855e-08  -2.6645484059322922e-11  9.7761667365642360e-08  1.9530648418239113e-07  2.9236959114743796e-07  3.8874644587369167e-07  4.8427522880321444e-07  5.7881864128527639e-07  6.7217640060644472e-07  7.6388853571366181e-07  8.5282756030236306e-07  9.3636185729726903e-07  1.0086867992933157e-06  1.0576071682430709e-06  1.0583272809982090e-06  9.6157741749516462e-07  6.7098649375487612e-07  0.0000000000000000e+00  -6.4957032300302763e-07  0.0000000000000000e+00  -9.3224116302738635e-07  -1.0285885788909529e-06  -1.0313318072872795e-06  -9.8752162844402120e-07  -9.2063813257565785e-07  -8.4213478111074301e-07  -7.5743841451604842e-07  -6.6903612362210285e-07  -5.7804794904129782e-07  -4.8500611056840003e-07  -3.9022675030099965e-07  -2.9398335503196071e-07  -1.9658319795403262e-07  -9.8378995433775213e-08  2.4174375655675299e-10  9.8874633417240683e-08  1.9711528024728853e-07  2.9457613703599048e-07  3.9090229478245081e-07  4.8578290806251030e-07  5.7893554873155109e-07  6.7003150946086554e-07  7.5851309942023803e-07  8.4322322399145862e-07  9.2161857605963698e-07  9.8819518012361875e-07  1.0314250048106961e-06  1.0278070379334084e-06  9.3046632333223401e-07  6.4738958950192512e-07  0.0000000000000000e+00  -6.1894165178351777e-07  0.0000000000000000e+00  -8.9158317966102582e-07  -9.8847758707502706e-07  -9.9670865065303123e-07  -9.6017125459286319e-07  -9.0062891199382106e-07  -8.2866460018753873e-07  -7.4932865495064036e-07  -6.6501141470928092e-07  -5.7689186308160872e-07  -4.8564008798928387e-07  -3.9174401338782524e-07  -2.9566401345642449e-07  -1.9789202344683181e-07  -9.8963402548155625e-08  5.5632612992652734e-10  1.0008662524732657e-07  1.9904739052836375e-07  2.9687300809227698e-07  3.9302727460794374e-07  4.8701347656209130e-07  5.7836491390765428e-07  6.6657735360534195e-07  7.5095332497842287e-07  8.3026864112452293e-07  9.0206202872622711e-07  9.6118780510258895e-07  9.9696344723052024e-07  9.8759143769370414e-07  8.8939350603388752e-07  6.1618799974918678e-07  0.0000000000000000e+00  -5.8055220627334839e-07  0.0000000000000000e+00  -8.4082692527796679e-07  -9.3861612898082175e-07  -9.5380153726068714e-07  -9.2628249885328973e-07  -8.7570650523729429e-07  -8.1163111884118726e-07  -7.3870274493759000e-07  -6.5924833892394458e-07  -5.7455482897837865e-07  -4.8548063668583909e-07  -3.9273297945466865e-07  -2.9699315565398569e-07  -1.9896910150582895e-07  -9.9400854178313582e-08  9.4793634865535775e-10  1.0130330208847794e-07  2.0089150382477633e-07  2.9894974971997510e-07  3.9473651991497486e-07  4.8754144747685964e-07  5.7667520993347900e-07  6.6141612047819325e-07  7.4087479285893578e-07  8.1371273409266971e-07  8.7752334734009935e-07  9.2754547774710669e-07  9.5409874983862224e-07  9.3749059227887415e-07  8.3808159065182615e-07  5.7710974146970012e-07  0.0000000000000000e+00  -5.3379432885003763e-07  0.0000000000000000e+00  -7.7916076855153606e-07  -8.7809932967460098e-07  -9.0157642263670026e-07  -8.8463169148510302e-07  -8.4443023768731420e-07  -7.8940109863276842e-07  -7.2379913663444843e-07  -6.4994010211137489e-07  -5.6927859004121434e-07  -4.8290909248887567e-07  -3.9179117727430037e-07  -2.9685233108605849e-07  -1.9902800404734487e-07  -9.9271344566042479e-08  1.4535205939584897e-09  1.0217744245880474e-07  2.0193197868985059e-07  2.9975329723624905e-07  3.9468806010123537e-07  4.8579698220626124e-07  5.7214705233057536e-07  6.5276262434263062e-07  7.2651730120604661e-07  7.9190377027320868e-07  8.4651891639410725e-07  8.8597994288448996e-07  9.0171705638353124e-07  8.7650967281841682e-07  7.7562837701020861e-07  5.2947334840148616e-07  0.0000000000000000e+00  -4.7724102085098319e-07  0.0000000000000000e+00  -7.0438539170728737e-07  -8.0411644579861146e-07  -8.3660648823918579e-07  -8.3119938100096060e-07  -8.0229390380931038e-07  -7.5715341418547557e-07  -6.9969036033186764e-07  -6.3226888489914502e-07  -5.5655338024412418e-07  -4.7389818461818821e-07  -3.8552152191196028e-07  -2.9258747450881152e-07  -1.9624437543994455e-07  -9.7635229002833455e-08  2.0994996531130863e-09  1.0182209032530441e-07  2.0039496261794170e-07  2.9667829074829582e-07  3.8952725801877314e-07  4.7779076819040588e-07  5.6029717373925729e-07  6.3581266050196696e-07  7.0295115207002223e-07  7.5999461081570200e-07  8.0449151487989974e-07  8.3239628570511950e-07  8.3629420864956945e-07  8.0172896296152842e-07  6.9972631527887353e-07  4.7175955360734195e-07  0.0000000000000000e+00  -4.0777112246264982e-07  0.0000000000000000e+00  -6.1122155706571761e-07  -7.0950552414831004e-07  -7.5004161147532385e-07  -7.5577144916108101e-07  -7.3816895435113488e-07  -7.0334844849201644e-07  -6.5491718505527138e-07  -5.9529978080261760e-07  -5.2635271954044965e-07  -4.4964693292592803e-07  -3.6660121339734958e-07  -2.7855157451193624e-07  -1.8678756667443527e-07  -9.2571479984726259e-08  2.8526832014657598e-09  9.8250074864750402e-08  1.9238610669017512e-07  2.8401587982409048e-07  3.7187490307715592e-07  4.5466793180967995e-07  5.3105077548527337e-07  5.9958694759939156e-07  6.5867295073097002e-07  7.0640170404419465e-07  7.4026391190096405e-07  7.5652235134848529e-07  7.4891660828688724e-07  7.0592724625922177e-07  6.0504392483907297e-07  4.0079430212955053e-07  0.0000000000000000e+00  -3.1862418111741036e-07  0.0000000000000000e+00  -4.8748629725098946e-07  -5.7736793941668179e-07  -6.2116950481086601e-07  -6.3496304256865413e-07  -6.2720570665519984e-07  -6.0280776254493406e-07  -5.6496990507495414e-07  -5.1603082308698702e-07  -4.5786783355767663e-07  -3.9209118575998779e-07  -3.2014455574467130e-07  -2.4336524334024884e-07  -1.6302270616521064e-07  -8.0341520358895124e-08  3.4816012853233080e-09  8.7264067206346634e-08  1.6982276928224330e-07  2.4995943943119046e-07  3.2644477990154664e-07  3.9800224894590487e-07  4.6328276415223779e-07  5.2082288014639836e-07  5.6898010776793153e-07  6.0582812807728917e-07  6.2894995283343072e-07  6.3502838440648116e-07  6.1902569984016739e-07  5.7245784073335909e-07  4.7971834528068934e-07  3.1007653262141556e-07  0.0000000000000000e+00  -1.9469877042084586e-07  0.0000000000000000e+00  -3.0523697164812481e-07  -3.6928981432348628e-07  -4.0400846851100765e-07  -4.1818778828011749e-07  -4.1688149079481852e-07  -4.0332317059566883e-07  -3.7979525841205146e-07  -3.4804803685551574e-07  -3.0951230969446906e-07  -2.6541297804069479e-07  -2.1683627910082027e-07  -1.6477452978909256e-07  -1.1015685425020890e-07  -5.3870827262839023e-08  3.2220943841378908e-09  6.0272839832441943e-08  1.1643184429209262e-07  1.7083531980605550e-07  2.2259105967998533e-07  2.7076185194869004e-07  3.1434372186996657e-07  3.5223189210858719e-07  3.8317337672398789e-07  4.0569741450132341e-07  4.1799200629800077e-07  4.1768608546673592e-07  4.0145007553099605e-07  3.6420723363570783e-07  2.9752284224901876e-07  1.8613361608982046e-07  0.0000000000000000e+00  0.0000000000000000e+00  0.0000000000000000e+00  0.0000000000000000e+00  0.0000000000000000e+00  0.0000000000000000e+00  0.0000000000000000e+00  0.0000000000000000e+00  0.0000000000000000e+00  0.0000000000000000e+00  0.0000000000000000e+00  0.0000000000000000e+00  0.0000000000000000e+00  0.0000000000000000e+00  0.0000000000000000e+00  0.0000000000000000e+00  0.0000000000000000e+00  0.0000000000000000e+00  0.0000000000000000e+00  0.0000000000000000e+00  0.0000000000000000e+00  0.0000000000000000e+00  0.0000000000000000e+00  0.0000000