<?xml version="1.0"?>
<VTKFile type="UnstructuredGrid"  version="0.1"  >
<UnstructuredGrid>
<Piece  NumberOfPoints="759" NumberOfCells="1408">
<Points>
<DataArray  type="Float64"  NumberOfComponents="3"  format="ascii">0 0.46875 0  0.03125 0.46875 0  0.03125 0.515625 0  0 0.515625 0  0.0625 0.46875 0  0.0625 0.515625 0  0.09375 0.46875 0  0.09375 0.515625 0  0.125 0.46875 0  0.125 0.515625 0  0.15625 0.46875 0  0.15625 0.515625 0  0.1875 0.46875 0  0.1875 0.515625 0  0.21875 0.46875 0  0.21875 0.515625 0  0.25 0.46875 0  0.25 0.515625 0  0.28125 0.46875 0  0.28125 0.515625 0  0.3125 0.46875 0  0.3125 0.515625 0  0.34375 0.46875 0  0.34375 0.515625 0  0.375 0.46875 0  0.375 0.515625 0  0.40625 0.46875 0  0.40625 0.515625 0  0.4375 0.46875 0  0.4375 0.515625 0  0.46875 0.46875 0  0.46875 0.515625 0  0.5 0.46875 0  0.5 0.515625 0  0.53125 0.46875 0  0.53125 0.515625 0  0.5625 0.46875 0  0.5625 0.515625 0  0.59375 0.46875 0  0.59375 0.515625 0  0.625 0.46875 0  0.625 0.515625 0  0.65625 0.46875 0  0.65625 0.515625 0  0.6875 0.46875 0  0.6875 0.515625 0  0.71875 0.46875 0  0.71875 0.515625 0  0.75 0.46875 0  0.75 0.515625 0  0.78125 0.46875 0  0.78125 0.515625 0  0.8125 0.46875 0  0.8125 0.515625 0  0.84375 0.46875 0  0.84375 0.515625 0  0.875 0.46875 0  0.875 0.515625 0  0.90625 0.46875 0  0.90625 0.515625 0  0.9375 0.46875 0  0.9375 0.515625 0  0.96875 0.46875 0  0.96875 0.515625 0  1 0.46875 0  1 0.515625 0  0.03125 0.5625 0  0 0.5625 0  0.0625 0.5625 0  0.09375 0.5625 0  0.125 0.5625 0  0.15625 0.5625 0  0.1875 0.5625 0  0.21875 0.5625 0  0.25 0.5625 0  0.28125 0.5625 0  0.3125 0.5625 0  0.34375 0.5625 0  0.375 0.5625 0  0.40625 0.5625 0  0.4375 0.5625 0  0.46875 0.5625 0  0.5 0.5625 0  0.53125 0.5625 0  0.5625 0.5625 0  0.59375 0.5625 0  0.625 0.5625 0  0.65625 0.5625 0  0.6875 0.5625 0  0.71875 0.5625 0  0.75 0.5625 0  0.78125 0.5625 0  0.8125 0.5625 0  0.84375 0.5625 0  0.875 0.5625 0  0.90625 0.5625 0  0.9375 0.5625 0  0.96875 0.5625 0  1 0.5625 0  0.03125 0.609375 0  0 0.609375 0  0.0625 0.609375 0  0.09375 0.609375 0  0.125 0.609375 0  0.15625 0.609375 0  0.1875 0.609375 0  0.21875 0.609375 0  0.25 0.609375 0  0.28125 0.609375 0  0.3125 0.609375 0  0.34375 0.609375 0  0.375 0.609375 0  0.40625 0.609375 0  0.4375 0.609375 0  0.46875 0.609375 0  0.5 0.609375 0  0.53125 0.609375 0  0.5625 0.609375 0  0.59375 0.609375 0  0.625 0.609375 0  0.65625 0.609375 0  0.6875 0.609375 0  0.71875 0.609375 0  0.75 0.609375 0  0.78125 0.609375 0  0.8125 0.609375 0  0.84375 0.609375 0  0.875 0.609375 0  0.90625 0.609375 0  0.9375 0.609375 0  0.96875 0.609375 0  1 0.609375 0  0.03125 0.65625 0  0 0.65625 0  0.0625 0.65625 0  0.09375 0.65625 0  0.125 0.65625 0  0.15625 0.65625 0  0.1875 0.65625 0  0.21875 0.65625 0  0.25 0.65625 0  0.28125 0.65625 0  0.3125 0.65625 0  0.34375 0.65625 0  0.375 0.65625 0  0.40625 0.65625 0  0.4375 0.65625 0  0.46875 0.65625 0  0.5 0.65625 0  0.53125 0.65625 0  0.5625 0.65625 0  0.59375 0.65625 0  0.625 0.65625 0  0.65625 0.65625 0  0.6875 0.65625 0  0.71875 0.65625 0  0.75 0.65625 0  0.78125 0.65625 0  0.8125 0.65625 0  0.84375 0.65625 0  0.875 0.65625 0  0.90625 0.65625 0  0.9375 0.65625 0  0.96875 0.65625 0  1 0.65625 0  0.03125 0.703125 0  0 0.703125 0  0.0625 0.703125 0  0.09375 0.703125 0  0.125 0.703125 0  0.15625 0.703125 0  0.1875 0.703125 0  0.21875 0.703125 0  0.25 0.703125 0  0.28125 0.703125 0  0.3125 0.703125 0  0.34375 0.703125 0  0.375 0.703125 0  0.40625 0.703125 0  0.4375 0.703125 0  0.46875 0.703125 0  0.5 0.703125 0  0.53125 0.703125 0  0.5625 0.703125 0  0.59375 0.703125 0  0.625 0.703125 0  0.65625 0.703125 0  0.6875 0.703125 0  0.71875 0.703125 0  0.75 0.703125 0  0.78125 0.703125 0  0.8125 0.703125 0  0.84375 0.703125 0  0.875 0.703125 0  0.90625 0.703125 0  0.9375 0.703125 0  0.96875 0.703125 0  1 0.703125 0  0.03125 0.75 0  0 0.75 0  0.0625 0.75 0  0.09375 0.75 0  0.125 0.75 0  0.15625 0.75 0  0.1875 0.75 0  0.21875 0.75 0  0.25 0.75 0  0.28125 0.75 0  0.3125 0.75 0  0.34375 0.75 0  0.375 0.75 0  0.40625 0.75 0  0.4375 0.75 0  0.46875 0.75 0  0.5 0.75 0  0.53125 0.75 0  0.5625 0.75 0  0.59375 0.75 0  0.625 0.75 0  0.65625 0.75 0  0.6875 0.75 0  0.71875 0.75 0  0.75 0.75 0  0.78125 0.75 0  0.8125 0.75 0  0.84375 0.75 0  0.875 0.75 0  0.90625 0.75 0  0.9375 0.75 0  0.96875 0.75 0  1 0.75 0  0.03125 0.796875 0  0 0.796875 0  0.0625 0.796875 0  0.09375 0.796875 0  0.125 0.796875 0  0.15625 0.796875 0  0.1875 0.796875 0  0.21875 0.796875 0  0.25 0.796875 0  0.28125 0.796875 0  0.3125 0.796875 0  0.34375 0.796875 0  0.375 0.796875 0  0.40625 0.796875 0  0.4375 0.796875 0  0.46875 0.796875 0  0.5 0.796875 0  0.53125 0.796875 0  0.5625 0.796875 0  0.59375 0.796875 0  0.625 0.796875 0  0.65625 0.796875 0  0.6875 0.796875 0  0.71875 0.796875 0  0.75 0.796875 0  0.78125 0.796875 0  0.8125 0.796875 0  0.84375 0.796875 0  0.875 0.796875 0  0.90625 0.796875 0  0.9375 0.796875 0  0.96875 0.796875 0  1 0.796875 0  0.03125 0.84375 0  0 0.84375 0  0.0625 0.84375 0  0.09375 0.84375 0  0.125 0.84375 0  0.15625 0.84375 0  0.1875 0.84375 0  0.21875 0.84375 0  0.25 0.84375 0  0.28125 0.84375 0  0.3125 0.84375 0  0.34375 0.84375 0  0.375 0.84375 0  0.40625 0.84375 0  0.4375 0.84375 0  0.46875 0.84375 0  0.5 0.84375 0  0.53125 0.84375 0  0.5625 0.84375 0  0.59375 0.84375 0  0.625 0.84375 0  0.65625 0.84375 0  0.6875 0.84375 0  0.71875 0.84375 0  0.75 0.84375 0  0.78125 0.84375 0  0.8125 0.84375 0  0.84375 0.84375 0  0.875 0.84375 0  0.90625 0.84375 0  0.9375 0.84375 0  0.96875 0.84375 0  1 0.84375 0  0.03125 0.890625 0  0 0.890625 0  0.0625 0.890625 0  0.09375 0.890625 0  0.125 0.890625 0  0.15625 0.890625 0  0.1875 0.890625 0  0.21875 0.890625 0  0.25 0.890625 0  0.28125 0.890625 0  0.3125 0.890625 0  0.34375 0.890625 0  0.375 0.890625 0  0.40625 0.890625 0  0.4375 0.890625 0  0.46875 0.890625 0  0.5 0.890625 0  0.53125 0.890625 0  0.5625 0.890625 0  0.59375 0.890625 0  0.625 0.890625 0  0.65625 0.890625 0  0.6875 0.890625 0  0.71875 0.890625 0  0.75 0.890625 0  0.78125 0.890625 0  0.8125 0.890625 0  0.84375 0.890625 0  0.875 0.890625 0  0.90625 0.890625 0  0.9375 0.890625 0  0.96875 0.890625 0  1 0.890625 0  0.03125 0.9375 0  0 0.9375 0  0.0625 0.9375 0  0.09375 0.9375 0  0.125 0.9375 0  0.15625 0.9375 0  0.1875 0.9375 0  0.21875 0.9375 0  0.25 0.9375 0  0.28125 0.9375 0  0.3125 0.9375 0  0.34375 0.9375 0  0.375 0.9375 0  0.40625 0.9375 0  0.4375 0.9375 0  0.46875 0.9375 0  0.5 0.9375 0  0.53125 0.9375 0  0.5625 0.9375 0  0.59375 0.9375 0  0.625 0.9375 0  0.65625 0.9375 0  0.6875 0.9375 0  0.71875 0.9375 0  0.75 0.9375 0  0.78125 0.9375 0  0.8125 0.9375 0  0.84375 0.9375 0  0.875 0.9375 0  0.90625 0.9375 0  0.9375 0.9375 0  0.96875 0.9375 0  1 0.9375 0  0.03125 0.984375 0  0 0.984375 0  0.0625 0.984375 0  0.09375 0.984375 0  0.125 0.984375 0  0.15625 0.984375 0  0.1875 0.984375 0  0.21875 0.984375 0  0.25 0.984375 0  0.28125 0.984375 0  0.3125 0.984375 0  0.34375 0.984375 0  0.375 0.984375 0  0.40625 0.984375 0  0.4375 0.984375 0  0.46875 0.984375 0  0.5 0.984375 0  0.53125 0.984375 0  0.5625 0.984375 0  0.59375 0.984375 0  0.625 0.984375 0  0.65625 0.984375 0  0.6875 0.984375 0  0.71875 0.984375 0  0.75 0.984375 0  0.78125 0.984375 0  0.8125 0.984375 0  0.84375 0.984375 0  0.875 0.984375 0  0.90625 0.984375 0  0.9375 0.984375 0  0.96875 0.984375 0  1 0.984375 0  0.03125 1.03125 0  0 1.03125 0  0.0625 1.03125 0  0.09375 1.03125 0  0.125 1.03125 0  0.15625 1.03125 0  0.1875 1.03125 0  0.21875 1.03125 0  0.25 1.03125 0  0.28125 1.03125 0  0.3125 1.03125 0  0.34375 1.03125 0  0.375 1.03125 0  0.40625 1.03125 0  0.4375 1.03125 0  0.46875 1.03125 0  0.5 1.03125 0  0.53125 1.03125 0  0.5625 1.03125 0  0.59375 1.03125 0  0.625 1.03125 0  0.65625 1.03125 0  0.6875 1.03125 0  0.71875 1.03125 0  0.75 1.03125 0  0.78125 1.03125 0  0.8125 1.03125 0  0.84375 1.03125 0  0.875 1.03125 0  0.90625 1.03125 0  0.9375 1.03125 0  0.96875 1.03125 0  1 1.03125 0  0.03125 1.078125 0  0 1.078125 0  0.0625 1.078125 0  0.09375 1.078125 0  0.125 1.078125 0  0.15625 1.078125 0  0.1875 1.078125 0  0.21875 1.078125 0  0.25 1.078125 0  0.28125 1.078125 0  0.3125 1.078125 0  0.34375 1.078125 0  0.375 1.078125 0  0.40625 1.078125 0  0.4375 1.078125 0  0.46875 1.078125 0  0.5 1.078125 0  0.53125 1.078125 0  0.5625 1.078125 0  0.59375 1.078125 0  0.625 1.078125 0  0.65625 1.078125 0  0.6875 1.078125 0  0.71875 1.078125 0  0.75 1.078125 0  0.78125 1.078125 0  0.8125 1.078125 0  0.84375 1.078125 0  0.875 1.078125 0  0.90625 1.078125 0  0.9375 1.078125 0  0.96875 1.078125 0  1 1.078125 0  0.03125 1.125 0  0 1.125 0  0.0625 1.125 0  0.09375 1.125 0  0.125 1.125 0  0.15625 1.125 0  0.1875 1.125 0  0.21875 1.125 0  0.25 1.125 0  0.28125 1.125 0  0.3125 1.125 0  0.34375 1.125 0  0.375 1.125 0  0.40625 1.125 0  0.4375 1.125 0  0.46875 1.125 0  0.5 1.125 0  0.53125 1.125 0  0.5625 1.125 0  0.59375 1.125 0  0.625 1.125 0  0.65625 1.125 0  0.6875 1.125 0  0.71875 1.125 0  0.75 1.125 0  0.78125 1.125 0  0.8125 1.125 0  0.84375 1.125 0  0.875 1.125 0  0.90625 1.125 0  0.9375 1.125 0  0.96875 1.125 0  1 1.125 0  0.03125 1.171875 0  0 1.171875 0  0.0625 1.171875 0  0.09375 1.171875 0  0.125 1.171875 0  0.15625 1.171875 0  0.1875 1.171875 0  0.21875 1.171875 0  0.25 1.171875 0  0.28125 1.171875 0  0.3125 1.171875 0  0.34375 1.171875 0  0.375 1.171875 0  0.40625 1.171875 0  0.4375 1.171875 0  0.46875 1.171875 0  0.5 1.171875 0  0.53125 1.171875 0  0.5625 1.171875 0  0.59375 1.171875 0  0.625 1.171875 0  0.65625 1.171875 0  0.6875 1.171875 0  0.71875 1.171875 0  0.75 1.171875 0  0.78125 1.171875 0  0.8125 1.171875 0  0.84375 1.171875 0  0.875 1.171875 0  0.90625 1.171875 0  0.9375 1.171875 0  0.96875 1.171875 0  1 1.171875 0  0.03125 1.21875 0  0 1.21875 0  0.0625 1.21875 0  0.09375 1.21875 0  0.125 1.21875 0  0.15625 1.21875 0  0.1875 1.21875 0  0.21875 1.21875 0  0.25 1.21875 0  0.28125 1.21875 0  0.3125 1.21875 0  0.34375 1.21875 0  0.375 1.21875 0  0.40625 1.21875 0  0.4375 1.21875 0  0.46875 1.21875 0  0.5 1.21875 0  0.53125 1.21875 0  0.5
[...]
<PointData  Scalars="p"> 
<DataArray  type="Float64"  Name="p"  format="ascii">0.0000000000000000e+00  -9.4262726436492705e-03  -9.8745012306896644e-03  0.0000000000000000e+00  -1.6254152099738333e-02  -1.7002842986101496e-02  -2.0956015361518934e-02  -2.1912234443315547e-02  -2.3932019713237059e-02  -2.5027072292393298e-02  -2.5512350509362340e-02  -2.6690446336950589e-02  -2.5966254193085143e-02  -2.7179980209551542e-02  -2.5512170626273482e-02  -2.6720366983713328e-02  -2.4327021011701408e-02  -2.5493792530070194e-02  -2.2554336085776939e-02  -2.3648387501615034e-02  -2.0311018530877155e-02  -2.1305345148953062e-02  -1.7693063087825846e-02  -1.8564629484595592e-02  -1.4780257978112814e-02  -1.5509878788622070e-02  -1.1640146837680559e-02  -1.2212303193563274e-02  -8.3313019877670549e-03  -8.7341092115241648e-03  -4.9061764438271139e-03  -5.1313062383279706e-03  -1.4135385438658087e-03  -1.4562656224283181e-03  2.0993025116733581e-03  2.2400720490484776e-03  5.5844186838370788e-03  5.9060139995226971e-03  8.9911788642458423e-03  9.4870338132047212e-03  1.2264125494725324e-02  1.2923560468894058e-02  1.5340648858863968e-02  1.6148660228120712e-02  1.8148373933547818e-02  1.9085351633635915e-02  2.0602113975494607e-02  2.1643576378813745e-02  2.2600285153688244e-02  2.3716551494998003e-02  2.4020529516593642e-02  2.5176427476942237e-02  2.4714430079257547e-02  2.5868938005829442e-02  2.4500971529285476e-02  2.5606947589642378e-02  2.3158547389641002e-02  2.4162492478095508e-02  2.0415051366682983e-02  2.1257330513437256e-02  1.5935314022971860e-02  1.6551715260435227e-02  9.3041123302662794e-03  9.6320833201332286e-03  0.0000000000000000e+00  0.0000000000000000e+00  -1.0919515698249095e-02  0.0000000000000000e+00  -1.8823162782701915e-02  -2.4290542227066454e-02  -2.7785213076122566e-02  -2.9679420623684470e-02  -3.0273006441595168e-02  -2.9808548922205070e-02  -2.8483012259144704e-02  -2.6457486395693165e-02  -2.3864583219546098e-02  -2.0814885651847595e-02  -1.7401796712175361e-02  -1.3705950372352671e-02  -9.7985115006085644e-03  -5.7443924216849561e-03  -1.6047125262459642e-03  2.5606609872139423e-03  6.6909702895299279e-03  1.0722209459020252e-02  1.4584929709319005e-02  1.8201675845414492e-02  2.1484319125800039e-02  2.4330784298889598e-02  2.6621421822057099e-02  2.8214375204143972e-02  2.8940153891784740e-02  2.8594715077424362e-02  2.6931113558969589e-02  2.3649037069414285e-02  1.8382112507767206e-02  1.0682180440073224e-02  0.0000000000000000e+00  -1.2507062796854601e-02  0.0000000000000000e+00  -2.1572493024112568e-02  -2.7862716775404202e-02  -3.1905671991881185e-02  -3.4121874394865290e-02  -3.4848525576353442e-02  -3.4357535652137706e-02  -3.2870083636559015e-02  -3.0567320471984991e-02  -2.7599551938886076e-02  -2.4092720393849985e-02  -2.0154533488163592e-02  -1.5878549455980100e-02  -1.1348500479126293e-02  -6.6411296013901399e-03  -1.8295017535245363e-03  3.0147609135963453e-03  7.8186217714492287e-03  1.2505473896667320e-02  1.6992341341173320e-02  2.1187437872910345e-02  2.4986934377885611e-02  2.8271749270459678e-02  3.0903280052256447e-02  3.2718669765867354e-02  3.3524453058195264e-02  3.3089039025549112e-02  3.1132648864142961e-02  2.7314927460208822e-02  2.1218477871762391e-02  1.2327644439106309e-02  0.0000000000000000e+00  -1.4624837737400186e-02  0.0000000000000000e+00  -2.5215641055702325e-02  -3.2565257780199537e-02  -3.7295579387117368e-02  -3.9898214127921570e-02  -4.0764608131112150e-02  -4.0209495012101013e-02  -3.8487911551924235e-02  -3.5809257253372362e-02  -3.2347008390609000e-02  -2.8247599008011069e-02  -2.3636130860218322e-02  -1.8622446736268013e-02  -1.3304635155303396e-02  -7.7736562728612730e-03  -2.1157718034720214e-03  3.5836193305668639e-03  9.2378812353390693e-03  1.4755584621996148e-02  2.0038276334279192e-02  2.4976814758939613e-02  2.9448482724492259e-02  3.3312593156977363e-02  3.6406291641611299e-02  3.8538416001368918e-02  3.9482635598016659e-02  3.8967856925212145e-02  3.6666384155895251e-02  3.2177800687061317e-02  2.5008048902354991e-02  1.4540928225469527e-02  0.0000000000000000e+00  -1.7295224615682808e-02  0.0000000000000000e+00  -2.9784513958647788e-02  -3.8429468395187863e-02  -4.3979023539385549e-02  -4.7020972547364620e-02  -4.8020895416452741e-02  -4.7350910610806804e-02  -4.5311912239729621e-02  -4.2149686906714175e-02  -3.8068133591396491e-02  -3.3238332432769725e-02  -2.7807145208290127e-02  -2.1902396742092010e-02  -1.5639172227052689e-02  -9.1229794599501958e-03  -2.4550114214064440e-03  4.2656794381380064e-03  1.0937316071170112e-02  1.7453361035346608e-02  2.3697776556946253e-02  2.9542504035881198e-02  3.4842378150023515e-02  3.9431306057487132e-02  4.3115986449336306e-02  4.5669573825033685e-02  4.6822361273643136e-02  4.6250717424923399e-02  4.3561579947337566e-02  3.8272548691704031e-02  2.9784566206422489e-02  1.7345398398501903e-02  0.0000000000000000e+00  -2.0566350925624487e-02  0.0000000000000000e+00  -3.5355746938761659e-02  -4.5545810490458360e-02  -5.2049101256921970e-02  -5.5578350722281844e-02  -5.6695268494917808e-02  -5.5846923101358442e-02  -5.3392964150383262e-02  -4.9626187785378105e-02  -4.4787873506199068e-02  -3.9079988711521949e-02  -3.2674115622714897e-02  -2.5719598319301554e-02  -1.8348857853374118e-02  -1.0683969858026391e-02  -2.8399505718392213e-03  5.0690960284608625e-03  1.2927619397046853e-02  2.0612370136421195e-02  2.7990060631060822e-02  3.4910941926387495e-02  4.1205352452058128e-02  4.6676613061704696e-02  5.1095156544779981e-02  5.4189207787108173e-02  5.5634315397801795e-02  5.5038724161400494e-02  5.1924489494524093e-02  4.5701944502659415e-02  3.5635320323885424e-02  2.0796112265458234e-02  0.0000000000000000e+00  -2.4505605417989341e-02  0.0000000000000000e+00  -4.2037544140821302e-02  -5.4043334387620712e-02  -6.1641014533848897e-02  -6.5701020692564810e-02  -6.6906894381094262e-02  -6.5800738936568584e-02  -6.2816628690201173e-02  -5.8306129102627849e-02  -5.2556978498721277e-02  -4.5807953007476858e-02  -3.8260131848697788e-02  -3.0086134921007902e-02  -2.1437968535466468e-02  -1.2453235257654988e-02  -3.2619205407545923e-03  6.0092767706307823e-03  1.5229920793591367e-02  2.4262339053575780e-02  3.2953977697872470e-02  4.1133640299006062e-02  4.8603066209085700e-02  5.5131229846720899e-02  6.0444430341666168e-02  6.4216367100391233e-02  6.6053933825646144e-02  6.5479599731488730e-02  6.1907519472763461e-02  5.4611684077780873e-02  4.2682825861753870e-02  2.4969743882219925e-02  0.0000000000000000e+00  -2.9196011080390404e-02  0.0000000000000000e+00  -4.9962024902670231e-02  -6.4077784004665600e-02  -7.2915445283760733e-02  -7.7541446146144513e-02  -7.8791498117213116e-02  -7.7326588748284755e-02  -7.3673872166295937e-02  -6.8257796817776800e-02  -6.1422999555726256e-02  -5.3452320125477133e-02  -4.4580812832157472e-02  -3.5007073878766878e-02  -2.4902974368390982e-02  -1.4421874629424937e-02  -3.7063840045831889e-03  7.1045810952991510e-03  1.7869012965188003e-02  2.8434333761524724e-02  3.8631107015088824e-02  4.8264139445416118e-02  5.7105598070484820e-02  6.4883949967673410e-02  7.1274364156969874e-02  7.5883921699100715e-02  7.8235366688580693e-02  7.7744249195222243e-02  7.3689840063632411e-02  6.5175388351793859e-02  5.1074792749734726e-02  2.9959558099575009e-02  0.0000000000000000e+00  -3.4734875124345359e-02  0.0000000000000000e+00  -5.9281338004513316e-02  -7.5824088275422516e-02  -8.6047072259771790e-02  -9.1258141540791066e-02  -9.2482094592400588e-02  -9.0527337154488463e-02  -8.6037135419880909e-02  -7.9525389121084200e-02  -7.1406378109891894e-02  -6.2014813653579283e-02  -5.1624901839204686e-02  -4.0463040146736726e-02  -2.8721074917113374e-02  -1.6566401730694541e-02  -4.1516812210334059e-03  8.3753075617299250e-03  2.0863798785765528e-02  3.3149609962456451e-02  4.5047109547543353e-02  5.6338601962164593e-02  6.6763243549973011e-02  7.6005723251952081e-02  8.3680275219797109e-02  8.9315403933004300e-02  9.2330375467047837e-02  9.2009439034105481e-02  8.7464054636697888e-02  7.7585658751515935e-02  6.0979100424920198e-02  3.5873570317808023e-02  0.0000000000000000e+00  -4.1233374660230367e-02  0.0000000000000000e+00  -7.0164413457290339e-02  -8.9469216914133065e-02  -1.0121202523957293e-01  -1.0699854508716541e-01  -1.0808686018045184e-01  -1.0546971229018696e-01  -9.9933019001653842e-02  -9.2102190924278987e-02  -8.2473981901415458e-02  -7.1445623035326644e-02  -5.9333637896856778e-02  -4.6394694037661187e-02  -3.2838300830799805e-02  -1.8842958718560714e-02  -4.5671002904946406e-03  9.8384862127437779e-03  2.4218561803985308e-02  3.8403071397934356e-02  5.2193238593605938e-02  6.5350545537021298e-02  7.7581430370360069e-02  8.8520938458284487e-02  9.7715588477812351e-02  1.0459863915016175e-01  1.0846585782270689e-01  1.0843867798928551e-01  1.0342213349142347e-01  9.2044459285839986e-02  7.2578648844518381e-02  4.2832555371763781e-02  0.0000000000000000e+00  -4.8815848914306396e-02  0.0000000000000000e+00  -8.2792803441968071e-02  -1.0520122850734864e-01  -1.1857050083074346e-01  -1.2487347243850738e-01  -1.2565913261473460e-01  -1.2214888935653449e-01  -1.1530713033997421e-01  -1.0589404637601396e-01  -9.4507248460211093e-02  -8.1613636317751301e-02  -6.7578094421553284e-02  -5.2684695270105705e-02  -3.7158865714621271e-02  -2.1182972770413869e-02  -4.9148456316849996e-03  1.1499354918451700e-02  2.7908566363859879e-02  4.4143321974626032e-02  5.9999479886497419e-02  7.5221477574750173e-02  8.9484317621603596e-02  1.0237189444079879e-01  1.1335224085553153e-01  1.2174980148740830e-01  1.2670899682360243e-01  1.2715403275718293e-01  1.2173300116588970e-01  1.0874895613587682e-01  8.6063788359159385e-02  5.0967987560965967e-02  0.0000000000000000e+00  -5.7618697680465090e-02  0.0000000000000000e+00  -9.7352466616393282e-02  -1.2319133269737556e-01  -1.3823640724354627e-01  -1.4491761916677134e-01  -1.4514872020345768e-01  -1.4043811412782053e-01  -1.3197115201579479e-01  -1.2067272328090650e-01  -1.0725785084985864e-01  -9.2272652406305167e-02  -7.6130094822958419e-02  -5.9139575380932466e-02  -4.1533512599072779e-02  -2.3490658874680936e-02  -5.1559183988610967e-03  1.3338686548143547e-02  3.1858784716581191e-02  5.0245523833186166e-02  6.8299856378533946e-02  8.5757884170892515e-02  1.0226778931909883e-01  1.1736243621760722e-01  1.3042543622125621e-01  1.4065438308423708e-01  1.4701553476827164e-01  1.4819001425217987e-01  1.4250901165086727e-01  1.2786908338704192e-01  1.0162165381208270e-01  6.0418860409940982e-02  0.0000000000000000e+00  -6.7786842913755072e-02  0.0000000000000000e+00  -1.1401762339998638e-01  -1.4355930256488578e-01  -1.6022426920940505e-01  -1.6702023459506546e-01  -1.6632422846901670e-01  -1.6000690976450141e-01  -1.4952682910131149e-01  -1.3600593790005552e-01  -1.2029238440204985e-01  -1.0301567577781469e-01  -8.4632498026974173e-02  -6.5468527153034251e-02  -4.5751553228242522e-02  -2.5642185115693078e-02  -5.2598086506306261e-03  1.5295102396699333e-02  3.5916581983129595e-02  5.6474231524816960e-02  7.6785777292482760e-02  9.6593307308597331e-02  1.1552951163532552e-01  1.3308095241745255e-01  1.4854609847521408e-01  1.6098156629908938e-01  1.6914405213404962e-01  1.7142048497898962e-01  1.6574632888771049e-01  1.4950811572916076e-01  1.1941487026672455e-01  7.1325134695084627e-02  0.0000000000000000e+00  -7.9466610561377965e-02  0.0000000000000000e+00  -1.3291967006627645e-01  -1.6630995215904296e-01  -1.8435465092417783e-01  -1.9080857115159205e-01  -1.8864649561149968e-01  -1.8019769417130282e-01  -1.6725374976961335e-01  -1.5116361128607195e-01  -1.3291757111028404e-01  -1.1322153400444672e-01  -9.2563151567728694e-02  -7.1265329338410704e-02  -4.9533512395518342e-02  -2.7492315546192424e-02  -5.2166088791226039e-03  1.7239813345595347e-02  3.9819955179317058e-02  6.2436569615940088e-02  8.4945841699985994e-02  1.0711318628868963e-01  1.2857515291506436e-01  1.4878941782340768e-01  1.6697569839787768e-01  1.8204574111644803e-01  1.9251892277556074e-01  1.9642958734886265e-01  1.9122199646538590e-01  1.7363184840426182e-01  1.3954669238915679e-01  8.3818923431421749e-02  0.0000000000000000e+00  -9.2788595137522814e-02  0.0000000000000000e+00  -1.5408140012227906e-01  -1.9120777329046801e-01  -2.1007925810169162e-01  -2.1544556739115162e-01  -2.1106427467684313e-01  -1.9983951053481389e-01  -1.8395410362343875e-01  -1.6499881254268708e-01  -1.4409421250739554e-01  -1.2199879972345376e-01  -9.9200743289260207e-02  -7.5992714583721047e-02  -5.2530702920046364e-02  -2.8881364927144458e-02  -5.0571752792199680e-03  1.8953711517530981e-02  4.3159297882553828e-02  6.7536382902151582e-02  9.1999986374979290e-02  1.1636678173466530e-01  1.4030543644351223e-01  1.6327548232337821e-01  1.8444676993063608e-01  2.0260002001215130e-01  2.1600828161346308e-01  2.2229977073988200e-01  2.1831149187955548e-01  1.9994096481572252e-01  1.6199329364595083e-01  9.8006589701599936e-02  0.0000000000000000e+00  -1.0782371508322169e-01  0.0000000000000000e+00  -1.7727053630098338e-01  -2.1752026183699688e-01  -2.3614838982499373e-01  -2.3927592058525521e-01  -2.3168592279391870e-01  -2.1697580035525210e-01  -1.9774710274735574e-01  -1.7580550977010181e-01  -1.5235065930429073e-01  -1.2813758189875257e-01  -1.0360549598990129e-01  -7.8976927636404334e-02  -5.4328755785276565e-02  -2.9646626639417833e-02  -4.8644428900128274e-03  2.0107784120273316e-02  4.5356392098289199e-02  7.0938243630866940e-02  9.6849938816425327e-02  1.2298806440072967e-01  1.4909527443175397e-01  1.7468312023241150e-01  1.9893026539920691e-01  2.2054329985832694e-01  2.3758080293007722e-01  2.4724434863606987e-01  2.4564987511368802e-01  2.2761028059236027e-01  1.8645947935168553e-01  1.1392682158397291e-01  0.0000000000000000e+00  -1.2447319552994569e-01  0.0000000000000000e+00  -2.0166627377257049e-01  -2.4348399647563970e-01  -2.5998692052750327e-01  -2.5922802096606889e-01  -2.4728644447069548e-01  -2.2850557193577428e-01  -2.0583589003684855e-01  -1.8118494823718373e-01  -1.5571609296684152e-01  -1.3008641232290039e-01  -1.0461781338214278e-01  -7.9416328039735598e-02  -5.4454166776443491e-02  -2.9622604883627630e-02  -4.7696448101828357e-03  2.0273914408076254e-02  4.5675516251770361e-02  7.1577647508644343e-02  9.8072466734018690e-02  1.2516445772727808e-01  1.5271465755169536e-01  1.8035891419668815e-01  2.0738108831301613e-01  2.3253271634117753e-01  2.5378193697409696e-01  2.6798399788151889e-01  2.7049098078765482e-01  2.5475802595181907e-01  2.1206150841147789e-01  1.3145909559529209e-01  0.0000000000000000e+00  -1.4216745471637976e-01  0.0000000000000000e+00  -2.2504865893906181e-01  -2.6516569224583741e-01  -2.7654004205797478e-01  -2.6987351288312272e-01  -2.5266129522023795e-01  -2.2980563610618704e-01  -2.0432889863866927e-01  -1.7798764568910175e-01  -1.5172404079922738e-01  -1.2597520868655540e-01  -1.0087676970846382e-01  -7.6387314403038642e-02  -5.2364442539315652e-02  -2.8611439080697961e-02  -4.9048949386447851e-03  1.8988972329160535e-02  4.3301139476772887e-02  6.8247944034276004e-02  9.4012218308139703e-02  1.2071604602873726e-01  1.4837498193948870e-01  1.7681821151702493e-01  2.0556007993728001e-01  2.3359227535110130e-01  2.5905871640918932e-01  2.7876835587989152e-01  2.8752138045231829e-01  2.7730077459335389e-01  2.3655628260474476e-01  1.5007602190033867e-01  0.0000000000000000e+00  -1.5892918332346123e-01  0.0000000000000000e+00  -2.4171353331290799e-01  -2.7407188474690569e-01  -2.7634109775789478e-01  -2.6222298959854179e-01  -2.4005842326118659e-01  -2.1457604215203585e-01  -1.8828960002131059e-01  -1.6243120633110131e-01  -1.3751799240886886e-01  -1.1367771558979278e-01  -9.0834401868769704e-02  -6.8809754942631432e-02  -4.7376177235539649e-02  -2.6284519120826459e-02  -5.2779810034519958e-03  1.5901483058217900e-02  3.7511061721833744e-02  5.9802509475439344e-02  8.3016154031521558e-02  1.0736696486313839e-01  1.3301596149415904e-01  1.6001529145617080e-01  1.8820631899533982e-01  2.1703438713793333e-01  2.4521121117264336e-01  2.7012298310987304e-01  2.8682768264211572e-01  2.8648408159384109e-01  2.5431049224250957e-01  1.6809031155105303e-01  0.0000000000000000e+00  -1.6791849836208489e-01  0.0000000000000000e+00  -2.3696404895951786e-01  -2.5271123814703828e-01  -2.4322043946565094e-01  -2.2313122868555635e-01  -1.9946890829835112e-01  -1.7540380205229286e-01  -1.5224722400013832e-01  -1.3043625449781754e-01  -1.1000696266897757e-01  -9.0817821855848954e-02  -7.2655410579908805e-02  -5.5283047379732386e-02  -3.8461237813535359e-02  -2.1954943821296671e-02  -5.5347992388361245e-03  1.1025315333387070e-02  2.7950986672788225e-02  4.5470609699070609e-02  6.3816794256488091e-02  8.3225462587832838e-02  1.0392746453373090e-01  1.2612726335250363e-01  1.4995671759713206e-01  1.7537144674056859e-01  2.0193249719925130e-01  2.2834209430109256e-01  2.5143818786888705e-01  2.6404166945660884e-01  2.5058131013849155e-01  1.7977379205922134e-01  0.0000000000000000e+00  -1.4306361157918140e-01  0.0000000000000000e+00  -1.7503342015358000e-01  -1.7054133489011522e-01  -1.5539698631933158e-01  -1.3803597440097401e-01  -1.2113464527239670e-01  -1.0544730146566249e-01  -9.1076699313415221e-02  -7.7908451739669995e-02  -6.5764056794763534e-02  -5.4454740654721841e-02  -4.3800357571584077e-02  -3.3634333236092516e-02  -2.3802717131810876e-02  -1.4161603722917497e-02  -4.5737432812551502e-03  5.0949121879652502e-03  1.4978935402715554e-02  2.5216687038633320e-02  3.5954118353329255e-02  4.7347667973211785e-02  5.9566426945195539e-02  7.2792860983731528e-02  8.7218578572212699e-02  1.0302811184192900e-01  1.2035447592346954e-01  1.3915780904048256e-01  1.5887311865281603e-01  1.7732171600574850e-01  1.8699799536173933e-01  1.6120688220580440e-01  0.0000000000000000e+00  0.0000000000000000e+00  0.0000000000000000e+00  0.0000000000000000e+00  0.0000000000000000e+00  0.0000000000000000e+00  0.0000000000000000e+00  0.0000000000000000e+00  0.0000000000000000e+00  0.0000000000000000e+00  0.0000000000000000e+00  0.0000000000000000e+00  0.0000000000000000e+00  0.0000000000000000e+00  0.0000000000000000e+00  0.0000000000000000e+00  0.0000000000000000e+00  0.0000000000000000e+00  0.0000000000000000e+00  0.0000000000000000e+00  0.0000000000000000e+00  0.0000000000000000e+00  0.0000000000000000e+00  0.0000000000000000e+00  0.0000000000000000e+00  0.0000000000000000e+00  0.0000000000000000e+00  0.0000000000000000e+00  0.0000000000000000e+00  0.0000000000000000e+00  0.0000000000000000e+00  0.0000000000000000e+00  0.0000000000000000e+00  0.0000000000000000e+00  </DataArray> 
</PointData> 
</Piece>
</UnstructuredGrid>
</VTKFile>