<?xml version="1.0"?>
<VTKFile type="UnstructuredGrid"  version="0.1"  >
<UnstructuredGrid>
<Piece  NumberOfPoints="759" NumberOfCells="1408">
<Points>
<DataArray  type="Float64"  NumberOfComponents="3"  format="ascii">0 0.46875 0  0.03125 0.46875 0  0.03125 0.515625 0  0 0.515625 0  0.0625 0.46875 0  0.0625 0.515625 0  0.09375 0.46875 0  0.09375 0.515625 0  0.125 0.46875 0  0.125 0.515625 0  0.15625 0.46875 0  0.15625 0.515625 0  0.1875 0.46875 0  0.1875 0.515625 0  0.21875 0.46875 0  0.21875 0.515625 0  0.25 0.46875 0  0.25 0.515625 0  0.28125 0.46875 0  0.28125 0.515625 0  0.3125 0.46875 0  0.3125 0.515625 0  0.34375 0.46875 0  0.34375 0.515625 0  0.375 0.46875 0  0.375 0.515625 0  0.40625 0.46875 0  0.40625 0.515625 0  0.4375 0.46875 0  0.4375 0.515625 0  0.46875 0.46875 0  0.46875 0.515625 0  0.5 0.46875 0  0.5 0.515625 0  0.53125 0.46875 0  0.53125 0.515625 0  0.5625 0.46875 0  0.5625 0.515625 0  0.59375 0.46875 0  0.59375 0.515625 0  0.625 0.46875 0  0.625 0.515625 0  0.65625 0.46875 0  0.65625 0.515625 0  0.6875 0.46875 0  0.6875 0.515625 0  0.71875 0.46875 0  0.71875 0.515625 0  0.75 0.46875 0  0.75 0.515625 0  0.78125 0.46875 0  0.78125 0.515625 0  0.8125 0.46875 0  0.8125 0.515625 0  0.84375 0.46875 0  0.84375 0.515625 0  0.875 0.46875 0  0.875 0.515625 0  0.90625 0.46875 0  0.90625 0.515625 0  0.9375 0.46875 0  0.9375 0.515625 0  0.96875 0.46875 0  0.96875 0.515625 0  1 0.46875 0  1 0.515625 0  0.03125 0.5625 0  0 0.5625 0  0.0625 0.5625 0  0.09375 0.5625 0  0.125 0.5625 0  0.15625 0.5625 0  0.1875 0.5625 0  0.21875 0.5625 0  0.25 0.5625 0  0.28125 0.5625 0  0.3125 0.5625 0  0.34375 0.5625 0  0.375 0.5625 0  0.40625 0.5625 0  0.4375 0.5625 0  0.46875 0.5625 0  0.5 0.5625 0  0.53125 0.5625 0  0.5625 0.5625 0  0.59375 0.5625 0  0.625 0.5625 0  0.65625 0.5625 0  0.6875 0.5625 0  0.71875 0.5625 0  0.75 0.5625 0  0.78125 0.5625 0  0.8125 0.5625 0  0.84375 0.5625 0  0.875 0.5625 0  0.90625 0.5625 0  0.9375 0.5625 0  0.96875 0.5625 0  1 0.5625 0  0.03125 0.609375 0  0 0.609375 0  0.0625 0.609375 0  0.09375 0.609375 0  0.125 0.609375 0  0.15625 0.609375 0  0.1875 0.609375 0  0.21875 0.609375 0  0.25 0.609375 0  0.28125 0.609375 0  0.3125 0.609375 0  0.34375 0.609375 0  0.375 0.609375 0  0.40625 0.609375 0  0.4375 0.609375 0  0.46875 0.609375 0  0.5 0.609375 0  0.53125 0.609375 0  0.5625 0.609375 0  0.59375 0.609375 0  0.625 0.609375 0  0.65625 0.609375 0  0.6875 0.609375 0  0.71875 0.609375 0  0.75 0.609375 0  0.78125 0.609375 0  0.8125 0.609375 0  0.84375 0.609375 0  0.875 0.609375 0  0.90625 0.609375 0  0.9375 0.609375 0  0.96875 0.609375 0  1 0.609375 0  0.03125 0.65625 0  0 0.65625 0  0.0625 0.65625 0  0.09375 0.65625 0  0.125 0.65625 0  0.15625 0.65625 0  0.1875 0.65625 0  0.21875 0.65625 0  0.25 0.65625 0  0.28125 0.65625 0  0.3125 0.65625 0  0.34375 0.65625 0  0.375 0.65625 0  0.40625 0.65625 0  0.4375 0.65625 0  0.46875 0.65625 0  0.5 0.65625 0  0.53125 0.65625 0  0.5625 0.65625 0  0.59375 0.65625 0  0.625 0.65625 0  0.65625 0.65625 0  0.6875 0.65625 0  0.71875 0.65625 0  0.75 0.65625 0  0.78125 0.65625 0  0.8125 0.65625 0  0.84375 0.65625 0  0.875 0.65625 0  0.90625 0.65625 0  0.9375 0.65625 0  0.96875 0.65625 0  1 0.65625 0  0.03125 0.703125 0  0 0.703125 0  0.0625 0.703125 0  0.09375 0.703125 0  0.125 0.703125 0  0.15625 0.703125 0  0.1875 0.703125 0  0.21875 0.703125 0  0.25 0.703125 0  0.28125 0.703125 0  0.3125 0.703125 0  0.34375 0.703125 0  0.375 0.703125 0  0.40625 0.703125 0  0.4375 0.703125 0  0.46875 0.703125 0  0.5 0.703125 0  0.53125 0.703125 0  0.5625 0.703125 0  0.59375 0.703125 0  0.625 0.703125 0  0.65625 0.703125 0  0.6875 0.703125 0  0.71875 0.703125 0  0.75 0.703125 0  0.78125 0.703125 0  0.8125 0.703125 0  0.84375 0.703125 0  0.875 0.703125 0  0.90625 0.703125 0  0.9375 0.703125 0  0.96875 0.703125 0  1 0.703125 0  0.03125 0.75 0  0 0.75 0  0.0625 0.75 0  0.09375 0.75 0  0.125 0.75 0  0.15625 0.75 0  0.1875 0.75 0  0.21875 0.75 0  0.25 0.75 0  0.28125 0.75 0  0.3125 0.75 0  0.34375 0.75 0  0.375 0.75 0  0.40625 0.75 0  0.4375 0.75 0  0.46875 0.75 0  0.5 0.75 0  0.53125 0.75 0  0.5625 0.75 0  0.59375 0.75 0  0.625 0.75 0  0.65625 0.75 0  0.6875 0.75 0  0.71875 0.75 0  0.75 0.75 0  0.78125 0.75 0  0.8125 0.75 0  0.84375 0.75 0  0.875 0.75 0  0.90625 0.75 0  0.9375 0.75 0  0.96875 0.75 0  1 0.75 0  0.03125 0.796875 0  0 0.796875 0  0.0625 0.796875 0  0.09375 0.796875 0  0.125 0.796875 0  0.15625 0.796875 0  0.1875 0.796875 0  0.21875 0.796875 0  0.25 0.796875 0  0.28125 0.796875 0  0.3125 0.796875 0  0.34375 0.796875 0  0.375 0.796875 0  0.40625 0.796875 0  0.4375 0.796875 0  0.46875 0.796875 0  0.5 0.796875 0  0.53125 0.796875 0  0.5625 0.796875 0  0.59375 0.796875 0  0.625 0.796875 0  0.65625 0.796875 0  0.6875 0.796875 0  0.71875 0.796875 0  0.75 0.796875 0  0.78125 0.796875 0  0.8125 0.796875 0  0.84375 0.796875 0  0.875 0.796875 0  0.90625 0.796875 0  0.9375 0.796875 0  0.96875 0.796875 0  1 0.796875 0  0.03125 0.84375 0  0 0.84375 0  0.0625 0.84375 0  0.09375 0.84375 0  0.125 0.84375 0  0.15625 0.84375 0  0.1875 0.84375 0  0.21875 0.84375 0  0.25 0.84375 0  0.28125 0.84375 0  0.3125 0.84375 0  0.34375 0.84375 0  0.375 0.84375 0  0.40625 0.84375 0  0.4375 0.84375 0  0.46875 0.84375 0  0.5 0.84375 0  0.53125 0.84375 0  0.5625 0.84375 0  0.59375 0.84375 0  0.625 0.84375 0  0.65625 0.84375 0  0.6875 0.84375 0  0.71875 0.84375 0  0.75 0.84375 0  0.78125 0.84375 0  0.8125 0.84375 0  0.84375 0.84375 0  0.875 0.84375 0  0.90625 0.84375 0  0.9375 0.84375 0  0.96875 0.84375 0  1 0.84375 0  0.03125 0.890625 0  0 0.890625 0  0.0625 0.890625 0  0.09375 0.890625 0  0.125 0.890625 0  0.15625 0.890625 0  0.1875 0.890625 0  0.21875 0.890625 0  0.25 0.890625 0  0.28125 0.890625 0  0.3125 0.890625 0  0.34375 0.890625 0  0.375 0.890625 0  0.40625 0.890625 0  0.4375 0.890625 0  0.46875 0.890625 0  0.5 0.890625 0  0.53125 0.890625 0  0.5625 0.890625 0  0.59375 0.890625 0  0.625 0.890625 0  0.65625 0.890625 0  0.6875 0.890625 0  0.71875 0.890625 0  0.75 0.890625 0  0.78125 0.890625 0  0.8125 0.890625 0  0.84375 0.890625 0  0.875 0.890625 0  0.90625 0.890625 0  0.9375 0.890625 0  0.96875 0.890625 0  1 0.890625 0  0.03125 0.9375 0  0 0.9375 0  0.0625 0.9375 0  0.09375 0.9375 0  0.125 0.9375 0  0.15625 0.9375 0  0.1875 0.9375 0  0.21875 0.9375 0  0.25 0.9375 0  0.28125 0.9375 0  0.3125 0.9375 0  0.34375 0.9375 0  0.375 0.9375 0  0.40625 0.9375 0  0.4375 0.9375 0  0.46875 0.9375 0  0.5 0.9375 0  0.53125 0.9375 0  0.5625 0.9375 0  0.59375 0.9375 0  0.625 0.9375 0  0.65625 0.9375 0  0.6875 0.9375 0  0.71875 0.9375 0  0.75 0.9375 0  0.78125 0.9375 0  0.8125 0.9375 0  0.84375 0.9375 0  0.875 0.9375 0  0.90625 0.9375 0  0.9375 0.9375 0  0.96875 0.9375 0  1 0.9375 0  0.03125 0.984375 0  0 0.984375 0  0.0625 0.984375 0  0.09375 0.984375 0  0.125 0.984375 0  0.15625 0.984375 0  0.1875 0.984375 0  0.21875 0.984375 0  0.25 0.984375 0  0.28125 0.984375 0  0.3125 0.984375 0  0.34375 0.984375 0  0.375 0.984375 0  0.40625 0.984375 0  0.4375 0.984375 0  0.46875 0.984375 0  0.5 0.984375 0  0.53125 0.984375 0  0.5625 0.984375 0  0.59375 0.984375 0  0.625 0.984375 0  0.65625 0.984375 0  0.6875 0.984375 0  0.71875 0.984375 0  0.75 0.984375 0  0.78125 0.984375 0  0.8125 0.984375 0  0.84375 0.984375 0  0.875 0.984375 0  0.90625 0.984375 0  0.9375 0.984375 0  0.96875 0.984375 0  1 0.984375 0  0.03125 1.03125 0  0 1.03125 0  0.0625 1.03125 0  0.09375 1.03125 0  0.125 1.03125 0  0.15625 1.03125 0  0.1875 1.03125 0  0.21875 1.03125 0  0.25 1.03125 0  0.28125 1.03125 0  0.3125 1.03125 0  0.34375 1.03125 0  0.375 1.03125 0  0.40625 1.03125 0  0.4375 1.03125 0  0.46875 1.03125 0  0.5 1.03125 0  0.53125 1.03125 0  0.5625 1.03125 0  0.59375 1.03125 0  0.625 1.03125 0  0.65625 1.03125 0  0.6875 1.03125 0  0.71875 1.03125 0  0.75 1.03125 0  0.78125 1.03125 0  0.8125 1.03125 0  0.84375 1.03125 0  0.875 1.03125 0  0.90625 1.03125 0  0.9375 1.03125 0  0.96875 1.03125 0  1 1.03125 0  0.03125 1.078125 0  0 1.078125 0  0.0625 1.078125 0  0.09375 1.078125 0  0.125 1.078125 0  0.15625 1.078125 0  0.1875 1.078125 0  0.21875 1.078125 0  0.25 1.078125 0  0.28125 1.078125 0  0.3125 1.078125 0  0.34375 1.078125 0  0.375 1.078125 0  0.40625 1.078125 0  0.4375 1.078125 0  0.46875 1.078125 0  0.5 1.078125 0  0.53125 1.078125 0  0.5625 1.078125 0  0.59375 1.078125 0  0.625 1.078125 0  0.65625 1.078125 0  0.6875 1.078125 0  0.71875 1.078125 0  0.75 1.078125 0  0.78125 1.078125 0  0.8125 1.078125 0  0.84375 1.078125 0  0.875 1.078125 0  0.90625 1.078125 0  0.9375 1.078125 0  0.96875 1.078125 0  1 1.078125 0  0.03125 1.125 0  0 1.125 0  0.0625 1.125 0  0.09375 1.125 0  0.125 1.125 0  0.15625 1.125 0  0.1875 1.125 0  0.21875 1.125 0  0.25 1.125 0  0.28125 1.125 0  0.3125 1.125 0  0.34375 1.125 0  0.375 1.125 0  0.40625 1.125 0  0.4375 1.125 0  0.46875 1.125 0  0.5 1.125 0  0.53125 1.125 0  0.5625 1.125 0  0.59375 1.125 0  0.625 1.125 0  0.65625 1.125 0  0.6875 1.125 0  0.71875 1.125 0  0.75 1.125 0  0.78125 1.125 0  0.8125 1.125 0  0.84375 1.125 0  0.875 1.125 0  0.90625 1.125 0  0.9375 1.125 0  0.96875 1.125 0  1 1.125 0  0.03125 1.171875 0  0 1.171875 0  0.0625 1.171875 0  0.09375 1.171875 0  0.125 1.171875 0  0.15625 1.171875 0  0.1875 1.171875 0  0.21875 1.171875 0  0.25 1.171875 0  0.28125 1.171875 0  0.3125 1.171875 0  0.34375 1.171875 0  0.375 1.171875 0  0.40625 1.171875 0  0.4375 1.171875 0  0.46875 1.171875 0  0.5 1.171875 0  0.53125 1.171875 0  0.5625 1.171875 0  0.59375 1.171875 0  0.625 1.171875 0  0.65625 1.171875 0  0.6875 1.171875 0  0.71875 1.171875 0  0.75 1.171875 0  0.78125 1.171875 0  0.8125 1.171875 0  0.84375 1.171875 0  0.875 1.171875 0  0.90625 1.171875 0  0.9375 1.171875 0  0.96875 1.171875 0  1 1.171875 0  0.03125 1.21875 0  0 1.21875 0  0.0625 1.21875 0  0.09375 1.21875 0  0.125 1.21875 0  0.15625 1.21875 0  0.1875 1.21875 0  0.21875 1.21875 0  0.25 1.21875 0  0.28125 1.21875 0  0.3125 1.21875 0  0.34375 1.21875 0  0.375 1.21875 0  0.40625 1.21875 0  0.4375 1.21875 0  0.46875 1.21875 0  0.5 1.21875 0  0.53125 1.21875 0  0.5
[...]
<PointData  Scalars="p"> 
<DataArray  type="Float64"  Name="p"  format="ascii">0.0000000000000000e+00  -9.4250112763969232e-03  -9.8732608582302837e-03  0.0000000000000000e+00  -1.6252138084523179e-02  -1.7000874731499135e-02  -2.0953613952563441e-02  -2.1909900854933821e-02  -2.3929492865026415e-02  -2.5024631288811199e-02  -2.5509886833972345e-02  -2.6688082632808311e-02  -2.5963990622846465e-02  -2.7177827319127785e-02  -2.5510207840465603e-02  -2.6718522653218977e-02  -2.4325434318384461e-02  -2.5492329541370984e-02  -2.2553183031592927e-02  -2.3647361197991691e-02  -2.0310344174337851e-02  -2.1304798638365829e-02  -1.7692903604999609e-02  -1.8564597193584251e-02  -1.4780643071902135e-02  -1.5510388835584839e-02  -1.1641101286049928e-02  -1.2213378914360692e-02  -8.3328465571637141e-03  -8.7357700600405007e-03  -4.9083283131834731e-03  -5.1335682052126835e-03  -1.4163113262958137e-03  -1.4591412568614034e-03  2.0958991142960934e-03  2.2365739812516645e-03  5.5803796064973592e-03  5.9018892368398789e-03  8.9865048441651191e-03  9.4822837583625162e-03  1.2258824781720877e-02  1.2918193896745844e-02  1.5334739640537193e-02  1.6142695710918656e-02  1.8141887731389670e-02  1.9078820942091564e-02  2.0595100364780565e-02  2.1636529215056655e-02  2.2592818310718774e-02  2.3709062056093147e-02  2.4012717298187426e-02  2.5168603556522586e-02  2.4706426594033506e-02  2.5860933583365484e-02  2.4492994561559563e-02  2.5598980236415322e-02  2.3150902560137163e-02  2.4154867400082485e-02  2.0408165707584486e-02  2.1250473689813643e-02  1.5929782920754126e-02  1.6546219012190142e-02  9.3007659668089600e-03  9.6287685637424861e-03  0.0000000000000000e+00  0.0000000000000000e+00  -1.0918355877541142e-02  0.0000000000000000e+00  -1.8821337090250783e-02  -2.4288399464324564e-02  -2.7783000343349382e-02  -2.9677313873549993e-02  -3.0271131939367375e-02  -2.9806998288796044e-02  -2.8481852989390651e-02  -2.6456769174804294e-02  -2.3864346978234832e-02  -2.0815161018378686e-02  -1.7402608321062545e-02  -1.3707318353762698e-02  -9.8004523660570469e-03  -5.7469194828725992e-03  -1.6078359301467690e-03  2.5569345801873225e-03  6.6866384020849686e-03  1.0717274929843602e-02  1.4579402373458840e-02  1.8195574934136333e-02  2.1477676642028910e-02  2.4323649727690536e-02  2.6613868664993580e-02  2.8206510040868459e-02  2.8932128905469878e-02  2.8586745338201377e-02  2.6923500841880922e-02  2.3642202584888933e-02  1.8376641792316701e-02  1.0678884737278554e-02  0.0000000000000000e+00  -1.2506023345694211e-02  0.0000000000000000e+00  -2.1570875753618348e-02  -2.7860847600962822e-02  -3.1903781239286014e-02  -3.4120125291792619e-02  -3.4847034395215144e-02  -3.4356385891049092e-02  -3.2869335963109522e-02  -3.0567019655988178e-02  -2.7599731651224157e-02  -2.4093406494429068e-02  -2.0155746233589431e-02  -1.5880304935808304e-02  -1.1350811480095044e-02  -6.6440060306889306e-03  -1.8329506934762316e-03  3.0107354945369440e-03  7.8140196779811523e-03  1.2500299795819141e-02  1.6986606397121035e-02  2.1181162101068924e-02  2.4980149972023333e-02  2.8264505259535166e-02  3.0895648774517254e-02  3.2710755850640066e-02  3.3516405843216066e-02  3.3081069683750228e-02  3.1125054002615848e-02  2.7308121551053072e-02  2.1213037791448845e-02  1.2324370563271701e-02  0.0000000000000000e+00  -1.4623947711820705e-02  0.0000000000000000e+00  -2.5214279701456319e-02  -3.2563720747033849e-02  -3.7294075282729051e-02  -3.9896890216634354e-02  -4.0763568593982974e-02  -4.0208813860082071e-02  -3.8487641720924871e-02  -3.5809436967769642e-02  -3.2347665590891202e-02  -2.8248754398686467e-02  -2.3637799975100352e-02  -1.8624641296359393e-02  -1.3307363904474680e-02  -7.7769254025982070e-03  -2.1195850347576367e-03  3.5792609971989370e-03  9.2329801269214664e-03  1.4750147428550360e-02  2.0032315681302142e-02  2.4970351498775030e-02  2.9441549195529788e-02  3.3305237764941611e-02  3.6398585241927815e-02  3.8530460769960050e-02  3.9474577302754277e-02  3.8959901856787077e-02  3.6658822469671060e-02  3.2171038507265944e-02  2.5002652460846271e-02  1.4537684500532732e-02  0.0000000000000000e+00  -1.7294505931688308e-02  0.0000000000000000e+00  -2.9783443823141249e-02  -3.8428306219673365e-02  -4.3977952176761100e-02  -4.7020120668442827e-02  -4.8020353461120671e-02  -4.7350742112456559e-02  -4.5312161832369982e-02  -4.2150385957287678e-02  -3.8069304140025982e-02  -3.3239989930114157e-02  -2.7809300389953034e-02  -2.1905056885734582e-02  -1.5642341943430574e-02  -9.1266611209260516e-03  -2.4592052675623034e-03  4.2609754964351050e-03  1.0932107003291999e-02  1.7447655655002225e-02  2.3691589024349462e-02  2.9535856067448307e-02  3.4835302192478983e-02  3.9423849769835401e-02  4.3108218969268593e-02  4.5661594488296986e-02  4.6814311695209249e-02  4.6242798174686794e-02  4.3554073553802114e-02  3.8265851300896297e-02  2.9779231138096850e-02  1.7342196021984706e-02  0.0000000000000000e+00  -2.0565820050269204e-02  0.0000000000000000e+00  -3.5354994181037581e-02  -4.5545054289221371e-02  -5.2048495511989278e-02  -5.5578003438517459e-02  -5.6695255098982426e-02  -5.5847295923129855e-02  -5.3393759154212607e-02  -4.9627429330265233e-02  -4.4789577704092948e-02  -3.9082165785056043e-02  -3.2676771549739407e-02  -2.5722735960649685e-02  -1.8352477691674987e-02  -1.0688070419112947e-02  -2.8445285682439422e-03  5.0640458464878534e-03  1.2922104716898697e-02  2.0606401973037782e-02  2.7983654737936188e-02  3.4904120915823747e-02  4.1198148861636176e-02  4.6669073716360095e-02  5.1087348674622370e-02  5.4181227560059116e-02  5.5626299751043488e-02  5.5030867147674918e-02  5.1917064839115054e-02  4.5695336662214363e-02  3.5630067231975725e-02  2.0792964112409478e-02  0.0000000000000000e+00  -2.4505274143659998e-02  0.0000000000000000e+00  -4.2037127190213977e-02  -5.4043005663806730e-02  -6.1640896601033869e-02  -6.5701199367045035e-02  -6.6907429165694671e-02  -6.5801670466608106e-02  -6.2817984043150477e-02  -5.8307925579010614e-02  -5.2559226319239143e-02  -4.5810657239591129e-02  -3.8263293784492780e-02  -3.0089753056598452e-02  -2.1442039244539718e-02  -1.2457753208907485e-02  -3.2668788723598892e-03  6.0038865342563405e-03  1.5224109143362015e-02  2.4256119290159618e-02  3.2947367248810387e-02  4.1126662724022670e-02  4.8595754149416595e-02  5.5123629238429936e-02  6.0436606356333807e-02  6.4208412445191210e-02  6.6045980267405213e-02  6.5471834026168282e-02  6.1900205355850939e-02  5.4605192551316913e-02  4.2677676887051999e-02  2.4966663720573219e-02  0.0000000000000000e+00  -2.9195886782169014e-02  0.0000000000000000e+00  -4.9961954941870584e-02  -6.4077895347412858e-02  -7.2915827599094651e-02  -7.7542162104842216e-02  -7.8792590762208056e-02  -7.7328086768737092e-02  -7.3675793680865090e-02  -6.8260152099154300e-02  -6.1425793011221287e-02  -5.3455551753263865e-02  -4.4584479308167585e-02  -3.5011169373256212e-02  -2.4907491148083230e-02  -1.4426803469212691e-02  -3.7117144004094435e-03  7.0988609430293588e-03  1.7862916462849595e-02  2.8427876618082250e-02  3.8624308443203650e-02  4.8257024046819606e-02  5.7098198638412589e-02  6.4876311536447018e-02  7.1266549727196787e-02  7.5876020264162625e-02  7.8227504386132934e-02  7.7736604732717915e-02  7.3682666016337703e-02  6.5169040502121592e-02  5.1069770480545243e-02  2.9956559951664487e-02  0.0000000000000000e+00  -3.4734960694580437e-02  0.0000000000000000e+00  -5.9281618884916010e-02  -7.5824643289341825e-02  -8.6047957476037287e-02  -9.1259396122805828e-02  -9.2483744988667890e-02  -9.0529400116550696e-02  -8.6039620193767874e-02  -7.9528299071085967e-02  -7.1409711946879798e-02  -6.2018566402437060e-02  -5.1629065618311425e-02  -4.0467604817122936e-02  -2.8726028611260307e-02  -1.6571731259207287e-02  -4.1573723310010845e-03  8.3692701304427554e-03  2.0857431512404233e-02  3.3142931129782269e-02  4.5040140316691950e-02  5.6331368116592090e-02  6.6755778139187455e-02  7.5998070443263399e-02  8.3672495784227210e-02  8.9307582946450373e-02  9.2322633032524623e-02  9.2001945111195915e-02  8.7457049526381392e-02  7.7579481312229512e-02  6.0974226926569203e-02  3.5870667880508814e-02  0.0000000000000000e+00  -4.1233668233130717e-02  0.0000000000000000e+00  -7.0165041254418262e-02  -8.9470209673688142e-02  -1.0121340563099661e-01  -1.0700032903832507e-01  -1.0808905784557601e-01  -1.0547232877492277e-01  -9.9936054946151417e-02  -9.2105643004945739e-02  -8.2477843306172915e-02  -7.1449883929004032e-02  -5.9338285901116110e-02  -4.6399714705754908e-02  -3.2843678111160561e-02  -1.8848675358801751e-02  -4.5731381447771694e-03  9.8321460421280892e-03  2.4211939075802963e-02  3.8396187187340919e-02  5.2186116231644264e-02  6.5343212194113931e-02  7.7573919518185902e-02  8.8513293504643292e-02  9.7707867970450168e-02  1.0459092412001425e-01  1.0845826200652443e-01  1.0843136198768673e-01  1.0341532431503742e-01  9.2038477288147277e-02  7.2573944804347992e-02  4.2829761502237065e-02  0.0000000000000000e+00  -4.8816343454036244e-02  0.0000000000000000e+00  -8.2793765778774994e-02  -1.0520264271148957e-01  -1.1857235734019470e-01  -1.2487576489805569e-01  -1.2566185564710086e-01  -1.2215203702527232e-01  -1.1531069514165397e-01  -1.0589801864734374e-01  -9.4511616107990401e-02  -8.1618384806721192e-02  -6.7583206953098524e-02  -5.2690153103200181e-02  -3.7164648558684434e-02  -2.1189059200409140e-02  -4.9212134445127190e-03  1.1492728470978666e-02  2.7901704569124847e-02  4.4136248979817286e-02  5.9992221480403694e-02  7.5214062598507631e-02  8.9476780223321103e-02  1.0236427746298891e-01  1.1334460073085402e-01  1.2174221516862120e-01  1.2670157146219244e-01  1.2714691909922335e-01  1.2172641205973589e-01  1.0874319202252143e-01  8.6059272379769333e-02  5.0965313849652125e-02  0.0000000000000000e+00  -5.7619380478867270e-02  0.0000000000000000e+00  -9.7353741835127378e-02  -1.2319314062554032e-01  -1.3823870829396367e-01  -1.4492038637415439e-01  -1.4515193391515388e-01  -1.4044175829608949e-01  -1.3197521167558279e-01  -1.2067718291702013e-01  -1.0726269343054050e-01  -9.2277858919134897e-02  -7.6135644182146314e-02  -5.9145444598327837e-02  -4.1539677124301920e-02  -2.3497093014465707e-02  -5.1625957351761793e-03  1.3331792840001765e-02  3.1851701734896667e-02  5.0238279130290525e-02  6.8292478567231710e-02  8.5750404140184311e-02  1.0226024225861918e-01  1.1735486472317083e-01  1.3041789484263550e-01  1.4064694480188966e-01  1.4700830006266224e-01  1.4818312367572076e-01  1.4250266319038721e-01  1.2786355638422428e-01  1.0161734190713537e-01  6.0416316875840967e-02  0.0000000000000000e+00  -6.7787695021397892e-02  0.0000000000000000e+00  -1.1401917961527247e-01  -1.4356146387112423e-01  -1.6022696930622163e-01  -1.6702342833744288e-01  -1.6632788369541365e-01  -1.6001100158834100e-01  -1.4953133600638235e-01  -1.3601083916800652e-01  -1.2029765852351490e-01  -1.0302129958723344e-01  -8.4638446370658982e-02  -6.5474772928656666e-02  -4.5758067675310911e-02  -2.5648938244602102e-02  -5.2667697104181845e-03  1.5287964504980212e-02  3.5909298461758415e-02  5.6466833698740906e-02  7.6778297040767052e-02  9.6585778052865168e-02  1.1552197010357895e-01  1.3307344143254771e-01  1.4853867110212557e-01  1.6097429182023787e-01  1.6913702445308179e-01  1.7141383429671941e-01  1.6574023784009337e-01  1.4950284161479699e-01  1.1941077567386685e-01  7.1322729670709392e-02  0.0000000000000000e+00  -7.9467606151296263e-02  0.0000000000000000e+00  -1.3292146408514752e-01  -1.6631241246129103e-01  -1.8435768896979415e-01  -1.9081212682443843e-01  -1.8865052652335301e-01  -1.8020216821157378e-01  -1.6725864001683591e-01  -1.5116889264287695e-01  -1.3292321819498470e-01  -1.1322751995934725e-01  -9.2569447524471410e-02  -7.1271904351735332e-02  -4.9540333683337406e-02  -2.7499348918717758e-02  -5.2238192501683741e-03  1.7232461473774413e-02  3.9812497353055351e-02  6.2429041307421156e-02  8.4938278538624554e-02  1.0710562481305656e-01  1.2856763203194915e-01  1.4878198122960604e-01  1.6696839827729934e-01  1.8203864354263194e-01  1.9251211538834920e-01  1.9642319006320741e-01  1.9121617630110449e-01  1.7362683992694233e-01  1.3954282588221500e-01  8.3816663741617323e-02  0.0000000000000000e+00  -9.2789700787885912e-02  0.0000000000000000e+00  -1.5408337618323628e-01  -1.9121046245256243e-01  -2.1008255524531255e-01  -2.1544940140996488e-01  -2.1106859573431447e-01  -1.9984428123901909e-01  -1.8395929302584280e-01  -1.6500439217992710e-01  -1.4410015391144831e-01  -1.2200507298721165e-01  -9.9207316383768687e-02  -7.5999553198896300e-02  -5.2537770659791989e-02  -2.8888623718915474e-02  -5.0645858982305897e-03  1.8946188909198584e-02  4.3151703286887090e-02  6.7528756222258762e-02  9.1992367457465515e-02  1.1635921085788395e-01  1.4029795544539755e-01  1.6326813659825984e-01  1.8443961160154201e-01  2.0259311268437719e-01  2.1600170723001069e-01  2.2229363924263459e-01  2.1830595465021166e-01  1.9993623323072146e-01  1.6198966468391912e-01  9.8004481321975437e-02  0.0000000000000000e+00  -1.0782488892488719e-01  0.0000000000000000e+00  -1.7727262449928258e-01  -2.1752309170565751e-01  -2.3615184648513596e-01  -2.3927992663603939e-01  -2.3169042417213787e-01  -2.1698075662057784e-01  -1.9775248052433203e-01  -1.7581127844798497e-01  -1.5235678833398134e-01  -1.2814403921839346e-01  -1.0361224724346645e-01  -7.8983935937262509e-02  -5.4335981854609292e-02  -2.9654029175634946e-02  -4.8719790672895769e-03  2.0100158103597287e-02  4.5348720516760727e-02  7.0930570862876005e-02  9.6842309209236102e-02  1.2298052250208837e-01  1.4908786575541902e-01  1.7467589278271600e-01  1.9892327223397399e-01  2.2053660308540340e-01  2.3757447962943365e-01  2.4723849935055059e-01  2.4564463579077106e-01  2.2760583915702212e-01  1.8645609863117327e-01  1.1392487107745422e-01  0.0000000000000000e+00  -1.2447438613952996e-01  0.0000000000000000e+00  -2.0166838788915611e-01  -2.4348685757953153e-01  -2.5999041183735611e-01  -2.5923206407214588e-01  -2.4729098464931135e-01  -2.2851056817003912e-01  -2.0584130834361447e-01  -1.8119075731566775e-01  -1.5572226147525486e-01  -1.3009290727237122e-01  -1.0462459930630842e-01  -7.9423366695364442e-02  -5.4461417202016221e-02  -2.9630023696651783e-02  -4.7771866422031762e-03  2.0266296408475878e-02  4.5667869913153858e-02  7.1570021210070639e-02  9.8064909136565195e-02  1.2515701777330898e-01  1.5270738487855229e-01  1.8035186015361171e-01  2.0737430785434943e-01  2.3252627115193633e-01  2.5377590029433733e-01  2.6797846164703276e-01  2.7048606590341473e-01  2.5475389674714022e-01  2.1205839274370702e-01  1.3145731279260101e-01  0.0000000000000000e+00  -1.4216859959467382e-01  0.0000000000000000e+00  -2.2505069324820209e-01  -2.6516844864506417e-01  -2.7654341046868935e-01  -2.6987741954914973e-01  -2.5266568855221300e-01  -2.2981047718442338e-01  -2.0433415493083595e-01  -1.7799328697288055e-01  -1.5173003660430912e-01  -1.2598152676988872e-01  -1.0088337522165158e-01  -7.6394169535517545e-02  -5.2371506488501619e-02  -2.8618668238942012e-02  -4.9122432220946900e-03  1.8981553066115115e-02  4.3293698997091630e-02  6.8240533295606198e-02  9.4004889128611019e-02  1.2070885091970181e-01  1.4836797421645856e-01  1.7681144585269204e-01  2.0555361356809082e-01  2.3358617025162731e-01  2.5905304286221564e-01  2.7876319803158484e-01  2.8751684463414773e-01  2.7729700138402236e-01  2.3655346389875628e-01  1.5007442470573890e-01  0.0000000000000000e+00  -1.5893020663400659e-01  0.0000000000000000e+00  -2.4171535748846479e-01  -2.7407436546841246e-01  -2.7634414054640993e-01  -2.6222653114926409e-01  -2.4006241905455988e-01  -2.1458045825199368e-01  -1.8829440770676642e-01  -1.6243637862227064e-01  -1.3752350186115722e-01  -1.1368353294511747e-01  -9.0840495274417649e-02  -6.8816089555401208e-02  -4.7382715097574732e-02  -2.6291219225464416e-02  -5.2847994911056281e-03  1.5894592615341332e-02  3.7504147981609427e-02  5.9795622977086890e-02  8.3009346873788400e-02  1.0736029046607853e-01  1.3300947452505010e-01  1.6000904802510163e-01  1.8820037727332120e-01  2.1702880863106880e-01  2.4520606299945141e-01  2.7011834176638699e-01  2.8682363997055371e-01  2.8648075393826150e-01  2.5430803401095375e-01  1.6808893448960996e-01  0.0000000000000000e+00  -1.6791930727057963e-01  0.0000000000000000e+00  -2.3696549932375363e-01  -2.5271322238923960e-01  -2.4322288746296986e-01  -2.2313409334900328e-01  -1.9947215620411676e-01  -1.7540740736413393e-01  -1.5225116452510618e-01  -1.3044050912083857e-01  -1.1001150968357259e-01  -9.0822637894844821e-02  -7.2660469949918649e-02  -5.5288321673001260e-02  -3.8466695721006382e-02  -2.1960551092281063e-02  -5.5405187486588393e-03  1.1019523435283340e-02  2.7945164761647750e-02  4.5464802442458090e-02  6.3811048377583501e-02  8.3219826659241297e-02  1.0392198885043175e-01  1.2612199994444614e-01  1.4995172046673444e-01  1.7536677247465318e-01  2.0192820615368248e-01  2.2833825266378452e-01  2.5143487111794882e-01  2.6403896798733872e-01  2.5057933824517487e-01  1.7977270179500318e-01  0.0000000000000000e+00  -1.4306408980138191e-01  0.0000000000000000e+00  -1.7503428469437043e-01  -1.7054252770732417e-01  -1.5539846974559815e-01  -1.3803772290487148e-01  -1.2113664041876561e-01  -1.0544952874259411e-01  -9.1079146057612831e-02  -7.7911105739844971e-02  -6.5766905338374218e-02  -5.4457769879971696e-02  -4.3803552030869726e-02  -3.3637675611275147e-02  -2.3806188064406066e-02  -1.4165181732026339e-02  -4.5774047493470039e-03  5.0911929767875844e-03  1.4975186185363178e-02  2.5212937470033579e-02  3.5950399890095380e-02  4.7344013764542982e-02  5.9562871754182067e-02  7.2789441165270252e-02  8.7215332151862113e-02  1.0302507876143856e-01  1.2035169853568972e-01  1.3915533298420030e-01  1.5887099432276489e-01  1.7732000091571859e-01  1.8699675790482853e-01  1.6120620766572738e-01  0.0000000000000000e+00  0.0000000000000000e+00  0.0000000000000000e+00  0.0000000000000000e+00  0.0000000000000000e+00  0.0000000000000000e+00  0.0000000000000000e+00  0.0000000000000000e+00  0.0000000000000000e+00  0.0000000000000000e+00  0.0000000000000000e+00  0.0000000000000000e+00  0.0000000000000000e+00  0.0000000000000000e+00  0.0000000000000000e+00  0.0000000000000000e+00  0.0000000000000000e+00  0.0000000000000000e+00  0.0000000000000000e+00  0.0000000000000000e+00  0.0000000000000000e+00  0.0000000000000000e+00  0.0000000000000000e+00  0.0000000000000000e+00  0.0000000000000000e+00  0.0000000000000000e+00  0.0000000000000000e+00  0.0000000000000000e+00  0.0000000000000000e+00  0.0000000000000000e+00  0.0000000000000000e+00  0.0000000000000000e+00  0.0000000000000000e+00  0.0000000000000000e+00  </DataArray> 
</PointData> 
</Piece>
</UnstructuredGrid>
</VTKFile>