<?xml version="1.0"?>
<VTKFile type="UnstructuredGrid"  version="0.1"  >
<UnstructuredGrid>
<Piece  NumberOfPoints="759" NumberOfCells="1408">
<Points>
<DataArray  type="Float64"  NumberOfComponents="3"  format="ascii">0 0.46875 0  0.03125 0.46875 0  0.03125 0.515625 0  0 0.515625 0  0.0625 0.46875 0  0.0625 0.515625 0  0.09375 0.46875 0  0.09375 0.515625 0  0.125 0.46875 0  0.125 0.515625 0  0.15625 0.46875 0  0.15625 0.515625 0  0.1875 0.46875 0  0.1875 0.515625 0  0.21875 0.46875 0  0.21875 0.515625 0  0.25 0.46875 0  0.25 0.515625 0  0.28125 0.46875 0  0.28125 0.515625 0  0.3125 0.46875 0  0.3125 0.515625 0  0.34375 0.46875 0  0.34375 0.515625 0  0.375 0.46875 0  0.375 0.515625 0  0.40625 0.46875 0  0.40625 0.515625 0  0.4375 0.46875 0  0.4375 0.515625 0  0.46875 0.46875 0  0.46875 0.515625 0  0.5 0.46875 0  0.5 0.515625 0  0.53125 0.46875 0  0.53125 0.515625 0  0.5625 0.46875 0  0.5625 0.515625 0  0.59375 0.46875 0  0.59375 0.515625 0  0.625 0.46875 0  0.625 0.515625 0  0.65625 0.46875 0  0.65625 0.515625 0  0.6875 0.46875 0  0.6875 0.515625 0  0.71875 0.46875 0  0.71875 0.515625 0  0.75 0.46875 0  0.75 0.515625 0  0.78125 0.46875 0  0.78125 0.515625 0  0.8125 0.46875 0  0.8125 0.515625 0  0.84375 0.46875 0  0.84375 0.515625 0  0.875 0.46875 0  0.875 0.515625 0  0.90625 0.46875 0  0.90625 0.515625 0  0.9375 0.46875 0  0.9375 0.515625 0  0.96875 0.46875 0  0.96875 0.515625 0  1 0.46875 0  1 0.515625 0  0.03125 0.5625 0  0 0.5625 0  0.0625 0.5625 0  0.09375 0.5625 0  0.125 0.5625 0  0.15625 0.5625 0  0.1875 0.5625 0  0.21875 0.5625 0  0.25 0.5625 0  0.28125 0.5625 0  0.3125 0.5625 0  0.34375 0.5625 0  0.375 0.5625 0  0.40625 0.5625 0  0.4375 0.5625 0  0.46875 0.5625 0  0.5 0.5625 0  0.53125 0.5625 0  0.5625 0.5625 0  0.59375 0.5625 0  0.625 0.5625 0  0.65625 0.5625 0  0.6875 0.5625 0  0.71875 0.5625 0  0.75 0.5625 0  0.78125 0.5625 0  0.8125 0.5625 0  0.84375 0.5625 0  0.875 0.5625 0  0.90625 0.5625 0  0.9375 0.5625 0  0.96875 0.5625 0  1 0.5625 0  0.03125 0.609375 0  0 0.609375 0  0.0625 0.609375 0  0.09375 0.609375 0  0.125 0.609375 0  0.15625 0.609375 0  0.1875 0.609375 0  0.21875 0.609375 0  0.25 0.609375 0  0.28125 0.609375 0  0.3125 0.609375 0  0.34375 0.609375 0  0.375 0.609375 0  0.40625 0.609375 0  0.4375 0.609375 0  0.46875 0.609375 0  0.5 0.609375 0  0.53125 0.609375 0  0.5625 0.609375 0  0.59375 0.609375 0  0.625 0.609375 0  0.65625 0.609375 0  0.6875 0.609375 0  0.71875 0.609375 0  0.75 0.609375 0  0.78125 0.609375 0  0.8125 0.609375 0  0.84375 0.609375 0  0.875 0.609375 0  0.90625 0.609375 0  0.9375 0.609375 0  0.96875 0.609375 0  1 0.609375 0  0.03125 0.65625 0  0 0.65625 0  0.0625 0.65625 0  0.09375 0.65625 0  0.125 0.65625 0  0.15625 0.65625 0  0.1875 0.65625 0  0.21875 0.65625 0  0.25 0.65625 0  0.28125 0.65625 0  0.3125 0.65625 0  0.34375 0.65625 0  0.375 0.65625 0  0.40625 0.65625 0  0.4375 0.65625 0  0.46875 0.65625 0  0.5 0.65625 0  0.53125 0.65625 0  0.5625 0.65625 0  0.59375 0.65625 0  0.625 0.65625 0  0.65625 0.65625 0  0.6875 0.65625 0  0.71875 0.65625 0  0.75 0.65625 0  0.78125 0.65625 0  0.8125 0.65625 0  0.84375 0.65625 0  0.875 0.65625 0  0.90625 0.65625 0  0.9375 0.65625 0  0.96875 0.65625 0  1 0.65625 0  0.03125 0.703125 0  0 0.703125 0  0.0625 0.703125 0  0.09375 0.703125 0  0.125 0.703125 0  0.15625 0.703125 0  0.1875 0.703125 0  0.21875 0.703125 0  0.25 0.703125 0  0.28125 0.703125 0  0.3125 0.703125 0  0.34375 0.703125 0  0.375 0.703125 0  0.40625 0.703125 0  0.4375 0.703125 0  0.46875 0.703125 0  0.5 0.703125 0  0.53125 0.703125 0  0.5625 0.703125 0  0.59375 0.703125 0  0.625 0.703125 0  0.65625 0.703125 0  0.6875 0.703125 0  0.71875 0.703125 0  0.75 0.703125 0  0.78125 0.703125 0  0.8125 0.703125 0  0.84375 0.703125 0  0.875 0.703125 0  0.90625 0.703125 0  0.9375 0.703125 0  0.96875 0.703125 0  1 0.703125 0  0.03125 0.75 0  0 0.75 0  0.0625 0.75 0  0.09375 0.75 0  0.125 0.75 0  0.15625 0.75 0  0.1875 0.75 0  0.21875 0.75 0  0.25 0.75 0  0.28125 0.75 0  0.3125 0.75 0  0.34375 0.75 0  0.375 0.75 0  0.40625 0.75 0  0.4375 0.75 0  0.46875 0.75 0  0.5 0.75 0  0.53125 0.75 0  0.5625 0.75 0  0.59375 0.75 0  0.625 0.75 0  0.65625 0.75 0  0.6875 0.75 0  0.71875 0.75 0  0.75 0.75 0  0.78125 0.75 0  0.8125 0.75 0  0.84375 0.75 0  0.875 0.75 0  0.90625 0.75 0  0.9375 0.75 0  0.96875 0.75 0  1 0.75 0  0.03125 0.796875 0  0 0.796875 0  0.0625 0.796875 0  0.09375 0.796875 0  0.125 0.796875 0  0.15625 0.796875 0  0.1875 0.796875 0  0.21875 0.796875 0  0.25 0.796875 0  0.28125 0.796875 0  0.3125 0.796875 0  0.34375 0.796875 0  0.375 0.796875 0  0.40625 0.796875 0  0.4375 0.796875 0  0.46875 0.796875 0  0.5 0.796875 0  0.53125 0.796875 0  0.5625 0.796875 0  0.59375 0.796875 0  0.625 0.796875 0  0.65625 0.796875 0  0.6875 0.796875 0  0.71875 0.796875 0  0.75 0.796875 0  0.78125 0.796875 0  0.8125 0.796875 0  0.84375 0.796875 0  0.875 0.796875 0  0.90625 0.796875 0  0.9375 0.796875 0  0.96875 0.796875 0  1 0.796875 0  0.03125 0.84375 0  0 0.84375 0  0.0625 0.84375 0  0.09375 0.84375 0  0.125 0.84375 0  0.15625 0.84375 0  0.1875 0.84375 0  0.21875 0.84375 0  0.25 0.84375 0  0.28125 0.84375 0  0.3125 0.84375 0  0.34375 0.84375 0  0.375 0.84375 0  0.40625 0.84375 0  0.4375 0.84375 0  0.46875 0.84375 0  0.5 0.84375 0  0.53125 0.84375 0  0.5625 0.84375 0  0.59375 0.84375 0  0.625 0.84375 0  0.65625 0.84375 0  0.6875 0.84375 0  0.71875 0.84375 0  0.75 0.84375 0  0.78125 0.84375 0  0.8125 0.84375 0  0.84375 0.84375 0  0.875 0.84375 0  0.90625 0.84375 0  0.9375 0.84375 0  0.96875 0.84375 0  1 0.84375 0  0.03125 0.890625 0  0 0.890625 0  0.0625 0.890625 0  0.09375 0.890625 0  0.125 0.890625 0  0.15625 0.890625 0  0.1875 0.890625 0  0.21875 0.890625 0  0.25 0.890625 0  0.28125 0.890625 0  0.3125 0.890625 0  0.34375 0.890625 0  0.375 0.890625 0  0.40625 0.890625 0  0.4375 0.890625 0  0.46875 0.890625 0  0.5 0.890625 0  0.53125 0.890625 0  0.5625 0.890625 0  0.59375 0.890625 0  0.625 0.890625 0  0.65625 0.890625 0  0.6875 0.890625 0  0.71875 0.890625 0  0.75 0.890625 0  0.78125 0.890625 0  0.8125 0.890625 0  0.84375 0.890625 0  0.875 0.890625 0  0.90625 0.890625 0  0.9375 0.890625 0  0.96875 0.890625 0  1 0.890625 0  0.03125 0.9375 0  0 0.9375 0  0.0625 0.9375 0  0.09375 0.9375 0  0.125 0.9375 0  0.15625 0.9375 0  0.1875 0.9375 0  0.21875 0.9375 0  0.25 0.9375 0  0.28125 0.9375 0  0.3125 0.9375 0  0.34375 0.9375 0  0.375 0.9375 0  0.40625 0.9375 0  0.4375 0.9375 0  0.46875 0.9375 0  0.5 0.9375 0  0.53125 0.9375 0  0.5625 0.9375 0  0.59375 0.9375 0  0.625 0.9375 0  0.65625 0.9375 0  0.6875 0.9375 0  0.71875 0.9375 0  0.75 0.9375 0  0.78125 0.9375 0  0.8125 0.9375 0  0.84375 0.9375 0  0.875 0.9375 0  0.90625 0.9375 0  0.9375 0.9375 0  0.96875 0.9375 0  1 0.9375 0  0.03125 0.984375 0  0 0.984375 0  0.0625 0.984375 0  0.09375 0.984375 0  0.125 0.984375 0  0.15625 0.984375 0  0.1875 0.984375 0  0.21875 0.984375 0  0.25 0.984375 0  0.28125 0.984375 0  0.3125 0.984375 0  0.34375 0.984375 0  0.375 0.984375 0  0.40625 0.984375 0  0.4375 0.984375 0  0.46875 0.984375 0  0.5 0.984375 0  0.53125 0.984375 0  0.5625 0.984375 0  0.59375 0.984375 0  0.625 0.984375 0  0.65625 0.984375 0  0.6875 0.984375 0  0.71875 0.984375 0  0.75 0.984375 0  0.78125 0.984375 0  0.8125 0.984375 0  0.84375 0.984375 0  0.875 0.984375 0  0.90625 0.984375 0  0.9375 0.984375 0  0.96875 0.984375 0  1 0.984375 0  0.03125 1.03125 0  0 1.03125 0  0.0625 1.03125 0  0.09375 1.03125 0  0.125 1.03125 0  0.15625 1.03125 0  0.1875 1.03125 0  0.21875 1.03125 0  0.25 1.03125 0  0.28125 1.03125 0  0.3125 1.03125 0  0.34375 1.03125 0  0.375 1.03125 0  0.40625 1.03125 0  0.4375 1.03125 0  0.46875 1.03125 0  0.5 1.03125 0  0.53125 1.03125 0  0.5625 1.03125 0  0.59375 1.03125 0  0.625 1.03125 0  0.65625 1.03125 0  0.6875 1.03125 0  0.71875 1.03125 0  0.75 1.03125 0  0.78125 1.03125 0  0.8125 1.03125 0  0.84375 1.03125 0  0.875 1.03125 0  0.90625 1.03125 0  0.9375 1.03125 0  0.96875 1.03125 0  1 1.03125 0  0.03125 1.078125 0  0 1.078125 0  0.0625 1.078125 0  0.09375 1.078125 0  0.125 1.078125 0  0.15625 1.078125 0  0.1875 1.078125 0  0.21875 1.078125 0  0.25 1.078125 0  0.28125 1.078125 0  0.3125 1.078125 0  0.34375 1.078125 0  0.375 1.078125 0  0.40625 1.078125 0  0.4375 1.078125 0  0.46875 1.078125 0  0.5 1.078125 0  0.53125 1.078125 0  0.5625 1.078125 0  0.59375 1.078125 0  0.625 1.078125 0  0.65625 1.078125 0  0.6875 1.078125 0  0.71875 1.078125 0  0.75 1.078125 0  0.78125 1.078125 0  0.8125 1.078125 0  0.84375 1.078125 0  0.875 1.078125 0  0.90625 1.078125 0  0.9375 1.078125 0  0.96875 1.078125 0  1 1.078125 0  0.03125 1.125 0  0 1.125 0  0.0625 1.125 0  0.09375 1.125 0  0.125 1.125 0  0.15625 1.125 0  0.1875 1.125 0  0.21875 1.125 0  0.25 1.125 0  0.28125 1.125 0  0.3125 1.125 0  0.34375 1.125 0  0.375 1.125 0  0.40625 1.125 0  0.4375 1.125 0  0.46875 1.125 0  0.5 1.125 0  0.53125 1.125 0  0.5625 1.125 0  0.59375 1.125 0  0.625 1.125 0  0.65625 1.125 0  0.6875 1.125 0  0.71875 1.125 0  0.75 1.125 0  0.78125 1.125 0  0.8125 1.125 0  0.84375 1.125 0  0.875 1.125 0  0.90625 1.125 0  0.9375 1.125 0  0.96875 1.125 0  1 1.125 0  0.03125 1.171875 0  0 1.171875 0  0.0625 1.171875 0  0.09375 1.171875 0  0.125 1.171875 0  0.15625 1.171875 0  0.1875 1.171875 0  0.21875 1.171875 0  0.25 1.171875 0  0.28125 1.171875 0  0.3125 1.171875 0  0.34375 1.171875 0  0.375 1.171875 0  0.40625 1.171875 0  0.4375 1.171875 0  0.46875 1.171875 0  0.5 1.171875 0  0.53125 1.171875 0  0.5625 1.171875 0  0.59375 1.171875 0  0.625 1.171875 0  0.65625 1.171875 0  0.6875 1.171875 0  0.71875 1.171875 0  0.75 1.171875 0  0.78125 1.171875 0  0.8125 1.171875 0  0.84375 1.171875 0  0.875 1.171875 0  0.90625 1.171875 0  0.9375 1.171875 0  0.96875 1.171875 0  1 1.171875 0  0.03125 1.21875 0  0 1.21875 0  0.0625 1.21875 0  0.09375 1.21875 0  0.125 1.21875 0  0.15625 1.21875 0  0.1875 1.21875 0  0.21875 1.21875 0  0.25 1.21875 0  0.28125 1.21875 0  0.3125 1.21875 0  0.34375 1.21875 0  0.375 1.21875 0  0.40625 1.21875 0  0.4375 1.21875 0  0.46875 1.21875 0  0.5 1.21875 0  0.53125 1.21875 0  0.5
[...]
<PointData  Scalars="p"> 
<DataArray  type="Float64"  Name="p"  format="ascii">0.0000000000000000e+00  -9.4263072159179208e-03  -9.8745367556145967e-03  0.0000000000000000e+00  -1.6254211075847042e-02  -1.7002903482023306e-02  -2.0956090988376853e-02  -2.1912311980114639e-02  -2.3932106150822741e-02  -2.5027160933885798e-02  -2.5512443405450603e-02  -2.6690541669376240e-02  -2.5966350343092099e-02  -2.7180078983167270e-02  -2.5512267707537721e-02  -2.6720466839140616e-02  -2.4327117378073797e-02  -2.5493891789072489e-02  -2.2554430609585587e-02  -2.3648485007069807e-02  -2.0311110481366499e-02  -2.1305440142225667e-02  -1.7693152037516695e-02  -1.8564721511319514e-02  -1.4780343730425844e-02  -1.5509967626064866e-02  -1.1640229370537951e-02  -1.2212388794149457e-02  -8.3313814091371275e-03  -8.7341916584415310e-03  -4.9062529561261217e-03  -5.1313857100676163e-03  -1.4136124146846573e-03  -1.4563423637115372e-03  2.0992309745731584e-03  2.2399977520527882e-03  5.5843491549313670e-03  5.9059418413705779e-03  8.9911110215946978e-03  9.4869634903018522e-03  1.2264059041811782e-02  1.2923491701142528e-02  1.5340583548553848e-02  1.6148592782736487e-02  1.8148309596067322e-02  1.9085285353043990e-02  2.0602050552752143e-02  2.1643511214987168e-02  2.2600222743023729e-02  2.3716487553298041e-02  2.4020468428020948e-02  2.5176365073568026e-02  2.4714370911537522e-02  2.5868877744175123e-02  2.4500915272217583e-02  2.5606890462830031e-02  2.3158495562605911e-02  2.4162440007400560e-02  2.0415006207375123e-02  2.1257284935422921e-02  1.5935278746492240e-02  1.6551679779631141e-02  9.3040914893142840e-03  9.6320624477668638e-03  0.0000000000000000e+00  0.0000000000000000e+00  -1.0919553038720515e-02  0.0000000000000000e+00  -1.8823226449539869e-02  -2.4290623964973224e-02  -2.7785306717982780e-02  -2.9679521586269981e-02  -3.0273111345027592e-02  -2.9808655302096525e-02  -2.8483118348286464e-02  -2.6457590958295307e-02  -2.3864685424976259e-02  -2.0814984978224784e-02  -1.7401892872463538e-02  -1.3706043257277858e-02  -9.7986011340852226e-03  -5.7444789255082411e-03  -1.6047960913383023e-03  2.5605801251214655e-03  6.6908918715622738e-03  1.0722133223747498e-02  1.4584855413919537e-02  1.8201603289051797e-02  2.1484248177168416e-02  2.4330714930318950e-02  2.6621354153248730e-02  2.8214309559651297e-02  2.8940090877588899e-02  2.8594655683799142e-02  2.6931059299408970e-02  2.3648990168394435e-02  1.8382076154564421e-02  1.0682159131127618e-02  0.0000000000000000e+00  -1.2507102632002134e-02  0.0000000000000000e+00  -2.1572561033540733e-02  -2.7862804246899547e-02  -3.1905772430676216e-02  -3.4121982976890064e-02  -3.4848638738549854e-02  -3.4357650784811206e-02  -3.2870198851847984e-02  -3.0567434429348925e-02  -2.7599663713248016e-02  -2.4092829375642628e-02  -2.0154639307429553e-02  -1.5878651924221537e-02  -1.1348599544440598e-02  -6.6412253132621486e-03  -1.8295942345341308e-03  3.0146714915025748e-03  7.8185352079040010e-03  1.2505389982784460e-02  1.6992259880013582e-02  2.1187358702285525e-02  2.4986857397400961e-02  2.8271674475296597e-02  3.0903207576733625e-02  3.2718599940994395e-02  3.3524386488593169e-02  3.3088976693126236e-02  3.1132592268550367e-02  2.7314878809487263e-02  2.1218440341577119e-02  1.2327622525493975e-02  0.0000000000000000e+00  -1.4624880566942318e-02  0.0000000000000000e+00  -2.5215714236132260e-02  -3.2565352026734787e-02  -3.7295687798780008e-02  -3.9898331586487555e-02  -4.0764730854079174e-02  -4.0209620219583873e-02  -3.8488037217818100e-02  -3.5809381919434745e-02  -3.2347131027067579e-02  -2.8247718909016631e-02  -2.3636247565164869e-02  -1.8622559970341464e-02  -1.3304744784090978e-02  -7.7737622673640476e-03  -2.1158742122805280e-03  3.5835204041849214e-03  9.2377856536040547e-03  1.4755492231626954e-02  2.0038186986219210e-02  2.4976728330449220e-02  2.9448399145711530e-02  3.3312512444325426e-02  3.6406213941247739e-02  3.8538341646851618e-02  3.9482565187773225e-02  3.8967791427267633e-02  3.6666325050389734e-02  3.2177750160510936e-02  2.5008010113206754e-02  1.4540905667462444e-02  0.0000000000000000e+00  -1.7295270791232234e-02  0.0000000000000000e+00  -2.9784592878751671e-02  -3.8429570110480489e-02  -4.3979140681261519e-02  -4.7021099663391033e-02  -4.8021028479230919e-02  -4.7351046654392152e-02  -4.5312049090117247e-02  -4.2149822981973048e-02  -3.8068267753274647e-02  -3.3238463876391851e-02  -2.7807273380274816e-02  -2.1902521279336753e-02  -1.5639292910917778e-02  -9.1230961813479981e-03  -2.4551241537423673e-03  4.2655706611200387e-03  1.0937211174466471e-02  1.7453259920870295e-02  2.3697679122310366e-02  2.9542410195879863e-02  3.4842287862608408e-02  3.9431219356926075e-02  4.3115903489537186e-02  4.5669494937437251e-02  4.6822287045198890e-02  4.6250648803925772e-02  4.3561518387813004e-02  3.8272496350957148e-02  2.9784526215948140e-02  1.7345375235925907e-02  0.0000000000000000e+00  -2.0566400673575118e-02  0.0000000000000000e+00  -3.5355831955898726e-02  -4.5545920097492289e-02  -5.2049227574454481e-02  -5.5578487936364468e-02  -5.6695412316826906e-02  -5.5847070369914618e-02  -5.3393112538994064e-02  -4.9626335586432341e-02  -4.4788019472293612e-02  -3.9080131938761864e-02  -3.2674255465011556e-02  -2.5719734325424536e-02  -1.8348989720454220e-02  -1.0684097397071803e-02  -2.8400736812882158e-03  5.0689773836932045e-03  1.2927505203741420e-02  2.0612260350012995e-02  2.7989955193700615e-02  3.4910840787576169e-02  4.1205255594269935e-02  4.6676520533177709e-02  5.1095068502886747e-02  5.4189124556366000e-02  5.5634237548328330e-02  5.5038652615502330e-02  5.1924425672422385e-02  4.5701890522196267e-02  3.5635279274936364e-02  2.0796088587256668e-02  0.0000000000000000e+00  -2.4505658851840945e-02  0.0000000000000000e+00  -4.2037635425645627e-02  -5.4043452076685705e-02  -6.1641150213219351e-02  -6.5701168172791577e-02  -6.6907049104766844e-02  -6.5800897544138273e-02  -6.2816788701821114e-02  -5.8306288685541302e-02  -5.2557136297337992e-02  -4.5808108019730016e-02  -3.8260283336417386e-02  -3.0086282345054404e-02  -2.1438111508851120e-02  -1.2453373511373610e-02  -3.2620538984528985e-03  6.0091484125995819e-03  1.5229797482897331e-02  2.4262220797962447e-02  3.2953864482062473e-02  4.1133532104843371e-02  4.8602963040537718e-02  5.5131131762592996e-02  6.0444337498844661e-02  6.4216279812045959e-02  6.6053852639866656e-02  6.5479525538208780e-02  6.1907453649938146e-02  5.4611628691804963e-02  4.2682783943007944e-02  2.4969719804079516e-02  0.0000000000000000e+00  -2.9196068204779897e-02  0.0000000000000000e+00  -4.9962122447618301e-02  -6.4077909747291370e-02  -7.2915590272372724e-02  -7.7541603816083673e-02  -7.8791663644693866e-02  -7.7326758578561916e-02  -7.3674043669479161e-02  -6.8257968038650474e-02  -6.1423169032391513e-02  -5.3452486758669836e-02  -4.4580975791742937e-02  -3.5007232537169593e-02  -2.4903128253458643e-02  -1.4422023390984235e-02  -3.7065273902506710e-03  7.1044432585560596e-03  1.7868880786490991e-02  2.8434207300729462e-02  3.8630986298875930e-02  4.8264024486534184e-02  5.7105488892521136e-02  6.4883846637426204e-02  7.1274266827792060e-02  7.5883830669043847e-02  7.8235282479042365e-02  7.7744172657609689e-02  7.3689772525036876e-02  6.5175331814517845e-02  5.1074750165475323e-02  2.9959533746347248e-02  0.0000000000000000e+00  -3.4734935832798693e-02  0.0000000000000000e+00  -5.9281441620958976e-02  -7.5824221822442139e-02  -8.6047226266629251e-02  -9.1258309083361813e-02  -9.2482270593422317e-02  -9.0527517874054803e-02  -8.6037318085443126e-02  -7.9525571659806907e-02  -7.1406558956236946e-02  -6.2014991611837149e-02  -5.1625075986568035e-02  -4.0463209765349964e-02  -2.8721239447110677e-02  -1.6566560737794181e-02  -4.1518343738361062e-03  8.3751605084446644e-03  2.0863658004902894e-02  3.3149475567801359e-02  4.5046981608739212e-02  5.6338480523279492e-02  6.6763128653724996e-02  7.6005614972080041e-02  8.3680173704192770e-02  8.9315309461942022e-02  9.2330288531384447e-02  9.2009360441278457e-02  8.7463985654848364e-02  7.7585601306655816e-02  6.0979057371348962e-02  3.5873545809489898e-02  0.0000000000000000e+00  -4.1233438727774741e-02  0.0000000000000000e+00  -7.0164522763845411e-02  -8.9469357782075695e-02  -1.0121218772158472e-01  -1.0699872193238802e-01  -1.0808704608259995e-01  -1.0546990334190577e-01  -9.9933212299604349e-02  -9.2102384285343855e-02  -8.2474173659828856e-02  -7.1445811899579603e-02  -5.9333822849753942e-02  -4.6394874267901003e-02  -3.2838475686509827e-02  -1.8843127676491767e-02  -4.5672629351830160e-03  9.8383302037492407e-03  2.4218412671977427e-02  3.8402929314795380e-02  5.2193103675353340e-02  6.5350417861608778e-02  7.7581310001424819e-02  8.8520825477179682e-02  9.7715483026880628e-02  1.0459854149052299e-01  1.0846576841217280e-01  1.0843859758690233e-01  1.0342206329948953e-01  9.2044401143208582e-02  7.2578605491392154e-02  4.2832530812506743e-02  0.0000000000000000e+00  -4.8815915985390930e-02  0.0000000000000000e+00  -8.2792917845039046e-02  -1.0520137595494210e-01  -1.1857067096771866e-01  -1.2487365773857052e-01  -1.2565932757989237e-01  -1.2214908993787608e-01  -1.1530733352041198e-01  -1.0589424987198509e-01  -9.4507450510402283e-02  -8.1613835535288115e-02  -6.7578289692623014e-02  -5.2684885685442800e-02  -3.7159050524637895e-02  -2.1183151356160050e-02  -4.9150174864734594e-03  1.1499190201600628e-02  2.7908409101909372e-02  4.4143172404363974e-02  5.9999338176692701e-02  7.5221343842741706e-02  8.9484191956415271e-02  1.0237177693484872e-01  1.1335213164752940e-01  1.2174970082010304e-01  1.2670890512069499e-01  1.2715395072657446e-01  1.2173292993863020e-01  1.0874889745491331e-01  8.6063744836855027e-02  5.0967963031345889e-02  0.0000000000000000e+00  -5.7618767252262962e-02  0.0000000000000000e+00  -9.7352585283106169e-02  -1.2319148569259283e-01  -1.3823658390228624e-01  -1.4491781175917615e-01  -1.4514892309097466e-01  -1.4043832315491381e-01  -1.3197136407397481e-01  -1.2067293599914426e-01  -1.0725806237718251e-01  -9.2272861261500222e-02  -7.6130299792895054e-02  -5.9139775453391774e-02  -4.1533706919825254e-02  -2.3490846721101681e-02  -5.1560991639971066e-03  1.3338513365294288e-02  3.1858619518600584e-02  5.0245366931685347e-02  6.8299708004708318e-02  8.5757744490573024e-02  1.0226765845476017e-01  1.1736231427942286e-01  1.3042532334946802e-01  1.4065427950634646e-01  1.4701544087520502e-01  1.4818993069963132e-01  1.4250893949523635e-01  1.2786902426882987e-01  1.0162161020548094e-01  6.0418835963279217e-02  0.0000000000000000e+00  -6.7786914314250726e-02  0.0000000000000000e+00  -1.1401774522245325e-01  -1.4355945974091106e-01  -1.6022445089483425e-01  -1.6702043295085681e-01  -1.6632443778212089e-01  -1.6000712581714857e-01  -1.4952704872175807e-01  -1.3600615864611501e-01  -1.2029260434095312e-01  -1.0301589333599229e-01  -8.4632711889900389e-02  -6.5468736200608613e-02  -4.5751756494648625e-02  -2.5642381765930047e-02  -5.2599979675710951e-03  1.5294921019498480e-02  3.5916409045987599e-02  5.6474067427338341e-02  7.6785622341504947e-02  9.6593161731579502e-02  1.1552937560063410e-01  1.3308082606395302e-01  1.4854598195379556e-01  1.6098145982873585e-01  1.6914395607690938e-01  1.7142039993991451e-01  1.6574625584688377e-01  1.4950805622030869e-01  1.1941482661840937e-01  7.1325110359383201e-02  0.0000000000000000e+00  -7.9466682920887030e-02  0.0000000000000000e+00  -1.3291979361445597e-01  -1.6631011175489180e-01  -1.8435483571145425e-01  -1.9080877330081225e-01  -1.8864670941690048e-01  -1.8019791540711827e-01  -1.6725397523510283e-01  -1.5116383848807585e-01  -1.3291779804490758e-01  -1.1322175900988228e-01  -9.2563373227954659e-02  -7.1265546422121753e-02  -4.9533723819671173e-02  -2.7492520355739850e-02  -5.2168062369253821e-03  1.7239624162996649e-02  3.9819774783824209e-02  6.2436398510342821e-02  8.4945680283550706e-02  1.0711303486773258e-01  1.2857501172094837e-01  1.4878928703990041e-01  1.6697557820048572e-01  1.8204563172693439e-01  1.9251882453515082e-01  1.9642950081573074e-01  1.9122192254416043e-01  1.7363178851898492e-01  1.3954664871687569e-01  8.3818899219761281e-02  0.0000000000000000e+00  -9.2788667351128826e-02  0.0000000000000000e+00  -1.5408152358033680e-01  -1.9120793306826103e-01  -2.1007944353801325e-01  -2.1544577081059452e-01  -2.1106449047889753e-01  -1.9983973455003204e-01  -1.8395433266301356e-01  -1.6499904408763730e-01  -1.4409444449751782e-01  -1.2199903041706570e-01  -9.9200971172750105e-02  -7.5992938315546613e-02  -5.2530921298137169e-02  -2.8881576872053963e-02  -5.0573798269174857e-03  1.8953515217466892e-02  4.3159110566380880e-02  6.7536205191795207e-02  9.1999818780551260e-02  1.1636662466198035e-01  1.4030529020850049e-01  1.6327534717603687e-01  1.8444664609100464e-01  2.0259990772156294e-01  2.1600818120504084e-01  2.2229968273305165e-01  2.1831141710600896e-01  1.9994090458752325e-01  1.6199324998178802e-01  9.8006565634887577e-02  0.0000000000000000e+00  -1.0782378575956419e-01  0.0000000000000000e+00  -1.7727065737792366e-01  -2.1752041896140822e-01  -2.3614857278050197e-01  -2.3927612202144621e-01  -2.3168613732964169e-01  -2.1697602395225649e-01  -1.9774733227765115e-01  -1.7580574272118993e-01  -1.5235089358169920e-01  -1.2813781569663321e-01  -1.0360572770880230e-01  -7.8977155833327026e-02  -5.4328979145321039e-02  -2.9646843961927807e-02  -4.8646530839122947e-03  2.0107582036202745e-02  4.5356198992727803e-02  7.0938060257342089e-02  9.6849765812838495e-02  1.2298790229310165e-01  1.4909512364444988e-01  1.7468298110709549e-01  1.9893013822568725e-01  2.2054318492052011e-01  2.3758070057132988e-01  2.4724425934908742e-01  2.4564979966199427e-01  2.2761022017310920e-01  1.8645943581497409e-01  1.1392679773213847e-01  0.0000000000000000e+00  -1.2447326291858386e-01  0.0000000000000000e+00  -2.0166638957046842e-01  -2.4348414732819856e-01  -2.5998709695620936e-01  -2.5922821614201630e-01  -2.4728665336264435e-01  -2.2850579072408272e-01  -2.0583611571459134e-01  -1.8118517834244208e-01  -1.5571632540541036e-01  -1.3008664525372537e-01  -1.0461804514540372e-01  -7.9416557113600683e-02  -5.4454391753226757e-02  -2.9622824458523163e-02  -4.7698577782495331e-03  2.0273709150038236e-02  4.5675319701244249e-02  7.1577460552837424e-02  9.8072290146789767e-02  1.2516429216927169e-01  1.5271450357569241e-01  1.8035877226077909e-01  2.0738095880407803e-01  2.3253259961280925e-01  2.5378183340368637e-01  2.6798390795208893e-01  2.7049090520200225e-01  2.5475796578822019e-01  2.1206146533495113e-01  1.3145907214691055e-01  0.0000000000000000e+00  -1.4216751660155300e-01  0.0000000000000000e+00  -2.2504876575055707e-01  -2.6516583212530032e-01  -2.7654020659769812e-01  -2.6987369599722116e-01  -2.5266149237736180e-01  -2.2980584381130098e-01  -2.0432911408574903e-01  -1.7798786653148008e-01  -1.5172426499946784e-01  -1.2597543442002415e-01  -1.0087699530346425e-01  -7.6387538305024871e-02  -5.2364663291150346e-02  -2.8611655313708746e-02  -4.9051053706690613e-03  1.8988768891499700e-02  4.3300944133368179e-02  6.8247757786174049e-02  9.4012042052655273e-02  1.2071588055672595e-01  1.4837482793647500e-01  1.7681806956992796e-01  2.0555995054971266e-01  2.3359215897097191e-01  2.5905861347347997e-01  2.7876826688310646e-01  2.8752130604723580e-01  2.7730071573461967e-01  2.3655624074819043e-01  1.5007599927658521e-01  0.0000000000000000e+00  -1.5892923686212418e-01  0.0000000000000000e+00  -2.4171362629357235e-01  -2.7407200736352971e-01  -2.7634124304153529e-01  -2.6222315245756955e-01  -2.4005859984445788e-01  -2.1457622942746379e-01  -1.8828979549825495e-01  -1.6243140787926191e-01  -1.3751819814125593e-01  -1.1367792378778939e-01  -9.0834610935439458e-02  -6.8809963374791464e-02  -4.7376383608255045e-02  -2.6284722080251781e-02  -5.2781792653059188e-03  1.5901290706501158e-02  3.7510876416925111e-02  5.9802332272795439e-02  8.3015985900157560e-02  1.0736680668148059e-01  1.3301581404812954e-01  1.6001515544105546e-01  1.8820619502353642e-01  2.1703427575569825e-01  2.4521111288987996e-01  2.7012289844963189e-01  2.8682761221911018e-01  2.8648402623404595e-01  2.5431045315936129e-01  1.6809029059420053e-01  0.0000000000000000e+00  -1.6791853982013236e-01  0.0000000000000000e+00  -2.3696412156115607e-01  -2.5271133473557150e-01  -2.4322055492119179e-01  -2.2313135920956612e-01  -1.9946905095248793e-01  -1.7540395446211388e-01  -1.5224738416446704e-01  -1.3043642066568356e-01  -1.1000713326018340e-01  -9.0817995409855967e-02  -7.2655585723523028e-02  -5.5283222807381363e-02  -3.8461412276041655e-02  -2.1955116120479717e-02  -5.5349682261600190e-03  1.1025150755472371e-02  2.7950827547705958e-02  4.5470457012069060e-02  6.3816648930273334e-02  8.3225325478653189e-02  1.0392733642861289e-01  1.2612714496861899e-01  1.4995660958474538e-01  1.7537134969120577e-01  2.0193241166207118e-01  2.2834202081209709e-01  2.5143812699972695e-01  2.6404162189447550e-01  2.5058127681506237e-01  1.7977377435078171e-01  0.0000000000000000e+00  -1.4306363586359322e-01  0.0000000000000000e+00  -1.7503346312902548e-01  -1.7054139269275712e-01  -1.5539705614802615e-01  -1.3803605411891168e-01  -1.2113473317050975e-01  -1.0544739611803307e-01  -9.1076799485347928e-02  -7.7908556327764514e-02  -6.5764164787343329e-02  -5.4454851105616202e-02  -4.3800469583045343e-02  -3.3634445948000129e-02  -2.3802829715232090e-02  -1.4161715376782392e-02  -4.5738532312631901e-03  5.0948046888325939e-03  1.4978831072636667e-02  2.5216586564710864e-02  3.5954022389120384e-02  4.7347577136343591e-02  5.9566341815508426e-02  7.2792782102514025e-02  8.7218506443131436e-02  1.0302804693456272e-01  1.2035441868088466e-01  1.3915775989289705e-01  1.5887307804029924e-01  1.7732168441521962e-01  1.8699797338654028e-01  1.6120687064197398e-01  0.0000000000000000e+00  0.0000000000000000e+00  0.0000000000000000e+00  0.0000000000000000e+00  0.0000000000000000e+00  0.0000000000000000e+00  0.0000000000000000e+00  0.0000000000000000e+00  0.0000000000000000e+00  0.0000000000000000e+00  0.0000000000000000e+00  0.0000000000000000e+00  0.0000000000000000e+00  0.0000000000000000e+00  0.0000000000000000e+00  0.0000000000000000e+00  0.0000000000000000e+00  0.0000000000000000e+00  0.0000000000000000e+00  0.0000000000000000e+00  0.0000000000000000e+00  0.0000000000000000e+00  0.0000000000000000e+00  0.0000000000000000e+00  0.0000000000000000e+00  0.0000000000000000e+00  0.0000000000000000e+00  0.0000000000000000e+00  0.0000000000000000e+00  0.0000000000000000e+00  0.0000000000000000e+00  0.0000000000000000e+00  0.0000000000000000e+00  0.0000000000000000e+00  </DataArray> 
</PointData> 
</Piece>
</UnstructuredGrid>
</VTKFile>