<?xml version="1.0"?>
<VTKFile type="UnstructuredGrid"  version="0.1"  >
<UnstructuredGrid>
<Piece  NumberOfPoints="759" NumberOfCells="1408">
<Points>
<DataArray  type="Float64"  NumberOfComponents="3"  format="ascii">0 0.46875 0  0.03125 0.46875 0  0.03125 0.515625 0  0 0.515625 0  0.0625 0.46875 0  0.0625 0.515625 0  0.09375 0.46875 0  0.09375 0.515625 0  0.125 0.46875 0  0.125 0.515625 0  0.15625 0.46875 0  0.15625 0.515625 0  0.1875 0.46875 0  0.1875 0.515625 0  0.21875 0.46875 0  0.21875 0.515625 0  0.25 0.46875 0  0.25 0.515625 0  0.28125 0.46875 0  0.28125 0.515625 0  0.3125 0.46875 0  0.3125 0.515625 0  0.34375 0.46875 0  0.34375 0.515625 0  0.375 0.46875 0  0.375 0.515625 0  0.40625 0.46875 0  0.40625 0.515625 0  0.4375 0.46875 0  0.4375 0.515625 0  0.46875 0.46875 0  0.46875 0.515625 0  0.5 0.46875 0  0.5 0.515625 0  0.53125 0.46875 0  0.53125 0.515625 0  0.5625 0.46875 0  0.5625 0.515625 0  0.59375 0.46875 0  0.59375 0.515625 0  0.625 0.46875 0  0.625 0.515625 0  0.65625 0.46875 0  0.65625 0.515625 0  0.6875 0.46875 0  0.6875 0.515625 0  0.71875 0.46875 0  0.71875 0.515625 0  0.75 0.46875 0  0.75 0.515625 0  0.78125 0.46875 0  0.78125 0.515625 0  0.8125 0.46875 0  0.8125 0.515625 0  0.84375 0.46875 0  0.84375 0.515625 0  0.875 0.46875 0  0.875 0.515625 0  0.90625 0.46875 0  0.90625 0.515625 0  0.9375 0.46875 0  0.9375 0.515625 0  0.96875 0.46875 0  0.96875 0.515625 0  1 0.46875 0  1 0.515625 0  0.03125 0.5625 0  0 0.5625 0  0.0625 0.5625 0  0.09375 0.5625 0  0.125 0.5625 0  0.15625 0.5625 0  0.1875 0.5625 0  0.21875 0.5625 0  0.25 0.5625 0  0.28125 0.5625 0  0.3125 0.5625 0  0.34375 0.5625 0  0.375 0.5625 0  0.40625 0.5625 0  0.4375 0.5625 0  0.46875 0.5625 0  0.5 0.5625 0  0.53125 0.5625 0  0.5625 0.5625 0  0.59375 0.5625 0  0.625 0.5625 0  0.65625 0.5625 0  0.6875 0.5625 0  0.71875 0.5625 0  0.75 0.5625 0  0.78125 0.5625 0  0.8125 0.5625 0  0.84375 0.5625 0  0.875 0.5625 0  0.90625 0.5625 0  0.9375 0.5625 0  0.96875 0.5625 0  1 0.5625 0  0.03125 0.609375 0  0 0.609375 0  0.0625 0.609375 0  0.09375 0.609375 0  0.125 0.609375 0  0.15625 0.609375 0  0.1875 0.609375 0  0.21875 0.609375 0  0.25 0.609375 0  0.28125 0.609375 0  0.3125 0.609375 0  0.34375 0.609375 0  0.375 0.609375 0  0.40625 0.609375 0  0.4375 0.609375 0  0.46875 0.609375 0  0.5 0.609375 0  0.53125 0.609375 0  0.5625 0.609375 0  0.59375 0.609375 0  0.625 0.609375 0  0.65625 0.609375 0  0.6875 0.609375 0  0.71875 0.609375 0  0.75 0.609375 0  0.78125 0.609375 0  0.8125 0.609375 0  0.84375 0.609375 0  0.875 0.609375 0  0.90625 0.609375 0  0.9375 0.609375 0  0.96875 0.609375 0  1 0.609375 0  0.03125 0.65625 0  0 0.65625 0  0.0625 0.65625 0  0.09375 0.65625 0  0.125 0.65625 0  0.15625 0.65625 0  0.1875 0.65625 0  0.21875 0.65625 0  0.25 0.65625 0  0.28125 0.65625 0  0.3125 0.65625 0  0.34375 0.65625 0  0.375 0.65625 0  0.40625 0.65625 0  0.4375 0.65625 0  0.46875 0.65625 0  0.5 0.65625 0  0.53125 0.65625 0  0.5625 0.65625 0  0.59375 0.65625 0  0.625 0.65625 0  0.65625 0.65625 0  0.6875 0.65625 0  0.71875 0.65625 0  0.75 0.65625 0  0.78125 0.65625 0  0.8125 0.65625 0  0.84375 0.65625 0  0.875 0.65625 0  0.90625 0.65625 0  0.9375 0.65625 0  0.96875 0.65625 0  1 0.65625 0  0.03125 0.703125 0  0 0.703125 0  0.0625 0.703125 0  0.09375 0.703125 0  0.125 0.703125 0  0.15625 0.703125 0  0.1875 0.703125 0  0.21875 0.703125 0  0.25 0.703125 0  0.28125 0.703125 0  0.3125 0.703125 0  0.34375 0.703125 0  0.375 0.703125 0  0.40625 0.703125 0  0.4375 0.703125 0  0.46875 0.703125 0  0.5 0.703125 0  0.53125 0.703125 0  0.5625 0.703125 0  0.59375 0.703125 0  0.625 0.703125 0  0.65625 0.703125 0  0.6875 0.703125 0  0.71875 0.703125 0  0.75 0.703125 0  0.78125 0.703125 0  0.8125 0.703125 0  0.84375 0.703125 0  0.875 0.703125 0  0.90625 0.703125 0  0.9375 0.703125 0  0.96875 0.703125 0  1 0.703125 0  0.03125 0.75 0  0 0.75 0  0.0625 0.75 0  0.09375 0.75 0  0.125 0.75 0  0.15625 0.75 0  0.1875 0.75 0  0.21875 0.75 0  0.25 0.75 0  0.28125 0.75 0  0.3125 0.75 0  0.34375 0.75 0  0.375 0.75 0  0.40625 0.75 0  0.4375 0.75 0  0.46875 0.75 0  0.5 0.75 0  0.53125 0.75 0  0.5625 0.75 0  0.59375 0.75 0  0.625 0.75 0  0.65625 0.75 0  0.6875 0.75 0  0.71875 0.75 0  0.75 0.75 0  0.78125 0.75 0  0.8125 0.75 0  0.84375 0.75 0  0.875 0.75 0  0.90625 0.75 0  0.9375 0.75 0  0.96875 0.75 0  1 0.75 0  0.03125 0.796875 0  0 0.796875 0  0.0625 0.796875 0  0.09375 0.796875 0  0.125 0.796875 0  0.15625 0.796875 0  0.1875 0.796875 0  0.21875 0.796875 0  0.25 0.796875 0  0.28125 0.796875 0  0.3125 0.796875 0  0.34375 0.796875 0  0.375 0.796875 0  0.40625 0.796875 0  0.4375 0.796875 0  0.46875 0.796875 0  0.5 0.796875 0  0.53125 0.796875 0  0.5625 0.796875 0  0.59375 0.796875 0  0.625 0.796875 0  0.65625 0.796875 0  0.6875 0.796875 0  0.71875 0.796875 0  0.75 0.796875 0  0.78125 0.796875 0  0.8125 0.796875 0  0.84375 0.796875 0  0.875 0.796875 0  0.90625 0.796875 0  0.9375 0.796875 0  0.96875 0.796875 0  1 0.796875 0  0.03125 0.84375 0  0 0.84375 0  0.0625 0.84375 0  0.09375 0.84375 0  0.125 0.84375 0  0.15625 0.84375 0  0.1875 0.84375 0  0.21875 0.84375 0  0.25 0.84375 0  0.28125 0.84375 0  0.3125 0.84375 0  0.34375 0.84375 0  0.375 0.84375 0  0.40625 0.84375 0  0.4375 0.84375 0  0.46875 0.84375 0  0.5 0.84375 0  0.53125 0.84375 0  0.5625 0.84375 0  0.59375 0.84375 0  0.625 0.84375 0  0.65625 0.84375 0  0.6875 0.84375 0  0.71875 0.84375 0  0.75 0.84375 0  0.78125 0.84375 0  0.8125 0.84375 0  0.84375 0.84375 0  0.875 0.84375 0  0.90625 0.84375 0  0.9375 0.84375 0  0.96875 0.84375 0  1 0.84375 0  0.03125 0.890625 0  0 0.890625 0  0.0625 0.890625 0  0.09375 0.890625 0  0.125 0.890625 0  0.15625 0.890625 0  0.1875 0.890625 0  0.21875 0.890625 0  0.25 0.890625 0  0.28125 0.890625 0  0.3125 0.890625 0  0.34375 0.890625 0  0.375 0.890625 0  0.40625 0.890625 0  0.4375 0.890625 0  0.46875 0.890625 0  0.5 0.890625 0  0.53125 0.890625 0  0.5625 0.890625 0  0.59375 0.890625 0  0.625 0.890625 0  0.65625 0.890625 0  0.6875 0.890625 0  0.71875 0.890625 0  0.75 0.890625 0  0.78125 0.890625 0  0.8125 0.890625 0  0.84375 0.890625 0  0.875 0.890625 0  0.90625 0.890625 0  0.9375 0.890625 0  0.96875 0.890625 0  1 0.890625 0  0.03125 0.9375 0  0 0.9375 0  0.0625 0.9375 0  0.09375 0.9375 0  0.125 0.9375 0  0.15625 0.9375 0  0.1875 0.9375 0  0.21875 0.9375 0  0.25 0.9375 0  0.28125 0.9375 0  0.3125 0.9375 0  0.34375 0.9375 0  0.375 0.9375 0  0.40625 0.9375 0  0.4375 0.9375 0  0.46875 0.9375 0  0.5 0.9375 0  0.53125 0.9375 0  0.5625 0.9375 0  0.59375 0.9375 0  0.625 0.9375 0  0.65625 0.9375 0  0.6875 0.9375 0  0.71875 0.9375 0  0.75 0.9375 0  0.78125 0.9375 0  0.8125 0.9375 0  0.84375 0.9375 0  0.875 0.9375 0  0.90625 0.9375 0  0.9375 0.9375 0  0.96875 0.9375 0  1 0.9375 0  0.03125 0.984375 0  0 0.984375 0  0.0625 0.984375 0  0.09375 0.984375 0  0.125 0.984375 0  0.15625 0.984375 0  0.1875 0.984375 0  0.21875 0.984375 0  0.25 0.984375 0  0.28125 0.984375 0  0.3125 0.984375 0  0.34375 0.984375 0  0.375 0.984375 0  0.40625 0.984375 0  0.4375 0.984375 0  0.46875 0.984375 0  0.5 0.984375 0  0.53125 0.984375 0  0.5625 0.984375 0  0.59375 0.984375 0  0.625 0.984375 0  0.65625 0.984375 0  0.6875 0.984375 0  0.71875 0.984375 0  0.75 0.984375 0  0.78125 0.984375 0  0.8125 0.984375 0  0.84375 0.984375 0  0.875 0.984375 0  0.90625 0.984375 0  0.9375 0.984375 0  0.96875 0.984375 0  1 0.984375 0  0.03125 1.03125 0  0 1.03125 0  0.0625 1.03125 0  0.09375 1.03125 0  0.125 1.03125 0  0.15625 1.03125 0  0.1875 1.03125 0  0.21875 1.03125 0  0.25 1.03125 0  0.28125 1.03125 0  0.3125 1.03125 0  0.34375 1.03125 0  0.375 1.03125 0  0.40625 1.03125 0  0.4375 1.03125 0  0.46875 1.03125 0  0.5 1.03125 0  0.53125 1.03125 0  0.5625 1.03125 0  0.59375 1.03125 0  0.625 1.03125 0  0.65625 1.03125 0  0.6875 1.03125 0  0.71875 1.03125 0  0.75 1.03125 0  0.78125 1.03125 0  0.8125 1.03125 0  0.84375 1.03125 0  0.875 1.03125 0  0.90625 1.03125 0  0.9375 1.03125 0  0.96875 1.03125 0  1 1.03125 0  0.03125 1.078125 0  0 1.078125 0  0.0625 1.078125 0  0.09375 1.078125 0  0.125 1.078125 0  0.15625 1.078125 0  0.1875 1.078125 0  0.21875 1.078125 0  0.25 1.078125 0  0.28125 1.078125 0  0.3125 1.078125 0  0.34375 1.078125 0  0.375 1.078125 0  0.40625 1.078125 0  0.4375 1.078125 0  0.46875 1.078125 0  0.5 1.078125 0  0.53125 1.078125 0  0.5625 1.078125 0  0.59375 1.078125 0  0.625 1.078125 0  0.65625 1.078125 0  0.6875 1.078125 0  0.71875 1.078125 0  0.75 1.078125 0  0.78125 1.078125 0  0.8125 1.078125 0  0.84375 1.078125 0  0.875 1.078125 0  0.90625 1.078125 0  0.9375 1.078125 0  0.96875 1.078125 0  1 1.078125 0  0.03125 1.125 0  0 1.125 0  0.0625 1.125 0  0.09375 1.125 0  0.125 1.125 0  0.15625 1.125 0  0.1875 1.125 0  0.21875 1.125 0  0.25 1.125 0  0.28125 1.125 0  0.3125 1.125 0  0.34375 1.125 0  0.375 1.125 0  0.40625 1.125 0  0.4375 1.125 0  0.46875 1.125 0  0.5 1.125 0  0.53125 1.125 0  0.5625 1.125 0  0.59375 1.125 0  0.625 1.125 0  0.65625 1.125 0  0.6875 1.125 0  0.71875 1.125 0  0.75 1.125 0  0.78125 1.125 0  0.8125 1.125 0  0.84375 1.125 0  0.875 1.125 0  0.90625 1.125 0  0.9375 1.125 0  0.96875 1.125 0  1 1.125 0  0.03125 1.171875 0  0 1.171875 0  0.0625 1.171875 0  0.09375 1.171875 0  0.125 1.171875 0  0.15625 1.171875 0  0.1875 1.171875 0  0.21875 1.171875 0  0.25 1.171875 0  0.28125 1.171875 0  0.3125 1.171875 0  0.34375 1.171875 0  0.375 1.171875 0  0.40625 1.171875 0  0.4375 1.171875 0  0.46875 1.171875 0  0.5 1.171875 0  0.53125 1.171875 0  0.5625 1.171875 0  0.59375 1.171875 0  0.625 1.171875 0  0.65625 1.171875 0  0.6875 1.171875 0  0.71875 1.171875 0  0.75 1.171875 0  0.78125 1.171875 0  0.8125 1.171875 0  0.84375 1.171875 0  0.875 1.171875 0  0.90625 1.171875 0  0.9375 1.171875 0  0.96875 1.171875 0  1 1.171875 0  0.03125 1.21875 0  0 1.21875 0  0.0625 1.21875 0  0.09375 1.21875 0  0.125 1.21875 0  0.15625 1.21875 0  0.1875 1.21875 0  0.21875 1.21875 0  0.25 1.21875 0  0.28125 1.21875 0  0.3125 1.21875 0  0.34375 1.21875 0  0.375 1.21875 0  0.40625 1.21875 0  0.4375 1.21875 0  0.46875 1.21875 0  0.5 1.21875 0  0.53125 1.21875 0  0.5
[...]
<PointData  Scalars="p"> 
<DataArray  type="Float64"  Name="p"  format="ascii">0.0000000000000000e+00  -9.4163810099796019e-03  -9.8646307311101855e-03  0.0000000000000000e+00  -1.6238005132783159e-02  -1.6986794909374721e-02  -2.0936267989208765e-02  -2.1892666483471591e-02  -2.3910603642063540e-02  -2.5005904152797759e-02  -2.5490671636967013e-02  -2.6669069250292995e-02  -2.5945338495516154e-02  -2.7159406369832398e-02  -2.5492770293986031e-02  -2.6701336488526364e-02  -2.4309691021848105e-02  -2.5476849925853858e-02  -2.2539489101913134e-02  -2.3633936449550492e-02  -2.0298964066822554e-02  -2.1293687337458862e-02  -1.7684035255738698e-02  -1.8555992173097148e-02  -1.4774434926277833e-02  -1.5504434090642602e-02  -1.1637664141309274e-02  -1.2210181363779181e-02  -8.3322615648264726e-03  -8.7354074932569047e-03  -4.9106520523449597e-03  -5.1360943228543196e-03  -1.4215785571878019e-03  -1.4645884058480060e-03  2.0876746753765454e-03  2.2281940408841799e-03  5.5692063937766200e-03  5.8905864455329393e-03  8.9724165474106971e-03  9.4680928670201440e-03  1.2241885762615074e-02  1.2901179900320891e-02  1.5315053245716153e-02  1.6122962187306418e-02  1.8119608434900455e-02  1.9056522238168633e-02  2.0570451050043671e-02  2.1611887800198855e-02  2.2566114580333720e-02  2.3682392913118952e-02  2.3984401474442404e-02  2.5140348280595956e-02  2.4677115047089190e-02  2.5831707787167296e-02  2.4463543532677778e-02  2.5569639304048476e-02  2.3122499642335738e-02  2.4126597507752142e-02  2.0382457177732037e-02  2.1224917451080183e-02  1.5909051999125096e-02  1.6525648470107467e-02  9.2881854211800032e-03  9.6163218176319610e-03  0.0000000000000000e+00  0.0000000000000000e+00  -1.0909897872904079e-02  0.0000000000000000e+00  -1.8807567637193597e-02  -2.4271586805771461e-02  -2.7764782444966850e-02  -2.9658876044485537e-02  -3.0253334142879271e-02  -2.9790466415635698e-02  -2.8467044303202751e-02  -2.6444019149512277e-02  -2.3853902757418124e-02  -2.0807205207319740e-02  -1.7397275764995928e-02  -1.3704707819518347e-02  -9.8006344547859406e-03  -5.7499416631235766e-03  -1.6137253011459004e-03  2.5481704839227948e-03  6.6750126773459841e-03  1.0702824364119378e-02  1.4562192826466062e-02  1.8175709635153029e-02  2.1455308330519104e-02  2.4298997970865099e-02  2.6587244179441596e-02  2.8178348672847089e-02  2.8903038811084976e-02  2.8557572268876841e-02  2.6895418269287791e-02  2.3616835696423141e-02  1.8356237697169177e-02  1.0666545360150935e-02  0.0000000000000000e+00  -1.2497842053625918e-02  0.0000000000000000e+00  -2.1557585884085184e-02  -2.7844664621351576e-02  -3.1886303364390710e-02  -3.4102506591949945e-02  -3.4830109431035206e-02  -3.4340759313466626e-02  -3.2855446853086022e-02  -3.0555187623345102e-02  -2.7590189782238584e-02  -2.4086324819813848e-02  -2.0151248294006996e-02  -1.5878479360169302e-02  -1.1351719848558850e-02  -6.6476879255582978e-03  -1.8394265034717718e-03  3.0014636900787821e-03  7.8019690964177312e-03  1.2485509906808976e-02  1.6969144200259807e-02  2.1161130313323992e-02  2.4957699049244803e-02  2.8239850564254581e-02  3.0869094718633482e-02  3.2682729606610263e-02  3.3487504133591299e-02  3.3052123460487984e-02  3.1097217687568377e-02  2.7282995758777077e-02  2.1192837936496435e-02  1.2312158175723387e-02  0.0000000000000000e+00  -1.4616118763165443e-02  0.0000000000000000e+00  -2.5201592491588504e-02  -3.2548317951055013e-02  -3.7277501971090747e-02  -3.9880260553134449e-02  -4.0747686224131358e-02  -4.0194258684416402e-02  -3.8474832373764409e-02  -3.5798675652845578e-02  -3.2339170221987470e-02  -2.8242681523716853e-02  -2.3634261032128304e-02  -1.8623714004190852e-02  -1.3309100070515261e-02  -7.7813559667822404e-03  -2.1267229476129514e-03  3.5694198074024161e-03  9.2204576046523243e-03  1.4734986221768118e-02  2.0014584249118634e-02  2.4950152133594489e-02  2.9419029843796993e-02  3.3280608965683488e-02  3.6372143960305886e-02  3.8502623723248926e-02  3.9445927208686331e-02  3.8931251364582427e-02  3.6631302375111294e-02  3.2146219127019350e-02  2.4982710498609235e-02  1.4525632244834023e-02  0.0000000000000000e+00  -1.7287088956006915e-02  0.0000000000000000e+00  -2.9771455480286185e-02  -3.8413799943872687e-02  -4.3962408635739740e-02  -4.7004606736334976e-02  -4.8005637225157882e-02  -4.7337375954454836e-02  -4.5300542361234368e-02  -4.2140797143325442e-02  -3.8061948296871602e-02  -3.3235009910007461e-02  -2.7806795364042541e-02  -2.1905093498792834e-02  -1.5644961987127132e-02  -9.1318865946683186e-03  -2.4670412937471235e-03  4.2505395638803359e-03  1.0919098300901837e-02  1.7432120436147901e-02  2.3673597584950346e-02  2.9515510512629520e-02  3.4812747997583993e-02  3.9399292378850044e-02  4.3081947229734845e-02  4.5634013421248891e-02  4.6785988042692454e-02  4.6214523361866440e-02  4.3526950608556603e-02  3.8241414485949900e-02  2.9759610504524941e-02  1.7330343522961551e-02  0.0000000000000000e+00  -2.0558864055598779e-02  0.0000000000000000e+00  -3.5343783031143002e-02  -4.5531538229725166e-02  -5.2034081249302915e-02  -5.5563704264807640e-02  -5.6681799618317680e-02  -5.5835206709035003e-02  -5.3383409603013930e-02  -4.9619084664825799e-02  -4.4783424527741450e-02  -3.9078333314205065e-02  -3.2675346813834973e-02  -2.5723774594989153e-02  -1.8356011471534057e-02  -1.0694112259719106e-02  -2.8530755387983758e-03  5.0530113228171303e-03  1.2908615365245721e-02  2.0590508112373753e-02  2.7965428912111845e-02  3.4883665397592765e-02  4.1175606834843864e-02  4.6644645463472391e-02  5.1061314460449876e-02  5.4153979717599707e-02  5.5598387292191902e-02  5.5003057499833585e-02  5.1890429093938609e-02  4.5671366965983763e-02  3.5610838302910397e-02  2.0781355251411272e-02  0.0000000000000000e+00  -2.4498819843114070e-02  0.0000000000000000e+00  -4.2026757698402077e-02  -5.4030556160151948e-02  -6.1627691741845091e-02  -6.5688193559542571e-02  -6.6895308240592255e-02  -6.5790925308047712e-02  -6.2808963900809103e-02  -5.8300876600116229e-02  -5.2554319406792664e-02  -4.5808008154238661e-02  -3.8262977616236177e-02  -3.0091814594513839e-02  -2.1446500286497507e-02  -1.2464617525956364e-02  -3.2761352499703919e-03  5.9922629147807493e-03  1.5210157044287015e-02  2.4239893559032357e-02  3.2928943188922866e-02  4.1106143188824343e-02  4.8573280334403113e-02  5.5099396304531305e-02  6.0410885660730988e-02  6.4181582742481952e-02  6.6018571173524415e-02  6.5444586206564598e-02  6.1874153693674966e-02  5.4581780725650071e-02  4.2658915079715823e-02  2.4955345456672173e-02  0.0000000000000000e+00  -2.9189967362200663e-02  0.0000000000000000e+00  -4.9952479058067677e-02  -6.4066573164652640e-02  -7.2903895027723709e-02  -7.7530510329439667e-02  -7.8781860182695451e-02  -7.7318735100663935e-02  -7.3668145337154073e-02  -6.8254433962675165e-02  -6.1422160381062692e-02  -5.3454107154626472e-02  -4.4585286127069329e-02  -3.5014261721001624e-02  -2.4912880910044524e-02  -1.4434485187139422e-02  -3.7216683723491264e-03  7.0866671455368097e-03  1.7848528082259351e-02  2.8411353586585766e-02  3.8605729360316129e-02  4.8236492884964045e-02  5.7075854974142075e-02  6.4852345571990017e-02  7.1241223676940024e-02  7.5849698517814285e-02  7.8200695558612143e-02  7.7710019985265777e-02  7.3657299693734690e-02  6.5146281296236980e-02  5.1051554506164103e-02  2.9945581298583050e-02  0.0000000000000000e+00  -3.4729601666292152e-02  0.0000000000000000e+00  -5.9273075821624513e-02  -7.5814493346560707e-02  -8.6037342533720390e-02  -9.1249140796382619e-02  -9.2474442258757505e-02  -9.0521473493517968e-02  -8.6033368836972768e-02  -7.9523930584431426e-02  -7.1407366213173284e-02  -6.2018332994277725e-02  -5.1630996479503484e-02  -4.0471723572150071e-02  -2.8732337304216041e-02  -1.6580215127831505e-02  -4.1680029634041859e-03  8.3565331374646310e-03  2.0842640377955930e-02  3.3126151446177261e-02  4.5021454619442333e-02  5.6310882082718061e-02  6.6733630236602129e-02  7.5974446162477088e-02  8.3647648103560457e-02  8.9281861208043448e-02  9.2296523366954153e-02  9.1976126515447149e-02  8.7432471529879277e-02  7.7557471081737467e-02  6.0956636871614539e-02  3.5860078752180474e-02  0.0000000000000000e+00  -4.1228886746664063e-02  0.0000000000000000e+00  -7.0157456361974069e-02  -8.9461259599065354e-02  -1.0120413443547131e-01  -1.0699149245561485e-01  -1.0808120018337490e-01  -1.0546583877376571e-01  -9.9931206442167700e-02  -9.2102624505042155e-02  -8.2476779639678074e-02  -7.1450852082349997e-02  -5.9341326742051594e-02  -4.6404841617389149e-02  -3.2850883427640760e-02  -1.8857934986805346e-02  -4.5844147565863216e-03  9.8189011729438967e-03  2.4196785664384299e-02  3.8379197096910858e-02  5.2167376627031720e-02  6.5322831155441088e-02  7.7552034995241992e-02  8.8490086703170115e-02  9.7683582661352894e-02  1.0456589412504790e-01  1.0843294965103746e-01  1.0840641165786372e-01  1.0339163662000432e-01  9.2017311506756835e-02  7.2557060120714875e-02  4.2819611498770914e-02  0.0000000000000000e+00  -4.8812147357718404e-02  0.0000000000000000e+00  -8.2787148975016489e-02  -1.0519490082590667e-01  -1.1856443439775959e-01  -1.2486834655929870e-01  -1.2565543704305990e-01  -1.2214697212543126e-01  -1.1530723274086171e-01  -1.0589632865747550e-01  -9.4511808845623269e-02  -8.1620525267267457e-02  -6.7587325410833191e-02  -5.2696253126273906e-02  -3.7172713007659786e-02  -2.1199054743957127e-02  -4.9330937296912045e-03  1.1479020806088073e-02  2.7886237209779088e-02  4.4119100715937165e-02  5.9973484837088691e-02  7.5193848852145237e-02  8.9455227557936612e-02  1.0234156336452220e-01  1.1332096006441998e-01  1.2171796596686152e-01  1.2667715125446885e-01  1.2712293548970011e-01  1.2170371298874354e-01  1.0872296284827677e-01  8.6043169915201528e-02  5.0955651054516084e-02  0.0000000000000000e+00  -5.7615767326259865e-02  0.0000000000000000e+00  -9.7348085945521245e-02  -1.2318659377014934e-01  -1.3823211391339582e-01  -1.4491436000810273e-01  -1.4514692183177047e-01  -1.4043808025261098e-01  -1.3197309216439568e-01  -1.2067677407250416e-01  -1.0726409193251014e-01  -9.2281118592396863e-02  -7.6140785490368901e-02  -5.9152461912781715e-02  -4.1548544331265223e-02  -2.3507767805637500e-02  -5.1750228156743046e-03  1.3317679650497089e-02  3.1835978483729613e-02  5.0221032156676379e-02  6.8273806548081323e-02  8.5730422436369164e-02  1.0223909021100129e-01  1.1733271692313489e-01  1.3039497779726891e-01  1.4062356087444242e-01  1.4698486132452210e-01  1.4816019924182938e-01  1.4248104502846695e-01  1.2784435045119094e-01  1.0160209408664696e-01  6.0407186746258723e-02  0.0000000000000000e+00  -6.7784651200251470e-02  0.0000000000000000e+00  -1.1401445888419412e-01  -1.4355607541776219e-01  -1.6022165714911465e-01  -1.6701873901565478e-01  -1.6632421574544015e-01  -1.6000864171782575e-01  -1.4953048560478083e-01  -1.3601163381369802e-01  -1.2030018248253320e-01  -1.0302559670182819e-01  -8.4644528406062763e-02  -6.5482626053775889e-02  -4.5767657608356098e-02  -2.5660214317113222e-02  -5.2796680051937052e-03  1.5273518884676695e-02  3.5893390188268356e-02  5.6449557152792047e-02  7.6759757869402756e-02  9.6566096705883134e-02  1.1550128818502033e-01  1.3305193175815569e-01  1.4851655272955933e-01  1.6095185195373998e-01  1.6911464955943675e-01  1.7139205380395503e-01  1.6571978508528887e-01  1.4948473835196549e-01  1.1939644911013499e-01  7.1314174175168055e-02  0.0000000000000000e+00  -7.9465106276227798e-02  0.0000000000000000e+00  -1.3291763308062163e-01  -1.6630812074805476e-01  -1.8435358399110988e-01  -1.9080868837440840e-01  -1.8864810733579859e-01  -1.8020102370056473e-01  -1.6725895014852246e-01  -1.5117077809144641e-01  -1.3292675242914476e-01  -1.1323273845003821e-01  -9.2576354866975852e-02  -7.1280479970322400e-02  -4.9550536418194589e-02  -2.7511120792118239e-02  -5.2370885242314759e-03  1.7217778004331989e-02  3.9796492879724421e-02  6.2411818618088782e-02  8.4919950939378666e-02  1.0708631891884483e-01  1.2854749302029575e-01  1.4876118152462842e-01  1.6694715083750100e-01  1.8201722142232124e-01  1.9249087987275573e-01  1.9640263036793543e-01  1.9119696516516030e-01  1.7360991094145345e-01  1.3952948075923743e-01  8.3808720939305539e-02  0.0000000000000000e+00  -9.2787707555383375e-02  0.0000000000000000e+00  -1.5408036939777692e-01  -1.9120717998526177e-01  -2.1007955234701586e-01  -2.1544709441573479e-01  -2.1106729420969350e-01  -1.9984421159703433e-01  -1.8396061592471785e-01  -1.6500721544580305e-01  -1.4410454227513364e-01  -1.2201105558700044e-01  -9.9214892699208371e-02  -7.6008697876828471e-02  -5.2548437547552611e-02  -2.8900749223895583e-02  -5.0780918306054567e-03  1.8931393033847818e-02  4.3135718646328682e-02  6.7511693935081246e-02  9.1974348975864414e-02  1.1634036989997094e-01  1.4027844214775048e-01  1.6324812466633565e-01  1.8441930961625780e-01  2.0257278112119587e-01  2.1598168322923245e-01  2.2227437196906527e-01  2.1828805510339325e-01  1.9992054375199722e-01  1.6197735571359670e-01  9.7997185845204393e-02  0.0000000000000000e+00  -1.0782335364761496e-01  0.0000000000000000e+00  -1.7727035696729865e-01  -2.1752070548059221e-01  -2.3614981026457665e-01  -2.3927859735649615e-01  -2.3169007138514255e-01  -2.1698158038961068e-01  -1.9775462461237250e-01  -1.7581484018138296e-01  -1.5236182609926724e-01  -1.2815057831363391e-01  -1.0362028459654617e-01  -7.8993444018583034e-02  -5.4346912062481781e-02  -2.9666314743289686e-02  -4.8855375590890482e-03  2.0085422635479657e-02  4.5332915884769502e-02  7.0913815747950304e-02  9.6824733051001630e-02  1.2296226665796012e-01  1.4906908645459235e-01  1.7465676667182906e-01  1.9890400547931628e-01  2.2051744553841168e-01  2.3755574593321779e-01  2.4722059950096670e-01  2.4562811865487383e-01  2.2759145360354055e-01  1.8644487896428374e-01  1.1391825626814563e-01  0.0000000000000000e+00  -1.2447325018749908e-01  0.0000000000000000e+00  -2.0166675717320603e-01  -2.4348523095380370e-01  -2.5998917782315017e-01  -2.5923152462835691e-01  -2.4729137257134920e-01  -2.2851205980874770e-01  -2.0584403297187187e-01  -1.8119480412781883e-01  -1.5572768503599022e-01  -1.3009973178874584e-01  -1.0463282213235962e-01  -7.9432961325896612e-02  -5.4472335880114131e-02  -2.9642199770943786e-02  -4.7905366482336028e-03  2.0251870919929627e-02  4.5652480809991569e-02  7.1553792686993106e-02  9.8047977239369075e-02  1.2513953085661494e-01  1.5268950545584187e-01  1.8033376873577830e-01  2.0735620977768243e-01  2.3250840762522607e-01  2.5375856537305314e-01  2.6796202747801245e-01  2.7047101937137957e-01  2.5474089163441971e-01  2.1204832307298166e-01  1.3145141561142221e-01  0.0000000000000000e+00  -1.4216779720218373e-01  0.0000000000000000e+00  -2.2504958360740718e-01  -2.6516742577599645e-01  -2.7654278894358397e-01  -2.6987745030632465e-01  -2.5266657025107003e-01  -2.2981236439046512e-01  -2.0433716416167436e-01  -1.7799750118588550e-01  -1.5173550871621233e-01  -1.2598828251471672e-01  -1.0089141546920198e-01  -7.6403472312146878e-02  -5.2382028813821487e-02  -2.8630347797062743e-02  -4.9249999075244126e-03  1.8967815706094588e-02  4.3279092492185270e-02  6.8225183207232448e-02  9.3988934413139269e-02  1.2069244388267712e-01  1.4835128138958073e-01  1.7679465036310341e-01  2.0553691966952201e-01  2.3356981109276026e-01  2.5903729299056322e-01  2.7874839274010149e-01  2.8750340898259846e-01  2.7728549250154622e-01  2.3654463141208248e-01  1.5006929581904707e-01  0.0000000000000000e+00  -1.5892966973325412e-01  0.0000000000000000e+00  -2.4171464746353041e-01  -2.7407378006275707e-01  -2.7634392496051613e-01  -2.6222688733080296e-01  -2.4006351212986499e-01  -2.1458242099566363e-01  -1.8829734381981195e-01  -1.6244036513544438e-01  -1.3752859096062692e-01  -1.1368975349766594e-01  -9.0847854085617144e-02  -6.8824572460249228e-02  -4.7392287990037425e-02  -2.6301829056588510e-02  -5.2963752319305397e-03  1.5882139038672416e-02  3.7490920775901285e-02  5.9781741697007805e-02  8.2994945807925380e-02  1.0734551835034110e-01  1.3299449483179748e-01  1.5999404015271013e-01  1.8818553912574831e-01  2.1701436135032939e-01  2.4519225905117659e-01  2.7010547796885093e-01  2.8681207789049812e-01  2.8647095109026149e-01  2.5430059015439066e-01  1.6808465784253798e-01  0.0000000000000000e+00  -1.6791897379249573e-01  0.0000000000000000e+00  -2.3696507569646347e-01  -2.5271291473293356e-01  -2.4322287193523198e-01  -2.2313452058396444e-01  -1.9947315409087221e-01  -1.7540908276463543e-01  -1.5225360437702645e-01  -1.3044378118016961e-01  -1.1001566303326633e-01  -9.0827703360827738e-02  -7.2666460458933851e-02  -5.5295232582696370e-02  -3.8474505174753634e-02  -2.1969220410579547e-02  -5.5499928554853259e-03  1.1009315543681652e-02  2.7934309542324003e-02  4.5453401336240810e-02  6.3799217407380787e-02  8.3207696176493137e-02  1.0390970358034453e-01  1.2610971950767116e-01  1.4993962062301830e-01  1.7535504761159917e-01  2.0191707364019762e-01  2.2832796002552866e-01  2.5142570776452472e-01  2.6403128396499043e-01  2.5057357380304168e-01  1.7976943281179847e-01  0.0000000000000000e+00  -1.4306391897154244e-01  0.0000000000000000e+00  -1.7503406927251314e-01  -1.7054237869784308e-01  -1.5539848630918260e-01  -1.3803799376238157e-01  -1.2113724418644496e-01  -1.0545053384586826e-01  -9.1080610515994781e-02  -7.7913076904759210e-02  -6.5769419641630716e-02  -5.4460852642243159e-02  -4.3807217311239537e-02  -3.3641926101730293e-02  -2.3811015047311659e-02  -1.4170565096022826e-02  -4.5833130578022867e-03  5.0848023750653141e-03  1.4968367010083476e-02  2.5205754353734535e-02  3.5942928225214443e-02  4.7336339615059467e-02  5.9555091893312213e-02  7.2781663302848382e-02  8.7207675493565326e-02  1.0301767511151314e-01  1.2034469418292713e-01  1.3914889177262771e-01  1.5886530261376167e-01  1.7731527531149668e-01  1.8699325726803265e-01  1.6120425203698580e-01  0.0000000000000000e+00  0.0000000000000000e+00  0.0000000000000000e+00  0.0000000000000000e+00  0.0000000000000000e+00  0.0000000000000000e+00  0.0000000000000000e+00  0.0000000000000000e+00  0.0000000000000000e+00  0.0000000000000000e+00  0.0000000000000000e+00  0.0000000000000000e+00  0.0000000000000000e+00  0.0000000000000000e+00  0.0000000000000000e+00  0.0000000000000000e+00  0.0000000000000000e+00  0.0000000000000000e+00  0.0000000000000000e+00  0.0000000000000000e+00  0.0000000000000000e+00  0.0000000000000000e+00  0.0000000000000000e+00  0.0000000000000000e+00  0.0000000000000000e+00  0.0000000000000000e+00  0.0000000000000000e+00  0.0000000000000000e+00  0.0000000000000000e+00  0.0000000000000000e+00  0.0000000000000000e+00  0.0000000000000000e+00  0.0000000000000000e+00  0.0000000000000000e+00  </DataArray> 
</PointData> 
</Piece>
</UnstructuredGrid>
</VTKFile>